<event>
12    1  0.2269306E-007  0.2481649E+04  0.7818608E-02  0.8409553E-01
          2   -1    0    0  501    0  0.00000000000E+00  0.00000000000E+00  0.15416563461E+04  0.15416563461E+04  0.00000000000E+00 0. -1.
         -2   -1    0    0    0  501 -0.00000000000E+00 -0.00000000000E+00 -0.99869542853E+03  0.99869542853E+03  0.00000000000E+00 0.  1.
         23    2    1    2    0    0  0.58314823702E+03 -0.76475486215E+03 -0.25571297601E+03  0.99962568723E+03  0.94607203523E+02 0.  0.
        254    2    1    2    0    0 -0.58314823702E+03  0.76475486215E+03  0.79867389362E+03  0.15407260874E+04  0.90058038101E+03 0.  0.
        -24    2    4    4    0    0 -0.21167515304E+03  0.26026063410E+03 -0.16994460391E+03  0.38438886035E+03  0.79571725389E+02 0.  0.
         24    2    4    4    0    0 -0.37147308397E+03  0.50449422805E+03  0.96861849754E+03  0.11563372271E+04  0.79920652785E+02 0.  0.
         11    1    3    3    0    0  0.97880034423E+02 -0.19023579107E+03 -0.68492027858E+02  0.22463596155E+03  0.00000000000E+00 0.  1.
        -11    1    3    3    0    0  0.48526820259E+03 -0.57451907108E+03 -0.18722094815E+03  0.77498972568E+03  0.00000000000E+00 0. -1.
          2    1    6    6  502    0 -0.69579665992E+02  0.89613664509E+02  0.12389730486E+03  0.16799547892E+03  0.00000000000E+00 0. -1.
          3    1    5    5  503    0 -0.29256978853E+01  0.28445138617E+02  0.11082856526E+01  0.28616671997E+02  0.00000000000E+00 0. -1.
         -4    1    5    5    0  503 -0.20874945516E+03  0.23181549548E+03 -0.17105288957E+03  0.35577218835E+03  0.00000000000E+00 0.  1.
         -1    1    6    6    0  502 -0.30189341798E+03  0.41488056354E+03  0.84472119268E+03  0.98834174817E+03  0.00000000000E+00 0.  1.
<mgrwt>
<rscale>  0 0.24816488E+04</rscale>
<asrwt>0</asrwt>
<pdfrwt beam="1">  1        2 0.23717790E+00 0.24816488E+04</pdfrwt>
<pdfrwt beam="2">  1       -2 0.15364545E+00 0.24816488E+04</pdfrwt>
<totfact> 0.30194098E+00</totfact>
</mgrwt>
</event>
<event>
12    1  0.2048318E-007  0.4166318E+04  0.7818608E-02  0.7971810E-01
          1   -1    0    0  501    0  0.00000000000E+00  0.00000000000E+00  0.25416488700E+04  0.25416488700E+04  0.00000000000E+00 0. -1.
         -1   -1    0    0    0  501 -0.00000000000E+00 -0.00000000000E+00 -0.17073766951E+04  0.17073766951E+04  0.00000000000E+00 0.  1.
         23    2    1    2    0    0  0.37655247416E+03  0.19154102489E+04  0.28199570002E+02  0.19544000479E+04  0.91083171265E+02 0.  0.
        254    2    1    2    0    0 -0.37655247416E+03 -0.19154102489E+04  0.80607260487E+03  0.22946255172E+04  0.89719843550E+03 0.  0.
        -24    2    4    4    0    0 -0.21281483332E+03 -0.64102423212E+01  0.44957016126E+02  0.23135328296E+03  0.78561846665E+02 0.  0.
         24    2    4    4    0    0 -0.16373764084E+03 -0.19090000066E+04  0.76111558875E+03  0.20632722343E+04  0.81879992571E+02 0.  0.
         13    1    3    3    0    0  0.16569276679E+03  0.81617799554E+03 -0.32724761856E+02  0.83346956957E+03  0.00000000000E+00 0.  1.
        -13    1    3    3    0    0  0.21085970737E+03  0.10992322534E+04  0.60924331858E+02  0.11209304783E+04  0.00000000000E+00 0. -1.
          4    1    6    6  502    0 -0.13266100183E+03 -0.11428711476E+04  0.47869478023E+03  0.12461549238E+04  0.00000000000E+00 0. -1.
          1    1    5    5  503    0 -0.10002326714E+03  0.29271095839E+02 -0.15745665475E+01  0.10423017931E+03  0.00000000000E+00 0. -1.
         -2    1    5    5    0  503 -0.11279156618E+03 -0.35681338160E+02  0.46531582673E+02  0.12712310365E+03  0.00000000000E+00 0.  1.
         -3    1    6    6    0  502 -0.31076639012E+02 -0.76612885899E+03  0.28242080852E+03  0.81711731052E+03  0.00000000000E+00 0.  1.
<mgrwt>
<rscale>  0 0.41663183E+04</rscale>
<asrwt>0</asrwt>
<pdfrwt beam="1">  1        1 0.39102290E+00 0.41663183E+04</pdfrwt>
<pdfrwt beam="2">  1       -1 0.26267334E+00 0.41663183E+04</pdfrwt>
<totfact> 0.56411435E-02</totfact>
</mgrwt>
</event>
<event>
12    1  0.2048318E-007  0.2031732E+04  0.7818608E-02  0.8591927E-01
         -1   -1    0    0    0  501 -0.00000000000E+00  0.00000000000E+00  0.21006143639E+04  0.21006143639E+04  0.00000000000E+00 0.  1.
          1   -1    0    0  501    0  0.00000000000E+00 -0.00000000000E+00 -0.49127700921E+03  0.49127700921E+03  0.00000000000E+00 0. -1.
         23    2    1    2    0    0 -0.67994610872E+03 -0.27976794387E+02  0.12117910651E+04  0.13940125627E+04  0.10827755019E+03 0.  0.
        254    2    1    2    0    0  0.67994610872E+03  0.27976794387E+02  0.39754628963E+03  0.11978788104E+04  0.90208712450E+03 0.  0.
        -24    2    4    4    0    0  0.36725060867E+03  0.56597280979E+02  0.67255080023E+03  0.77246393697E+03  0.79370606912E+02 0.  0.
         24    2    4    4    0    0  0.31269550005E+03 -0.28620486592E+02 -0.27500451060E+03  0.42541487343E+03  0.82174969879E+02 0.  0.
         13    1    3    3    0    0 -0.22095115659E+03 -0.52339087992E+02  0.34767564744E+03  0.41525552320E+03  0.00000000000E+00 0.  1.
        -13    1    3    3    0    0 -0.45899495213E+03  0.24362293606E+02  0.86411541762E+03  0.97875703951E+03  0.00000000000E+00 0. -1.
          2    1    6    6  502    0  0.26966723283E+03 -0.50644383174E+02 -0.21640334439E+03  0.34945053652E+03  0.00000000000E+00 0. -1.
          3    1    5    5  503    0  0.21020239207E+03  0.64952046766E+02  0.34616407177E+03  0.41016262457E+03  0.00000000000E+00 0. -1.
         -4    1    5    5    0  503  0.15704821660E+03 -0.83547657868E+01  0.32638672846E+03  0.36230131239E+03  0.00000000000E+00 0.  1.
         -1    1    6    6    0  502  0.43028267228E+02  0.22023896582E+02 -0.58601166205E+02  0.75964336908E+02  0.00000000000E+00 0.  1.
<mgrwt>
<rscale>  0 0.20317318E+04</rscale>
<asrwt>0</asrwt>
<pdfrwt beam="1">  1        1 0.75581079E-01 0.20317318E+04</pdfrwt>
<pdfrwt beam="2">  1       -1 0.32317144E+00 0.20317318E+04</pdfrwt>
<totfact> 0.98135822E-01</totfact>
</mgrwt>
</event>
<event>
12    1  0.2048318E-007  0.2654440E+04  0.7818608E-02  0.8349941E-01
         -2   -1    0    0    0  501 -0.00000000000E+00  0.00000000000E+00  0.53235850295E+03  0.53235850295E+03  0.00000000000E+00 0.  1.
          2   -1    0    0  501    0  0.00000000000E+00 -0.00000000000E+00 -0.33088855360E+04  0.33088855360E+04  0.00000000000E+00 0. -1.
         23    2    1    2    0    0  0.77961270094E+03 -0.81868373958E+03 -0.16822177584E+04  0.20287013998E+04  0.87941765360E+02 0.  0.
        254    2    1    2    0    0 -0.77961270094E+03  0.81868373958E+03 -0.10943092746E+04  0.18125426391E+04  0.89986610176E+03 0.  0.
        -24    2    4    4    0    0 -0.95354446338E+03  0.51624140981E+03 -0.83523192594E+03  0.13711068108E+04  0.81051093212E+02 0.  0.
         24    2    4    4    0    0  0.17393176244E+03  0.30244232977E+03 -0.25907734870E+03  0.44143582829E+03  0.77594439683E+02 0.  0.
         13    1    3    3    0    0  0.52025729423E+03 -0.48552328801E+03 -0.10433293294E+04  0.12629079955E+04  0.00000000000E+00 0. -1.
        -13    1    3    3    0    0  0.25935540671E+03 -0.33316045157E+03 -0.63888842898E+03  0.76579340436E+03  0.00000000000E+00 0.  1.
          2    1    6    6  502    0  0.15259704915E+03  0.19374994171E+03 -0.17660795149E+03  0.30334018503E+03  0.00000000000E+00 0. -1.
          1    1    5    5  503    0 -0.71485493351E+03  0.42026668072E+03 -0.66006943695E+03  0.10598742003E+04  0.00000000000E+00 0. -1.
         -2    1    5    5    0  503 -0.23868952987E+03  0.95974729096E+02 -0.17516248899E+03  0.31123261051E+03  0.00000000000E+00 0.  1.
         -1    1    6    6    0  502  0.21334713288E+02  0.10869238806E+03 -0.82469397206E+02  0.13809564326E+03  0.00000000000E+00 0.  1.
<mgrwt>
<rscale>  0 0.26544403E+04</rscale>
<asrwt>0</asrwt>
<pdfrwt beam="1">  1        2 0.50905932E+00 0.26544403E+04</pdfrwt>
<pdfrwt beam="2">  1       -2 0.81901307E-01 0.26544403E+04</pdfrwt>
<totfact> 0.12684874E+00</totfact>
</mgrwt>
</event>
<event>
12    1  0.2048318E-007  0.1806772E+04  0.7818608E-02  0.8702706E-01
          2   -1    0    0  501    0  0.00000000000E+00  0.00000000000E+00  0.99837230737E+03  0.99837230737E+03  0.00000000000E+00 0. -1.
         -2   -1    0    0    0  501 -0.00000000000E+00 -0.00000000000E+00 -0.81743717595E+03  0.81743717595E+03  0.00000000000E+00 0.  1.
         23    2    1    2    0    0 -0.53077139877E+03 -0.27087872451E+03 -0.24812800906E+03  0.65156143170E+03  0.88719948519E+02 0.  0.
        254    2    1    2    0    0  0.53077139877E+03  0.27087872451E+03  0.42906314047E+03  0.11642480516E+04  0.90348480122E+03 0.  0.
        -24    2    4    4    0    0  0.19520310088E+03  0.15188039165E+03 -0.27067112438E+03  0.37510452576E+03  0.79174766891E+02 0.  0.
         24    2    4    4    0    0  0.33556829789E+03  0.11899833285E+03  0.69973426486E+03  0.78914352585E+03  0.79704311068E+02 0.  0.
         11    1    3    3    0    0 -0.19446321406E+03 -0.10366620378E+03 -0.46287625480E+02  0.22517807997E+03  0.00000000000E+00 0. -1.
        -11    1    3    3    0    0 -0.33630818471E+03 -0.16721252073E+03 -0.20184038358E+03  0.42638335173E+03  0.00000000000E+00 0.  1.
          4    1    6    6  502    0  0.22931321229E+03  0.83519282515E+02  0.55365097310E+03  0.60505323725E+03  0.00000000000E+00 0. -1.
          3    1    5    5  503    0  0.16542286201E+03  0.11434685768E+03 -0.16888829166E+03  0.26260841989E+03  0.00000000000E+00 0. -1.
         -4    1    5    5    0  503  0.29780238866E+02  0.37533533978E+02 -0.10178283272E+03  0.11249610588E+03  0.00000000000E+00 0.  1.
         -3    1    6    6    0  502  0.10625508560E+03  0.35479050337E+02  0.14608329175E+03  0.18409028860E+03  0.00000000000E+00 0.  1.
<mgrwt>
<rscale>  0 0.18067724E+04</rscale>
<asrwt>0</asrwt>
<pdfrwt beam="1">  1        2 0.15359574E+00 0.18067724E+04</pdfrwt>
<pdfrwt beam="2">  1       -2 0.12575957E+00 0.18067724E+04</pdfrwt>
<totfact> 0.11250967E+01</totfact>
</mgrwt>
</event>
<event>
12    1  0.2048318E-007  0.3323848E+04  0.7818608E-02  0.8156854E-01
         -2   -1    0    0    0  501 -0.00000000000E+00  0.00000000000E+00  0.14612783913E+04  0.14612783913E+04  0.00000000000E+00 0. -1.
          2   -1    0    0  501    0  0.00000000000E+00 -0.00000000000E+00 -0.18901199921E+04  0.18901199921E+04  0.00000000000E+00 0.  1.
         23    2    1    2    0    0  0.14802666533E+04  0.40869451891E+03 -0.29595982333E+03  0.15666547050E+04  0.92704761654E+02 0.  0.
        254    2    1    2    0    0 -0.14802666533E+04 -0.40869451891E+03 -0.13288177751E+03  0.17847436784E+04  0.89968430908E+03 0.  0.
        -24    2    4    4    0    0  0.18002379412E+02 -0.77130675652E+02 -0.22056817689E+03  0.24567131450E+03  0.73694282839E+02 0.  0.
         24    2    4    4    0    0 -0.14982690328E+04 -0.33156384325E+03  0.87686399379E+02  0.15390723639E+04  0.79436515561E+02 0.  0.
         11    1    3    3    0    0  0.29836883557E+03  0.10390340737E+03 -0.29289207440E+02  0.31729755400E+03  0.00000000000E+00 0.  1.
        -11    1    3    3    0    0  0.11818978178E+04  0.30479111154E+03 -0.26667061589E+03  0.12493571510E+04  0.00000000000E+00 0. -1.
          2    1    6    6  502    0 -0.24020400423E+03 -0.83178918337E+02  0.17692505104E+02  0.25481310963E+03  0.00000000000E+00 0. -1.
          3    1    5    5  503    0 -0.70334361934E+01 -0.11190738489E+02  0.89480453577E+00  0.13247736704E+02  0.00000000000E+00 0. -1.
         -4    1    5    5    0  503  0.25035815605E+02 -0.65939937163E+02 -0.22146298142E+03  0.23242357780E+03  0.00000000000E+00 0.  1.
         -1    1    6    6    0  502 -0.12580650285E+04 -0.24838492492E+03  0.69993894275E+02  0.12842592543E+04  0.00000000000E+00 0.  1.
<mgrwt>
<rscale>  0 0.33238481E+04</rscale>
<asrwt>0</asrwt>
<pdfrwt beam="1">  1        2 0.29078769E+00 0.33238481E+04</pdfrwt>
<pdfrwt beam="2">  1       -2 0.22481206E+00 0.33238481E+04</pdfrwt>
<totfact> 0.59078087E-01</totfact>
</mgrwt>
</event>
<event>
12    1  0.2048318E-007  0.4447122E+04  0.7818608E-02  0.7919960E-01
         -2   -1    0    0    0  501 -0.00000000000E+00  0.00000000000E+00  0.17304131623E+04  0.17304131623E+04  0.00000000000E+00 0.  1.
          2   -1    0    0  501    0  0.00000000000E+00 -0.00000000000E+00 -0.28572501799E+04  0.28572501799E+04  0.00000000000E+00 0. -1.
         23    2    1    2    0    0  0.13013044724E+04 -0.89923572645E+03 -0.20146855832E+04  0.25628837778E+04  0.86006033337E+02 0.  0.
        254    2    1    2    0    0 -0.13013044724E+04  0.89923572645E+03  0.88784856555E+03  0.20247795644E+04  0.89968827243E+03 0.  0.
        -24    2    4    4    0    0 -0.10779926203E+04  0.66229010158E+03  0.23223231093E+03  0.12888189446E+04  0.80163317542E+02 0.  0.
         24    2    4    4    0    0 -0.22331185202E+03  0.23694562486E+03  0.65561625462E+03  0.73596061983E+03  0.76117988823E+02 0.  0.
         13    1    3    3    0    0  0.58061422760E+03 -0.38028130682E+03 -0.82093762330E+03  0.10750187603E+04  0.00000000000E+00 0.  1.
        -13    1    3    3    0    0  0.72069024476E+03 -0.51895441963E+03 -0.11937479599E+04  0.14878650175E+04  0.00000000000E+00 0. -1.
          2    1    6    6  502    0 -0.20712007117E+02  0.44790309186E+02  0.15587218586E+03  0.16349708670E+03  0.00000000000E+00 0. -1.
          1    1    5    5  503    0 -0.74702616273E+01  0.73563439996E+00 -0.38334232781E+01  0.84285883030E+01  0.00000000000E+00 0. -1.
         -2    1    5    5    0  503 -0.10705223587E+04  0.66155446718E+03  0.23606573420E+03  0.12803903563E+04  0.00000000000E+00 0.  1.
         -1    1    6    6    0  502 -0.20259984491E+03  0.19215531568E+03  0.49974406876E+03  0.57246353313E+03  0.00000000000E+00 0.  1.
<mgrwt>
<rscale>  0 0.44471219E+04</rscale>
<asrwt>0</asrwt>
<pdfrwt beam="1">  1        2 0.43957695E+00 0.44471219E+04</pdfrwt>
<pdfrwt beam="2">  1       -2 0.26621741E+00 0.44471219E+04</pdfrwt>
<totfact> 0.82988123E-02</totfact>
</mgrwt>
</event>
<event>
12    1  0.2048318E-007  0.1436746E+04  0.7818608E-02  0.8927641E-01
          2   -1    0    0  501    0  0.00000000000E+00  0.00000000000E+00  0.24702684195E+04  0.24702684195E+04  0.00000000000E+00 0. -1.
         -2   -1    0    0    0  501 -0.00000000000E+00 -0.00000000000E+00 -0.20890844631E+03  0.20890844631E+03  0.00000000000E+00 0.  1.
         23    2    1    2    0    0  0.31278299237E+03  0.91405756255E+02  0.16695350507E+03  0.37595593218E+03  0.85329815985E+02 0.  0.
        254    2    1    2    0    0 -0.31278299237E+03 -0.91405756255E+02  0.20944064681E+04  0.23032209336E+04  0.90116591302E+03 0.  0.
        -24    2    4    4    0    0 -0.36377220843E+03 -0.45092462966E+03  0.13198596627E+04  0.14436236902E+04  0.79728214735E+02 0.  0.
         24    2    4    4    0    0  0.50989216058E+02  0.35951887340E+03  0.77454680536E+03  0.85959724344E+03  0.84444933216E+02 0.  0.
         13    1    3    3    0    0  0.96338392495E+02 -0.99430995576E+01  0.35204788874E+02  0.10305012497E+03  0.00000000000E+00 0. -1.
        -13    1    3    3    0    0  0.21644459988E+03  0.10134885581E+03  0.13174871619E+03  0.27290580721E+03  0.00000000000E+00 0.  1.
          2    1    6    6  502    0  0.57182230076E+02  0.33902584038E+03  0.75868400077E+03  0.83295242415E+03  0.00000000000E+00 0. -1.
          3    1    5    5  503    0 -0.19617516962E+03 -0.18012221084E+03  0.59370847315E+03  0.65070612345E+03  0.00000000000E+00 0. -1.
         -4    1    5    5    0  503 -0.16759703881E+03 -0.27080241882E+03  0.72615118959E+03  0.79291756672E+03  0.00000000000E+00 0.  1.
         -1    1    6    6    0  502 -0.61930140185E+01  0.20493033023E+02  0.15862804588E+02  0.26644819281E+02  0.00000000000E+00 0.  1.
<mgrwt>
<rscale>  0 0.14367462E+04</rscale>
<asrwt>0</asrwt>
<pdfrwt beam="1">  1        2 0.38004127E+00 0.14367462E+04</pdfrwt>
<pdfrwt beam="2">  1       -2 0.32139763E-01 0.14367462E+04</pdfrwt>
<totfact> 0.31774655E+01</totfact>
</mgrwt>
</event>
<event>
12    1  0.2048318E-007  0.3227143E+04  0.7818608E-02  0.8181685E-01
          1   -1    0    0  501    0  0.00000000000E+00  0.00000000000E+00  0.32350232776E+04  0.32350232776E+04  0.00000000000E+00 0. -1.
         -1   -1    0    0    0  501 -0.00000000000E+00 -0.00000000000E+00 -0.80482028487E+03  0.80482028487E+03  0.00000000000E+00 0.  1.
         23    2    1    2    0    0 -0.50267884749E+03 -0.12424231849E+04  0.19299980052E+04  0.23513510799E+04  0.87511180191E+02 0.  0.
        254    2    1    2    0    0  0.50267884749E+03  0.12424231849E+04  0.50020498756E+03  0.16884924826E+04  0.89693948516E+03 0.  0.
        -24    2    4    4    0    0  0.59704305298E+03  0.12958116874E+04  0.56882185869E+03  0.15380889429E+04  0.81061413922E+02 0.  0.
         24    2    4    4    0    0 -0.94364205488E+02 -0.53388502506E+02 -0.68616871136E+02  0.15040353973E+03  0.78473016272E+02 0.  0.
         11    1    3    3    0    0 -0.34873709624E+03 -0.78751319774E+03  0.12932636654E+04  0.15538099971E+04  0.00000000000E+00 0. -1.
        -11    1    3    3    0    0 -0.15394175125E+03 -0.45490998719E+03  0.63673433977E+03  0.79754108274E+03  0.00000000000E+00 0.  1.
          2    1    6    6  502    0 -0.98039911162E+01 -0.45857668555E+02 -0.37289811788E+02  0.59913054256E+02  0.00000000000E+00 0. -1.
          3    1    5    5  503    0  0.32876527428E+03  0.78587352846E+03  0.31147334473E+03  0.90702781257E+03  0.00000000000E+00 0. -1.
         -4    1    5    5    0  503  0.26827777870E+03  0.50993815898E+03  0.25734851396E+03  0.63106113029E+03  0.00000000000E+00 0.  1.
         -1    1    6    6    0  502 -0.84560214372E+02 -0.75308339514E+01 -0.31327059348E+02  0.90490485478E+02  0.00000000000E+00 0.  1.
<mgrwt>
<rscale>  0 0.32271426E+04</rscale>
<asrwt>0</asrwt>
<pdfrwt beam="1">  1        1 0.49769588E+00 0.32271426E+04</pdfrwt>
<pdfrwt beam="2">  1       -1 0.12381851E+00 0.32271426E+04</pdfrwt>
<totfact> 0.19113446E-01</totfact>
</mgrwt>
</event>
<event>
12    1  0.2048318E-007  0.2215138E+04  0.7818608E-02  0.8512154E-01
         -1   -1    0    0    0  501 -0.00000000000E+00  0.00000000000E+00  0.12966533993E+04  0.12966533993E+04  0.00000000000E+00 0.  1.
          1   -1    0    0  501    0  0.00000000000E+00 -0.00000000000E+00 -0.94605766801E+03  0.94605766801E+03  0.00000000000E+00 0. -1.
         23    2    1    2    0    0  0.72287511651E+03  0.55927938689E+03  0.26915468808E+03  0.95731067516E+03  0.93046311031E+02 0.  0.
        254    2    1    2    0    0 -0.72287511651E+03 -0.55927938689E+03  0.81441043165E+02  0.12854003921E+04  0.90015535206E+03 0.  0.
        -24    2    4    4    0    0  0.14538040018E+03 -0.24430029468E+03 -0.14830116571E+03  0.33002999185E+03  0.78156669770E+02 0.  0.
         24    2    4    4    0    0 -0.86825551670E+03 -0.31497909221E+03  0.22974220888E+03  0.95537040026E+03  0.82895406095E+02 0.  0.
         13    1    3    3    0    0  0.43281772515E+03  0.38030357752E+03  0.19713927474E+03  0.60895475031E+03  0.00000000000E+00 0.  1.
        -13    1    3    3    0    0  0.29005739136E+03  0.17897580937E+03  0.72015413334E+02  0.34835592485E+03  0.00000000000E+00 0. -1.
          4    1    6    6  502    0 -0.30542685096E+03 -0.14413231183E+03  0.10934188766E+03  0.35498638425E+03  0.00000000000E+00 0. -1.
          1    1    5    5  503    0  0.27903068469E+02 -0.39317297826E+02 -0.61913936011E+02  0.78471438184E+02  0.00000000000E+00 0. -1.
         -2    1    5    5    0  503  0.11747733172E+03 -0.20498299685E+03 -0.86387229701E+02  0.25155855366E+03  0.00000000000E+00 0.  1.
         -3    1    6    6    0  502 -0.56282866573E+03 -0.17084678038E+03  0.12040032121E+03  0.60038401601E+03  0.00000000000E+00 0.  1.
<mgrwt>
<rscale>  0 0.22151378E+04</rscale>
<asrwt>0</asrwt>
<pdfrwt beam="1">  1        1 0.14554733E+00 0.22151378E+04</pdfrwt>
<pdfrwt beam="2">  1       -1 0.19948514E+00 0.22151378E+04</pdfrwt>
<totfact> 0.23066590E+00</totfact>
</mgrwt>
</event>
<event>
12    1  0.2048318E-007  0.2396687E+04  0.7818608E-02  0.8440745E-01
         -2   -1    0    0    0  501 -0.00000000000E+00  0.00000000000E+00  0.10728305090E+04  0.10728305090E+04  0.00000000000E+00 0.  1.
          2   -1    0    0  501    0  0.00000000000E+00 -0.00000000000E+00 -0.13385403187E+04  0.13385403187E+04  0.00000000000E+00 0. -1.
         23    2    1    2    0    0 -0.58151629124E+03  0.61417471670E+03 -0.70045889580E+03  0.11019704695E+04  0.91238540287E+02 0.  0.
        254    2    1    2    0    0  0.58151629124E+03 -0.61417471670E+03  0.43474908611E+03  0.13094003582E+04  0.90008374645E+03 0.  0.
        -24    2    4    4    0    0  0.59682770315E+02 -0.58687283030E+03  0.49961029610E+03  0.77709043064E+03  0.79229649821E+02 0.  0.
         24    2    4    4    0    0  0.52183352093E+03 -0.27301886403E+02 -0.64861209992E+02  0.53230992758E+03  0.78046562204E+02 0.  0.
         11    1    3    3    0    0 -0.11515038556E+03  0.16742877805E+03 -0.13879079939E+03  0.24607903814E+03  0.00000000000E+00 0. -1.
        -11    1    3    3    0    0 -0.46636590568E+03  0.44674593865E+03 -0.56166809641E+03  0.85589143132E+03  0.00000000000E+00 0.  1.
          4    1    6    6  502    0  0.47578188330E+03 -0.26843745836E+02 -0.81272523106E+02  0.48341929024E+03  0.00000000000E+00 0. -1.
          3    1    5    5  503    0  0.51101728888E+02 -0.55179893604E+03  0.44086475962E+03  0.70813500746E+03  0.00000000000E+00 0. -1.
         -4    1    5    5    0  503  0.85810414276E+01 -0.35073894255E+02  0.58745536474E+02  0.68955423179E+02  0.00000000000E+00 0.  1.
         -3    1    6    6    0  502  0.46051637629E+02 -0.45814056695E+00  0.16411313113E+02  0.48890637337E+02  0.00000000000E+00 0.  1.
<mgrwt>
<rscale>  0 0.23966868E+04</rscale>
<asrwt>0</asrwt>
<pdfrwt beam="1">  1        2 0.20592928E+00 0.23966868E+04</pdfrwt>
<pdfrwt beam="2">  1       -2 0.16505085E+00 0.23966868E+04</pdfrwt>
<totfact> 0.32670029E+00</totfact>
</mgrwt>
</event>
<event>
12    1  0.2048318E-007  0.4313687E+04  0.7818608E-02  0.7944092E-01
          2   -1    0    0  501    0  0.00000000000E+00  0.00000000000E+00  0.22353974793E+04  0.22353974793E+04  0.00000000000E+00 0. -1.
         -2   -1    0    0    0  501 -0.00000000000E+00 -0.00000000000E+00 -0.20810496391E+04  0.20810496391E+04  0.00000000000E+00 0.  1.
         23    2    1    2    0    0  0.90582151263E+03  0.18511219267E+04  0.98152884307E+01  0.20629659586E+04  0.92559204230E+02 0.  0.
        254    2    1    2    0    0 -0.90582151263E+03 -0.18511219267E+04  0.14453255186E+03  0.22534811598E+04  0.90006815236E+03 0.  0.
        -24    2    4    4    0    0 -0.28244221556E+03 -0.12076936280E+04  0.42166907850E+03  0.13124848969E+04  0.80711143766E+02 0.  0.
         24    2    4    4    0    0 -0.62337929708E+03 -0.64342829869E+03 -0.27713652663E+03  0.94099626287E+03  0.77894728694E+02 0.  0.
         11    1    3    3    0    0  0.97309581770E+02  0.18938994510E+03 -0.26888332822E+02  0.21461753994E+03  0.00000000000E+00 0.  1.
        -11    1    3    3    0    0  0.80851193086E+03  0.16617319816E+04  0.36703621253E+02  0.18483484187E+04  0.00000000000E+00 0. -1.
          2    1    6    6  502    0 -0.60975350113E+03 -0.61801672148E+03 -0.25566627023E+03  0.90504654129E+03  0.00000000000E+00 0. -1.
          3    1    5    5  503    0 -0.11154024045E+03 -0.53956509683E+03  0.14777592569E+03  0.57044670494E+03  0.00000000000E+00 0. -1.
         -4    1    5    5    0  503 -0.17090197510E+03 -0.66812853115E+03  0.27389315281E+03  0.74203819200E+03  0.00000000000E+00 0.  1.
         -1    1    6    6    0  502 -0.13625795951E+02 -0.25411577216E+02 -0.21470256406E+02  0.35949721585E+02  0.00000000000E+00 0.  1.
<mgrwt>
<rscale>  0 0.43136866E+04</rscale>
<asrwt>0</asrwt>
<pdfrwt beam="1">  1        2 0.34390731E+00 0.43136866E+04</pdfrwt>
<pdfrwt beam="2">  1       -2 0.32016148E+00 0.43136866E+04</pdfrwt>
<totfact> 0.90624998E-02</totfact>
</mgrwt>
</event>
<event>
12    1  0.2048318E-007  0.1496421E+04  0.7818608E-02  0.8886837E-01
          1   -1    0    0  501    0  0.00000000000E+00  0.00000000000E+00  0.20270270679E+04  0.20270270679E+04  0.00000000000E+00 0. -1.
         -1   -1    0    0    0  501 -0.00000000000E+00 -0.00000000000E+00 -0.27617717468E+03  0.27617717468E+03  0.00000000000E+00 0.  1.
         23    2    1    2    0    0 -0.28355124380E+03  0.64369603151E+02 -0.98502660093E+01  0.30520673756E+03  0.92246253261E+02 0.  0.
        254    2    1    2    0    0  0.28355124380E+03 -0.64369603151E+02  0.17607001593E+04  0.19979975051E+04  0.89854561693E+03 0.  0.
        -24    2    4    4    0    0  0.91381911946E+02  0.39473944563E+03  0.56120528784E+03  0.69680342490E+03  0.80085916856E+02 0.  0.
         24    2    4    4    0    0  0.19216933186E+03 -0.45910904878E+03  0.11994948714E+04  0.13011940802E+04  0.81289094478E+02 0.  0.
         13    1    3    3    0    0 -0.24558735580E+03  0.75524289648E+02 -0.33494589928E+02  0.25911185849E+03  0.00000000000E+00 0.  1.
        -13    1    3    3    0    0 -0.37963888006E+02 -0.11154686497E+02  0.23644323918E+02  0.46094879075E+02  0.00000000000E+00 0. -1.
          4    1    6    6  502    0  0.69850412042E+02 -0.25221027264E+03  0.56378279511E+03  0.62156266116E+03  0.00000000000E+00 0. -1.
          1    1    5    5  503    0  0.99632469028E+01  0.12144747140E+02  0.54271331768E+02  0.56499014361E+02  0.00000000000E+00 0. -1.
         -2    1    5    5    0  503  0.81418665043E+02  0.38259469849E+03  0.50693395607E+03  0.64030441054E+03  0.00000000000E+00 0.  1.
         -3    1    6    6    0  502  0.12231891981E+03 -0.20689877614E+03  0.63571207631E+03  0.67963141899E+03  0.00000000000E+00 0.  1.
<mgrwt>
<rscale>  0 0.14964205E+04</rscale>
<asrwt>0</asrwt>
<pdfrwt beam="1">  1        1 0.31185031E+00 0.14964205E+04</pdfrwt>
<pdfrwt beam="2">  1       -1 0.42488797E-01 0.14964205E+04</pdfrwt>
<totfact> 0.15075201E+01</totfact>
</mgrwt>
</event>
<event>
12    1  0.2048318E-007  0.2581471E+04  0.7818608E-02  0.8374522E-01
         -4   -1    0    0    0  501 -0.00000000000E+00  0.00000000000E+00  0.20936031618E+04  0.20936031618E+04  0.00000000000E+00 0.  1.
          4   -1    0    0  501    0  0.00000000000E+00 -0.00000000000E+00 -0.79575644881E+03  0.79575644881E+03  0.00000000000E+00 0. -1.
         23    2    1    2    0    0  0.99414997032E+03  0.37661121450E+03  0.10056250345E+04  0.14661962566E+04  0.90992210774E+02 0.  0.
        254    2    1    2    0    0 -0.99414997032E+03 -0.37661121450E+03  0.29222167853E+03  0.14231633541E+04  0.89990569093E+03 0.  0.
        -24    2    4    4    0    0 -0.29242492248E+03  0.28119582269E+03  0.18221269226E+03  0.45185816738E+03  0.79943181187E+02 0.  0.
         24    2    4    4    0    0 -0.70172504784E+03 -0.65780703719E+03  0.11000898626E+03  0.97130518668E+03  0.78763238107E+02 0.  0.
         13    1    3    3    0    0  0.52906206350E+03  0.18497330230E+03  0.58898052485E+03  0.81303127138E+03  0.00000000000E+00 0.  1.
        -13    1    3    3    0    0  0.46508790683E+03  0.19163791219E+03  0.41664450966E+03  0.65316498521E+03  0.00000000000E+00 0. -1.
          4    1    6    6  502    0 -0.49975615402E+03 -0.51547944347E+03  0.83689958813E+02  0.72282728180E+03  0.00000000000E+00 0. -1.
          1    1    5    5  503    0 -0.25364497573E+03  0.26225322714E+03  0.18408982873E+03  0.40865828500E+03  0.00000000000E+00 0. -1.
         -2    1    5    5    0  503 -0.38779946752E+02  0.18942595554E+02 -0.18771364650E+01  0.43199882381E+02  0.00000000000E+00 0.  1.
         -3    1    6    6    0  502 -0.20196889382E+03 -0.14232759372E+03  0.26319027450E+02  0.24847790488E+03  0.00000000000E+00 0.  1.
<mgrwt>
<rscale>  0 0.25814711E+04</rscale>
<asrwt>0</asrwt>
<pdfrwt beam="1">  1        4 0.12242407E+00 0.25814711E+04</pdfrwt>
<pdfrwt beam="2">  1       -4 0.32209279E+00 0.25814711E+04</pdfrwt>
<totfact> 0.19945372E-02</totfact>
</mgrwt>
</event>
<event>
12    1  0.2048318E-007  0.2818020E+04  0.7818608E-02  0.8297696E-01
         -1   -1    0    0    0  501 -0.00000000000E+00  0.00000000000E+00  0.64581761059E+03  0.64581761059E+03  0.00000000000E+00 0.  1.
          1   -1    0    0  501    0  0.00000000000E+00 -0.00000000000E+00 -0.30741023949E+04  0.30741023949E+04  0.00000000000E+00 0. -1.
         23    2    1    2    0    0 -0.93720436871E+03  0.55117378615E+03 -0.24028040522E+03  0.11171725408E+04  0.90527573470E+02 0.  0.
        254    2    1    2    0    0  0.93720436871E+03 -0.55117378615E+03 -0.21880043791E+04  0.26027474647E+04  0.89709900830E+03 0.  0.
        -24    2    4    4    0    0 -0.14056861352E+03  0.41490128750E+02 -0.37943993428E+03  0.41408659095E+03  0.77537572749E+02 0.  0.
         24    2    4    4    0    0  0.10777729822E+04 -0.59266391491E+03 -0.18085644449E+04  0.21886608738E+04  0.80535407821E+02 0.  0.
         11    1    3    3    0    0 -0.66119725183E+03  0.34344809484E+03 -0.18000507364E+03  0.76651172607E+03  0.00000000000E+00 0. -1.
        -11    1    3    3    0    0 -0.27600711689E+03  0.20772569132E+03 -0.60275331588E+02  0.35066081475E+03  0.00000000000E+00 0.  1.
          2    1    6    6  502    0  0.62513790329E+03 -0.38531646344E+03 -0.10504559056E+04  0.12816878655E+04  0.00000000000E+00 0. -1.
          1    1    5    5  503    0 -0.52230023001E+02  0.52660794076E+01 -0.23605724079E+03  0.24182375364E+03  0.00000000000E+00 0. -1.
         -4    1    5    5    0  503 -0.88338590517E+02  0.36224049343E+02 -0.14338269348E+03  0.17226283730E+03  0.00000000000E+00 0.  1.
         -1    1    6    6    0  502  0.45263507894E+03 -0.20734745147E+03 -0.75810853928E+03  0.90697300823E+03  0.00000000000E+00 0.  1.
<mgrwt>
<rscale>  0 0.28180202E+04</rscale>
<asrwt>0</asrwt>
<pdfrwt beam="1">  1        1 0.47293883E+00 0.28180202E+04</pdfrwt>
<pdfrwt beam="2">  1       -1 0.99356555E-01 0.28180202E+04</pdfrwt>
<totfact> 0.44070165E-01</totfact>
</mgrwt>
</event>
<event>
12    1  0.2048318E-007  0.1589561E+04  0.7818608E-02  0.8826987E-01
         -2   -1    0    0    0  501 -0.00000000000E+00  0.00000000000E+00  0.45642310879E+03  0.45642310879E+03  0.00000000000E+00 0.  1.
          2   -1    0    0  501    0  0.00000000000E+00 -0.00000000000E+00 -0.13839694952E+04  0.13839694952E+04  0.00000000000E+00 0. -1.
         23    2    1    2    0    0 -0.11534298833E+03 -0.12883452540E+03  0.27031428400E+03  0.33347723798E+03  0.90746439177E+02 0.  0.
        254    2    1    2    0    0  0.11534298833E+03  0.12883452540E+03 -0.11978606704E+04  0.15069153660E+04  0.89778694281E+03 0.  0.
        -24    2    4    4    0    0  0.12932755879E+03 -0.10659223224E+03 -0.12398950265E+04  0.12542157438E+04  0.87349493289E+02 0.  0.
         24    2    4    4    0    0 -0.13984570458E+02  0.23542675764E+03  0.42034356088E+02  0.25269962214E+03  0.80429382172E+02 0.  0.
         13    1    3    3    0    0 -0.45332562276E+02 -0.11389212651E+03  0.18744581078E+03  0.22396961772E+03  0.00000000000E+00 0.  1.
        -13    1    3    3    0    0 -0.70010426052E+02 -0.14942398895E+02  0.82868473220E+02  0.10950762026E+03  0.00000000000E+00 0. -1.
          4    1    6    6  502    0  0.23657404732E+02  0.18359768383E+03  0.32083641152E+02  0.18787533722E+03  0.00000000000E+00 0. -1.
          1    1    5    5  503    0  0.47466657067E+02 -0.94438233243E+02 -0.64811684655E+03  0.65667884861E+03  0.00000000000E+00 0. -1.
         -2    1    5    5    0  503  0.81860901719E+02 -0.12153998994E+02 -0.59177817992E+03  0.59753689522E+03  0.00000000000E+00 0.  1.
         -3    1    6    6    0  502 -0.37641975189E+02  0.51829073810E+02  0.99507149364E+01  0.64824284924E+02  0.00000000000E+00 0.  1.
<mgrwt>
<rscale>  0 0.15895605E+04</rscale>
<asrwt>0</asrwt>
<pdfrwt beam="1">  1        2 0.21291838E+00 0.15895605E+04</pdfrwt>
<pdfrwt beam="2">  1       -2 0.70218941E-01 0.15895605E+04</pdfrwt>
<totfact> 0.26188173E+01</totfact>
</mgrwt>
</event>
<event>
12    1  0.2048318E-007  0.2295009E+04  0.7818608E-02  0.8479892E-01
         -2   -1    0    0    0  501 -0.00000000000E+00  0.00000000000E+00  0.49510497635E+03  0.49510497635E+03  0.00000000000E+00 0.  1.
          2   -1    0    0  501    0  0.00000000000E+00 -0.00000000000E+00 -0.26595698270E+04  0.26595698270E+04  0.00000000000E+00 0. -1.
         23    2    1    2    0    0 -0.80274316316E+03  0.52643260086E+03 -0.73979961375E+03  0.12159341182E+04  0.98307894317E+02 0.  0.
        254    2    1    2    0    0  0.80274316316E+03 -0.52643260086E+03 -0.14246652369E+04  0.19387406851E+04  0.89861923952E+03 0.  0.
        -24    2    4    4    0    0  0.54922539149E+03  0.14251551212E+03 -0.81147759591E+03  0.99333569402E+03  0.79124651581E+02 0.  0.
         24    2    4    4    0    0  0.25351777167E+03 -0.66894811298E+03 -0.61318764096E+03  0.94540499108E+03  0.77644547205E+02 0.  0.
         13    1    3    3    0    0 -0.41589304664E+03  0.29686337169E+03 -0.44957681764E+03  0.68059841512E+03  0.00000000000E+00 0.  1.
        -13    1    3    3    0    0 -0.38685011652E+03  0.22956922917E+03 -0.29022279611E+03  0.53533570310E+03  0.00000000000E+00 0. -1.
          4    1    6    6  502    0  0.25615618581E+03 -0.62471452704E+03 -0.57212753076E+03  0.88499386623E+03  0.00000000000E+00 0. -1.
          3    1    5    5  503    0  0.19183510958E+03  0.76699330030E+02 -0.24720886878E+03  0.32217343357E+03  0.00000000000E+00 0. -1.
         -4    1    5    5    0  503  0.35739028191E+03  0.65816182093E+02 -0.56426872714E+03  0.67116226045E+03  0.00000000000E+00 0.  1.
         -3    1    6    6    0  502 -0.26384141446E+01 -0.44233585948E+02 -0.41060110205E+02  0.60411124845E+02  0.00000000000E+00 0.  1.
<mgrwt>
<rscale>  0 0.22950087E+04</rscale>
<asrwt>0</asrwt>
<pdfrwt beam="1">  1        2 0.40916458E+00 0.22950087E+04</pdfrwt>
<pdfrwt beam="2">  1       -2 0.76169997E-01 0.22950087E+04</pdfrwt>
<totfact> 0.39278195E+00</totfact>
</mgrwt>
</event>
<event>
12    1  0.2048318E-007  0.3687972E+04  0.7818608E-02  0.8070633E-01
          2   -1    0    0  501    0  0.00000000000E+00  0.00000000000E+00  0.22495391887E+04  0.22495391887E+04  0.00000000000E+00 0. -1.
         -2   -1    0    0    0  501 -0.00000000000E+00 -0.00000000000E+00 -0.15115467852E+04  0.15115467852E+04  0.00000000000E+00 0.  1.
         23    2    1    2    0    0 -0.16558673795E+04  0.47997599989E+03  0.16797333367E+03  0.17346193164E+04  0.91735451261E+02 0.  0.
        254    2    1    2    0    0  0.16558673795E+04 -0.47997599989E+03  0.57001906979E+03  0.20264666574E+04  0.89965084041E+03 0.  0.
        -24    2    4    4    0    0  0.13210247661E+03 -0.23527475214E+03  0.37465632452E+03  0.46861857803E+03  0.80191875179E+02 0.  0.
         24    2    4    4    0    0  0.15237649029E+04 -0.24470124775E+03  0.19536274526E+03  0.15578480794E+04  0.83581434590E+02 0.  0.
         11    1    3    3    0    0 -0.10856323375E+04  0.35947327414E+03  0.10568893512E+03  0.11484723584E+04  0.00000000000E+00 0.  1.
        -11    1    3    3    0    0 -0.57023504205E+03  0.12050272575E+03  0.62284398559E+02  0.58614695802E+03  0.00000000000E+00 0. -1.
          4    1    6    6  502    0  0.11331898964E+04 -0.21530806975E+03  0.16137286948E+03  0.11646965739E+04  0.00000000000E+00 0. -1.
          3    1    5    5  503    0  0.88890175640E+02 -0.91322354668E+02  0.21030958558E+03  0.24590924662E+03  0.00000000000E+00 0. -1.
         -4    1    5    5    0  503  0.43212300974E+02 -0.14395239747E+03  0.16434673894E+03  0.22270933140E+03  0.00000000000E+00 0.  1.
         -3    1    6    6    0  502  0.39057500655E+03 -0.29393178004E+02  0.33989875783E+02  0.39315150554E+03  0.00000000000E+00 0.  1.
<mgrwt>
<rscale>  0 0.36879717E+04</rscale>
<asrwt>0</asrwt>
<pdfrwt beam="1">  1        2 0.34608295E+00 0.36879717E+04</pdfrwt>
<pdfrwt beam="2">  1       -2 0.23254566E+00 0.36879717E+04</pdfrwt>
<totfact> 0.32295305E-01</totfact>
</mgrwt>
</event>
<event>
12    1  0.2048318E-007  0.3167200E+04  0.7818608E-02  0.8197534E-01
         -1   -1    0    0    0  501 -0.00000000000E+00  0.00000000000E+00  0.91454418716E+03  0.91454418716E+03  0.00000000000E+00 0.  1.
          1   -1    0    0  501    0  0.00000000000E+00 -0.00000000000E+00 -0.27421195874E+04  0.27421195874E+04  0.00000000000E+00 0. -1.
         23    2    1    2    0    0 -0.40990551373E+03 -0.13184391108E+03 -0.24443388821E+04  0.24830836471E+04  0.74205667076E+02 0.  0.
        254    2    1    2    0    0  0.40990551373E+03  0.13184391108E+03  0.61676348181E+03  0.11735801275E+04  0.90082616305E+03 0.  0.
        -24    2    4    4    0    0  0.23042513111E+03  0.22827701743E+03 -0.15711082514E+03  0.36938672144E+03  0.80972840285E+02 0.  0.
         24    2    4    4    0    0  0.17948038262E+03 -0.96433106355E+02  0.77387430695E+03  0.80419340604E+03  0.79580397183E+02 0.  0.
         13    1    3    3    0    0 -0.17653479917E+03 -0.95095212249E+02 -0.10877809071E+04  0.11061080131E+04  0.00000000000E+00 0. -1.
        -13    1    3    3    0    0 -0.23337071455E+03 -0.36748698828E+02 -0.13565579749E+04  0.13769756340E+04  0.00000000000E+00 0.  1.
          4    1    6    6  502    0  0.49712062322E+02 -0.12266452980E+02  0.33434303115E+03  0.33824106417E+03  0.00000000000E+00 0. -1.
          1    1    5    5  503    0  0.70270032100E+02  0.31914725722E+02 -0.14203995921E+02  0.78474076161E+02  0.00000000000E+00 0. -1.
         -2    1    5    5    0  503  0.16015509901E+03  0.19636229171E+03 -0.14290682922E+03  0.29091264527E+03  0.00000000000E+00 0.  1.
         -3    1    6    6    0  502  0.12976832029E+03 -0.84166653375E+02  0.43953127580E+03  0.46595234187E+03  0.00000000000E+00 0.  1.
<mgrwt>
<rscale>  0 0.31672004E+04</rscale>
<asrwt>0</asrwt>
<pdfrwt beam="1">  1        1 0.42186454E+00 0.31672004E+04</pdfrwt>
<pdfrwt beam="2">  1       -1 0.14069911E+00 0.31672004E+04</pdfrwt>
<totfact> 0.31786586E-01</totfact>
</mgrwt>
</event>
<event>
12    1  0.2048318E-007  0.2196597E+04  0.7818608E-02  0.8519846E-01
          1   -1    0    0  501    0  0.00000000000E+00  0.00000000000E+00  0.55633651212E+03  0.55633651212E+03  0.00000000000E+00 0. -1.
         -1   -1    0    0    0  501 -0.00000000000E+00 -0.00000000000E+00 -0.21682186920E+04  0.21682186920E+04  0.00000000000E+00 0.  1.
         23    2    1    2    0    0 -0.56156293481E+03 -0.61989082603E+03 -0.11211301722E+04  0.14015391944E+04  0.88100422258E+02 0.  0.
        254    2    1    2    0    0  0.56156293481E+03  0.61989082603E+03 -0.49075200774E+03  0.13230160098E+04  0.89995347833E+03 0.  0.
        -24    2    4    4    0    0  0.77961210544E+03  0.59973553731E+03 -0.34286654800E+03  0.10449002044E+04  0.82348149492E+02 0.  0.
         24    2    4    4    0    0 -0.21804917063E+03  0.20155288725E+02 -0.14788545974E+03  0.27811580542E+03  0.86756069227E+02 0.  0.
         11    1    3    3    0    0 -0.44714506182E+03 -0.45530594544E+03 -0.89712800753E+03  0.11009454447E+04  0.00000000000E+00 0.  1.
        -11    1    3    3    0    0 -0.11441787299E+03 -0.16458488059E+03 -0.22400216464E+03  0.30059374967E+03  0.00000000000E+00 0. -1.
          4    1    6    6  502    0 -0.33820076085E+02  0.37414185152E+02 -0.28952495369E+02  0.58153811441E+02  0.00000000000E+00 0. -1.
          3    1    5    5  503    0  0.44843649451E+02  0.60010142532E+02 -0.17928203265E+02  0.77029803162E+02  0.00000000000E+00 0. -1.
         -4    1    5    5    0  503  0.73476845599E+03  0.53972539478E+03 -0.32493834474E+03  0.96787040122E+03  0.00000000000E+00 0.  1.
         -3    1    6    6    0  502 -0.18422909454E+03 -0.17258896427E+02 -0.11893296437E+03  0.21996199398E+03  0.00000000000E+00 0.  1.
<mgrwt>
<rscale>  0 0.21965967E+04</rscale>
<asrwt>0</asrwt>
<pdfrwt beam="1">  1        1 0.85590232E-01 0.21965967E+04</pdfrwt>
<pdfrwt beam="2">  1       -1 0.33357211E+00 0.21965967E+04</pdfrwt>
<totfact> 0.69475755E-01</totfact>
</mgrwt>
</event>
<event>
12    1  0.2048318E-007  0.1552395E+04  0.7818608E-02  0.8850340E-01
          2   -1    0    0  501    0  0.00000000000E+00  0.00000000000E+00  0.10687997606E+04  0.10687997606E+04  0.00000000000E+00 0. -1.
         -2   -1    0    0    0  501 -0.00000000000E+00 -0.00000000000E+00 -0.56369990031E+03  0.56369990031E+03  0.00000000000E+00 0.  1.
         23    2    1    2    0    0  0.19952114077E+03 -0.33519787393E+03  0.51367760725E+03  0.65126580590E+03  0.90089763284E+02 0.  0.
        254    2    1    2    0    0 -0.19952114077E+03  0.33519787393E+03 -0.85777469526E+01  0.98123385501E+03  0.90032216465E+03 0.  0.
        -24    2    4    4    0    0  0.26712433105E+02 -0.77544587505E+02 -0.36656524272E+03  0.38390181229E+03  0.79270468462E+02 0.  0.
         24    2    4    4    0    0 -0.22623357388E+03  0.41274246143E+03  0.35798749577E+03  0.59733204272E+03  0.84335951507E+02 0.  0.
         11    1    3    3    0    0  0.71128148078E+02 -0.82386409251E+02  0.88840751322E+02  0.14049702123E+03  0.00000000000E+00 0.  1.
        -11    1    3    3    0    0  0.12839299269E+03 -0.25281146468E+03  0.42483685593E+03  0.51076878468E+03  0.00000000000E+00 0. -1.
          4    1    6    6  502    0 -0.11643797094E+03  0.12938821739E+03  0.13924068283E+03  0.22290598832E+03  0.00000000000E+00 0. -1.
          3    1    5    5  503    0 -0.16362366836E+02 -0.42642050084E+02 -0.80864040924E+02  0.92871225891E+02  0.00000000000E+00 0. -1.
         -4    1    5    5    0  503  0.43074799941E+02 -0.34902537421E+02 -0.28570120180E+03  0.29103058639E+03  0.00000000000E+00 0.  1.
         -3    1    6    6    0  502 -0.10979560294E+03  0.28335424404E+03  0.21874681294E+03  0.37442605440E+03  0.00000000000E+00 0.  1.
<mgrwt>
<rscale>  0 0.15523947E+04</rscale>
<asrwt>0</asrwt>
<pdfrwt beam="1">  1        2 0.16443073E+00 0.15523947E+04</pdfrwt>
<pdfrwt beam="2">  1       -2 0.86723062E-01 0.15523947E+04</pdfrwt>
<totfact> 0.25238423E+01</totfact>
</mgrwt>
</event>
<event>
12    1  0.2048318E-007  0.2434071E+04  0.7818608E-02  0.8426857E-01
          2   -1    0    0  501    0  0.00000000000E+00  0.00000000000E+00  0.19433569806E+04  0.19433569806E+04  0.00000000000E+00 0. -1.
         -2   -1    0    0    0  501 -0.00000000000E+00 -0.00000000000E+00 -0.76217355030E+03  0.76217355030E+03  0.00000000000E+00 0.  1.
         23    2    1    2    0    0 -0.32058921559E+03 -0.97807549615E+03  0.29019342259E+03  0.10734515360E+04  0.93149644681E+02 0.  0.
        254    2    1    2    0    0  0.32058921559E+03  0.97807549615E+03  0.89099000773E+03  0.16320789949E+04  0.90022748818E+03 0.  0.
        -24    2    4    4    0    0  0.45418864387E+03  0.30368683242E+03  0.74120500227E+03  0.92424002021E+03  0.79509390432E+02 0.  0.
         24    2    4    4    0    0 -0.13359942827E+03  0.67438866372E+03  0.14978500546E+03  0.70783897471E+03  0.77146544094E+02 0.  0.
         11    1    3    3    0    0 -0.34960520094E+02 -0.19329203467E+03  0.29959386506E+02  0.19869980742E+03  0.00000000000E+00 0.  1.
        -11    1    3    3    0    0 -0.28562869550E+03 -0.78478346148E+03  0.26023403608E+03  0.87475172858E+03  0.00000000000E+00 0. -1.
          2    1    6    6  502    0 -0.13386773173E+03  0.52914160662E+03  0.13163869072E+03  0.56146251375E+03  0.00000000000E+00 0. -1.
          3    1    5    5  503    0  0.32955085627E+03  0.24112093725E+03  0.49930285088E+03  0.64501659680E+03  0.00000000000E+00 0. -1.
         -4    1    5    5    0  503  0.12463778760E+03  0.62565895176E+02  0.24190215139E+03  0.27922342342E+03  0.00000000000E+00 0.  1.
         -1    1    6    6    0  502  0.26830345997E+00  0.14524705710E+03  0.18146314744E+02  0.14637646096E+03  0.00000000000E+00 0.  1.
<mgrwt>
<rscale>  0 0.24340709E+04</rscale>
<asrwt>0</asrwt>
<pdfrwt beam="1">  1        2 0.29897800E+00 0.24340709E+04</pdfrwt>
<pdfrwt beam="2">  1       -2 0.11725747E+00 0.24340709E+04</pdfrwt>
<totfact> 0.36219530E+00</totfact>
</mgrwt>
</event>
<event>
12    1  0.2048318E-007  0.2580943E+04  0.7818608E-02  0.8374703E-01
          1   -1    0    0  501    0  0.00000000000E+00  0.00000000000E+00  0.15502476292E+04  0.15502476292E+04  0.00000000000E+00 0. -1.
         -1   -1    0    0    0  501 -0.00000000000E+00 -0.00000000000E+00 -0.10742260943E+04  0.10742260943E+04  0.00000000000E+00 0.  1.
         23    2    1    2    0    0 -0.64992429520E+03 -0.91897781395E+03  0.93381002851E+02  0.11338600637E+04  0.99984100620E+02 0.  0.
        254    2    1    2    0    0  0.64992429520E+03  0.91897781395E+03  0.38264053197E+03  0.14906136598E+04  0.89921826825E+03 0.  0.
        -24    2    4    4    0    0  0.46132385517E+03  0.40551661252E+03  0.63110660238E+03  0.88444541778E+03  0.81760204770E+02 0.  0.
         24    2    4    4    0    0  0.18860044003E+03  0.51346120142E+03 -0.24846607041E+03  0.60616824198E+03  0.80573060593E+02 0.  0.
         11    1    3    3    0    0 -0.48958408670E+03 -0.73901916734E+03  0.10426135512E+03  0.89258743987E+03  0.00000000000E+00 0. -1.
        -11    1    3    3    0    0 -0.16034020850E+03 -0.17995864661E+03 -0.10880352271E+02  0.24127262385E+03  0.00000000000E+00 0.  1.
          2    1    6    6  502    0  0.18371230673E+03  0.50100303996E+03 -0.22492744875E+03  0.57909119739E+03  0.00000000000E+00 0. -1.
          3    1    5    5  503    0  0.43408362521E+03  0.40258987549E+03  0.60765621262E+03  0.84838274043E+03  0.00000000000E+00 0. -1.
         -4    1    5    5    0  503  0.27240229962E+02  0.29267370364E+01  0.23450389768E+02  0.36062677359E+02  0.00000000000E+00 0.  1.
         -1    1    6    6    0  502  0.48881333031E+01  0.12458161467E+02 -0.23538621659E+02  0.27077044594E+02  0.00000000000E+00 0.  1.
<mgrwt>
<rscale>  0 0.25809428E+04</rscale>
<asrwt>0</asrwt>
<pdfrwt beam="1">  1        1 0.23849963E+00 0.25809428E+04</pdfrwt>
<pdfrwt beam="2">  1       -1 0.16526555E+00 0.25809428E+04</pdfrwt>
<totfact> 0.14211084E+00</totfact>
</mgrwt>
</event>
<event>
12    1  0.2048318E-007  0.2023407E+04  0.7818608E-02  0.8595755E-01
         -2   -1    0    0    0  501 -0.00000000000E+00  0.00000000000E+00  0.54287123042E+03  0.54287123042E+03  0.00000000000E+00 0.  1.
          2   -1    0    0  501    0  0.00000000000E+00 -0.00000000000E+00 -0.18854270463E+04  0.18854270463E+04  0.00000000000E+00 0. -1.
         23    2    1    2    0    0  0.33015858170E+03  0.61261925208E+03 -0.10359280350E+04  0.12509605721E+04  0.86304241974E+02 0.  0.
        254    2    1    2    0    0 -0.33015858170E+03 -0.61261925208E+03 -0.30662778089E+03  0.11773377046E+04  0.89877496496E+03 0.  0.
        -24    2    4    4    0    0  0.10795948959E+03 -0.24897179487E+03  0.24971570413E+03  0.37756615285E+03  0.80969505712E+02 0.  0.
         24    2    4    4    0    0 -0.43811807128E+03 -0.36364745721E+03 -0.55634348502E+03  0.79977155178E+03  0.77003533644E+02 0.  0.
         13    1    3    3    0    0  0.41534717514E+02  0.93899070873E+02 -0.10485227323E+03  0.14675206121E+03  0.00000000000E+00 0. -1.
        -13    1    3    3    0    0  0.28862386418E+03  0.51872018120E+03 -0.93107576182E+03  0.11042085109E+04  0.00000000000E+00 0.  1.
          4    1    6    6  502    0 -0.27390709463E+03 -0.19900427381E+03 -0.28616168916E+03  0.44330160143E+03  0.00000000000E+00 0. -1.
          3    1    5    5  503    0  0.98744923755E+02 -0.17148657823E+03  0.13781582841E+03  0.24114603260E+03  0.00000000000E+00 0. -1.
         -4    1    5    5    0  503  0.92145658308E+01 -0.77485216640E+02  0.11189987572E+03  0.13642012025E+03  0.00000000000E+00 0.  1.
         -3    1    6    6    0  502 -0.16421097666E+03 -0.16464318340E+03 -0.27018179585E+03  0.35646995035E+03  0.00000000000E+00 0.  1.
<mgrwt>
<rscale>  0 0.20234071E+04</rscale>
<asrwt>0</asrwt>
<pdfrwt beam="1">  1        2 0.29006569E+00 0.20234071E+04</pdfrwt>
<pdfrwt beam="2">  1       -2 0.83518653E-01 0.20234071E+04</pdfrwt>
<totfact> 0.89958818E+00</totfact>
</mgrwt>
</event>
<event>
12    1  0.2048318E-007  0.4442230E+04  0.7818608E-02  0.7920829E-01
          2   -1    0    0  501    0  0.00000000000E+00  0.00000000000E+00  0.52091383598E+04  0.52091383598E+04  0.00000000000E+00 0. -1.
         -2   -1    0    0    0  501 -0.00000000000E+00 -0.00000000000E+00 -0.94705710658E+03  0.94705710658E+03  0.00000000000E+00 0.  1.
         23    2    1    2    0    0  0.14714479128E+04  0.84326569615E+03  0.26116693257E+03  0.17183366281E+04  0.90645499299E+02 0.  0.
        254    2    1    2    0    0 -0.14714479128E+04 -0.84326569615E+03  0.40009143207E+04  0.44378588383E+04  0.90056630671E+03 0.  0.
        -24    2    4    4    0    0 -0.15277798398E+04 -0.92691561996E+03  0.37895928832E+04  0.41905592726E+04  0.80554275351E+02 0.  0.
         24    2    4    4    0    0  0.56331927007E+02  0.83649923810E+02  0.21132143744E+03  0.24729956566E+03  0.79559597164E+02 0.  0.
         13    1    3    3    0    0  0.23780773375E+03  0.13644674413E+03  0.76275435470E+02  0.28458421297E+03  0.00000000000E+00 0. -1.
        -13    1    3    3    0    0  0.12336401790E+04  0.70681895203E+03  0.18489149710E+03  0.14337524151E+04  0.00000000000E+00 0.  1.
          2    1    6    6  502    0  0.10770696833E+02 -0.15529369124E+02  0.38699203766E+02  0.43067361049E+02  0.00000000000E+00 0. -1.
          1    1    5    5  503    0 -0.54279056560E+03 -0.29642528480E+03  0.13723498976E+04  0.15052686767E+04  0.00000000000E+00 0. -1.
         -2    1    5    5    0  503 -0.98498927418E+03 -0.63049033516E+03  0.24172429856E+04  0.26852905959E+04  0.00000000000E+00 0.  1.
         -1    1    6    6    0  502  0.45561230174E+02  0.99179292934E+02  0.17262223368E+03  0.20423220461E+03  0.00000000000E+00 0.  1.
<mgrwt>
<rscale>  0 0.44422298E+04</rscale>
<asrwt>0</asrwt>
<pdfrwt beam="1">  1        2 0.80140589E+00 0.44422298E+04</pdfrwt>
<pdfrwt beam="2">  1       -2 0.14570110E+00 0.44422298E+04</pdfrwt>
<totfact> 0.43253737E-03</totfact>
</mgrwt>
</event>
<event>
12    1  0.2048318E-007  0.2764154E+04  0.7818608E-02  0.8314484E-01
          1   -1    0    0  501    0  0.00000000000E+00  0.00000000000E+00  0.34594907707E+04  0.34594907707E+04  0.00000000000E+00 0. -1.
         -1   -1    0    0    0  501 -0.00000000000E+00 -0.00000000000E+00 -0.55214409252E+03  0.55214409252E+03  0.00000000000E+00 0.  1.
         23    2    1    2    0    0  0.74161330864E+03 -0.55158537459E+03  0.11549516022E+03  0.93601288655E+03  0.92435202920E+02 0.  0.
        254    2    1    2    0    0 -0.74161330864E+03  0.55158537459E+03  0.27918515179E+04  0.30756219767E+04  0.90043262941E+03 0.  0.
        -24    2    4    4    0    0 -0.63258255108E+03  0.78651607905E+03  0.23248109614E+04  0.25357369897E+04  0.80298494884E+02 0.  0.
         24    2    4    4    0    0 -0.10903075756E+03 -0.23493070446E+03  0.46704055657E+03  0.53988498697E+03  0.79175600262E+02 0.  0.
         13    1    3    3    0    0  0.66445324149E+02 -0.72832292160E+02  0.34189564426E+02  0.10434773691E+03  0.00000000000E+00 0. -1.
        -13    1    3    3    0    0  0.67516798449E+03 -0.47875308243E+03  0.81305595795E+02  0.83166514964E+03  0.00000000000E+00 0.  1.
          2    1    6    6  502    0 -0.34600223407E+02 -0.66880981476E+02  0.21604025283E+03  0.22878730731E+03  0.00000000000E+00 0. -1.
          3    1    5    5  503    0 -0.28449362877E+02  0.22948604032E+02  0.12152859849E+03  0.12690628403E+03  0.00000000000E+00 0. -1.
         -4    1    5    5    0  503 -0.60413318820E+03  0.76356747502E+03  0.22032823629E+04  0.24088307057E+04  0.00000000000E+00 0.  1.
         -1    1    6    6    0  502 -0.74430534154E+02 -0.16804972299E+03  0.25100030374E+03  0.31109767966E+03  0.00000000000E+00 0.  1.
<mgrwt>
<rscale>  0 0.27641544E+04</rscale>
<asrwt>0</asrwt>
<pdfrwt beam="1">  1        1 0.53222934E+00 0.27641544E+04</pdfrwt>
<pdfrwt beam="2">  1       -1 0.84945247E-01 0.27641544E+04</pdfrwt>
<totfact> 0.32006578E-01</totfact>
</mgrwt>
</event>
<event>
12    1  0.2048318E-007  0.3177835E+04  0.7818608E-02  0.8194695E-01
          2   -1    0    0  501    0  0.00000000000E+00  0.00000000000E+00  0.14336537229E+04  0.14336537229E+04  0.00000000000E+00 0. -1.
         -2   -1    0    0    0  501 -0.00000000000E+00 -0.00000000000E+00 -0.17609964375E+04  0.17609964375E+04  0.00000000000E+00 0.  1.
         23    2    1    2    0    0 -0.11012142588E+04 -0.95852803962E+03 -0.15483675893E+03  0.14705490327E+04  0.84209198449E+02 0.  0.
        254    2    1    2    0    0  0.11012142588E+04  0.95852803962E+03 -0.17250595568E+03  0.17241011277E+04  0.90073167324E+03 0.  0.
        -24    2    4    4    0    0  0.29627162148E+03 -0.71888086297E+02 -0.26380650633E+03  0.41103076338E+03  0.80047767108E+02 0.  0.
         24    2    4    4    0    0  0.80494263734E+03  0.10304161259E+04  0.91300550646E+02  0.13130703643E+04  0.78281218116E+02 0.  0.
         13    1    3    3    0    0 -0.13950360296E+03 -0.86734872992E+02 -0.13019545496E+02  0.16478380380E+03  0.00000000000E+00 0. -1.
        -13    1    3    3    0    0 -0.96171065586E+03 -0.87179316662E+03 -0.14181721343E+03  0.13057652289E+04  0.00000000000E+00 0.  1.
          4    1    6    6  502    0  0.63064526215E+03  0.82163204637E+03  0.41603793055E+02  0.10365922737E+04  0.00000000000E+00 0. -1.
          1    1    5    5  503    0  0.73531912607E+02 -0.53163506247E+02 -0.90879368799E+02  0.12842258462E+03  0.00000000000E+00 0. -1.
         -2    1    5    5    0  503  0.22273970887E+03 -0.18724580050E+02 -0.17292713753E+03  0.28260817876E+03  0.00000000000E+00 0.  1.
         -1    1    6    6    0  502  0.17429737519E+03  0.20878407955E+03  0.49696757591E+02  0.27647809061E+03  0.00000000000E+00 0.  1.
<mgrwt>
<rscale>  0 0.31778352E+04</rscale>
<asrwt>0</asrwt>
<pdfrwt beam="1">  1        2 0.22056211E+00 0.31778352E+04</pdfrwt>
<pdfrwt beam="2">  1       -2 0.27092253E+00 0.31778352E+04</pdfrwt>
<totfact> 0.55871431E-01</totfact>
</mgrwt>
</event>
<event>
12    1  0.2048318E-007  0.1802248E+04  0.7818608E-02  0.8705105E-01
         -2   -1    0    0    0  501 -0.00000000000E+00  0.00000000000E+00  0.14467072030E+04  0.14467072030E+04  0.00000000000E+00 0.  1.
          2   -1    0    0  501    0  0.00000000000E+00 -0.00000000000E+00 -0.56129176689E+03  0.56129176689E+03  0.00000000000E+00 0. -1.
         23    2    1    2    0    0 -0.64089375768E+03 -0.79521712909E+02  0.12330404130E+03  0.66374254377E+03  0.91004210586E+02 0.  0.
        254    2    1    2    0    0  0.64089375768E+03  0.79521712909E+02  0.76211139484E+03  0.13442564262E+04  0.89952379049E+03 0.  0.
        -24    2    4    4    0    0 -0.17632053913E+03  0.33698620472E+02  0.40036178747E+03  0.44596308626E+03  0.79805913908E+02 0.  0.
         24    2    4    4    0    0  0.81721429681E+03  0.45823092438E+02  0.36174960737E+03  0.89829333990E+03  0.78289101242E+02 0.  0.
         13    1    3    3    0    0 -0.58377199995E+03 -0.51431091710E+02  0.12822618407E+03  0.59989737406E+03  0.00000000000E+00 0.  1.
        -13    1    3    3    0    0 -0.57121757734E+02 -0.28090621199E+02 -0.49221427677E+01  0.63845169711E+02  0.00000000000E+00 0. -1.
          2    1    6    6  502    0  0.53480776583E+03  0.46493083209E+02  0.27309740943E+03  0.60229822199E+03  0.00000000000E+00 0. -1.
          3    1    5    5  503    0 -0.87658191906E+02 -0.10228339282E+02  0.25732000196E+03  0.27203338203E+03  0.00000000000E+00 0. -1.
         -4    1    5    5    0  503 -0.88662347219E+02  0.43926959753E+02  0.14304178552E+03  0.17392970422E+03  0.00000000000E+00 0.  1.
         -1    1    6    6    0  502  0.28240653098E+03 -0.66999077174E+00  0.88652197939E+02  0.29599511791E+03  0.00000000000E+00 0.  1.
<mgrwt>
<rscale>  0 0.18022484E+04</rscale>
<asrwt>0</asrwt>
<pdfrwt beam="1">  1        2 0.86352580E-01 0.18022484E+04</pdfrwt>
<pdfrwt beam="2">  1       -2 0.22257034E+00 0.18022484E+04</pdfrwt>
<totfact> 0.48257343E+00</totfact>
</mgrwt>
</event>
<event>
12    1  0.2048318E-007  0.2577060E+04  0.7818608E-02  0.8376035E-01
         -2   -1    0    0    0  501 -0.00000000000E+00  0.00000000000E+00  0.12780377532E+04  0.12780377532E+04  0.00000000000E+00 0.  1.
          2   -1    0    0  501    0  0.00000000000E+00 -0.00000000000E+00 -0.12991087094E+04  0.12991087094E+04  0.00000000000E+00 0. -1.
         23    2    1    2    0    0 -0.98414553717E+03  0.25624950013E+03 -0.49912633259E+03  0.11364489799E+04  0.90459623421E+02 0.  0.
        254    2    1    2    0    0  0.98414553717E+03 -0.25624950013E+03  0.47805537648E+03  0.14406974827E+04  0.90159084341E+03 0.  0.
        -24    2    4    4    0    0  0.37461811166E+03 -0.48816358414E+03  0.47899403702E+03  0.78384977471E+03  0.79641492597E+02 0.  0.
         24    2    4    4    0    0  0.60952742551E+03  0.23191408401E+03 -0.93866054625E+00  0.65684770795E+03  0.78359463687E+02 0.  0.
         11    1    3    3    0    0 -0.78047482692E+03  0.22322896645E+03 -0.43144145951E+03  0.91930074508E+03  0.00000000000E+00 0. -1.
        -11    1    3    3    0    0 -0.20367071025E+03  0.33020533674E+02 -0.67684873074E+02  0.21714823485E+03  0.00000000000E+00 0.  1.
          2    1    6    6  502    0  0.22940501143E+03  0.76523536551E+02 -0.36851416936E+02  0.24462325696E+03  0.00000000000E+00 0. -1.
          1    1    5    5  503    0  0.19998411383E+03 -0.20921669550E+03  0.25518960615E+03  0.38585879094E+03  0.00000000000E+00 0. -1.
         -2    1    5    5    0  503  0.17463399783E+03 -0.27894688864E+03  0.22380443087E+03  0.39799098376E+03  0.00000000000E+00 0.  1.
         -1    1    6    6    0  502  0.38012241408E+03  0.15539054746E+03  0.35912756390E+02  0.41222445100E+03  0.00000000000E+00 0.  1.
<mgrwt>
<rscale>  0 0.25770603E+04</rscale>
<asrwt>0</asrwt>
<pdfrwt beam="1">  1        2 0.19986288E+00 0.25770603E+04</pdfrwt>
<pdfrwt beam="2">  1       -2 0.19662119E+00 0.25770603E+04</pdfrwt>
<totfact> 0.20537331E+00</totfact>
</mgrwt>
</event>
<event>
12    1  0.2048318E-007  0.1930441E+04  0.7818608E-02  0.8639851E-01
         -1   -1    0    0    0  501 -0.00000000000E+00  0.00000000000E+00  0.80516119500E+03  0.80516119500E+03  0.00000000000E+00 0.  1.
          1   -1    0    0  501    0  0.00000000000E+00 -0.00000000000E+00 -0.11570980876E+04  0.11570980876E+04  0.00000000000E+00 0. -1.
         23    2    1    2    0    0  0.47573033327E+03 -0.58171261547E+03 -0.17373638042E+03  0.77694684929E+03  0.93558322769E+02 0.  0.
        254    2    1    2    0    0 -0.47573033327E+03  0.58171261547E+03 -0.17820051214E+03  0.11853124333E+04  0.89916696167E+03 0.  0.
        -24    2    4    4    0    0 -0.38424990184E+03  0.57594363986E+03  0.24987825282E+03  0.74034988667E+03  0.79496855883E+02 0.  0.
         24    2    4    4    0    0 -0.91480431427E+02  0.57689756111E+01 -0.42807876496E+03  0.44496254661E+03  0.79613368597E+02 0.  0.
         13    1    3    3    0    0  0.46231035998E+03 -0.55623624314E+03 -0.18410760967E+03  0.74634123500E+03  0.00000000000E+00 0. -1.
        -13    1    3    3    0    0  0.13419973291E+02 -0.25476372331E+02  0.10371229247E+02  0.30605614295E+02  0.00000000000E+00 0.  1.
          2    1    6    6  502    0 -0.88487245013E+02 -0.23785472112E+02 -0.32988520480E+03  0.34237404919E+03  0.00000000000E+00 0. -1.
          1    1    5    5  503    0 -0.24344148546E+03  0.42619243288E+03  0.18925025034E+03  0.52604125688E+03  0.00000000000E+00 0. -1.
         -2    1    5    5    0  503 -0.14080841638E+03  0.14975120698E+03  0.60628002476E+02  0.21430862979E+03  0.00000000000E+00 0.  1.
         -1    1    6    6    0  502 -0.29931864143E+01  0.29554447723E+02 -0.98193560159E+02  0.10258849741E+03  0.00000000000E+00 0.  1.
<mgrwt>
<rscale>  0 0.19304409E+04</rscale>
<asrwt>0</asrwt>
<pdfrwt beam="1">  1        1 0.17801509E+00 0.19304409E+04</pdfrwt>
<pdfrwt beam="2">  1       -1 0.12387095E+00 0.19304409E+04</pdfrwt>
<totfact> 0.61393918E+00</totfact>
</mgrwt>
</event>
<event>
12    1  0.2048318E-007  0.1886953E+04  0.7818608E-02  0.8661378E-01
          1   -1    0    0  501    0  0.00000000000E+00  0.00000000000E+00  0.95186665646E+03  0.95186665646E+03  0.00000000000E+00 0. -1.
         -1   -1    0    0    0  501 -0.00000000000E+00 -0.00000000000E+00 -0.93516016266E+03  0.93516016266E+03  0.00000000000E+00 0.  1.
         23    2    1    2    0    0 -0.25955044791E+03 -0.63802433451E+03 -0.21568113225E+03  0.72777776696E+03  0.93277225703E+02 0.  0.
        254    2    1    2    0    0  0.25955044791E+03  0.63802433451E+03  0.23238762605E+03  0.11592490522E+04  0.90300214272E+03 0.  0.
        -24    2    4    4    0    0  0.51508688817E+03  0.95055755148E+02  0.11835902092E+03  0.54296248940E+03  0.80307584449E+02 0.  0.
         24    2    4    4    0    0 -0.25553644025E+03  0.54296857936E+03  0.11402860513E+03  0.61628656275E+03  0.81809865998E+02 0.  0.
         11    1    3    3    0    0 -0.14198996364E+03 -0.45591472597E+03 -0.16454556906E+03  0.50506893730E+03  0.00000000000E+00 0.  1.
        -11    1    3    3    0    0 -0.11756048427E+03 -0.18210960854E+03 -0.51135563191E+02  0.22270882966E+03  0.00000000000E+00 0. -1.
          2    1    6    6  502    0 -0.46712351561E+02  0.17224354084E+03  0.54808712592E+02  0.18669192839E+03  0.00000000000E+00 0. -1.
          1    1    5    5  503    0  0.87553363357E+02  0.29154251945E+02 -0.71038670065E+01  0.92552832307E+02  0.00000000000E+00 0. -1.
         -2    1    5    5    0  503  0.42753352481E+03  0.65901503203E+02  0.12546288793E+03  0.45040965710E+03  0.00000000000E+00 0.  1.
         -1    1    6    6    0  502 -0.20882408869E+03  0.37072503852E+03  0.59219892534E+02  0.42959463436E+03  0.00000000000E+00 0.  1.
<mgrwt>
<rscale>  0 0.18869529E+04</rscale>
<asrwt>0</asrwt>
<pdfrwt beam="1">  1        1 0.14644102E+00 0.18869529E+04</pdfrwt>
<pdfrwt beam="2">  1       -1 0.14387079E+00 0.18869529E+04</pdfrwt>
<totfact> 0.60359962E+00</totfact>
</mgrwt>
</event>
<event>
12    1  0.2048318E-007  0.2134371E+04  0.7818608E-02  0.8546252E-01
         -1   -1    0    0    0  501 -0.00000000000E+00  0.00000000000E+00  0.11776786666E+04  0.11776786666E+04  0.00000000000E+00 0.  1.
          1   -1    0    0  501    0  0.00000000000E+00 -0.00000000000E+00 -0.96705876961E+03  0.96705876961E+03  0.00000000000E+00 0. -1.
         23    2    1    2    0    0 -0.42402064768E+02  0.86060089354E+03 -0.60951006194E+02  0.86857432568E+03  0.90964284215E+02 0.  0.
        254    2    1    2    0    0  0.42402064768E+02 -0.86060089354E+03  0.27157090316E+03  0.12761631105E+04  0.90133772589E+03 0.  0.
        -24    2    4    4    0    0  0.35012590724E+03 -0.77621782840E+03  0.85227923468E+01  0.85555306648E+03  0.82438725884E+02 0.  0.
         24    2    4    4    0    0 -0.30772384247E+03 -0.84383065143E+02  0.26304811081E+03  0.42061004403E+03  0.76837722713E+02 0.  0.
         13    1    3    3    0    0  0.22224442041E+02  0.35762447957E+03 -0.46222208535E+01  0.35834419088E+03  0.00000000000E+00 0. -1.
        -13    1    3    3    0    0 -0.64626506809E+02  0.50297641398E+03 -0.56328785341E+02  0.51023013480E+03  0.00000000000E+00 0.  1.
          4    1    6    6  502    0 -0.14532907902E+03 -0.34869172940E+02  0.74849445021E+02  0.16714915450E+03  0.00000000000E+00 0. -1.
          1    1    5    5  503    0  0.29880049337E+03 -0.68473467757E+03  0.33071164971E+02  0.74782151310E+03  0.00000000000E+00 0. -1.
         -2    1    5    5    0  503  0.51325413863E+02 -0.91483150831E+02 -0.24548372624E+02  0.10773155338E+03  0.00000000000E+00 0.  1.
         -3    1    6    6    0  502 -0.16239476345E+03 -0.49513892203E+02  0.18819866579E+03  0.25346088953E+03  0.00000000000E+00 0.  1.
<mgrwt>
<rscale>  0 0.21343706E+04</rscale>
<asrwt>0</asrwt>
<pdfrwt beam="1">  1        1 0.14877827E+00 0.21343706E+04</pdfrwt>
<pdfrwt beam="2">  1       -1 0.18118133E+00 0.21343706E+04</pdfrwt>
<totfact> 0.30060411E+00</totfact>
</mgrwt>
</event>
<event>
12    1  0.2048318E-007  0.1126995E+04  0.7818608E-02  0.9179273E-01
         -4   -1    0    0    0  501 -0.00000000000E+00  0.00000000000E+00  0.33310621434E+03  0.33310621434E+03  0.00000000000E+00 0.  1.
          4   -1    0    0  501    0  0.00000000000E+00 -0.00000000000E+00 -0.95323755221E+03  0.95323755221E+03  0.00000000000E+00 0. -1.
         23    2    1    2    0    0 -0.10552072647E+03 -0.81398921312E+02  0.24764547837E+02  0.17423941076E+03  0.10947913650E+03 0.  0.
        254    2    1    2    0    0  0.10552072647E+03  0.81398921312E+02 -0.64489588571E+03  0.11121043558E+04  0.89617240900E+03 0.  0.
        -24    2    4    4    0    0  0.48310840030E+03  0.12476966931E+03 -0.45085562785E+03  0.67738009865E+03  0.81313000622E+02 0.  0.
         24    2    4    4    0    0 -0.37758767383E+03 -0.43370747994E+02 -0.19404025786E+03  0.43472425713E+03  0.82946276952E+02 0.  0.
         13    1    3    3    0    0 -0.80055782282E+02 -0.55939880932E+02  0.67226661558E+02  0.11856484546E+03  0.00000000000E+00 0.  1.
        -13    1    3    3    0    0 -0.25464944183E+02 -0.25459040380E+02 -0.42462113721E+02  0.55674565297E+02  0.00000000000E+00 0. -1.
          4    1    6    6  502    0 -0.27436754367E+03 -0.64727087893E+02 -0.15898941108E+03  0.32364297885E+03  0.00000000000E+00 0. -1.
          1    1    5    5  503    0  0.37282503529E+03  0.13059296520E+03 -0.34766486825E+03  0.52623558423E+03  0.00000000000E+00 0. -1.
         -2    1    5    5    0  503  0.11028336500E+03 -0.58232958902E+01 -0.10319075961E+03  0.15114451442E+03  0.00000000000E+00 0.  1.
         -3    1    6    6    0  502 -0.10322013016E+03  0.21356339899E+02 -0.35050846782E+02  0.11108127828E+03  0.00000000000E+00 0.  1.
<mgrwt>
<rscale>  0 0.11269949E+04</rscale>
<asrwt>0</asrwt>
<pdfrwt beam="1">  1        4 0.14665193E+00 0.11269949E+04</pdfrwt>
<pdfrwt beam="2">  1       -4 0.51247111E-01 0.11269949E+04</pdfrwt>
<totfact> 0.22895811E+00</totfact>
</mgrwt>
</event>
<event>
12    1  0.2048318E-007  0.1854575E+04  0.7818608E-02  0.8677804E-01
          2   -1    0    0  501    0  0.00000000000E+00  0.00000000000E+00  0.28615840747E+04  0.28615840747E+04  0.00000000000E+00 0. -1.
         -2   -1    0    0    0  501 -0.00000000000E+00 -0.00000000000E+00 -0.30048464082E+03  0.30048464082E+03  0.00000000000E+00 0.  1.
         23    2    1    2    0    0 -0.14772385789E+03  0.59723372138E+03  0.39508538503E+03  0.73696959307E+03  0.92310690057E+02 0.  0.
        254    2    1    2    0    0  0.14772385789E+03 -0.59723372138E+03  0.21660140489E+04  0.24250991225E+04  0.90054341248E+03 0.  0.
        -24    2    4    4    0    0 -0.24169428045E+03 -0.62142106261E+03  0.15847256297E+04  0.17210205196E+04  0.77304886221E+02 0.  0.
         24    2    4    4    0    0  0.38941813834E+03  0.24187341231E+02  0.58128841921E+03  0.70407860284E+03  0.74826056424E+02 0.  0.
         13    1    3    3    0    0  0.58707465794E+01  0.10138822222E+03  0.46502232873E+02  0.11169823156E+03  0.00000000000E+00 0.  1.
        -13    1    3    3    0    0 -0.15359460447E+03  0.49584549915E+03  0.34858315216E+03  0.62527136151E+03  0.00000000000E+00 0. -1.
          4    1    6    6  502    0  0.28895222677E+03  0.39132550147E+02  0.38382412278E+03  0.48202251303E+03  0.00000000000E+00 0. -1.
          3    1    5    5  503    0 -0.18770593913E+03 -0.48393414729E+03  0.13103608382E+04  0.14094223301E+04  0.00000000000E+00 0. -1.
         -4    1    5    5    0  503 -0.53988341323E+02 -0.13748691532E+03  0.27436479149E+03  0.31159818949E+03  0.00000000000E+00 0.  1.
         -3    1    6    6    0  502  0.10046591157E+03 -0.14945208917E+02  0.19746429642E+03  0.22205608980E+03  0.00000000000E+00 0.  1.
<mgrwt>
<rscale>  0 0.18545750E+04</rscale>
<asrwt>0</asrwt>
<pdfrwt beam="1">  1        2 0.44024368E+00 0.18545750E+04</pdfrwt>
<pdfrwt beam="2">  1       -2 0.46228408E-01 0.18545750E+04</pdfrwt>
<totfact> 0.88687159E+00</totfact>
</mgrwt>
</event>
<event>
12    1  0.2048318E-007  0.1381168E+04  0.7818608E-02  0.8967564E-01
          2   -1    0    0  501    0  0.00000000000E+00  0.00000000000E+00  0.14913287365E+04  0.14913287365E+04  0.00000000000E+00 0. -1.
         -2   -1    0    0    0  501 -0.00000000000E+00 -0.00000000000E+00 -0.31978619167E+03  0.31978619167E+03  0.00000000000E+00 0.  1.
         23    2    1    2    0    0 -0.12444070349E+03 -0.21623866746E+03  0.69356181553E+03  0.74275867367E+03  0.91748598720E+02 0.  0.
        254    2    1    2    0    0  0.12444070349E+03  0.21623866746E+03  0.47798072928E+03  0.10683562545E+04  0.92232036674E+03 0.  0.
        -24    2    4    4    0    0 -0.14047611520E+03  0.19094522932E+03  0.67976442852E+03  0.72441318995E+03  0.80629845260E+02 0.  0.
         24    2    4    4    0    0  0.26491681870E+03  0.25293438149E+02 -0.20178369925E+03  0.34394306452E+03  0.82216126792E+02 0.  0.
         11    1    3    3    0    0 -0.74023826172E+02 -0.19647366941E+03  0.58285319335E+03  0.61951535462E+03  0.00000000000E+00 0.  1.
        -11    1    3    3    0    0 -0.50416877321E+02 -0.19764998057E+02  0.11070862218E+03  0.12324331905E+03  0.00000000000E+00 0. -1.
          2    1    6    6  502    0  0.85608899480E+02  0.19245442047E+02 -0.23106836505E+02  0.90736963819E+02  0.00000000000E+00 0. -1.
          3    1    5    5  503    0 -0.88708600716E+02  0.12483438217E+03  0.31694531773E+03  0.35200450742E+03  0.00000000000E+00 0. -1.
         -4    1    5    5    0  503 -0.51767514488E+02  0.66110847143E+02  0.36281911080E+03  0.37240868253E+03  0.00000000000E+00 0.  1.
         -1    1    6    6    0  502  0.17930791922E+03  0.60479961019E+01 -0.17867686274E+03  0.25320610070E+03  0.00000000000E+00 0.  1.
<mgrwt>
<rscale>  0 0.13811681E+04</rscale>
<asrwt>0</asrwt>
<pdfrwt beam="1">  1        2 0.22943519E+00 0.13811681E+04</pdfrwt>
<pdfrwt beam="2">  1       -2 0.49197876E-01 0.13811681E+04</pdfrwt>
<totfact> 0.48925251E+01</totfact>
</mgrwt>
</event>
<event>
12    1  0.2048318E-007  0.2145026E+04  0.7818608E-02  0.8541664E-01
          3   -1    0    0  501    0  0.00000000000E+00  0.00000000000E+00  0.10725419537E+04  0.10725419537E+04  0.00000000000E+00 0. -1.
         -3   -1    0    0    0  501 -0.00000000000E+00 -0.00000000000E+00 -0.10724837737E+04  0.10724837737E+04  0.00000000000E+00 0.  1.
         23    2    1    2    0    0 -0.17690097447E+03 -0.57944045745E+03  0.63626349873E+03  0.88327602836E+03  0.91104906379E+02 0.  0.
        254    2    1    2    0    0  0.17690097447E+03  0.57944045745E+03 -0.63620531871E+03  0.12617496990E+04  0.90565440251E+03 0.  0.
        -24    2    4    4    0    0  0.91758615766E+02  0.76715840462E+03 -0.24935938650E+03  0.81601230478E+03  0.82123788024E+02 0.  0.
         24    2    4    4    0    0  0.85142358705E+02 -0.18771794717E+03 -0.38684593221E+03  0.44573739419E+03  0.80899940529E+02 0.  0.
         13    1    3    3    0    0 -0.25606004875E+02 -0.19333398855E+03  0.16426284330E+03  0.25498231370E+03  0.00000000000E+00 0.  1.
        -13    1    3    3    0    0 -0.15129496960E+03 -0.38610646891E+03  0.47200065543E+03  0.62829371466E+03  0.00000000000E+00 0. -1.
          2    1    6    6  502    0  0.34193019114E+02 -0.66013338328E+02 -0.68324172577E+02  0.10097086685E+03  0.00000000000E+00 0. -1.
          3    1    5    5  503    0  0.23042384898E+02  0.24753090154E+03 -0.12043882409E+03  0.27623904334E+03  0.00000000000E+00 0. -1.
         -4    1    5    5    0  503  0.68716230868E+02  0.51962750309E+03 -0.12892056241E+03  0.53977326144E+03  0.00000000000E+00 0.  1.
         -1    1    6    6    0  502  0.50949339591E+02 -0.12170460884E+03 -0.31852175963E+03  0.34476652734E+03  0.00000000000E+00 0.  1.
<mgrwt>
<rscale>  0 0.21450257E+04</rscale>
<asrwt>0</asrwt>
<pdfrwt beam="1">  1        3 0.16500645E+00 0.21450257E+04</pdfrwt>
<pdfrwt beam="2">  1       -3 0.16499750E+00 0.21450257E+04</pdfrwt>
<totfact> 0.15124712E-01</totfact>
</mgrwt>
</event>
<event>
12    1  0.2048318E-007  0.3583412E+04  0.7818608E-02  0.8094302E-01
         -1   -1    0    0    0  501 -0.00000000000E+00  0.00000000000E+00  0.99935304443E+03  0.99935304443E+03  0.00000000000E+00 0.  1.
          1   -1    0    0  501    0  0.00000000000E+00 -0.00000000000E+00 -0.32122894321E+04  0.32122894321E+04  0.00000000000E+00 0. -1.
         23    2    1    2    0    0 -0.59277399916E+03 -0.95322919380E+03 -0.25023144623E+04  0.27440262781E+04  0.89864546694E+02 0.  0.
        254    2    1    2    0    0  0.59277399916E+03  0.95322919380E+03  0.28937807458E+03  0.14676161985E+04  0.90007262258E+03 0.  0.
        -24    2    4    4    0    0 -0.84685878068E+00 -0.19460143135E+02  0.31436870181E+03  0.32499012513E+03  0.80071757912E+02 0.  0.
         24    2    4    4    0    0  0.59362085794E+03  0.97268933694E+03 -0.24990627227E+02  0.11426260733E+04  0.80371280987E+02 0.  0.
         11    1    3    3    0    0 -0.34465873668E+03 -0.50529008238E+03 -0.14505891507E+04  0.15742670028E+04  0.00000000000E+00 0. -1.
        -11    1    3    3    0    0 -0.24811526249E+03 -0.44793911143E+03 -0.10517253116E+04  0.11697592753E+04  0.00000000000E+00 0.  1.
          4    1    6    6  502    0  0.25169716358E+03  0.33907038848E+03 -0.15910601253E+02  0.42257938630E+03  0.00000000000E+00 0. -1.
          3    1    5    5  503    0 -0.27236858887E+02  0.18698798635E+02  0.17531151446E+03  0.17839736168E+03  0.00000000000E+00 0. -1.
         -4    1    5    5    0  503  0.26390000106E+02 -0.38158941770E+02  0.13905718735E+03  0.14659276345E+03  0.00000000000E+00 0.  1.
         -3    1    6    6    0  502  0.34192369437E+03  0.63361894846E+03 -0.90800259745E+01  0.72004668702E+03  0.00000000000E+00 0.  1.
<mgrwt>
<rscale>  0 0.35834125E+04</rscale>
<asrwt>0</asrwt>
<pdfrwt beam="1">  1        1 0.49419837E+00 0.35834125E+04</pdfrwt>
<pdfrwt beam="2">  1       -1 0.15374662E+00 0.35834125E+04</pdfrwt>
<totfact> 0.10989143E-01</totfact>
</mgrwt>
</event>
<event>
12    1  0.2048318E-007  0.3225499E+04  0.7818608E-02  0.8182115E-01
          2   -1    0    0  501    0  0.00000000000E+00  0.00000000000E+00  0.14055949837E+04  0.14055949837E+04  0.00000000000E+00 0. -1.
         -2   -1    0    0    0  501 -0.00000000000E+00 -0.00000000000E+00 -0.18504344536E+04  0.18504344536E+04  0.00000000000E+00 0.  1.
         23    2    1    2    0    0  0.63525571767E+03 -0.80978170552E+03  0.87539069138E+03  0.13538625104E+04  0.85665611257E+02 0.  0.
        254    2    1    2    0    0 -0.63525571767E+03  0.80978170552E+03 -0.13202301613E+04  0.19021669270E+04  0.90329126087E+03 0.  0.
        -24    2    4    4    0    0 -0.72407264112E+03  0.66158328413E+03 -0.13868018750E+04  0.17004492994E+04  0.79591129847E+02 0.  0.
         24    2    4    4    0    0  0.88816923450E+02  0.14819842139E+03  0.66571713673E+02  0.20171762760E+03  0.80043677023E+02 0.  0.
         13    1    3    3    0    0  0.53074352508E+03 -0.69764687270E+03  0.77960614390E+03  0.11731093675E+04  0.00000000000E+00 0. -1.
        -13    1    3    3    0    0  0.10451219259E+03 -0.11213483282E+03  0.95784547487E+02  0.18075314290E+03  0.00000000000E+00 0.  1.
          2    1    6    6  502    0  0.90827328581E+02  0.80767917510E+02  0.54420617726E+02  0.13317155759E+03  0.00000000000E+00 0. -1.
          1    1    5    5  503    0 -0.14789014433E+03  0.17684346395E+03 -0.30187021000E+03  0.37982986878E+03  0.00000000000E+00 0. -1.
         -2    1    5    5    0  503 -0.57618249679E+03  0.48473982017E+03 -0.10849316650E+04  0.13206194306E+04  0.00000000000E+00 0.  1.
         -1    1    6    6    0  502 -0.20104051312E+01  0.67430503881E+02  0.12151095947E+02  0.68546070019E+02  0.00000000000E+00 0.  1.
<mgrwt>
<rscale>  0 0.32254993E+04</rscale>
<asrwt>0</asrwt>
<pdfrwt beam="1">  1        2 0.21624539E+00 0.32254993E+04</pdfrwt>
<pdfrwt beam="2">  1       -2 0.28468222E+00 0.32254993E+04</pdfrwt>
<totfact> 0.47591741E-01</totfact>
</mgrwt>
</event>
<event>
12    1  0.2048318E-007  0.2226035E+04  0.7818608E-02  0.8507669E-01
          2   -1    0    0  501    0  0.00000000000E+00  0.00000000000E+00  0.19195478745E+04  0.19195478745E+04  0.00000000000E+00 0. -1.
         -2   -1    0    0    0  501 -0.00000000000E+00 -0.00000000000E+00 -0.64536453327E+03  0.64536453327E+03  0.00000000000E+00 0.  1.
         23    2    1    2    0    0  0.38748620278E+03 -0.30900519099E+03 -0.36072430866E+03  0.61780369137E+03  0.77003953262E+02 0.  0.
        254    2    1    2    0    0 -0.38748620278E+03  0.30900519099E+03  0.16349076498E+04  0.19471087164E+04  0.93417319829E+03 0.  0.
        -24    2    4    4    0    0 -0.45314573307E+03 -0.59970406260E+02  0.14479138538E+04  0.15204442563E+04  0.79741479475E+02 0.  0.
         24    2    4    4    0    0  0.65659530293E+02  0.36897559725E+03  0.18699379606E+03  0.42666446005E+03  0.81373929615E+02 0.  0.
         11    1    3    3    0    0  0.25531158586E+03 -0.15861889699E+03 -0.19964332884E+03  0.36083433748E+03  0.00000000000E+00 0. -1.
        -11    1    3    3    0    0  0.13217461692E+03 -0.15038629400E+03 -0.16108097982E+03  0.25696935389E+03  0.00000000000E+00 0.  1.
          2    1    6    6  502    0  0.41595435638E+02  0.32986555295E+03  0.13936824447E+03  0.36050654759E+03  0.00000000000E+00 0. -1.
          1    1    5    5  503    0 -0.43052634832E+02 -0.27331743084E+02  0.20352069052E+03  0.20981235668E+03  0.00000000000E+00 0. -1.
         -2    1    5    5    0  503 -0.41009309824E+03 -0.32638663177E+02  0.12443931633E+04  0.13106318996E+04  0.00000000000E+00 0.  1.
         -1    1    6    6    0  502  0.24064094655E+02  0.39110044298E+02  0.47625551592E+02  0.66157912459E+02  0.00000000000E+00 0.  1.
<mgrwt>
<rscale>  0 0.22260351E+04</rscale>
<asrwt>0</asrwt>
<pdfrwt beam="1">  1        2 0.29531506E+00 0.22260351E+04</pdfrwt>
<pdfrwt beam="2">  1       -2 0.99286852E-01 0.22260351E+04</pdfrwt>
<totfact> 0.56747638E+00</totfact>
</mgrwt>
</event>
<event>
12    1  0.2048318E-007  0.1621819E+04  0.7818608E-02  0.8807255E-01
         -1   -1    0    0    0  501 -0.00000000000E+00  0.00000000000E+00  0.20838025729E+04  0.20838025729E+04  0.00000000000E+00 0.  1.
          1   -1    0    0  501    0  0.00000000000E+00 -0.00000000000E+00 -0.31556465846E+03  0.31556465846E+03  0.00000000000E+00 0. -1.
         23    2    1    2    0    0 -0.35893584305E+03  0.40708120173E+03  0.43452053782E+03  0.70120030345E+03  0.91234442780E+02 0.  0.
        254    2    1    2    0    0  0.35893584305E+03 -0.40708120173E+03  0.13337173766E+04  0.16981669279E+04  0.90023265331E+03 0.  0.
        -24    2    4    4    0    0 -0.70893598515E+02 -0.50909068695E+03  0.10375461702E+04  0.11607005062E+04  0.80773634771E+02 0.  0.
         24    2    4    4    0    0  0.42982944157E+03  0.10200948523E+03  0.29617120646E+03  0.53746642167E+03  0.77417614129E+02 0.  0.
         11    1    3    3    0    0 -0.19556654556E+03  0.15929391012E+03  0.22382123302E+03  0.33721916893E+03  0.00000000000E+00 0. -1.
        -11    1    3    3    0    0 -0.16336929749E+03  0.24778729161E+03  0.21069930479E+03  0.36398113452E+03  0.00000000000E+00 0.  1.
          4    1    6    6  502    0  0.23056529192E+03  0.29648027303E+02  0.11882831937E+03  0.26107379961E+03  0.00000000000E+00 0. -1.
          1    1    5    5  503    0 -0.79701876606E+02 -0.40910740401E+03  0.88291130093E+03  0.97634708094E+03  0.00000000000E+00 0. -1.
         -2    1    5    5    0  503  0.88082780915E+01 -0.99983282942E+02  0.15463486924E+03  0.18435342528E+03  0.00000000000E+00 0.  1.
         -3    1    6    6    0  502  0.19926414965E+03  0.72361457926E+02  0.17734288709E+03  0.27639262206E+03  0.00000000000E+00 0.  1.
<mgrwt>
<rscale>  0 0.16218193E+04</rscale>
<asrwt>0</asrwt>
<pdfrwt beam="1">  1        1 0.48548410E-01 0.16218193E+04</pdfrwt>
<pdfrwt beam="2">  1       -1 0.32058500E+00 0.16218193E+04</pdfrwt>
<totfact> 0.19119738E+00</totfact>
</mgrwt>
</event>
<event>
12    1  0.2048318E-007  0.1613476E+04  0.7818608E-02  0.8812312E-01
          1   -1    0    0  501    0  0.00000000000E+00  0.00000000000E+00  0.13180711956E+04  0.13180711956E+04  0.00000000000E+00 0. -1.
         -1   -1    0    0    0  501 -0.00000000000E+00 -0.00000000000E+00 -0.49377168423E+03  0.49377168423E+03  0.00000000000E+00 0.  1.
         23    2    1    2    0    0  0.17988370932E+03 -0.38091694525E+03 -0.11444470634E+03  0.44572548648E+03  0.90098559561E+02 0.  0.
        254    2    1    2    0    0 -0.17988370932E+03  0.38091694525E+03  0.93874421771E+03  0.13661173933E+04  0.89865463781E+03 0.  0.
        -24    2    4    4    0    0 -0.60178760040E+02 -0.23207394334E+03  0.21147449026E+02  0.25327568782E+03  0.78876873070E+02 0.  0.
         24    2    4    4    0    0 -0.11970494928E+03  0.61299088859E+03  0.91759676869E+03  0.11128417055E+04  0.79660073250E+02 0.  0.
         13    1    3    3    0    0  0.91010483914E+02 -0.19456023394E+03 -0.11708322169E+02  0.21511317398E+03  0.00000000000E+00 0. -1.
        -13    1    3    3    0    0  0.88873225408E+02 -0.18635671131E+03 -0.10273638417E+03  0.23061231250E+03  0.00000000000E+00 0.  1.
          4    1    6    6  502    0 -0.10514318892E+03  0.38085953279E+03  0.53474541726E+03  0.66487723316E+03  0.00000000000E+00 0. -1.
          1    1    5    5  503    0 -0.12466450691E+02 -0.12013882876E+03  0.45705912392E+02  0.12914248332E+03  0.00000000000E+00 0. -1.
         -2    1    5    5    0  503 -0.47712309348E+02 -0.11193511457E+03 -0.24558463366E+02  0.12413320451E+03  0.00000000000E+00 0.  1.
         -3    1    6    6    0  502 -0.14561760360E+02  0.23213135580E+03  0.38285135143E+03  0.44796447236E+03  0.00000000000E+00 0.  1.
<mgrwt>
<rscale>  0 0.16134760E+04</rscale>
<asrwt>0</asrwt>
<pdfrwt beam="1">  1        1 0.20278018E+00 0.16134760E+04</pdfrwt>
<pdfrwt beam="2">  1       -1 0.75964875E-01 0.16134760E+04</pdfrwt>
<totfact> 0.14649013E+01</totfact>
</mgrwt>
</event>
<event>
12    1  0.2048318E-007  0.1927795E+04  0.7818608E-02  0.8641143E-01
          1   -1    0    0  501    0  0.00000000000E+00  0.00000000000E+00  0.83446462273E+03  0.83446462273E+03  0.00000000000E+00 0. -1.
         -1   -1    0    0    0  501 -0.00000000000E+00 -0.00000000000E+00 -0.11134066824E+04  0.11134066824E+04  0.00000000000E+00 0.  1.
         23    2    1    2    0    0  0.31317030968E+03 -0.64351575245E+03  0.12030359187E+03  0.73191386985E+03  0.95062043624E+02 0.  0.
        254    2    1    2    0    0 -0.31317030968E+03  0.64351575245E+03 -0.39924565150E+03  0.12159574352E+04  0.89831354636E+03 0.  0.
        -24    2    4    4    0    0  0.54242454764E+02  0.70239975375E+03 -0.43752701108E+03  0.83370332211E+03  0.85578536491E+02 0.  0.
         24    2    4    4    0    0 -0.36741276444E+03 -0.58884001297E+02  0.38281359582E+02  0.38225411314E+03  0.78697391523E+02 0.  0.
         13    1    3    3    0    0  0.18459579192E+03 -0.40338092421E+03  0.11987655849E+03  0.45952384670E+03  0.00000000000E+00 0. -1.
        -13    1    3    3    0    0  0.12857451776E+03 -0.24013482824E+03  0.42703337982E+00  0.27239002314E+03  0.00000000000E+00 0.  1.
          4    1    6    6  502    0 -0.36096473761E+03 -0.52961129025E+02  0.49338389984E+02  0.36815037649E+03  0.00000000000E+00 0. -1.
          1    1    5    5  503    0  0.60115689630E+02  0.55759556311E+03 -0.38171353031E+03  0.67840395589E+03  0.00000000000E+00 0. -1.
         -2    1    5    5    0  503 -0.58732348658E+01  0.14480419064E+03 -0.55813480773E+02  0.15529936623E+03  0.00000000000E+00 0.  1.
         -3    1    6    6    0  502 -0.64480268350E+01 -0.59228722719E+01 -0.11057030402E+02  0.14103736644E+02  0.00000000000E+00 0.  1.
<mgrwt>
<rscale>  0 0.19277951E+04</rscale>
<asrwt>0</asrwt>
<pdfrwt beam="1">  1        1 0.12837917E+00 0.19277951E+04</pdfrwt>
<pdfrwt beam="2">  1       -1 0.17129334E+00 0.19277951E+04</pdfrwt>
<totfact> 0.46391086E+00</totfact>
</mgrwt>
</event>
<event>
12    1  0.2048318E-007  0.2015653E+04  0.7818608E-02  0.8599337E-01
         -1   -1    0    0    0  501 -0.00000000000E+00  0.00000000000E+00  0.38650534079E+03  0.38650534079E+03  0.00000000000E+00 0.  1.
          1   -1    0    0  501    0  0.00000000000E+00 -0.00000000000E+00 -0.26279437634E+04  0.26279437634E+04  0.00000000000E+00 0. -1.
         23    2    1    2    0    0 -0.69565085792E+03  0.14010794516E+03 -0.14617924392E+04  0.16275145197E+04  0.91684372171E+02 0.  0.
        254    2    1    2    0    0  0.69565085792E+03 -0.14010794516E+03 -0.77964598340E+03  0.13869345845E+04  0.90120992547E+03 0.  0.
        -24    2    4    4    0    0  0.49594381432E+02  0.22614243292E+01 -0.71089115088E+03  0.71704432751E+03  0.79508631678E+02 0.  0.
         24    2    4    4    0    0  0.64605647649E+03 -0.14236936949E+03 -0.68754832519E+02  0.66989025697E+03  0.79798002476E+02 0.  0.
         11    1    3    3    0    0 -0.11472873555E+03  0.15872092134E+02 -0.32207133189E+03  0.34226385859E+03  0.00000000000E+00 0. -1.
        -11    1    3    3    0    0 -0.58092212237E+03  0.12423585303E+03 -0.11397211073E+04  0.12852506611E+04  0.00000000000E+00 0.  1.
          2    1    6    6  502    0  0.41658913522E+03 -0.80606867851E+02 -0.80845262762E+02  0.43194899148E+03  0.00000000000E+00 0. -1.
          1    1    5    5  503    0  0.17413339344E+01  0.21267429873E+02 -0.52899087649E+02  0.57040768678E+02  0.00000000000E+00 0. -1.
         -2    1    5    5    0  503  0.47853047498E+02 -0.19006005544E+02 -0.65799206323E+03  0.66000355883E+03  0.00000000000E+00 0.  1.
         -1    1    6    6    0  502  0.22946734127E+03 -0.61762501637E+02  0.12090430244E+02  0.23794126549E+03  0.00000000000E+00 0.  1.
<mgrwt>
<rscale>  0 0.20156530E+04</rscale>
<asrwt>0</asrwt>
<pdfrwt beam="1">  1        1 0.40429903E+00 0.20156530E+04</pdfrwt>
<pdfrwt beam="2">  1       -1 0.59462362E-01 0.20156530E+04</pdfrwt>
<totfact> 0.29317435E+00</totfact>
</mgrwt>
</event>
<event>
12    1  0.2048318E-007  0.3771977E+04  0.7818608E-02  0.8052195E-01
         -2   -1    0    0    0  501 -0.00000000000E+00  0.00000000000E+00  0.32994805649E+04  0.32994805649E+04  0.00000000000E+00 0. -1.
          2   -1    0    0  501    0  0.00000000000E+00 -0.00000000000E+00 -0.10780343557E+04  0.10780343557E+04  0.00000000000E+00 0.  1.
         23    2    1    2    0    0 -0.15223962849E+04  0.48001840927E+03  0.19564608470E+04  0.25266270226E+04  0.89425633694E+02 0.  0.
        254    2    1    2    0    0  0.15223962849E+04 -0.48001840927E+03  0.26498536214E+03  0.18508878980E+04  0.89858814113E+03 0.  0.
        -24    2    4    4    0    0  0.68205352812E+02  0.50221217794E+01  0.29756934739E+03  0.31548747920E+03  0.79420659561E+02 0.  0.
         24    2    4    4    0    0  0.14541909320E+04 -0.48504053105E+03 -0.32583985255E+02  0.15354004188E+04  0.80356370717E+02 0.  0.
         13    1    3    3    0    0 -0.48164478635E+03  0.14383892195E+03  0.55261477573E+03  0.74703040503E+03  0.00000000000E+00 0.  1.
        -13    1    3    3    0    0 -0.10407514985E+04  0.33617948732E+03  0.14038460713E+04  0.17795966176E+04  0.00000000000E+00 0. -1.
          2    1    6    6  502    0  0.13833196829E+04 -0.44266404306E+03 -0.27764365708E+02  0.14526856715E+04  0.00000000000E+00 0. -1.
          3    1    5    5  503    0  0.34054417564E+02 -0.36806234868E+02  0.12560803870E+03  0.13524711334E+03  0.00000000000E+00 0. -1.
         -4    1    5    5    0  503  0.34150935248E+02  0.41828356647E+02  0.17196130870E+03  0.18024036586E+03  0.00000000000E+00 0.  1.
         -1    1    6    6    0  502  0.70871249142E+02 -0.42376487989E+02 -0.48196195465E+01  0.82714747305E+02  0.00000000000E+00 0.  1.
<mgrwt>
<rscale>  0 0.37719774E+04</rscale>
<asrwt>0</asrwt>
<pdfrwt beam="1">  1        2 0.16585144E+00 0.37719774E+04</pdfrwt>
<pdfrwt beam="2">  1       -2 0.50761239E+00 0.37719774E+04</pdfrwt>
<totfact> 0.26759200E-02</totfact>
</mgrwt>
</event>
<event>
12    1  0.2048318E-007  0.1842046E+04  0.7818608E-02  0.8684254E-01
         -1   -1    0    0    0  501 -0.00000000000E+00  0.00000000000E+00  0.68109449452E+03  0.68109449452E+03  0.00000000000E+00 0.  1.
          1   -1    0    0  501    0  0.00000000000E+00 -0.00000000000E+00 -0.12454706839E+04  0.12454706839E+04  0.00000000000E+00 0. -1.
         23    2    1    2    0    0  0.97446783154E+02 -0.63431406728E+03 -0.49893417952E+03  0.81778003006E+03  0.89323292442E+02 0.  0.
        254    2    1    2    0    0 -0.97446783154E+02  0.63431406728E+03 -0.65442009847E+02  0.11087851484E+04  0.90181574452E+03 0.  0.
        -24    2    4    4    0    0  0.18068836410E+03 -0.13723240384E+03  0.11316358840E+03  0.26559898133E+03  0.79093637917E+02 0.  0.
         24    2    4    4    0    0 -0.27813514725E+03  0.77154647112E+03 -0.17860559825E+03  0.84318616702E+03  0.80123874706E+02 0.  0.
         11    1    3    3    0    0  0.39158516520E+01 -0.76767913340E+01  0.33597298969E+01  0.92495840083E+01  0.00000000000E+00 0.  1.
        -11    1    3    3    0    0  0.93530931501E+02 -0.62663727595E+03 -0.50229390942E+03  0.80853044605E+03  0.00000000000E+00 0. -1.
          4    1    6    6  502    0 -0.18230046513E+03  0.41821946402E+03 -0.71871910387E+02  0.46185122190E+03  0.00000000000E+00 0. -1.
          1    1    5    5  503    0  0.15510020665E+03 -0.82237853834E+02  0.61789835057E+02  0.18611051132E+03  0.00000000000E+00 0. -1.
         -4    1    5    5    0  503  0.25588157445E+02 -0.54994550005E+02  0.51373753347E+02  0.79488470011E+02  0.00000000000E+00 0.  1.
         -3    1    6    6    0  502 -0.95834682122E+02  0.35332700710E+03 -0.10673368786E+03  0.38133494512E+03  0.00000000000E+00 0.  1.
<mgrwt>
<rscale>  0 0.18420458E+04</rscale>
<asrwt>0</asrwt>
<pdfrwt beam="1">  1        1 0.19161087E+00 0.18420458E+04</pdfrwt>
<pdfrwt beam="2">  1       -1 0.10478377E+00 0.18420458E+04</pdfrwt>
<totfact> 0.79645501E+00</totfact>
</mgrwt>
</event>
<event>
12    1  0.2048318E-007  0.1206285E+04  0.7818608E-02  0.9107373E-01
          2   -1    0    0  501    0  0.00000000000E+00  0.00000000000E+00  0.51570842055E+03  0.51570842055E+03  0.00000000000E+00 0. -1.
         -2   -1    0    0    0  501 -0.00000000000E+00 -0.00000000000E+00 -0.70540059848E+03  0.70540059848E+03  0.00000000000E+00 0.  1.
         23    2    1    2    0    0 -0.16209197676E+03  0.39492468735E+02  0.15269820960E+03  0.24475219675E+03  0.93559770100E+02 0.  0.
        254    2    1    2    0    0  0.16209197676E+03 -0.39492468735E+02 -0.34239038752E+03  0.97635682228E+03  0.89900389484E+03 0.  0.
        -24    2    4    4    0    0  0.22626937004E+03  0.39572572815E+03 -0.12460713505E+03  0.47931515676E+03  0.80121168627E+02 0.  0.
         24    2    4    4    0    0 -0.64177393277E+02 -0.43521819688E+03 -0.21778325247E+03  0.49704166552E+03  0.78020865819E+02 0.  0.
         13    1    3    3    0    0  0.12439066724E+02  0.11043752489E+01  0.82166685989E+01  0.14948701232E+02  0.00000000000E+00 0.  1.
        -13    1    3    3    0    0 -0.17453104348E+03  0.38388093486E+02  0.14448154100E+03  0.22980349551E+03  0.00000000000E+00 0. -1.
          2    1    6    6  502    0 -0.32739104280E+02 -0.19329110825E+03 -0.54495540615E+02  0.20347743222E+03  0.00000000000E+00 0. -1.
          3    1    5    5  503    0  0.21713490800E+03  0.39721559957E+03 -0.12613699156E+03  0.46993440122E+03  0.00000000000E+00 0. -1.
         -4    1    5    5    0  503  0.91344620396E+01 -0.14898714209E+01  0.15298565075E+01  0.93807555419E+01  0.00000000000E+00 0.  1.
         -1    1    6    6    0  502 -0.31438288997E+02 -0.24192708863E+03 -0.16328771185E+03  0.29356423330E+03  0.00000000000E+00 0.  1.
<mgrwt>
<rscale>  0 0.12062853E+04</rscale>
<asrwt>0</asrwt>
<pdfrwt beam="1">  1        2 0.79339757E-01 0.12062853E+04</pdfrwt>
<pdfrwt beam="2">  1       -2 0.10852317E+00 0.12062853E+04</pdfrwt>
<totfact> 0.39771303E+01</totfact>
</mgrwt>
</event>
<event>
12    1  0.2048318E-007  0.5324511E+04  0.7818608E-02  0.7780309E-01
          2   -1    0    0  501    0  0.00000000000E+00  0.00000000000E+00  0.18711243957E+04  0.18711243957E+04  0.00000000000E+00 0.  1.
         -2   -1    0    0    0  501 -0.00000000000E+00 -0.00000000000E+00 -0.37878852173E+04  0.37878852173E+04  0.00000000000E+00 0. -1.
         23    2    1    2    0    0  0.19696364833E+04 -0.14580666384E+04 -0.55932231162E+02  0.24529012978E+04  0.90388958900E+02 0.  0.
        254    2    1    2    0    0 -0.19696364833E+04  0.14580666384E+04 -0.18608285905E+04  0.32061083151E+04  0.90056720275E+03 0.  0.
        -24    2    4    4    0    0 -0.85519096294E+03  0.10123221322E+04 -0.13675737644E+04  0.19059255710E+04  0.78400245620E+02 0.  0.
         24    2    4    4    0    0 -0.11144455204E+04  0.44574450620E+03 -0.49325482603E+03  0.13001827441E+04  0.80609317098E+02 0.  0.
         13    1    3    3    0    0  0.56481499847E+03 -0.44383938845E+03 -0.51987742615E+02  0.72021671087E+03  0.00000000000E+00 0.  1.
        -13    1    3    3    0    0  0.14048214848E+04 -0.10142272500E+04 -0.39444885465E+01  0.17326845870E+04  0.00000000000E+00 0. -1.
          2    1    6    6  502    0 -0.70036653826E+03  0.31626234314E+03 -0.29432685515E+03  0.82289941989E+03  0.00000000000E+00 0. -1.
          1    1    5    5  503    0 -0.65543830395E+03  0.78355228907E+03 -0.10997097117E+04  0.15009713555E+04  0.00000000000E+00 0. -1.
         -2    1    5    5    0  503 -0.19975265899E+03  0.22876984317E+03 -0.26786405279E+03  0.40495421555E+03  0.00000000000E+00 0.  1.
         -1    1    6    6    0  502 -0.41407898213E+03  0.12948216306E+03 -0.19892797088E+03  0.47728332423E+03  0.00000000000E+00 0.  1.
<mgrwt>
<rscale>  0 0.53245110E+04</rscale>
<asrwt>0</asrwt>
<pdfrwt beam="1">  1        2 0.28786529E+00 0.53245110E+04</pdfrwt>
<pdfrwt beam="2">  1       -2 0.58275157E+00 0.53245110E+04</pdfrwt>
<totfact> 0.33896895E-03</totfact>
</mgrwt>
</event>
<event>
12    1  0.2048318E-007  0.1806461E+04  0.7818608E-02  0.8702871E-01
          1   -1    0    0  501    0  0.00000000000E+00  0.00000000000E+00  0.88660943024E+03  0.88660943024E+03  0.00000000000E+00 0. -1.
         -1   -1    0    0    0  501 -0.00000000000E+00 -0.00000000000E+00 -0.92016276764E+03  0.92016276764E+03  0.00000000000E+00 0.  1.
         23    2    1    2    0    0 -0.62487544676E+03  0.13580634067E+03 -0.23731915694E+03  0.68805298211E+03  0.90464566561E+02 0.  0.
        254    2    1    2    0    0  0.62487544676E+03 -0.13580634067E+03  0.20376581954E+03  0.11187192158E+04  0.89504161266E+03 0.  0.
        -24    2    4    4    0    0  0.56733354261E+03 -0.37129309252E+03  0.40491747854E+03  0.79389781166E+03  0.81176731932E+02 0.  0.
         24    2    4    4    0    0  0.57541904153E+02  0.23548675185E+03 -0.20115165900E+03  0.32482140412E+03  0.79258271622E+02 0.  0.
         13    1    3    3    0    0 -0.30564054557E+03  0.90791286806E+02 -0.77039405810E+02  0.32801565649E+03  0.00000000000E+00 0. -1.
        -13    1    3    3    0    0 -0.31923490120E+03  0.45015053862E+02 -0.16027975113E+03  0.36003732562E+03  0.00000000000E+00 0.  1.
          2    1    6    6  502    0  0.10757735526E+02  0.28541533427E+02  0.26637860993E+01  0.30617703382E+02  0.00000000000E+00 0. -1.
          1    1    5    5  503    0  0.25359364165E+03 -0.12309120890E+03  0.14698730142E+03  0.31790949588E+03  0.00000000000E+00 0. -1.
         -2    1    5    5    0  503  0.31373990096E+03 -0.24820188362E+03  0.25793017711E+03  0.47598831577E+03  0.00000000000E+00 0.  1.
         -3    1    6    6    0  502  0.46784168627E+02  0.20694521843E+03 -0.20381544510E+03  0.29420370073E+03  0.00000000000E+00 0.  1.
<mgrwt>
<rscale>  0 0.18064606E+04</rscale>
<asrwt>0</asrwt>
<pdfrwt beam="1">  1        1 0.13640145E+00 0.18064606E+04</pdfrwt>
<pdfrwt beam="2">  1       -1 0.14156350E+00 0.18064606E+04</pdfrwt>
<totfact> 0.71672361E+00</totfact>
</mgrwt>
</event>
<event>
12    1  0.2048318E-007  0.1170656E+04  0.7818608E-02  0.9138936E-01
          2   -1    0    0  501    0  0.00000000000E+00  0.00000000000E+00  0.84452255780E+03  0.84452255780E+03  0.00000000000E+00 0.  1.
         -2   -1    0    0    0  501 -0.00000000000E+00 -0.00000000000E+00 -0.40568343602E+03  0.40568343602E+03  0.00000000000E+00 0. -1.
         23    2    1    2    0    0 -0.30454073143E+02  0.22174762504E+03  0.59421203209E+02  0.24856411605E+03  0.90298286891E+02 0.  0.
        254    2    1    2    0    0  0.30454073143E+02 -0.22174762504E+03  0.37941791857E+03  0.10016418778E+04  0.89957158391E+03 0.  0.
        -24    2    4    4    0    0  0.13700593880E+03  0.28511270662E+03  0.34725566185E+03  0.47663076293E+03  0.80811550805E+02 0.  0.
         24    2    4    4    0    0 -0.10655186565E+03 -0.50686033167E+03  0.32162256720E+02  0.52501111483E+03  0.79633937776E+02 0.  0.
         11    1    3    3    0    0 -0.12951773152E+02  0.17233135884E+03  0.82241516644E+02  0.19138838190E+03  0.00000000000E+00 0.  1.
        -11    1    3    3    0    0 -0.17502299992E+02  0.49416266202E+02 -0.22820313435E+02  0.57175734150E+02  0.00000000000E+00 0. -1.
          2    1    6    6  502    0 -0.91330422677E+02 -0.24094401697E+03  0.16231909630E+02  0.25818353996E+03  0.00000000000E+00 0. -1.
          3    1    5    5  503    0  0.11795110666E+03  0.17078428153E+03  0.19088028708E+03  0.28198407468E+03  0.00000000000E+00 0. -1.
         -4    1    5    5    0  503  0.19054832142E+02  0.11432842510E+03  0.15637537477E+03  0.19464668825E+03  0.00000000000E+00 0.  1.
         -1    1    6    6    0  502 -0.15221442978E+02 -0.26591631470E+03  0.15930347090E+02  0.26682757487E+03  0.00000000000E+00 0.  1.
<mgrwt>
<rscale>  0 0.11706559E+04</rscale>
<asrwt>0</asrwt>
<pdfrwt beam="1">  1        2 0.12992655E+00 0.11706559E+04</pdfrwt>
<pdfrwt beam="2">  1       -2 0.62412837E-01 0.11706559E+04</pdfrwt>
<totfact> 0.75417874E+01</totfact>
</mgrwt>
</event>
<event>
12    1  0.2048318E-007  0.2087760E+04  0.7818608E-02  0.8566654E-01
         -2   -1    0    0    0  501 -0.00000000000E+00  0.00000000000E+00  0.13091684583E+04  0.13091684583E+04  0.00000000000E+00 0.  1.
          2   -1    0    0  501    0  0.00000000000E+00 -0.00000000000E+00 -0.83234937761E+03  0.83234937761E+03  0.00000000000E+00 0. -1.
         23    2    1    2    0    0 -0.34617010378E+03 -0.41073628202E+03 -0.47799464654E+03  0.72477062125E+03  0.90969979579E+02 0.  0.
        254    2    1    2    0    0  0.34617010378E+03  0.41073628202E+03  0.95481372724E+03  0.14167472147E+04  0.89831251937E+03 0.  0.
        -24    2    4    4    0    0  0.20611508296E+01 -0.21538981148E+03  0.53998098902E+03  0.58674772215E+03  0.79349869005E+02 0.  0.
         24    2    4    4    0    0  0.34410895295E+03  0.62612609350E+03  0.41483273822E+03  0.82999949253E+03  0.79800378654E+02 0.  0.
         13    1    3    3    0    0 -0.17446310549E+03 -0.20111820766E+03 -0.17665744910E+03  0.31952114633E+03  0.00000000000E+00 0.  1.
        -13    1    3    3    0    0 -0.17170699829E+03 -0.20961807436E+03 -0.30133719744E+03  0.40524947491E+03  0.00000000000E+00 0. -1.
          2    1    6    6  502    0  0.19010253715E+03  0.41608486499E+03  0.28510967328E+03  0.53902979074E+03  0.00000000000E+00 0. -1.
          3    1    5    5  503    0 -0.18240228612E+02 -0.20284801118E+03  0.45546011604E+03  0.49892277848E+03  0.00000000000E+00 0. -1.
         -4    1    5    5    0  503  0.20301379441E+02 -0.12541800307E+02  0.84520872978E+02  0.87824943673E+02  0.00000000000E+00 0.  1.
         -1    1    6    6    0  502  0.15400641580E+03  0.21004122851E+03  0.12972306494E+03  0.29096970179E+03  0.00000000000E+00 0.  1.
<mgrwt>
<rscale>  0 0.20877601E+04</rscale>
<asrwt>0</asrwt>
<pdfrwt beam="1">  1        2 0.12805375E+00 0.20877601E+04</pdfrwt>
<pdfrwt beam="2">  1       -2 0.20141053E+00 0.20877601E+04</pdfrwt>
<totfact> 0.39205789E+00</totfact>
</mgrwt>
</event>
<event>
12    1  0.2048318E-007  0.1967634E+04  0.7818608E-02  0.8621904E-01
          2   -1    0    0  501    0  0.00000000000E+00  0.00000000000E+00  0.44830688807E+03  0.44830688807E+03  0.00000000000E+00 0. -1.
         -2   -1    0    0    0  501 -0.00000000000E+00 -0.00000000000E+00 -0.21590020615E+04  0.21590020615E+04  0.00000000000E+00 0.  1.
         23    2    1    2    0    0 -0.50286982527E+03 -0.16673479324E+03  0.68824649283E+02  0.54372282925E+03  0.10108971389E+03 0.  0.
        254    2    1    2    0    0  0.50286982527E+03  0.16673479324E+03 -0.17795198227E+04  0.20635861203E+04  0.90056555787E+03 0.  0.
        -24    2    4    4    0    0  0.24430250862E+03 -0.24058221331E+03 -0.18863809754E+03  0.39924603009E+03  0.79054055061E+02 0.  0.
         24    2    4    4    0    0  0.25856731666E+03  0.40731700655E+03 -0.15908817251E+04  0.16643400902E+04  0.79743785585E+02 0.  0.
         11    1    3    3    0    0 -0.17706249442E+03 -0.10848092904E+03  0.12851857345E+02  0.20804905463E+03  0.00000000000E+00 0.  1.
        -11    1    3    3    0    0 -0.32580733086E+03 -0.58253864203E+02  0.55972791938E+02  0.33567377463E+03  0.00000000000E+00 0. -1.
          4    1    6    6  502    0  0.11950800140E+03  0.17083681992E+03 -0.82034030177E+03  0.84641927680E+03  0.00000000000E+00 0. -1.
          1    1    5    5  503    0  0.12145478893E+03 -0.68583636258E+02 -0.90010696748E+02  0.16600273024E+03  0.00000000000E+00 0. -1.
         -4    1    5    5    0  503  0.12284771968E+03 -0.17199857705E+03 -0.98627400790E+02  0.23324329985E+03  0.00000000000E+00 0.  1.
         -3    1    6    6    0  502  0.13905931526E+03  0.23648018663E+03 -0.77054142338E+03  0.81792081339E+03  0.00000000000E+00 0.  1.
<mgrwt>
<rscale>  0 0.19676336E+04</rscale>
<asrwt>0</asrwt>
<pdfrwt beam="1">  1        2 0.68970292E-01 0.19676336E+04</pdfrwt>
<pdfrwt beam="2">  1       -2 0.33215416E+00 0.19676336E+04</pdfrwt>
<totfact> 0.13123290E+00</totfact>
</mgrwt>
</event>
<event>
12    1  0.2048318E-007  0.2242710E+04  0.7818608E-02  0.8500858E-01
         -1   -1    0    0    0  501 -0.00000000000E+00  0.00000000000E+00  0.53381194407E+03  0.53381194407E+03  0.00000000000E+00 0.  1.
          1   -1    0    0  501    0  0.00000000000E+00 -0.00000000000E+00 -0.23555814672E+04  0.23555814672E+04  0.00000000000E+00 0. -1.
         23    2    1    2    0    0  0.84653484931E+03  0.36663077412E+03 -0.98329360167E+03  0.13516811443E+04  0.95583645032E+02 0.  0.
        254    2    1    2    0    0 -0.84653484931E+03 -0.36663077412E+03 -0.83847592143E+03  0.15377122669E+04  0.90026538829E+03 0.  0.
        -24    2    4    4    0    0 -0.17006702648E+03  0.32733420696E+02  0.17156469111E+03  0.25561026657E+03  0.76862831159E+02 0.  0.
         24    2    4    4    0    0 -0.67646782284E+03 -0.39936419482E+03 -0.10100406125E+04  0.12821020003E+04  0.80641334774E+02 0.  0.
         13    1    3    3    0    0  0.42875010126E+03  0.14396865031E+03 -0.52212257505E+03  0.69077174593E+03  0.00000000000E+00 0. -1.
        -13    1    3    3    0    0  0.41778474805E+03  0.22266212381E+03 -0.46117102662E+03  0.66090939839E+03  0.00000000000E+00 0.  1.
          2    1    6    6  502    0 -0.43294605728E+03 -0.24247919320E+03 -0.57601420358E+03  0.76028337504E+03  0.00000000000E+00 0. -1.
          1    1    5    5  503    0 -0.47232161397E+02 -0.11267966426E+01  0.74335040629E+01  0.47826809673E+02  0.00000000000E+00 0. -1.
         -2    1    5    5    0  503 -0.12283486508E+03  0.33860217338E+02  0.16413118705E+03  0.20778345690E+03  0.00000000000E+00 0.  1.
         -1    1    6    6    0  502 -0.24352176556E+03 -0.15688500162E+03 -0.43402640896E+03  0.52181862530E+03  0.00000000000E+00 0.  1.
<mgrwt>
<rscale>  0 0.22427104E+04</rscale>
<asrwt>0</asrwt>
<pdfrwt beam="1">  1        1 0.36239716E+00 0.22427104E+04</pdfrwt>
<pdfrwt beam="2">  1       -1 0.82124913E-01 0.22427104E+04</pdfrwt>
<totfact> 0.22831895E+00</totfact>
</mgrwt>
</event>
<event>
12    1  0.2048318E-007  0.4233105E+04  0.7818608E-02  0.7959105E-01
          2   -1    0    0  501    0  0.00000000000E+00  0.00000000000E+00  0.11715934779E+04  0.11715934779E+04  0.00000000000E+00 0. -1.
         -2   -1    0    0    0  501 -0.00000000000E+00 -0.00000000000E+00 -0.38236767968E+04  0.38236767968E+04  0.00000000000E+00 0.  1.
         23    2    1    2    0    0  0.10170863816E+04  0.17135095005E+04 -0.87729395615E+03  0.21789842390E+04  0.88023361794E+02 0.  0.
        254    2    1    2    0    0 -0.10170863816E+04 -0.17135095005E+04 -0.17747893628E+04  0.28162860357E+04  0.90056106777E+03 0.  0.
        -24    2    4    4    0    0 -0.44269828826E+03 -0.11410375211E+04 -0.54759934943E+03  0.13431771701E+04  0.79444720730E+02 0.  0.
         24    2    4    4    0    0 -0.57438809338E+03 -0.57247197940E+03 -0.12271900133E+04  0.14731088657E+04  0.80053433791E+02 0.  0.
         11    1    3    3    0    0  0.61322443245E+03  0.95006407147E+03 -0.48617449763E+03  0.12308661936E+04  0.00000000000E+00 0. -1.
        -11    1    3    3    0    0  0.40386194919E+03  0.76344542905E+03 -0.39111945852E+03  0.94811804538E+03  0.00000000000E+00 0.  1.
          2    1    6    6  502    0 -0.21414788403E+02 -0.20663670405E+02 -0.22534902851E+02  0.37328304053E+02  0.00000000000E+00 0. -1.
          3    1    5    5  503    0 -0.85223087890E+02 -0.29639966252E+03 -0.11562071805E+03  0.32936891944E+03  0.00000000000E+00 0. -1.
         -4    1    5    5    0  503 -0.35747520037E+03 -0.84463785860E+03 -0.43197863138E+03  0.10138082506E+04  0.00000000000E+00 0.  1.
         -1    1    6    6    0  502 -0.55297330498E+03 -0.55180830899E+03 -0.12046551105E+04  0.14357805616E+04  0.00000000000E+00 0.  1.
<mgrwt>
<rscale>  0 0.42331051E+04</rscale>
<asrwt>0</asrwt>
<pdfrwt beam="1">  1        2 0.18024515E+00 0.42331051E+04</pdfrwt>
<pdfrwt beam="2">  1       -2 0.58825797E+00 0.42331051E+04</pdfrwt>
<totfact> 0.86567836E-03</totfact>
</mgrwt>
</event>
<event>
12    1  0.2048318E-007  0.2155687E+04  0.7818608E-02  0.8537102E-01
         -2   -1    0    0    0  501 -0.00000000000E+00  0.00000000000E+00  0.47775331078E+03  0.47775331078E+03  0.00000000000E+00 0.  1.
          2   -1    0    0  501    0  0.00000000000E+00 -0.00000000000E+00 -0.24316877260E+04  0.24316877260E+04  0.00000000000E+00 0. -1.
         23    2    1    2    0    0  0.62553711499E+03 -0.53909299423E+03 -0.37233181860E+03  0.91038149522E+03  0.90804983510E+02 0.  0.
        254    2    1    2    0    0 -0.62553711499E+03  0.53909299423E+03 -0.15816025966E+04  0.19990595416E+04  0.90158434903E+03 0.  0.
        -24    2    4    4    0    0 -0.57651041910E+03 -0.12640560370E+01 -0.42893730973E+03  0.72257595765E+03  0.75914015365E+02 0.  0.
         24    2    4    4    0    0 -0.49026695891E+02  0.54035705027E+03 -0.11526652869E+04  0.12764835839E+04  0.79898170828E+02 0.  0.
         13    1    3    3    0    0  0.51064233514E+03 -0.39024388023E+03 -0.29178789368E+03  0.70582296320E+03  0.00000000000E+00 0.  1.
        -13    1    3    3    0    0  0.11489477985E+03 -0.14884911400E+03 -0.80543924923E+02  0.20455853201E+03  0.00000000000E+00 0. -1.
          4    1    6    6  502    0 -0.29339236168E+02  0.56517609593E+02 -0.11714051707E+03  0.13333016055E+03  0.00000000000E+00 0. -1.
          3    1    5    5  503    0 -0.24337719363E+03  0.29692734341E+02 -0.15401709653E+03  0.28954340413E+03  0.00000000000E+00 0. -1.
         -4    1    5    5    0  503 -0.33313322547E+03 -0.30956790378E+02 -0.27492021320E+03  0.43303255352E+03  0.00000000000E+00 0.  1.
         -1    1    6    6    0  502 -0.19687459723E+02  0.48383944068E+03 -0.10355247698E+04  0.11431534234E+04  0.00000000000E+00 0.  1.
<mgrwt>
<rscale>  0 0.21556872E+04</rscale>
<asrwt>0</asrwt>
<pdfrwt beam="1">  1        2 0.37410581E+00 0.21556872E+04</pdfrwt>
<pdfrwt beam="2">  1       -2 0.73500508E-01 0.21556872E+04</pdfrwt>
<totfact> 0.58404583E+00</totfact>
</mgrwt>
</event>
<event>
12    1  0.2048318E-007  0.1942272E+04  0.7818608E-02  0.8634096E-01
          2   -1    0    0  501    0  0.00000000000E+00  0.00000000000E+00  0.36247258955E+03  0.36247258955E+03  0.00000000000E+00 0. -1.
         -2   -1    0    0    0  501 -0.00000000000E+00 -0.00000000000E+00 -0.26018669617E+04  0.26018669617E+04  0.00000000000E+00 0.  1.
         23    2    1    2    0    0 -0.66333307520E+03 -0.36900160316E+03 -0.91092193680E+03  0.11893707028E+04  0.93010440562E+02 0.  0.
        254    2    1    2    0    0  0.66333307520E+03  0.36900160316E+03 -0.13284724353E+04  0.17749688484E+04  0.89972354060E+03 0.  0.
        -24    2    4    4    0    0  0.75279899885E+03  0.45082571505E+03 -0.13641281282E+04  0.16239456566E+04  0.80023668889E+02 0.  0.
         24    2    4    4    0    0 -0.89465923656E+02 -0.81824111889E+02  0.35655692840E+02  0.15102319176E+03  0.82688204927E+02 0.  0.
         11    1    3    3    0    0 -0.50165401385E+03 -0.28119360918E+03 -0.74875392128E+03  0.94411812295E+03  0.00000000000E+00 0. -1.
        -11    1    3    3    0    0 -0.16167906135E+03 -0.87807993982E+02 -0.16216801552E+03  0.24525257989E+03  0.00000000000E+00 0.  1.
          2    1    6    6  502    0 -0.17974144481E+02 -0.56865748638E+02 -0.12968642483E+02  0.61032523509E+02  0.00000000000E+00 0. -1.
          3    1    5    5  503    0  0.32883769102E+03  0.24305501242E+03 -0.62360355024E+03  0.74571533038E+03  0.00000000000E+00 0. -1.
         -4    1    5    5    0  503  0.42396130783E+03  0.20777070263E+03 -0.74052457794E+03  0.87823032625E+03  0.00000000000E+00 0.  1.
         -1    1    6    6    0  502 -0.71491779175E+02 -0.24958363251E+02  0.48624335324E+02  0.89990668246E+02  0.00000000000E+00 0.  1.
<mgrwt>
<rscale>  0 0.19422723E+04</rscale>
<asrwt>0</asrwt>
<pdfrwt beam="1">  1        2 0.55765014E-01 0.19422723E+04</pdfrwt>
<pdfrwt beam="2">  1       -2 0.40028723E+00 0.19422723E+04</pdfrwt>
<totfact> 0.61497315E-01</totfact>
</mgrwt>
</event>
<event>
12    1  0.2048318E-007  0.2748691E+04  0.7818608E-02  0.8319377E-01
          2   -1    0    0  501    0  0.00000000000E+00  0.00000000000E+00  0.84821827027E+03  0.84821827027E+03  0.00000000000E+00 0.  1.
         -2   -1    0    0    0  501 -0.00000000000E+00 -0.00000000000E+00 -0.22268149815E+04  0.22268149815E+04  0.00000000000E+00 0. -1.
         23    2    1    2    0    0  0.51093924302E+03 -0.38878909298E+03  0.55050199396E+03  0.85066625504E+03  0.91459079622E+02 0.  0.
        254    2    1    2    0    0 -0.51093924302E+03  0.38878909298E+03 -0.19290987052E+04  0.22243669967E+04  0.90231416530E+03 0.  0.
        -24    2    4    4    0    0 -0.33098622743E+03  0.66369234244E+03 -0.10970473146E+04  0.13266100431E+04  0.79636597657E+02 0.  0.
         24    2    4    4    0    0 -0.17995301558E+03 -0.27490324946E+03 -0.83205139055E+03  0.89775695364E+03  0.75519182492E+02 0.  0.
         11    1    3    3    0    0  0.50379834545E+03 -0.36572368781E+03  0.54081552139E+03  0.82465023912E+03  0.00000000000E+00 0.  1.
        -11    1    3    3    0    0  0.71408975682E+01 -0.23065405173E+02  0.96864725638E+01  0.26016015925E+02  0.00000000000E+00 0. -1.
          4    1    6    6  502    0 -0.17043196156E+03 -0.25522203654E+03 -0.81211699911E+03  0.86817012256E+03  0.00000000000E+00 0. -1.
          1    1    5    5  503    0 -0.13380608630E+03  0.35115490072E+03 -0.52683248617E+03  0.64712155080E+03  0.00000000000E+00 0. -1.
         -2    1    5    5    0  503 -0.19718014113E+03  0.31253744173E+03 -0.57021482846E+03  0.67948849228E+03  0.00000000000E+00 0.  1.
         -3    1    6    6    0  502 -0.95210540211E+01 -0.19681212924E+02 -0.19934391434E+02  0.29586831085E+02  0.00000000000E+00 0.  1.
<mgrwt>
<rscale>  0 0.27486907E+04</rscale>
<asrwt>0</asrwt>
<pdfrwt beam="1">  1        2 0.13049512E+00 0.27486907E+04</pdfrwt>
<pdfrwt beam="2">  1       -2 0.34258692E+00 0.27486907E+04</pdfrwt>
<totfact> 0.48179640E-01</totfact>
</mgrwt>
</event>
<event>
12    1  0.2048318E-007  0.1830748E+04  0.7818608E-02  0.8690117E-01
         -2   -1    0    0    0  501 -0.00000000000E+00  0.00000000000E+00  0.61617171614E+03  0.61617171614E+03  0.00000000000E+00 0.  1.
          2   -1    0    0  501    0  0.00000000000E+00 -0.00000000000E+00 -0.13598634066E+04  0.13598634066E+04  0.00000000000E+00 0. -1.
         23    2    1    2    0    0 -0.50264497243E+03  0.47321848451E+02  0.22404936050E+03  0.55977063691E+03  0.90850010255E+02 0.  0.
        254    2    1    2    0    0  0.50264497243E+03 -0.47321848451E+02 -0.96774105092E+03  0.14162644858E+04  0.90243616197E+03 0.  0.
        -24    2    4    4    0    0  0.29633039641E+03  0.37203189093E+03 -0.75640040140E+03  0.89704257292E+03  0.79525962368E+02 0.  0.
         24    2    4    4    0    0  0.20631457602E+03 -0.41935373938E+03 -0.21134064952E+03  0.51922191287E+03  0.80642802860E+02 0.  0.
         13    1    3    3    0    0 -0.35291551802E+03  0.33572186089E+02  0.11042976331E+03  0.37131009570E+03  0.00000000000E+00 0. -1.
        -13    1    3    3    0    0 -0.14972945440E+03  0.13749662362E+02  0.11361959719E+03  0.18846054122E+03  0.00000000000E+00 0.  1.
          2    1    6    6  502    0  0.18205516426E+03 -0.30833464228E+03 -0.13677572027E+03  0.38330396831E+03  0.00000000000E+00 0. -1.
          1    1    5    5  503    0  0.18249943043E+03  0.19508929251E+03 -0.48423459103E+03  0.55303617722E+03  0.00000000000E+00 0. -1.
         -2    1    5    5    0  503  0.11383096598E+03  0.17694259843E+03 -0.27216581037E+03  0.34400639571E+03  0.00000000000E+00 0.  1.
         -1    1    6    6    0  502  0.24259411758E+02 -0.11101909710E+03 -0.74564929253E+02  0.13591794457E+03  0.00000000000E+00 0.  1.
<mgrwt>
<rscale>  0 0.18307478E+04</rscale>
<asrwt>0</asrwt>
<pdfrwt beam="1">  1        2 0.20920976E+00 0.18307478E+04</pdfrwt>
<pdfrwt beam="2">  1       -2 0.94795648E-01 0.18307478E+04</pdfrwt>
<totfact> 0.13463673E+01</totfact>
</mgrwt>
</event>
<event>
12    1  0.2048318E-007  0.1196155E+04  0.7818608E-02  0.9116229E-01
         -1   -1    0    0    0  501 -0.00000000000E+00  0.00000000000E+00  0.39938530001E+03  0.39938530001E+03  0.00000000000E+00 0.  1.
          1   -1    0    0  501    0  0.00000000000E+00 -0.00000000000E+00 -0.89561825190E+03  0.89561825190E+03  0.00000000000E+00 0. -1.
         23    2    1    2    0    0  0.17028327684E+03 -0.15566844995E+03 -0.20480456739E+03  0.31562887649E+03  0.66690450367E+02 0.  0.
        254    2    1    2    0    0 -0.17028327684E+03  0.15566844995E+03 -0.29142838450E+03  0.97937467542E+03  0.90609888581E+03 0.  0.
        -24    2    4    4    0    0  0.52559869874E+01 -0.35910620616E+03 -0.21092281245E+03  0.42384304544E+03  0.78546811852E+02 0.  0.
         24    2    4    4    0    0 -0.17553926383E+03  0.51477465611E+03 -0.80505572051E+02  0.55553162997E+03  0.79544107589E+02 0.  0.
         11    1    3    3    0    0  0.37320748801E+02 -0.58803677172E+02 -0.95193633834E+02  0.11795142501E+03  0.00000000000E+00 0. -1.
        -11    1    3    3    0    0  0.13296252804E+03 -0.96864772773E+02 -0.10961093355E+03  0.19767745148E+03  0.00000000000E+00 0.  1.
          2    1    6    6  502    0 -0.62042474236E+01  0.58061058100E+02 -0.30497365970E+02  0.65876160217E+02  0.00000000000E+00 0. -1.
          3    1    5    5  503    0  0.16904588380E+02 -0.19231156029E+03 -0.70584931982E+02  0.20555226574E+03  0.00000000000E+00 0. -1.
         -4    1    5    5    0  503 -0.11648601392E+02 -0.16679464588E+03 -0.14033788047E+03  0.21829077970E+03  0.00000000000E+00 0.  1.
         -1    1    6    6    0  502 -0.16933501641E+03  0.45671359801E+03 -0.50008206081E+02  0.48965546976E+03  0.00000000000E+00 0.  1.
<mgrwt>
<rscale>  0 0.11961551E+04</rscale>
<asrwt>0</asrwt>
<pdfrwt beam="1">  1        1 0.13778742E+00 0.11961551E+04</pdfrwt>
<pdfrwt beam="2">  1       -1 0.61443893E-01 0.11961551E+04</pdfrwt>
<totfact> 0.48802539E+01</totfact>
</mgrwt>
</event>
<event>
12    1  0.2048318E-007  0.3095366E+04  0.7818608E-02  0.8217011E-01
          2   -1    0    0  501    0  0.00000000000E+00  0.00000000000E+00  0.28560413817E+04  0.28560413817E+04  0.00000000000E+00 0. -1.
         -2   -1    0    0    0  501 -0.00000000000E+00 -0.00000000000E+00 -0.83868648029E+03  0.83868648029E+03  0.00000000000E+00 0.  1.
         23    2    1    2    0    0  0.25034301286E+03  0.95272096269E+03  0.21396483555E+04  0.23573131952E+04  0.92095377926E+02 0.  0.
        254    2    1    2    0    0 -0.25034301286E+03 -0.95272096269E+03 -0.12229345404E+03  0.13374146667E+04  0.89631102028E+03 0.  0.
        -24    2    4    4    0    0 -0.54812183901E+01 -0.10113213396E+04  0.62687572659E+02  0.10163813876E+04  0.79375672874E+02 0.  0.
         24    2    4    4    0    0 -0.24486179447E+03  0.58600376949E+02 -0.18498102670E+03  0.32103327918E+03  0.73844996659E+02 0.  0.
         11    1    3    3    0    0  0.14242705721E+03  0.49715739696E+03  0.12287377637E+04  0.13331344403E+04  0.00000000000E+00 0. -1.
        -11    1    3    3    0    0  0.10791595566E+03  0.45556356573E+03  0.91091059176E+03  0.10241787550E+04  0.00000000000E+00 0.  1.
          4    1    6    6  502    0 -0.21978227661E+03  0.26769562611E+02 -0.16296264862E+03  0.27491395644E+03  0.00000000000E+00 0. -1.
          3    1    5    5  503    0 -0.11123277995E+02 -0.87649714806E+03  0.80555292866E+02  0.88026140043E+03  0.00000000000E+00 0. -1.
         -4    1    5    5    0  503  0.56420596045E+01 -0.13482419158E+03 -0.17867720207E+02  0.13611998714E+03  0.00000000000E+00 0.  1.
         -3    1    6    6    0  502 -0.25079517859E+02  0.31830814338E+02 -0.22018378073E+02  0.46119322745E+02  0.00000000000E+00 0.  1.
<mgrwt>
<rscale>  0 0.30953664E+04</rscale>
<asrwt>0</asrwt>
<pdfrwt beam="1">  1        2 0.43939098E+00 0.30953664E+04</pdfrwt>
<pdfrwt beam="2">  1       -2 0.12902869E+00 0.30953664E+04</pdfrwt>
<totfact> 0.80326888E-01</totfact>
</mgrwt>
</event>
<event>
12    1  0.2048318E-007  0.4288841E+04  0.7818608E-02  0.7948685E-01
         -1   -1    0    0    0  501 -0.00000000000E+00  0.00000000000E+00  0.22355067131E+04  0.22355067131E+04  0.00000000000E+00 0.  1.
          1   -1    0    0  501    0  0.00000000000E+00 -0.00000000000E+00 -0.20570455546E+04  0.20570455546E+04  0.00000000000E+00 0. -1.
         23    2    1    2    0    0 -0.20018846108E+04 -0.28611630804E+03  0.41549127527E+03  0.20664526312E+04  0.90492765843E+02 0.  0.
        254    2    1    2    0    0  0.20018846108E+04  0.28611630804E+03 -0.23703011673E+03  0.22260996365E+04  0.89996209863E+03 0.  0.
        -24    2    4    4    0    0  0.12267031687E+04  0.46880139131E+03  0.17232432913E+03  0.13270154708E+04  0.81847276880E+02 0.  0.
         24    2    4    4    0    0  0.77518144208E+03 -0.18268508327E+03 -0.40935444587E+03  0.89908416575E+03  0.80629814274E+02 0.  0.
         11    1    3    3    0    0 -0.58841923169E+03 -0.69604061172E+02  0.16129389136E+03  0.61408276067E+03  0.00000000000E+00 0. -1.
        -11    1    3    3    0    0 -0.14134653791E+04 -0.21651224687E+03  0.25419738391E+03  0.14523698706E+04  0.00000000000E+00 0.  1.
          4    1    6    6  502    0  0.18362399798E+03 -0.73841550979E+02 -0.81414198555E+02  0.21400611910E+03  0.00000000000E+00 0. -1.
          1    1    5    5  503    0  0.73498618865E+03  0.32054718342E+03  0.90024610961E+02  0.80688265868E+03  0.00000000000E+00 0. -1.
         -2    1    5    5    0  503  0.49171698005E+03  0.14825420788E+03  0.82299718172E+02  0.52013281211E+03  0.00000000000E+00 0.  1.
         -3    1    6    6    0  502  0.59155744410E+03 -0.10884353229E+03 -0.32794024731E+03  0.68507804665E+03  0.00000000000E+00 0.  1.
<mgrwt>
<rscale>  0 0.42888409E+04</rscale>
<asrwt>0</asrwt>
<pdfrwt beam="1">  1        1 0.31646855E+00 0.42888409E+04</pdfrwt>
<pdfrwt beam="2">  1       -1 0.34392411E+00 0.42888409E+04</pdfrwt>
<totfact> 0.35511193E-02</totfact>
</mgrwt>
</event>
<event>
12    1  0.2048318E-007  0.2888873E+04  0.7818608E-02  0.8276196E-01
         -2   -1    0    0    0  501 -0.00000000000E+00  0.00000000000E+00  0.53327526064E+03  0.53327526064E+03  0.00000000000E+00 0. -1.
          2   -1    0    0  501    0  0.00000000000E+00 -0.00000000000E+00 -0.39124195616E+04  0.39124195616E+04  0.00000000000E+00 0.  1.
         23    2    1    2    0    0  0.10152357439E+04  0.67752531693E+03 -0.82498119194E+03  0.14759090193E+04  0.89270910474E+02 0.  0.
        254    2    1    2    0    0 -0.10152357439E+04 -0.67752531693E+03 -0.25541631091E+04  0.29697858030E+04  0.89784985214E+03 0.  0.
        -24    2    4    4    0    0 -0.18133308875E+03 -0.35205881297E+03 -0.16330836596E+04  0.16828131635E+04  0.89837671783E+02 0.  0.
         24    2    4    4    0    0 -0.83390265518E+03 -0.32546650396E+03 -0.92107944947E+03  0.12869726394E+04  0.81173511088E+02 0.  0.
         13    1    3    3    0    0  0.73456459678E+03  0.51483981641E+03 -0.56446656893E+03  0.10598432388E+04  0.00000000000E+00 0.  1.
        -13    1    3    3    0    0  0.28067114715E+03  0.16268550051E+03 -0.26051462301E+03  0.41606578052E+03  0.00000000000E+00 0. -1.
          4    1    6    6  502    0 -0.58764973851E+03 -0.26474932012E+03 -0.63819761506E+03  0.90703947739E+03  0.00000000000E+00 0. -1.
          1    1    5    5  503    0 -0.18050544364E+03 -0.35488107410E+03 -0.15712649957E+04  0.16209245753E+04  0.00000000000E+00 0. -1.
         -2    1    5    5    0  503 -0.82764510424E+00  0.28222611313E+01 -0.61818663876E+02  0.61888588267E+02  0.00000000000E+00 0.  1.
         -3    1    6    6    0  502 -0.24625291667E+03 -0.60717183831E+02 -0.28288183441E+03  0.37993316204E+03  0.00000000000E+00 0.  1.
<mgrwt>
<rscale>  0 0.28888728E+04</rscale>
<asrwt>0</asrwt>
<pdfrwt beam="1">  1        2 0.60191071E+00 0.28888728E+04</pdfrwt>
<pdfrwt beam="2">  1       -2 0.82042347E-01 0.28888728E+04</pdfrwt>
<totfact> 0.45338416E-01</totfact>
</mgrwt>
</event>
<event>
12    1  0.2048318E-007  0.1751910E+04  0.7818608E-02  0.8732300E-01
         -2   -1    0    0    0  501 -0.00000000000E+00  0.00000000000E+00  0.78714149091E+03  0.78714149091E+03  0.00000000000E+00 0.  1.
          2   -1    0    0  501    0  0.00000000000E+00 -0.00000000000E+00 -0.97478945550E+03  0.97478945550E+03  0.00000000000E+00 0. -1.
         23    2    1    2    0    0 -0.53030992494E+03  0.99045445982E+01 -0.43126594088E+03  0.68945494019E+03  0.89616328320E+02 0.  0.
        254    2    1    2    0    0  0.53030992494E+03 -0.99045445982E+01  0.24361797629E+03  0.10724760062E+04  0.89973793354E+03 0.  0.
        -24    2    4    4    0    0 -0.75600395052E+02  0.85553497913E+02 -0.24653242550E+03  0.28315988554E+03  0.79790119786E+02 0.  0.
         24    2    4    4    0    0  0.60591031999E+03 -0.95458042511E+02  0.49015040179E+03  0.78931612068E+03  0.80826779254E+02 0.  0.
         11    1    3    3    0    0 -0.26809003597E+03  0.49507320448E+02 -0.21185291022E+03  0.34526062292E+03  0.00000000000E+00 0. -1.
        -11    1    3    3    0    0 -0.26221988896E+03 -0.39602775850E+02 -0.21941303066E+03  0.34419431727E+03  0.00000000000E+00 0.  1.
          4    1    6    6  502    0  0.78289059093E+02  0.14462396956E+02  0.68426153874E+02  0.10497845604E+03  0.00000000000E+00 0. -1.
          1    1    5    5  503    0 -0.76729142207E+01  0.40931914411E+02 -0.28475010095E+02  0.50449196524E+02  0.00000000000E+00 0. -1.
         -2    1    5    5    0  503 -0.67927480831E+02  0.44621583502E+02 -0.21805741541E+03  0.23271068901E+03  0.00000000000E+00 0.  1.
         -3    1    6    6    0  502  0.52762126089E+03 -0.10992043947E+03  0.42172424791E+03  0.68433766464E+03  0.00000000000E+00 0.  1.
<mgrwt>
<rscale>  0 0.17519101E+04</rscale>
<asrwt>0</asrwt>
<pdfrwt beam="1">  1        2 0.14996761E+00 0.17519101E+04</pdfrwt>
<pdfrwt beam="2">  1       -2 0.12109869E+00 0.17519101E+04</pdfrwt>
<totfact> 0.12865869E+01</totfact>
</mgrwt>
</event>
<event>
12    1  0.2048318E-007  0.1768367E+04  0.7818608E-02  0.8723305E-01
          1   -1    0    0  501    0  0.00000000000E+00  0.00000000000E+00  0.76924297510E+03  0.76924297510E+03  0.00000000000E+00 0. -1.
         -1   -1    0    0    0  501 -0.00000000000E+00 -0.00000000000E+00 -0.10162984326E+04  0.10162984326E+04  0.00000000000E+00 0.  1.
         23    2    1    2    0    0  0.39008826752E+03 -0.51434898404E+03 -0.46192535758E+01  0.65170680305E+03  0.89312293678E+02 0.  0.
        254    2    1    2    0    0 -0.39008826752E+03  0.51434898404E+03 -0.24243620389E+03  0.11338346046E+04  0.90004547876E+03 0.  0.
        -24    2    4    4    0    0 -0.52441742161E+03  0.95716924865E+02 -0.38707374334E+03  0.66358834480E+03  0.79674630707E+02 0.  0.
         24    2    4    4    0    0  0.13432915409E+03  0.41863205917E+03  0.14463753945E+03  0.47024625982E+03  0.83152898016E+02 0.  0.
         13    1    3    3    0    0  0.54091969753E+02 -0.13176618483E+03  0.30676643337E+01  0.14246992392E+03  0.00000000000E+00 0.  1.
        -13    1    3    3    0    0  0.33599629777E+03 -0.38258279920E+03 -0.76869179095E+01  0.50923687913E+03  0.00000000000E+00 0. -1.
          4    1    6    6  502    0  0.57969938682E+02  0.12926844850E+03  0.84616501930E+02  0.16501756866E+03  0.00000000000E+00 0. -1.
          3    1    5    5  503    0 -0.20528152655E+03  0.35889571824E+02 -0.20008747616E+03  0.28890061375E+03  0.00000000000E+00 0. -1.
         -4    1    5    5    0  503 -0.31913589506E+03  0.59827353041E+02 -0.18698626718E+03  0.37468773105E+03  0.00000000000E+00 0.  1.
         -3    1    6    6    0  502  0.76359215406E+02  0.28936361067E+03  0.60021037524E+02  0.30522869116E+03  0.00000000000E+00 0.  1.
<mgrwt>
<rscale>  0 0.17683670E+04</rscale>
<asrwt>0</asrwt>
<pdfrwt beam="1">  1        1 0.11834507E+00 0.17683670E+04</pdfrwt>
<pdfrwt beam="2">  1       -1 0.15635360E+00 0.17683670E+04</pdfrwt>
<totfact> 0.69386146E+00</totfact>
</mgrwt>
</event>
<event>
12    1  0.2048318E-007  0.1798037E+04  0.7818608E-02  0.8707344E-01
          1   -1    0    0  501    0  0.00000000000E+00  0.00000000000E+00  0.11780547591E+04  0.11780547591E+04  0.00000000000E+00 0. -1.
         -1   -1    0    0    0  501 -0.00000000000E+00 -0.00000000000E+00 -0.68607548836E+03  0.68607548836E+03  0.00000000000E+00 0.  1.
         23    2    1    2    0    0  0.45914875995E+03 -0.45954977849E+03  0.35547614434E+03  0.74693429326E+03  0.97693226912E+02 0.  0.
        254    2    1    2    0    0 -0.45914875995E+03  0.45954977849E+03  0.13650312645E+03  0.11171959542E+04  0.89860453703E+03 0.  0.
        -24    2    4    4    0    0 -0.37199467809E+03  0.17578404908E+03 -0.34727464560E+03  0.54397805488E+03  0.77668347971E+02 0.  0.
         24    2    4    4    0    0 -0.87154081860E+02  0.28376572941E+03  0.48377777205E+03  0.57321789937E+03  0.80118688522E+02 0.  0.
         13    1    3    3    0    0  0.32260114730E+01 -0.30864944164E+02  0.19328226303E+02  0.36559981678E+02  0.00000000000E+00 0.  1.
        -13    1    3    3    0    0  0.45592274848E+03 -0.42868483433E+03  0.33614791803E+03  0.71037431159E+03  0.00000000000E+00 0. -1.
          4    1    6    6  502    0 -0.84503764940E+02  0.28442792253E+03  0.48618602888E+03  0.56957614423E+03  0.00000000000E+00 0. -1.
          1    1    5    5  503    0 -0.30290382071E+03  0.14177410217E+03 -0.31830308059E+03  0.46170063002E+03  0.00000000000E+00 0. -1.
         -2    1    5    5    0  503 -0.69090857382E+02  0.34009946907E+02 -0.28971565003E+02  0.82277424857E+02  0.00000000000E+00 0.  1.
         -3    1    6    6    0  502 -0.26503169196E+01 -0.66219311822E+00 -0.24082568275E+01  0.36417551328E+01  0.00000000000E+00 0.  1.
<mgrwt>
<rscale>  0 0.17980373E+04</rscale>
<asrwt>0</asrwt>
<pdfrwt beam="1">  1        1 0.18123919E+00 0.17980373E+04</pdfrwt>
<pdfrwt beam="2">  1       -1 0.10555008E+00 0.17980373E+04</pdfrwt>
<totfact> 0.88034003E+00</totfact>
</mgrwt>
</event>
<event>
12    1  0.2048318E-007  0.1442622E+04  0.7818608E-02  0.8923532E-01
          1   -1    0    0  501    0  0.00000000000E+00  0.00000000000E+00  0.12526625356E+04  0.12526625356E+04  0.00000000000E+00 0. -1.
         -1   -1    0    0    0  501 -0.00000000000E+00 -0.00000000000E+00 -0.41534693082E+03  0.41534693082E+03  0.00000000000E+00 0.  1.
         23    2    1    2    0    0 -0.40066869482E+03 -0.10334587907E+03  0.11893317855E+03  0.44021501842E+03  0.91806251148E+02 0.  0.
        254    2    1    2    0    0  0.40066869482E+03  0.10334587907E+03  0.71838242617E+03  0.12277944480E+04  0.90564348530E+03 0.  0.
        -24    2    4    4    0    0  0.50831924560E+03 -0.24565124502E+03  0.23530588352E+03  0.61688445747E+03  0.80278175248E+02 0.  0.
         24    2    4    4    0    0 -0.10765055078E+03  0.34899712409E+03  0.48307654265E+03  0.61090999049E+03  0.80376841855E+02 0.  0.
         13    1    3    3    0    0 -0.18807950808E+03 -0.93204584852E+02  0.74950907246E+02  0.22288704425E+03  0.00000000000E+00 0.  1.
        -13    1    3    3    0    0 -0.21258918674E+03 -0.10141294221E+02  0.43982271309E+02  0.21732797417E+03  0.00000000000E+00 0. -1.
          2    1    6    6  502    0 -0.32709836703E+02  0.17630263827E+03  0.29210369888E+03  0.34274936116E+03  0.00000000000E+00 0. -1.
          3    1    5    5  503    0  0.23083889426E+03 -0.13318640804E+03  0.73031460166E+02  0.27633097649E+03  0.00000000000E+00 0. -1.
         -4    1    5    5    0  503  0.27748035133E+03 -0.11246483698E+03  0.16227442336E+03  0.34055348098E+03  0.00000000000E+00 0.  1.
         -1    1    6    6    0  502 -0.74940714076E+02  0.17269448583E+03  0.19097284377E+03  0.26816062932E+03  0.00000000000E+00 0.  1.
<mgrwt>
<rscale>  0 0.14426220E+04</rscale>
<asrwt>0</asrwt>
<pdfrwt beam="1">  1        1 0.19271731E+00 0.14426220E+04</pdfrwt>
<pdfrwt beam="2">  1       -1 0.63899528E-01 0.14426220E+04</pdfrwt>
<totfact> 0.23613607E+01</totfact>
</mgrwt>
</event>
<event>
12    1  0.2048318E-007  0.3769166E+04  0.7818608E-02  0.8052804E-01
         -2   -1    0    0    0  501 -0.00000000000E+00  0.00000000000E+00  0.39023776987E+04  0.39023776987E+04  0.00000000000E+00 0.  1.
          2   -1    0    0  501    0  0.00000000000E+00 -0.00000000000E+00 -0.91012553651E+03  0.91012553651E+03  0.00000000000E+00 0. -1.
         23    2    1    2    0    0 -0.15921255148E+04  0.52059501184E+03  0.21637745107E+04  0.27378699275E+04  0.90159777760E+02 0.  0.
        254    2    1    2    0    0  0.15921255148E+04 -0.52059501184E+03  0.82847765146E+03  0.20746333077E+04  0.90102459532E+03 0.  0.
        -24    2    4    4    0    0  0.38863645130E+02  0.48280933457E+02  0.33011409093E+03  0.34518182736E+03  0.79584856959E+02 0.  0.
         24    2    4    4    0    0  0.15532618696E+04 -0.56887594529E+03  0.49836356053E+03  0.17294514803E+04  0.79961913701E+02 0.  0.
         13    1    3    3    0    0 -0.54895353857E+02  0.34766237624E+02  0.73459179126E+02  0.98073656766E+02  0.00000000000E+00 0. -1.
        -13    1    3    3    0    0 -0.15372301609E+04  0.48582877421E+03  0.20903153316E+04  0.26397962707E+04  0.00000000000E+00 0.  1.
          2    1    6    6  502    0  0.42901133174E+03 -0.16637615727E+03  0.17517495443E+03  0.49235963800E+03  0.00000000000E+00 0. -1.
          3    1    5    5  503    0 -0.69479890331E+01  0.37963266915E+02  0.24456849315E+03  0.24759489500E+03  0.00000000000E+00 0. -1.
         -4    1    5    5    0  503  0.45811634163E+02  0.10317666542E+02  0.85545597778E+02  0.97586932357E+02  0.00000000000E+00 0.  1.
         -1    1    6    6    0  502  0.11242505379E+04 -0.40249978803E+03  0.32318860610E+03  0.12370918423E+04  0.00000000000E+00 0.  1.
<mgrwt>
<rscale>  0 0.37691663E+04</rscale>
<asrwt>0</asrwt>
<pdfrwt beam="1">  1        2 0.14001932E+00 0.37691663E+04</pdfrwt>
<pdfrwt beam="2">  1       -2 0.60036579E+00 0.37691663E+04</pdfrwt>
<totfact> 0.11692424E-02</totfact>
</mgrwt>
</event>
<event>
12    1  0.2048318E-007  0.1282914E+04  0.7818608E-02  0.9043225E-01
         -2   -1    0    0    0  501 -0.00000000000E+00  0.00000000000E+00  0.11763067136E+04  0.11763067136E+04  0.00000000000E+00 0.  1.
          2   -1    0    0  501    0  0.00000000000E+00 -0.00000000000E+00 -0.34979577774E+03  0.34979577774E+03  0.00000000000E+00 0. -1.
         23    2    1    2    0    0  0.85333966954E+02 -0.27001046726E+03  0.37931332564E+03  0.48220752490E+03  0.91967166484E+02 0.  0.
        254    2    1    2    0    0 -0.85333966954E+02  0.27001046726E+03  0.44719761020E+03  0.10438949664E+04  0.89974633092E+03 0.  0.
        -24    2    4    4    0    0 -0.14220952498E+03  0.41025378883E+03  0.64573545539E+03  0.78194957775E+03  0.77065839038E+02 0.  0.
         24    2    4    4    0    0  0.56875558022E+02 -0.14024332157E+03 -0.19853784519E+03  0.26194538867E+03  0.79341617891E+02 0.  0.
         11    1    3    3    0    0  0.59439594388E+02 -0.12835795889E+03  0.25663240348E+03  0.29303416440E+03  0.00000000000E+00 0.  1.
        -11    1    3    3    0    0  0.25894372566E+02 -0.14165250837E+03  0.12268092216E+03  0.18917336050E+03  0.00000000000E+00 0. -1.
          4    1    6    6  502    0  0.50051684668E+02 -0.29545109454E+02 -0.50678236033E+02  0.77112698294E+02  0.00000000000E+00 0. -1.
          1    1    5    5  503    0 -0.33173896704E+02  0.38783429503E+02  0.10688810713E+03  0.11844715815E+03  0.00000000000E+00 0. -1.
         -2    1    5    5    0  503 -0.10903562827E+03  0.37147035933E+03  0.53884734826E+03  0.66350241960E+03  0.00000000000E+00 0.  1.
         -3    1    6    6    0  502  0.68238733544E+01 -0.11069821211E+03 -0.14785960916E+03  0.18483269038E+03  0.00000000000E+00 0.  1.
<mgrwt>
<rscale>  0 0.12829141E+04</rscale>
<asrwt>0</asrwt>
<pdfrwt beam="1">  1        2 0.53814736E-01 0.12829141E+04</pdfrwt>
<pdfrwt beam="2">  1       -2 0.18097026E+00 0.12829141E+04</pdfrwt>
<totfact> 0.16183416E+01</totfact>
</mgrwt>
</event>
<event>
12    1  0.2048318E-007  0.2340898E+04  0.7818608E-02  0.8461968E-01
         -2   -1    0    0    0  501 -0.00000000000E+00  0.00000000000E+00  0.12329691854E+04  0.12329691854E+04  0.00000000000E+00 0.  1.
          2   -1    0    0  501    0  0.00000000000E+00 -0.00000000000E+00 -0.11110989270E+04  0.11110989270E+04  0.00000000000E+00 0. -1.
         23    2    1    2    0    0 -0.36286459274E+03  0.39109741379E+03 -0.78976311566E+03  0.95675620123E+03  0.83837640772E+02 0.  0.
        254    2    1    2    0    0  0.36286459274E+03 -0.39109741379E+03  0.91163337406E+03  0.13873119111E+04  0.89940593188E+03 0.  0.
        -24    2    4    4    0    0 -0.12428526110E+03 -0.24979337650E+03  0.81442951601E+03  0.86477306276E+03  0.81813546843E+02 0.  0.
         24    2    4    4    0    0  0.48714985384E+03 -0.14130403730E+03  0.97203858046E+02  0.52253884837E+03  0.79476078037E+02 0.  0.
         13    1    3    3    0    0 -0.17805871883E+03  0.14061081637E+03 -0.37284081543E+03  0.43644768608E+03  0.00000000000E+00 0.  1.
        -13    1    3    3    0    0 -0.18480587391E+03  0.25048659742E+03 -0.41692230022E+03  0.52030851515E+03  0.00000000000E+00 0. -1.
          4    1    6    6  502    0  0.32567928779E+03 -0.79973518648E+02  0.28195233502E+02  0.33653786321E+03  0.00000000000E+00 0. -1.
          3    1    5    5  503    0 -0.49638114184E+02 -0.17646257622E+03  0.57397585607E+03  0.60253735697E+03  0.00000000000E+00 0. -1.
         -4    1    5    5    0  503 -0.74647146920E+02 -0.73330800275E+02  0.24045365994E+03  0.26223570579E+03  0.00000000000E+00 0.  1.
         -3    1    6    6    0  502  0.16147056605E+03 -0.61330518650E+02  0.69008624544E+02  0.18600098516E+03  0.00000000000E+00 0.  1.
<mgrwt>
<rscale>  0 0.23408979E+04</rscale>
<asrwt>0</asrwt>
<pdfrwt beam="1">  1        2 0.17093830E+00 0.23408979E+04</pdfrwt>
<pdfrwt beam="2">  1       -2 0.18968757E+00 0.23408979E+04</pdfrwt>
<totfact> 0.30178520E+00</totfact>
</mgrwt>
</event>
<event>
12    1  0.2048318E-007  0.1953022E+04  0.7818608E-02  0.8628905E-01
         -2   -1    0    0    0  501 -0.00000000000E+00  0.00000000000E+00  0.76963516287E+03  0.76963516287E+03  0.00000000000E+00 0. -1.
          2   -1    0    0  501    0  0.00000000000E+00 -0.00000000000E+00 -0.12389941806E+04  0.12389941806E+04  0.00000000000E+00 0.  1.
         23    2    1    2    0    0 -0.67095476725E+03 -0.21058387600E+03  0.12647908661E+03  0.72019951807E+03  0.90357722130E+02 0.  0.
        254    2    1    2    0    0  0.67095476725E+03  0.21058387600E+03 -0.59583810435E+03  0.12884298254E+04  0.90027912331E+03 0.  0.
        -24    2    4    4    0    0  0.27241782623E+03 -0.20147888344E+03 -0.61801940828E+03  0.70917894065E+03  0.78622950375E+02 0.  0.
         24    2    4    4    0    0  0.39853694102E+03  0.41206275944E+03  0.22181303930E+02  0.57925088476E+03  0.80076002517E+02 0.  0.
         11    1    3    3    0    0 -0.42854746135E+03 -0.17914841456E+03  0.77604374478E+02  0.47092411279E+03  0.00000000000E+00 0. -1.
        -11    1    3    3    0    0 -0.24240730590E+03 -0.31435461433E+02  0.48874712133E+02  0.24927540528E+03  0.00000000000E+00 0.  1.
          2    1    6    6  502    0  0.10123682965E+03  0.13249493579E+03 -0.24324923973E+02  0.16850966030E+03  0.00000000000E+00 0. -1.
          3    1    5    5  503    0  0.16068000010E+02 -0.45449571817E+01 -0.73874623327E+01  0.18259568993E+02  0.00000000000E+00 0. -1.
         -4    1    5    5    0  503  0.25634982622E+03 -0.19693392626E+03 -0.61063194595E+03  0.69091937166E+03  0.00000000000E+00 0.  1.
         -1    1    6    6    0  502  0.29730011137E+03  0.27956782365E+03  0.46506227903E+02  0.41074122446E+03  0.00000000000E+00 0.  1.
<mgrwt>
<rscale>  0 0.19530217E+04</rscale>
<asrwt>0</asrwt>
<pdfrwt beam="1">  1        2 0.19061449E+00 0.19530217E+04</pdfrwt>
<pdfrwt beam="2">  1       -2 0.11840541E+00 0.19530217E+04</pdfrwt>
<totfact> 0.91933058E+00</totfact>
</mgrwt>
</event>
<event>
12    1  0.2048318E-007  0.2403432E+04  0.7818608E-02  0.8438220E-01
          1   -1    0    0  501    0  0.00000000000E+00  0.00000000000E+00  0.91439344469E+03  0.91439344469E+03  0.00000000000E+00 0. -1.
         -1   -1    0    0    0  501 -0.00000000000E+00 -0.00000000000E+00 -0.15793215305E+04  0.15793215305E+04  0.00000000000E+00 0.  1.
         23    2    1    2    0    0 -0.88142722406E+03 -0.50743692400E+03 -0.46401621148E+03  0.11214064056E+04  0.88516093536E+02 0.  0.
        254    2    1    2    0    0  0.88142722406E+03  0.50743692400E+03 -0.20091187435E+03  0.13723085696E+04  0.89914350684E+03 0.  0.
        -24    2    4    4    0    0  0.29675203701E+03 -0.56483535112E+02 -0.42348302466E+03  0.52702399567E+03  0.84641943721E+02 0.  0.
         24    2    4    4    0    0  0.58467518705E+03  0.56392045911E+03  0.22257115030E+03  0.84528457397E+03  0.71531360118E+02 0.  0.
         11    1    3    3    0    0 -0.67022107233E+03 -0.34103190764E+03 -0.34499269393E+03  0.82735663814E+03  0.00000000000E+00 0. -1.
        -11    1    3    3    0    0 -0.21120615173E+03 -0.16640501636E+03 -0.11902351755E+03  0.29404976744E+03  0.00000000000E+00 0.  1.
          2    1    6    6  502    0  0.43704912543E+03  0.38171045905E+03  0.17402185122E+03  0.60580394295E+03  0.00000000000E+00 0. -1.
          1    1    5    5  503    0  0.20874299169E+03 -0.35627111969E+02 -0.35583022101E+03  0.41407496166E+03  0.00000000000E+00 0. -1.
         -2    1    5    5    0  503  0.88009045316E+02 -0.20856423143E+02 -0.67652803643E+02  0.11294903401E+03  0.00000000000E+00 0.  1.
         -1    1    6    6    0  502  0.14762606162E+03  0.18221000006E+03  0.48549299083E+02  0.23948063102E+03  0.00000000000E+00 0.  1.
<mgrwt>
<rscale>  0 0.24034319E+04</rscale>
<asrwt>0</asrwt>
<pdfrwt beam="1">  1        1 0.14067592E+00 0.24034319E+04</pdfrwt>
<pdfrwt beam="2">  1       -1 0.24297254E+00 0.24034319E+04</pdfrwt>
<totfact> 0.12296606E+00</totfact>
</mgrwt>
</event>
<event>
12    1  0.2048318E-007  0.3746920E+04  0.7818608E-02  0.8057643E-01
          1   -1    0    0  501    0  0.00000000000E+00  0.00000000000E+00  0.26359217260E+04  0.26359217260E+04  0.00000000000E+00 0.  1.
         -1   -1    0    0    0  501 -0.00000000000E+00 -0.00000000000E+00 -0.13315463336E+04  0.13315463336E+04  0.00000000000E+00 0. -1.
         23    2    1    2    0    0 -0.65052871195E+03 -0.16389149436E+04  0.59191055412E+03  0.18622301801E+04  0.91177530376E+02 0.  0.
        254    2    1    2    0    0  0.65052871195E+03  0.16389149436E+04  0.71246483824E+03  0.21052378795E+04  0.90287905399E+03 0.  0.
        -24    2    4    4    0    0  0.64942333053E+03  0.17349095001E+04  0.69352640999E+03  0.19795067340E+04  0.76199689171E+02 0.  0.
         24    2    4    4    0    0  0.11053814106E+01 -0.95994556483E+02  0.18938428247E+02  0.12573114556E+03  0.78952391708E+02 0.  0.
         13    1    3    3    0    0 -0.19111527466E+03 -0.46168638361E+03  0.12540090917E+03  0.51517448795E+03  0.00000000000E+00 0. -1.
        -13    1    3    3    0    0 -0.45941343728E+03 -0.11772285600E+04  0.46650964495E+03  0.13470556921E+04  0.00000000000E+00 0.  1.
          4    1    6    6  502    0 -0.35786748602E+02 -0.53791714326E+02 -0.49520702002E+01  0.64797861885E+02  0.00000000000E+00 0. -1.
          1    1    5    5  503    0  0.14267406230E+03  0.38883646089E+03  0.18916951464E+03  0.45534029762E+03  0.00000000000E+00 0. -1.
         -2    1    5    5    0  503  0.50674926824E+03  0.13460730392E+04  0.50435689535E+03  0.15241664363E+04  0.00000000000E+00 0.  1.
         -3    1    6    6    0  502  0.36892130013E+02 -0.42202842157E+02  0.23890498447E+02  0.60933283672E+02  0.00000000000E+00 0.  1.
<mgrwt>
<rscale>  0 0.37469198E+04</rscale>
<asrwt>0</asrwt>
<pdfrwt beam="1">  1        1 0.40552642E+00 0.37469198E+04</pdfrwt>
<pdfrwt beam="2">  1       -1 0.20485328E+00 0.37469198E+04</pdfrwt>
<totfact> 0.12126260E-01</totfact>
</mgrwt>
</event>
<event>
12    1  0.2048318E-007  0.2162381E+04  0.7818608E-02  0.8534251E-01
          2   -1    0    0  501    0  0.00000000000E+00  0.00000000000E+00  0.33150699894E+04  0.33150699894E+04  0.00000000000E+00 0. -1.
         -2   -1    0    0    0  501 -0.00000000000E+00 -0.00000000000E+00 -0.35262381762E+03  0.35262381762E+03  0.00000000000E+00 0.  1.
         23    2    1    2    0    0  0.65476885622E+03 -0.57067784835E+03  0.89219598694E+03  0.12484460797E+04  0.90600623764E+02 0.  0.
        254    2    1    2    0    0 -0.65476885622E+03  0.57067784835E+03  0.20702501848E+04  0.24192477273E+04  0.90134803311E+03 0.  0.
        -24    2    4    4    0    0 -0.59995253365E+03  0.54182230450E+03  0.78408405024E+03  0.11289567199E+04  0.79000160634E+02 0.  0.
         24    2    4    4    0    0 -0.54816322578E+02  0.28855543848E+02  0.12861661346E+04  0.12902910074E+04  0.82401980457E+02 0.  0.
         13    1    3    3    0    0  0.36408231406E+03 -0.30082480571E+03  0.54656899523E+03  0.72234975025E+03  0.00000000000E+00 0. -1.
        -13    1    3    3    0    0  0.29068654217E+03 -0.26985304264E+03  0.34562699171E+03  0.52609632941E+03  0.00000000000E+00 0.  1.
          4    1    6    6  502    0 -0.11091011994E+02 -0.74503096429E+01  0.88685726072E+03  0.88695790123E+03  0.00000000000E+00 0. -1.
          1    1    5    5  503    0 -0.46845930401E+03  0.46420585394E+03  0.64203838791E+03  0.92040995535E+03  0.00000000000E+00 0. -1.
         -2    1    5    5    0  503 -0.13149322963E+03  0.77616450557E+02  0.14204566232E+03  0.20854676459E+03  0.00000000000E+00 0.  1.
         -3    1    6    6    0  502 -0.43725310584E+02  0.36305853491E+02  0.39930887387E+03  0.40333310617E+03  0.00000000000E+00 0.  1.
<mgrwt>
<rscale>  0 0.21623808E+04</rscale>
<asrwt>0</asrwt>
<pdfrwt beam="1">  1        2 0.51001075E+00 0.21623808E+04</pdfrwt>
<pdfrwt beam="2">  1       -2 0.54249820E-01 0.21623808E+04</pdfrwt>
<totfact> 0.32011044E+00</totfact>
</mgrwt>
</event>
<event>
12    1  0.2048318E-007  0.2900061E+04  0.7818608E-02  0.8272859E-01
          2   -1    0    0  501    0  0.00000000000E+00  0.00000000000E+00  0.31163758366E+04  0.31163758366E+04  0.00000000000E+00 0. -1.
         -2   -1    0    0    0  501 -0.00000000000E+00 -0.00000000000E+00 -0.67469015120E+03  0.67469015120E+03  0.00000000000E+00 0.  1.
         23    2    1    2    0    0  0.76716957581E+03 -0.10250493258E+04  0.14484628721E+04  0.19354594825E+04  0.93184968582E+02 0.  0.
        254    2    1    2    0    0 -0.76716957581E+03  0.10250493258E+04  0.99322281333E+03  0.18556065053E+04  0.90416185901E+03 0.  0.
        -24    2    4    4    0    0 -0.96521375336E+03  0.79219566161E+03  0.77801142410E+03  0.14734072593E+04  0.80097564027E+02 0.  0.
         24    2    4    4    0    0  0.19804417755E+03  0.23285366415E+03  0.21521138924E+03  0.38219924600E+03  0.79485825278E+02 0.  0.
         13    1    3    3    0    0  0.35740293108E+03 -0.54596671289E+03  0.70335849644E+03  0.95944238036E+03  0.00000000000E+00 0. -1.
        -13    1    3    3    0    0  0.40976664473E+03 -0.47908261287E+03  0.74510437562E+03  0.97601710213E+03  0.00000000000E+00 0.  1.
          4    1    6    6  502    0  0.14171413962E+01  0.16021856464E+02 -0.39180046101E+01  0.16554725441E+02  0.00000000000E+00 0. -1.
          3    1    5    5  503    0 -0.30751002573E+03  0.29213587147E+03  0.29026278828E+03  0.51396329595E+03  0.00000000000E+00 0. -1.
         -2    1    5    5    0  503 -0.65770372763E+03  0.50005979014E+03  0.48774863581E+03  0.95944396334E+03  0.00000000000E+00 0.  1.
         -3    1    6    6    0  502  0.19662703615E+03  0.21683180768E+03  0.21912939385E+03  0.36564452056E+03  0.00000000000E+00 0.  1.
<mgrwt>
<rscale>  0 0.29000607E+04</rscale>
<asrwt>0</asrwt>
<pdfrwt beam="1">  1        2 0.47944243E+00 0.29000607E+04</pdfrwt>
<pdfrwt beam="2">  1       -2 0.10379849E+00 0.29000607E+04</pdfrwt>
<totfact> 0.95748697E-01</totfact>
</mgrwt>
</event>
<event>
12    1  0.2048318E-007  0.2085253E+04  0.7818608E-02  0.8567767E-01
          1   -1    0    0  501    0  0.00000000000E+00  0.00000000000E+00  0.98265885284E+03  0.98265885284E+03  0.00000000000E+00 0. -1.
         -1   -1    0    0    0  501 -0.00000000000E+00 -0.00000000000E+00 -0.11062539928E+04  0.11062539928E+04  0.00000000000E+00 0.  1.
         23    2    1    2    0    0 -0.63491476666E+03  0.53219619725E+03 -0.21290125173E+03  0.86033762698E+03  0.92218957481E+02 0.  0.
        254    2    1    2    0    0  0.63491476666E+03 -0.53219619725E+03  0.89306111729E+02  0.12285752187E+04  0.90281334345E+03 0.  0.
        -24    2    4    4    0    0 -0.19944074919E+03 -0.65754725905E+02  0.14515351390E+03  0.26773363555E+03  0.80693621751E+02 0.  0.
         24    2    4    4    0    0  0.83435551585E+03 -0.46644147135E+03 -0.55847402169E+02  0.96084158314E+03  0.79880176176E+02 0.  0.
         13    1    3    3    0    0 -0.23444269514E+03  0.20921616307E+03 -0.12611505632E+03  0.33858497844E+03  0.00000000000E+00 0.  1.
        -13    1    3    3    0    0 -0.40047207151E+03  0.32298003419E+03 -0.86786195416E+02  0.52175264854E+03  0.00000000000E+00 0. -1.
          4    1    6    6  502    0  0.55073459581E+03 -0.33647708359E+03 -0.96523258738E+01  0.64545998342E+03  0.00000000000E+00 0. -1.
          3    1    5    5  503    0 -0.60708013458E+02 -0.29895483083E+02  0.59054024616E+01  0.67926994523E+02  0.00000000000E+00 0. -1.
         -4    1    5    5    0  503 -0.13873273574E+03 -0.35859242822E+02  0.13924811144E+03  0.19980664103E+03  0.00000000000E+00 0.  1.
         -3    1    6    6    0  502  0.28362092004E+03 -0.12996438776E+03 -0.46195076295E+02  0.31538159973E+03  0.00000000000E+00 0.  1.
<mgrwt>
<rscale>  0 0.20852533E+04</rscale>
<asrwt>0</asrwt>
<pdfrwt beam="1">  1        1 0.15117829E+00 0.20852533E+04</pdfrwt>
<pdfrwt beam="2">  1       -1 0.17019292E+00 0.20852533E+04</pdfrwt>
<totfact> 0.35263369E+00</totfact>
</mgrwt>
</event>
<event>
12    1  0.2048318E-007  0.1372226E+04  0.7818608E-02  0.8974172E-01
          1   -1    0    0  501    0  0.00000000000E+00  0.00000000000E+00  0.44151369440E+03  0.44151369440E+03  0.00000000000E+00 0. -1.
         -1   -1    0    0    0  501 -0.00000000000E+00 -0.00000000000E+00 -0.10662204361E+04  0.10662204361E+04  0.00000000000E+00 0.  1.
         23    2    1    2    0    0  0.26498627262E+03  0.22522855589E+03 -0.22740457839E+01  0.35985024741E+03  0.92419706826E+02 0.  0.
        254    2    1    2    0    0 -0.26498627262E+03 -0.22522855589E+03 -0.62243269596E+03  0.11478838831E+04  0.89959397569E+03 0.  0.
        -24    2    4    4    0    0 -0.73784259666E+02 -0.43612545892E+03  0.96024382487E+01  0.44992915161E+03  0.81819934970E+02 0.  0.
         24    2    4    4    0    0 -0.19120201295E+03  0.21089690302E+03 -0.63203513421E+03  0.69795473153E+03  0.81465838979E+02 0.  0.
         13    1    3    3    0    0  0.43470034641E+02 -0.42764172313E+00  0.32099248377E+01  0.43590485276E+02  0.00000000000E+00 0. -1.
        -13    1    3    3    0    0  0.22151623798E+03  0.22565619762E+03 -0.54839706216E+01  0.31625976213E+03  0.00000000000E+00 0.  1.
          2    1    6    6  502    0 -0.16878725774E+03  0.21472805997E+03 -0.57569429484E+03  0.63719792783E+03  0.00000000000E+00 0. -1.
          1    1    5    5  503    0 -0.63788584250E+02 -0.20553327758E+03 -0.24577858622E+02  0.21660328438E+03  0.00000000000E+00 0. -1.
         -2    1    5    5    0  503 -0.99956754168E+01 -0.23059218134E+03  0.34180296870E+02  0.23332586722E+03  0.00000000000E+00 0.  1.
         -1    1    6    6    0  502 -0.22414755216E+02 -0.38311569478E+01 -0.56340839369E+02  0.60756803699E+02  0.00000000000E+00 0.  1.
<mgrwt>
<rscale>  0 0.13722258E+04</rscale>
<asrwt>0</asrwt>
<pdfrwt beam="1">  1        1 0.67925184E-01 0.13722258E+04</pdfrwt>
<pdfrwt beam="2">  1       -1 0.16403391E+00 0.13722258E+04</pdfrwt>
<totfact> 0.13989180E+01</totfact>
</mgrwt>
</event>
<event>
12    1  0.2048318E-007  0.2364041E+04  0.7818608E-02  0.8453090E-01
          2   -1    0    0  501    0  0.00000000000E+00  0.00000000000E+00  0.11825047026E+04  0.11825047026E+04  0.00000000000E+00 0. -1.
         -2   -1    0    0    0  501 -0.00000000000E+00 -0.00000000000E+00 -0.11815369704E+04  0.11815369704E+04  0.00000000000E+00 0.  1.
         23    2    1    2    0    0  0.73887235106E+03 -0.63432736868E+03  0.26079595771E+03  0.10121402798E+04  0.90054719889E+02 0.  0.
        254    2    1    2    0    0 -0.73887235106E+03  0.63432736868E+03 -0.25982822558E+03  0.13519013932E+04  0.90101226870E+03 0.  0.
        -24    2    4    4    0    0 -0.68126800737E+03  0.47765519285E+03 -0.55472292093E+03  0.10036400467E+04  0.85412195372E+02 0.  0.
         24    2    4    4    0    0 -0.57604343687E+02  0.15667217582E+03  0.29489469535E+03  0.34826134656E+03  0.80365745622E+02 0.  0.
         11    1    3    3    0    0  0.42261944263E+03 -0.31248914864E+03  0.16473474421E+03  0.55081230674E+03  0.00000000000E+00 0. -1.
        -11    1    3    3    0    0  0.31625290843E+03 -0.32183822003E+03  0.96061213503E+02  0.46132797303E+03  0.00000000000E+00 0.  1.
          2    1    6    6  502    0  0.11566879302E+02  0.84440117537E+02  0.13279942240E+03  0.15779611128E+03  0.00000000000E+00 0. -1.
          1    1    5    5  503    0 -0.29120250161E+03  0.16094404047E+03 -0.19445026928E+03  0.38537356984E+03  0.00000000000E+00 0. -1.
         -2    1    5    5    0  503 -0.39006550576E+03  0.31671115238E+03 -0.36027265166E+03  0.61826647682E+03  0.00000000000E+00 0.  1.
         -1    1    6    6    0  502 -0.69171222989E+02  0.72232058288E+02  0.16209527296E+03  0.19046523528E+03  0.00000000000E+00 0.  1.
<mgrwt>
<rscale>  0 0.23640415E+04</rscale>
<asrwt>0</asrwt>
<pdfrwt beam="1">  1        2 0.18192380E+00 0.23640415E+04</pdfrwt>
<pdfrwt beam="2">  1       -2 0.18177492E+00 0.23640415E+04</pdfrwt>
<totfact> 0.30850574E+00</totfact>
</mgrwt>
</event>
<event>
12    1  0.2048318E-007  0.2062957E+04  0.7818608E-02  0.8577739E-01
         -2   -1    0    0    0  501 -0.00000000000E+00  0.00000000000E+00  0.10346464490E+04  0.10346464490E+04  0.00000000000E+00 0.  1.
          2   -1    0    0  501    0  0.00000000000E+00 -0.00000000000E+00 -0.10283199559E+04  0.10283199559E+04  0.00000000000E+00 0. -1.
         23    2    1    2    0    0  0.98090580755E+02  0.56173443880E+03  0.60860287468E+03  0.83879639327E+03  0.89524234372E+02 0.  0.
        254    2    1    2    0    0 -0.98090580755E+02 -0.56173443880E+03 -0.60227638151E+03  0.12241700116E+04  0.90038216104E+03 0.  0.
        -24    2    4    4    0    0  0.21779634703E+03 -0.31093025203E+03 -0.70112420058E+03  0.80135704645E+03  0.80530123851E+02 0.  0.
         24    2    4    4    0    0 -0.31588692779E+03 -0.25080418677E+03  0.98847819065E+02  0.42281296520E+03  0.79452004120E+02 0.  0.
         11    1    3    3    0    0  0.78515092984E+02  0.19985755261E+03  0.21945107121E+03  0.30702839253E+03  0.00000000000E+00 0.  1.
        -11    1    3    3    0    0  0.19575487771E+02  0.36187688619E+03  0.38915180347E+03  0.53176800075E+03  0.00000000000E+00 0. -1.
          2    1    6    6  502    0 -0.41513922941E+02 -0.90656748331E+01  0.26415047921E+02  0.50033458953E+02  0.00000000000E+00 0. -1.
          1    1    5    5  503    0  0.44195288458E+01 -0.49909962801E+02 -0.74225500442E+02  0.89554237968E+02  0.00000000000E+00 0. -1.
         -2    1    5    5    0  503  0.21337681819E+03 -0.26102028923E+03 -0.62689870014E+03  0.71180280848E+03  0.00000000000E+00 0.  1.
         -1    1    6    6    0  502 -0.27437300485E+03 -0.24173851194E+03  0.72432771143E+02  0.37277950625E+03  0.00000000000E+00 0.  1.
<mgrwt>
<rscale>  0 0.20629567E+04</rscale>
<asrwt>0</asrwt>
<pdfrwt beam="1">  1        2 0.15820307E+00 0.20629567E+04</pdfrwt>
<pdfrwt beam="2">  1       -2 0.15917638E+00 0.20629567E+04</pdfrwt>
<totfact> 0.57040816E+00</totfact>
</mgrwt>
</event>
<event>
12    1  0.2048318E-007  0.3273818E+04  0.7818608E-02  0.8169590E-01
          2   -1    0    0  501    0  0.00000000000E+00  0.00000000000E+00  0.23887171441E+04  0.23887171441E+04  0.00000000000E+00 0. -1.
         -2   -1    0    0    0  501 -0.00000000000E+00 -0.00000000000E+00 -0.11217194896E+04  0.11217194896E+04  0.00000000000E+00 0.  1.
         23    2    1    2    0    0 -0.54239837444E+03 -0.10618553776E+04  0.15828771773E+04  0.19836991966E+04  0.88484487249E+02 0.  0.
        254    2    1    2    0    0  0.54239837444E+03  0.10618553776E+04 -0.31587952275E+03  0.15267374371E+04  0.89967465749E+03 0.  0.
        -24    2    4    4    0    0  0.31491578051E+03 -0.26073435492E+02 -0.24884671877E+03  0.41047672577E+03  0.81943151658E+02 0.  0.
         24    2    4    4    0    0  0.22748259394E+03  0.10879288131E+04 -0.67032803981E+02  0.11162607113E+04  0.78785441968E+02 0.  0.
         13    1    3    3    0    0 -0.46893577608E+02 -0.15379008605E+03  0.23088039380E+03  0.28134703558E+03  0.00000000000E+00 0.  1.
        -13    1    3    3    0    0 -0.49550479684E+03 -0.90806529159E+03  0.13519967835E+04  0.17023521610E+04  0.00000000000E+00 0. -1.
          2    1    6    6  502    0  0.67008341606E+02  0.50926215332E+03 -0.23878893484E+02  0.51420643735E+03  0.00000000000E+00 0. -1.
          3    1    5    5  503    0  0.14482220202E+03 -0.19533993158E+01 -0.64679631843E+02  0.15862137543E+03  0.00000000000E+00 0. -1.
         -4    1    5    5    0  503  0.17009357848E+03 -0.24120036176E+02 -0.18416708693E+03  0.25185535034E+03  0.00000000000E+00 0.  1.
         -1    1    6    6    0  502  0.16047425233E+03  0.57866665981E+03 -0.43153910497E+02  0.60205427399E+03  0.00000000000E+00 0.  1.
<mgrwt>
<rscale>  0 0.32738177E+04</rscale>
<asrwt>0</asrwt>
<pdfrwt beam="1">  1        2 0.36749494E+00 0.32738177E+04</pdfrwt>
<pdfrwt beam="2">  1       -2 0.17257223E+00 0.32738177E+04</pdfrwt>
<totfact> 0.69016877E-01</totfact>
</mgrwt>
</event>
<event>
12    1  0.2239055E-007  0.3235892E+04  0.7818608E-02  0.8179402E-01
          2   -1    0    0  501    0  0.00000000000E+00  0.00000000000E+00  0.13466684066E+04  0.13466684066E+04  0.00000000000E+00 0. -1.
         -2   -1    0    0    0  501 -0.00000000000E+00 -0.00000000000E+00 -0.19438701733E+04  0.19438701733E+04  0.00000000000E+00 0.  1.
         23    2    1    2    0    0  0.14572054499E+04  0.16318757095E+03 -0.55091203653E+03  0.15690367651E+04  0.91073551883E+02 0.  0.
        254    2    1    2    0    0 -0.14572054499E+04 -0.16318757095E+03 -0.46289730137E+02  0.17215018147E+04  0.90074849568E+03 0.  0.
        -24    2    4    4    0    0 -0.14380120313E+04 -0.18555611867E+03  0.19692470802E+03  0.14650797965E+04  0.73278880466E+02 0.  0.
         24    2    4    4    0    0 -0.19193418637E+02  0.22368547714E+02 -0.24321443816E+03  0.25642201820E+03  0.75698409784E+02 0.  0.
         13    1    3    3    0    0  0.17810065544E+03  0.17019077393E+02 -0.36247010500E+02  0.18254681107E+03  0.00000000000E+00 0. -1.
        -13    1    3    3    0    0  0.12791047945E+04  0.14616849356E+03 -0.51466502603E+03  0.13864899541E+04  0.00000000000E+00 0.  1.
          4    1    6    6  502    0  0.80399142844E+01  0.23318150511E+02 -0.21769679874E+03  0.21908964500E+03  0.00000000000E+00 0. -1.
          1    1    5    5  503    0 -0.13170552639E+04 -0.16546734264E+03  0.15994012826E+03  0.13370096687E+04  0.00000000000E+00 0. -1.
         -2    1    5    5    0  503 -0.12095676736E+03 -0.20088776022E+02  0.36984579768E+02  0.12807012780E+03  0.00000000000E+00 0.  1.
         -3    1    6    6    0  502 -0.27233332921E+02 -0.94960279730E+00 -0.25517639427E+02  0.37332373209E+02  0.00000000000E+00 0.  1.
<mgrwt>
<rscale>  0 0.32358916E+04</rscale>
<asrwt>0</asrwt>
<pdfrwt beam="1">  1        2 0.20717976E+00 0.32358916E+04</pdfrwt>
<pdfrwt beam="2">  1       -2 0.29905695E+00 0.32358916E+04</pdfrwt>
<totfact> 0.41993162E-01</totfact>
</mgrwt>
</event>
<event>
12    1  0.2048318E-007  0.1698332E+04  0.7818608E-02  0.8762316E-01
         -1   -1    0    0    0  501 -0.00000000000E+00  0.00000000000E+00  0.92411037606E+03  0.92411037606E+03  0.00000000000E+00 0.  1.
          1   -1    0    0  501    0  0.00000000000E+00 -0.00000000000E+00 -0.78029930185E+03  0.78029930185E+03  0.00000000000E+00 0. -1.
         23    2    1    2    0    0  0.25120090436E+02  0.58178373214E+03 -0.11664355611E+03  0.60076600544E+03  0.90613156786E+02 0.  0.
        254    2    1    2    0    0 -0.25120090436E+02 -0.58178373214E+03  0.26045463032E+03  0.11036436725E+04  0.90060502520E+03 0.  0.
        -24    2    4    4    0    0 -0.16185447658E+03  0.77307892373E+02 -0.20327670845E+03  0.28247212778E+03  0.79345453318E+02 0.  0.
         24    2    4    4    0    0  0.13673438614E+03 -0.65909162451E+03  0.46373133878E+03  0.82117154470E+03  0.78599550941E+02 0.  0.
         11    1    3    3    0    0  0.21585846308E+02  0.28681049071E+03 -0.12379529222E+02  0.28788792800E+03  0.00000000000E+00 0.  1.
        -11    1    3    3    0    0  0.35342441276E+01  0.29497324142E+03 -0.10426402689E+03  0.31287807744E+03  0.00000000000E+00 0. -1.
          2    1    6    6  502    0  0.12686969635E+03 -0.49570917610E+03  0.32131872261E+03  0.60420958998E+03  0.00000000000E+00 0. -1.
          3    1    5    5  503    0 -0.13512949711E+03  0.44213741942E+02 -0.19116991333E+03  0.23824519245E+03  0.00000000000E+00 0. -1.
         -4    1    5    5    0  503 -0.26724979465E+02  0.33094150431E+02 -0.12106795127E+02  0.44226935327E+02  0.00000000000E+00 0.  1.
         -1    1    6    6    0  502  0.98646897865E+01 -0.16338244841E+03  0.14241261616E+03  0.21696195472E+03  0.00000000000E+00 0.  1.
<mgrwt>
<rscale>  0 0.16983317E+04</rscale>
<asrwt>0</asrwt>
<pdfrwt beam="1">  1        1 0.12004605E+00 0.16983317E+04</pdfrwt>
<pdfrwt beam="2">  1       -1 0.14217083E+00 0.16983317E+04</pdfrwt>
<totfact> 0.88165828E+00</totfact>
</mgrwt>
</event>
<event>
12    1  0.2048318E-007  0.1631091E+04  0.7818608E-02  0.8801672E-01
         -1   -1    0    0    0  501 -0.00000000000E+00  0.00000000000E+00  0.56952026697E+03  0.56952026697E+03  0.00000000000E+00 0.  1.
          1   -1    0    0  501    0  0.00000000000E+00 -0.00000000000E+00 -0.11678498893E+04  0.11678498893E+04  0.00000000000E+00 0. -1.
         23    2    1    2    0    0  0.33813551199E+03 -0.42953113333E+03 -0.17212285762E+02  0.55428308883E+03  0.90004782180E+02 0.  0.
        254    2    1    2    0    0 -0.33813551199E+03  0.42953113333E+03 -0.58111733656E+03  0.11830870674E+04  0.87359317264E+03 0.  0.
        -24    2    4    4    0    0  0.22380363566E+03  0.56770931930E+02 -0.41973303391E+03  0.48567968984E+03  0.79987094678E+02 0.  0.
         24    2    4    4    0    0 -0.56193914765E+03  0.37276020140E+03 -0.16138430265E+03  0.69740737759E+03  0.74875788890E+02 0.  0.
         13    1    3    3    0    0  0.27287328636E+03 -0.39471656141E+03 -0.19887003735E+02  0.48026709983E+03  0.00000000000E+00 0. -1.
        -13    1    3    3    0    0  0.65262225627E+02 -0.34814571922E+02  0.26747179735E+01  0.74015989004E+02  0.00000000000E+00 0.  1.
          4    1    6    6  502    0 -0.44217185209E+03  0.27455894501E+03 -0.15210759504E+03  0.54225020197E+03  0.00000000000E+00 0. -1.
          3    1    5    5  503    0  0.16294185014E+03  0.26003124659E+02 -0.22261962032E+03  0.27710233556E+03  0.00000000000E+00 0. -1.
         -4    1    5    5    0  503  0.60861785524E+02  0.30767807271E+02 -0.19711341359E+03  0.20857735428E+03  0.00000000000E+00 0.  1.
         -3    1    6    6    0  502 -0.11976729557E+03  0.98201256386E+02 -0.92767076122E+01  0.15515717562E+03  0.00000000000E+00 0.  1.
<mgrwt>
<rscale>  0 0.16310907E+04</rscale>
<asrwt>0</asrwt>
<pdfrwt beam="1">  1        1 0.17966921E+00 0.16310907E+04</pdfrwt>
<pdfrwt beam="2">  1       -1 0.87618504E-01 0.16310907E+04</pdfrwt>
<totfact> 0.13839858E+01</totfact>
</mgrwt>
</event>
<event>
12    1  0.2048318E-007  0.2716241E+04  0.7818608E-02  0.8329754E-01
          2   -1    0    0  501    0  0.00000000000E+00  0.00000000000E+00  0.27682144771E+04  0.27682144771E+04  0.00000000000E+00 0.  1.
         -2   -1    0    0    0  501 -0.00000000000E+00 -0.00000000000E+00 -0.66631098713E+03  0.66631098713E+03  0.00000000000E+00 0. -1.
         23    2    1    2    0    0 -0.80504279688E+03  0.49329364694E+03 -0.14035145430E+02  0.94881215913E+03  0.92817030163E+02 0.  0.
        254    2    1    2    0    0  0.80504279688E+03 -0.49329364694E+03  0.21159386354E+04  0.24857133051E+04  0.90007877405E+03 0.  0.
        -24    2    4    4    0    0  0.32723334171E+03  0.68405086293E+02  0.14461996334E+04  0.14864420998E+04  0.79093746585E+02 0.  0.
         24    2    4    4    0    0  0.47780945516E+03 -0.56169873323E+03  0.66973900205E+03  0.99927120532E+03  0.78646478349E+02 0.  0.
         13    1    3    3    0    0 -0.52903469071E+03  0.28165881776E+03  0.17350050307E+02  0.59959187607E+03  0.00000000000E+00 0.  1.
        -13    1    3    3    0    0 -0.27600810616E+03  0.21163482918E+03 -0.31385195737E+02  0.34922028306E+03  0.00000000000E+00 0. -1.
          2    1    6    6  502    0  0.50558385052E+01 -0.30452054330E+01  0.19220303790E+02  0.20106090045E+02  0.00000000000E+00 0. -1.
          1    1    5    5  503    0  0.20641314055E+03  0.74312604195E+02  0.10251250553E+04  0.10483368384E+04  0.00000000000E+00 0. -1.
         -2    1    5    5    0  503  0.12082020116E+03 -0.59075179019E+01  0.42107457812E+03  0.43810526146E+03  0.00000000000E+00 0.  1.
         -1    1    6    6    0  502  0.47275361666E+03 -0.55865352780E+03  0.65051869826E+03  0.97916511528E+03  0.00000000000E+00 0.  1.
<mgrwt>
<rscale>  0 0.27162413E+04</rscale>
<asrwt>0</asrwt>
<pdfrwt beam="1">  1        2 0.42587914E+00 0.27162413E+04</pdfrwt>
<pdfrwt beam="2">  1       -2 0.10250938E+00 0.27162413E+04</pdfrwt>
<totfact> 0.16482440E+00</totfact>
</mgrwt>
</event>
<event>
12    1  0.2048318E-007  0.1770335E+04  0.7818608E-02  0.8722236E-01
          2   -1    0    0  501    0  0.00000000000E+00  0.00000000000E+00  0.76435315277E+03  0.76435315277E+03  0.00000000000E+00 0. -1.
         -2   -1    0    0    0  501 -0.00000000000E+00 -0.00000000000E+00 -0.10250773366E+04  0.10250773366E+04  0.00000000000E+00 0.  1.
         23    2    1    2    0    0  0.42363793916E+03  0.49602202022E+03 -0.10039488204E+03  0.66846178353E+03  0.10608994134E+03 0.  0.
        254    2    1    2    0    0 -0.42363793916E+03 -0.49602202022E+03 -0.16032930177E+03  0.11209687058E+04  0.89741763210E+03 0.  0.
        -24    2    4    4    0    0  0.57506153092E+02 -0.17645377550E+03  0.31125619229E+03  0.37112169570E+03  0.80050004666E+02 0.  0.
         24    2    4    4    0    0 -0.48114409225E+03 -0.31956824472E+03 -0.47158549406E+03  0.74984701013E+03  0.79083246293E+02 0.  0.
         11    1    3    3    0    0  0.26448640402E+03  0.38167653093E+03 -0.58104843337E+02  0.46798098785E+03  0.00000000000E+00 0. -1.
        -11    1    3    3    0    0  0.15915153515E+03  0.11434548930E+03 -0.42290038707E+02  0.20048079568E+03  0.00000000000E+00 0.  1.
          4    1    6    6  502    0 -0.39910036646E+03 -0.27113517888E+03 -0.35354570428E+03  0.59815545869E+03  0.00000000000E+00 0. -1.
          1    1    5    5  503    0  0.67340560130E+02 -0.17017700519E+03  0.30915736770E+03  0.35926764694E+03  0.00000000000E+00 0. -1.
         -2    1    5    5    0  503 -0.98344070380E+01 -0.62767703077E+01  0.20988245902E+01  0.11854048758E+02  0.00000000000E+00 0.  1.
         -3    1    6    6    0  502 -0.82043725789E+02 -0.48433065844E+02 -0.11803978978E+03  0.15169155144E+03  0.00000000000E+00 0.  1.
<mgrwt>
<rscale>  0 0.17703345E+04</rscale>
<asrwt>0</asrwt>
<pdfrwt beam="1">  1        2 0.11759279E+00 0.17703345E+04</pdfrwt>
<pdfrwt beam="2">  1       -2 0.15770421E+00 0.17703345E+04</pdfrwt>
<totfact> 0.90652231E+00</totfact>
</mgrwt>
</event>
<event>
12    1  0.2048318E-007  0.1297254E+04  0.7818608E-02  0.9031746E-01
         -1   -1    0    0    0  501 -0.00000000000E+00  0.00000000000E+00  0.10626158473E+04  0.10626158473E+04  0.00000000000E+00 0.  1.
          1   -1    0    0  501    0  0.00000000000E+00 -0.00000000000E+00 -0.39592579249E+03  0.39592579249E+03  0.00000000000E+00 0. -1.
         23    2    1    2    0    0  0.36505667241E+02  0.13572706055E+03 -0.15654969140E+03  0.22923382570E+03  0.91026601926E+02 0.  0.
        254    2    1    2    0    0 -0.36505667241E+02 -0.13572706055E+03  0.82323974624E+03  0.12293078141E+04  0.90206403507E+03 0.  0.
        -24    2    4    4    0    0 -0.15555576709E+02  0.35487469316E+02 -0.18381594436E+03  0.20449189462E+03  0.80791689660E+02 0.  0.
         24    2    4    4    0    0 -0.20950090532E+02 -0.17121452987E+03  0.10070556906E+04  0.10248159195E+04  0.79581300286E+02 0.  0.
         13    1    3    3    0    0  0.58166000192E+02  0.13260073967E+03 -0.14292384962E+03  0.20345384373E+03  0.00000000000E+00 0. -1.
        -13    1    3    3    0    0 -0.21660332951E+02  0.31263208832E+01 -0.13625841787E+02  0.25779981967E+02  0.00000000000E+00 0.  1.
          4    1    6    6  502    0  0.32705046720E+01  0.72291626170E+01  0.82881775292E+02  0.83260709032E+02  0.00000000000E+00 0. -1.
          1    1    5    5  503    0  0.49767142622E+01 -0.17142557656E+02 -0.11051436338E+03  0.11194668142E+03  0.00000000000E+00 0. -1.
         -2    1    5    5    0  503 -0.20532290971E+02  0.52630026972E+02 -0.73301580987E+02  0.92545213203E+02  0.00000000000E+00 0.  1.
         -3    1    6    6    0  502 -0.24220595204E+02 -0.17844369249E+03  0.92417391531E+03  0.94155521047E+03  0.00000000000E+00 0.  1.
<mgrwt>
<rscale>  0 0.12972541E+04</rscale>
<asrwt>0</asrwt>
<pdfrwt beam="1">  1        1 0.60911661E-01 0.12972541E+04</pdfrwt>
<pdfrwt beam="2">  1       -1 0.16347936E+00 0.12972541E+04</pdfrwt>
<totfact> 0.16442669E+01</totfact>
</mgrwt>
</event>
<event>
12    1  0.2048318E-007  0.1122123E+04  0.7818608E-02  0.9183894E-01
          1   -1    0    0  501    0  0.00000000000E+00  0.00000000000E+00  0.61058932925E+03  0.61058932925E+03  0.00000000000E+00 0.  1.
         -1   -1    0    0    0  501 -0.00000000000E+00 -0.00000000000E+00 -0.51555093591E+03  0.51555093591E+03  0.00000000000E+00 0. -1.
         23    2    1    2    0    0  0.10832076875E+03 -0.11880258287E+03 -0.70090971793E+02  0.19759355505E+03  0.91011131366E+02 0.  0.
        254    2    1    2    0    0 -0.10832076875E+03  0.11880258287E+03  0.16512936513E+03  0.92854671011E+03  0.89949087988E+03 0.  0.
        -24    2    4    4    0    0 -0.66391512305E+02 -0.38569199452E+03  0.43263210876E+02  0.40189663475E+03  0.80517402257E+02 0.  0.
         24    2    4    4    0    0 -0.41929256446E+02  0.50449457738E+03  0.12186615425E+03  0.52665007536E+03  0.78968988656E+02 0.  0.
         13    1    3    3    0    0  0.60419287667E+02 -0.58166931051E+01 -0.12238486335E+02  0.61920148487E+02  0.00000000000E+00 0.  1.
        -13    1    3    3    0    0  0.47901481084E+02 -0.11298588976E+03 -0.57852485458E+02  0.13567340657E+03  0.00000000000E+00 0. -1.
          2    1    6    6  502    0 -0.29322573936E+02  0.17969434679E+03  0.80301756373E+01  0.18224805988E+03  0.00000000000E+00 0. -1.
          1    1    5    5  503    0 -0.29924648288E+02 -0.32723933996E+03  0.51111251708E+02  0.33255590544E+03  0.00000000000E+00 0. -1.
         -2    1    5    5    0  503 -0.36466864017E+02 -0.58452654557E+02 -0.78480408312E+01  0.69340729307E+02  0.00000000000E+00 0.  1.
         -1    1    6    6    0  502 -0.12606682510E+02  0.32480023060E+03  0.11383597861E+03  0.34440201548E+03  0.00000000000E+00 0.  1.
<mgrwt>
<rscale>  0 0.11221228E+04</rscale>
<asrwt>0</asrwt>
<pdfrwt beam="1">  1        1 0.93936820E-01 0.11221228E+04</pdfrwt>
<pdfrwt beam="2">  1       -1 0.79315528E-01 0.11221228E+04</pdfrwt>
<totfact> 0.52810997E+01</totfact>
</mgrwt>
</event>
<event>
12    1  0.2048318E-007  0.1235196E+04  0.7818608E-02  0.9082595E-01
          1   -1    0    0  501    0  0.00000000000E+00  0.00000000000E+00  0.23404736516E+03  0.23404736516E+03  0.00000000000E+00 0. -1.
         -1   -1    0    0    0  501 -0.00000000000E+00 -0.00000000000E+00 -0.16297009859E+04  0.16297009859E+04  0.00000000000E+00 0.  1.
         23    2    1    2    0    0  0.17023218229E+03 -0.21558641430E+03 -0.30081205934E+03  0.41779543078E+03  0.92782697855E+02 0.  0.
        254    2    1    2    0    0 -0.17023218229E+03  0.21558641430E+03 -0.10948415614E+04  0.14459529202E+04  0.90368429507E+03 0.  0.
        -24    2    4    4    0    0 -0.47583935936E+03 -0.77626781117E+02 -0.41774321860E+03  0.64295581092E+03  0.80210753909E+02 0.  0.
         24    2    4    4    0    0  0.30560717708E+03  0.29321319542E+03 -0.67709834276E+03  0.80299710933E+03  0.83501300360E+02 0.  0.
         11    1    3    3    0    0  0.41210242263E+02 -0.56741693096E+02 -0.14335280521E+03  0.15958674933E+03  0.00000000000E+00 0.  1.
        -11    1    3    3    0    0  0.12902194003E+03 -0.15884472121E+03 -0.15745925413E+03  0.25820868145E+03  0.00000000000E+00 0. -1.
          4    1    6    6  502    0  0.30911391343E+03  0.28796713764E+03 -0.67507870191E+03  0.79637160774E+03  0.00000000000E+00 0. -1.
          3    1    5    5  503    0 -0.36617457507E+03 -0.90238039576E+02 -0.34174627967E+03  0.50893736636E+03  0.00000000000E+00 0. -1.
         -4    1    5    5    0  503 -0.10966478430E+03  0.12611258459E+02 -0.75996938932E+02  0.13401844456E+03  0.00000000000E+00 0.  1.
         -3    1    6    6    0  502 -0.35067363559E+01  0.52460577814E+01 -0.20196408540E+01  0.66255015881E+01  0.00000000000E+00 0.  1.
<mgrwt>
<rscale>  0 0.12351959E+04</rscale>
<asrwt>0</asrwt>
<pdfrwt beam="1">  1        1 0.36007287E-01 0.12351959E+04</pdfrwt>
<pdfrwt beam="2">  1       -1 0.25072323E+00 0.12351959E+04</pdfrwt>
<totfact> 0.82687625E+00</totfact>
</mgrwt>
</event>
<event>
12    1  0.2048318E-007  0.1573162E+04  0.7818608E-02  0.8837207E-01
         -2   -1    0    0    0  501 -0.00000000000E+00  0.00000000000E+00  0.27497027107E+03  0.27497027107E+03  0.00000000000E+00 0. -1.
          2   -1    0    0  501    0  0.00000000000E+00 -0.00000000000E+00 -0.22500963538E+04  0.22500963538E+04  0.00000000000E+00 0.  1.
         23    2    1    2    0    0 -0.13241526477E+03 -0.42583809200E+03 -0.22381809299E+03  0.50709333390E+03  0.90428024413E+02 0.  0.
        254    2    1    2    0    0  0.13241526477E+03  0.42583809200E+03 -0.17513079898E+04  0.20179732910E+04  0.89792240487E+03 0.  0.
        -24    2    4    4    0    0 -0.11233925782E+03  0.55938563593E+03 -0.15783781086E+04  0.16802456114E+04  0.80096579929E+02 0.  0.
         24    2    4    4    0    0  0.24475452259E+03 -0.13354754393E+03 -0.17292988112E+03  0.33772767962E+03  0.80096934928E+02 0.  0.
         13    1    3    3    0    0 -0.94079745297E+02 -0.34666098783E+03 -0.21513140502E+03  0.41869602385E+03  0.00000000000E+00 0.  1.
        -13    1    3    3    0    0 -0.38335519472E+02 -0.79177104164E+02 -0.86866879706E+01  0.88397310055E+02  0.00000000000E+00 0. -1.
          4    1    6    6  502    0  0.16842326844E+03 -0.51178343638E+02 -0.12350663938E+03  0.21503374196E+03  0.00000000000E+00 0. -1.
          1    1    5    5  503    0 -0.83682256874E+02  0.25908191816E+03 -0.67547981471E+03  0.72828506817E+03  0.00000000000E+00 0. -1.
         -2    1    5    5    0  503 -0.28657000943E+02  0.30030371777E+03 -0.90289829393E+03  0.95196054319E+03  0.00000000000E+00 0.  1.
         -3    1    6    6    0  502  0.76331254145E+02 -0.82369200291E+02 -0.49423241741E+02  0.12269393767E+03  0.00000000000E+00 0.  1.
<mgrwt>
<rscale>  0 0.15731619E+04</rscale>
<asrwt>0</asrwt>
<pdfrwt beam="1">  1        2 0.34616866E+00 0.15731619E+04</pdfrwt>
<pdfrwt beam="2">  1       -2 0.42303120E-01 0.15731619E+04</pdfrwt>
<totfact> 0.24650939E+01</totfact>
</mgrwt>
</event>
<event>
12    1  0.2048318E-007  0.1431117E+04  0.7818608E-02  0.8931598E-01
         -2   -1    0    0    0  501 -0.00000000000E+00  0.00000000000E+00  0.44028289467E+03  0.44028289467E+03  0.00000000000E+00 0.  1.
          2   -1    0    0  501    0  0.00000000000E+00 -0.00000000000E+00 -0.11629428851E+04  0.11629428851E+04  0.00000000000E+00 0. -1.
         23    2    1    2    0    0  0.12036766073E+03 -0.41028125762E+03 -0.20898645363E+03  0.48441572091E+03  0.90355789860E+02 0.  0.
        254    2    1    2    0    0 -0.12036766073E+03  0.41028125762E+03 -0.51367353680E+03  0.11188100589E+04  0.89724933062E+03 0.  0.
        -24    2    4    4    0    0  0.18960225221E+03 -0.13670220862E+03  0.68652305643E+02  0.25812556609E+03  0.85317998790E+02 0.  0.
         24    2    4    4    0    0 -0.30996991294E+03  0.54698346623E+03 -0.58232584245E+03  0.86068449277E+03  0.80013436697E+02 0.  0.
         13    1    3    3    0    0  0.18778913586E+02 -0.16234628306E+03 -0.42141234750E+02  0.16877454455E+03  0.00000000000E+00 0.  1.
        -13    1    3    3    0    0  0.10158874714E+03 -0.24793497455E+03 -0.16684521888E+03  0.31564117636E+03  0.00000000000E+00 0. -1.
          4    1    6    6  502    0 -0.28100841542E+02  0.10967698151E+03 -0.11408289916E+03  0.16072835920E+03  0.00000000000E+00 0. -1.
          1    1    5    5  503    0  0.28968211712E+02  0.87325874328E+01 -0.16930659115E+01  0.30303165598E+02  0.00000000000E+00 0. -1.
         -2    1    5    5    0  503  0.16063404049E+03 -0.14543479605E+03  0.70345371555E+02  0.22782240049E+03  0.00000000000E+00 0.  1.
         -3    1    6    6    0  502 -0.28186907140E+03  0.43730648472E+03 -0.46824294329E+03  0.69995613357E+03  0.00000000000E+00 0.  1.
<mgrwt>
<rscale>  0 0.14311169E+04</rscale>
<asrwt>0</asrwt>
<pdfrwt beam="1">  1        2 0.17891429E+00 0.14311169E+04</pdfrwt>
<pdfrwt beam="2">  1       -2 0.67735829E-01 0.14311169E+04</pdfrwt>
<totfact> 0.38671258E+01</totfact>
</mgrwt>
</event>
<event>
12    1  0.2048318E-007  0.1510294E+04  0.7818608E-02  0.8877636E-01
          2   -1    0    0  501    0  0.00000000000E+00  0.00000000000E+00  0.47240216761E+03  0.47240216761E+03  0.00000000000E+00 0. -1.
         -2   -1    0    0    0  501 -0.00000000000E+00 -0.00000000000E+00 -0.12071216478E+04  0.12071216478E+04  0.00000000000E+00 0.  1.
         23    2    1    2    0    0 -0.17674723275E+03  0.23400513190E+03  0.18579810809E+03  0.35874167648E+03  0.90424927061E+02 0.  0.
        254    2    1    2    0    0  0.17674723275E+03 -0.23400513190E+03 -0.92051758827E+03  0.13207821389E+04  0.90061914378E+03 0.  0.
        -24    2    4    4    0    0 -0.19576538315E+03  0.18823838594E+02  0.74406854671E+02  0.22577824910E+03  0.82225395138E+02 0.  0.
         24    2    4    4    0    0  0.37251261590E+03 -0.25282897049E+03 -0.99492444294E+03  0.10950038898E+04  0.80440874143E+02 0.  0.
         13    1    3    3    0    0 -0.96494079379E+02  0.13499326630E+03  0.15622362451E+03  0.22790373002E+03  0.00000000000E+00 0. -1.
        -13    1    3    3    0    0 -0.80253153368E+02  0.99011865595E+02  0.29574483580E+02  0.13083794646E+03  0.00000000000E+00 0.  1.
          4    1    6    6  502    0  0.40678768735E+02 -0.56568965905E+02 -0.19371609442E+03  0.20586581884E+03  0.00000000000E+00 0. -1.
          1    1    5    5  503    0 -0.65037388032E+02 -0.26586236541E+01 -0.13905219321E+02  0.66560387965E+02  0.00000000000E+00 0. -1.
         -2    1    5    5    0  503 -0.13072799512E+03  0.21482462248E+02  0.88312073992E+02  0.15921786114E+03  0.00000000000E+00 0.  1.
         -1    1    6    6    0  502  0.33183384716E+03 -0.19626000459E+03 -0.80120834852E+03  0.88913807098E+03  0.00000000000E+00 0.  1.
<mgrwt>
<rscale>  0 0.15102939E+04</rscale>
<asrwt>0</asrwt>
<pdfrwt beam="1">  1        2 0.72677257E-01 0.15102939E+04</pdfrwt>
<pdfrwt beam="2">  1       -2 0.18571102E+00 0.15102939E+04</pdfrwt>
<totfact> 0.10509596E+01</totfact>
</mgrwt>
</event>
<event>
12    1  0.2048318E-007  0.2777103E+04  0.7818608E-02  0.8310412E-01
          1   -1    0    0  501    0  0.00000000000E+00  0.00000000000E+00  0.15208396629E+04  0.15208396629E+04  0.00000000000E+00 0. -1.
         -1   -1    0    0    0  501 -0.00000000000E+00 -0.00000000000E+00 -0.12677705203E+04  0.12677705203E+04  0.00000000000E+00 0.  1.
         23    2    1    2    0    0 -0.15351797574E+03 -0.12281752655E+04  0.19122089199E+02  0.12411520945E+04  0.90058956549E+02 0.  0.
        254    2    1    2    0    0  0.15351797574E+03  0.12281752655E+04  0.23394705337E+03  0.15474580886E+04  0.89883984146E+03 0.  0.
        -24    2    4    4    0    0  0.20703555344E+03  0.11707777851E+04 -0.10044228458E+03  0.11959723892E+04  0.81712672504E+02 0.  0.
         24    2    4    4    0    0 -0.53517577695E+02  0.57397480467E+02  0.33438933795E+03  0.35148569943E+03  0.74614781915E+02 0.  0.
         11    1    3    3    0    0 -0.39587397434E+02 -0.44286725300E+03  0.47163299868E+02  0.44712743449E+03  0.00000000000E+00 0.  1.
        -11    1    3    3    0    0 -0.11393057831E+03 -0.78530801253E+03 -0.28041210669E+02  0.79402466002E+03  0.00000000000E+00 0. -1.
          4    1    6    6  502    0 -0.61474056926E+02  0.12788483067E+02  0.18404550970E+03  0.19446170475E+03  0.00000000000E+00 0. -1.
          1    1    5    5  503    0  0.19767331475E+03  0.92949847658E+03 -0.80708561892E+02  0.95370646915E+03  0.00000000000E+00 0. -1.
         -2    1    5    5    0  503  0.93622386867E+01  0.24127930849E+03 -0.19733722692E+02  0.24226592007E+03  0.00000000000E+00 0.  1.
         -3    1    6    6    0  502  0.79564792304E+01  0.44608997400E+02  0.15034382825E+03  0.15702399468E+03  0.00000000000E+00 0.  1.
<mgrwt>
<rscale>  0 0.27771033E+04</rscale>
<asrwt>0</asrwt>
<pdfrwt beam="1">  1        1 0.23397533E+00 0.27771033E+04</pdfrwt>
<pdfrwt beam="2">  1       -1 0.19504162E+00 0.27771033E+04</pdfrwt>
<totfact> 0.89421339E-01</totfact>
</mgrwt>
</event>
<event>
12    1  0.2048318E-007  0.2740518E+04  0.7818608E-02  0.8321977E-01
          2   -1    0    0  501    0  0.00000000000E+00  0.00000000000E+00  0.22167027718E+04  0.22167027718E+04  0.00000000000E+00 0.  1.
         -2   -1    0    0    0  501 -0.00000000000E+00 -0.00000000000E+00 -0.84702813724E+03  0.84702813724E+03  0.00000000000E+00 0. -1.
         23    2    1    2    0    0  0.27395252401E+03 -0.10518895340E+04 -0.84702322145E+01  0.10908179549E+04  0.91052121185E+02 0.  0.
        254    2    1    2    0    0 -0.27395252401E+03  0.10518895340E+04  0.13781448667E+04  0.19729129541E+04  0.90087772405E+03 0.  0.
        -24    2    4    4    0    0 -0.49287148946E+03  0.84857903051E+03  0.64493331179E+03  0.11769754157E+04  0.79520289452E+02 0.  0.
         24    2    4    4    0    0  0.21891896545E+03  0.20331050347E+03  0.73321155496E+03  0.79593753840E+03  0.81588641626E+02 0.  0.
         13    1    3    3    0    0  0.19081520773E+03 -0.71624082271E+03  0.36462630805E+02  0.74211918387E+03  0.00000000000E+00 0.  1.
        -13    1    3    3    0    0  0.83137316276E+02 -0.33564871127E+03 -0.44932863019E+02  0.34869877102E+03  0.00000000000E+00 0. -1.
          2    1    6    6  502    0  0.20802392974E+03  0.17611426668E+03  0.70235732967E+03  0.75338967926E+03  0.00000000000E+00 0. -1.
          3    1    5    5  503    0 -0.26661985975E+03  0.44899969872E+03  0.39008583265E+03  0.65180812813E+03  0.00000000000E+00 0. -1.
         -4    1    5    5    0  503 -0.22625162971E+03  0.39957933179E+03  0.25484747913E+03  0.52516728759E+03  0.00000000000E+00 0.  1.
         -1    1    6    6    0  502  0.10895035705E+02  0.27196236791E+02  0.30854225289E+02  0.42547859133E+02  0.00000000000E+00 0.  1.
<mgrwt>
<rscale>  0 0.27405179E+04</rscale>
<asrwt>0</asrwt>
<pdfrwt beam="1">  1        2 0.34103119E+00 0.27405179E+04</pdfrwt>
<pdfrwt beam="2">  1       -2 0.13031202E+00 0.27405179E+04</pdfrwt>
<totfact> 0.19071726E+00</totfact>
</mgrwt>
</event>
<event>
12    1  0.2048318E-007  0.1879607E+04  0.7818608E-02  0.8665074E-01
          2   -1    0    0  501    0  0.00000000000E+00  0.00000000000E+00  0.18419028340E+04  0.18419028340E+04  0.00000000000E+00 0. -1.
         -2   -1    0    0    0  501 -0.00000000000E+00 -0.00000000000E+00 -0.47952078111E+03  0.47952078111E+03  0.00000000000E+00 0.  1.
         23    2    1    2    0    0 -0.93514506507E+02 -0.12310583364E+03 -0.34314659700E+03  0.38708142335E+03  0.90456796672E+02 0.  0.
        254    2    1    2    0    0  0.93514506507E+02  0.12310583364E+03  0.17055286499E+04  0.19343421917E+04  0.89941743923E+03 0.  0.
        -24    2    4    4    0    0  0.55450789062E+02  0.36490117870E+03  0.24167931830E+03  0.44798437304E+03  0.77803890452E+02 0.  0.
         24    2    4    4    0    0  0.38063717445E+02 -0.24179534506E+03  0.14638493316E+04  0.14863578187E+04  0.80565899710E+02 0.  0.
         13    1    3    3    0    0  0.11324951562E+02 -0.27466081577E+02 -0.11178657239E+03  0.11566709961E+03  0.00000000000E+00 0. -1.
        -13    1    3    3    0    0 -0.10483945807E+03 -0.95639752059E+02 -0.23136002461E+03  0.27141432374E+03  0.00000000000E+00 0.  1.
          2    1    6    6  502    0  0.22577158764E+01 -0.11812702023E+03  0.91575099425E+03  0.92334120110E+03  0.00000000000E+00 0. -1.
          1    1    5    5  503    0  0.47193655477E+02  0.13055385667E+03  0.59482156150E+02  0.15102873074E+03  0.00000000000E+00 0. -1.
         -2    1    5    5    0  503  0.82571335851E+01  0.23434732202E+03  0.18219716215E+03  0.29695564230E+03  0.00000000000E+00 0.  1.
         -1    1    6    6    0  502  0.35806001569E+02 -0.12366832483E+03  0.54809833731E+03  0.56301661759E+03  0.00000000000E+00 0.  1.
<mgrwt>
<rscale>  0 0.18796071E+04</rscale>
<asrwt>0</asrwt>
<pdfrwt beam="1">  1        2 0.28336966E+00 0.18796071E+04</pdfrwt>
<pdfrwt beam="2">  1       -2 0.73772429E-01 0.18796071E+04</pdfrwt>
<totfact> 0.12706382E+01</totfact>
</mgrwt>
</event>
<event>
12    1  0.2048318E-007  0.4108316E+04  0.7818608E-02  0.7983045E-01
          1   -1    0    0  501    0  0.00000000000E+00  0.00000000000E+00  0.27888671657E+04  0.27888671657E+04  0.00000000000E+00 0. -1.
         -1   -1    0    0    0  501 -0.00000000000E+00 -0.00000000000E+00 -0.15130033516E+04  0.15130033516E+04  0.00000000000E+00 0.  1.
         23    2    1    2    0    0  0.13304242969E+04 -0.84132351226E+03  0.18162366055E+04  0.24058587233E+04  0.10764166294E+03 0.  0.
        254    2    1    2    0    0 -0.13304242969E+04  0.84132351226E+03 -0.54037279142E+03  0.18960117939E+04  0.90829725696E+03 0.  0.
        -24    2    4    4    0    0 -0.10457299325E+04  0.10099581450E+04 -0.32033256064E+03  0.14907840399E+04  0.79104727354E+02 0.  0.
         24    2    4    4    0    0 -0.28469436439E+03 -0.16863463271E+03 -0.22004023078E+03  0.40522775404E+03  0.79393381469E+02 0.  0.
         11    1    3    3    0    0  0.36812436828E+03 -0.28880853107E+03  0.51871159360E+03  0.69856111792E+03  0.00000000000E+00 0. -1.
        -11    1    3    3    0    0  0.96229992857E+03 -0.55251498119E+03  0.12975250119E+04  0.17072976054E+04  0.00000000000E+00 0.  1.
          2    1    6    6  502    0 -0.63537032221E+02 -0.48577378760E+02 -0.16715263452E+02  0.81707504079E+02  0.00000000000E+00 0. -1.
          1    1    5    5  503    0 -0.17268683574E+03  0.20882265930E+03 -0.65391227504E+02  0.27875376036E+03  0.00000000000E+00 0. -1.
         -2    1    5    5    0  503 -0.87304309672E+03  0.80113548566E+03 -0.25494133313E+03  0.12120302795E+04  0.00000000000E+00 0.  1.
         -1    1    6    6    0  502 -0.22115733217E+03 -0.12005725395E+03 -0.20332496733E+03  0.32352024996E+03  0.00000000000E+00 0.  1.
<mgrwt>
<rscale>  0 0.41083161E+04</rscale>
<asrwt>0</asrwt>
<pdfrwt beam="1">  1        1 0.42905649E+00 0.41083161E+04</pdfrwt>
<pdfrwt beam="2">  1       -1 0.23276975E+00 0.41083161E+04</pdfrwt>
<totfact> 0.59568668E-02</totfact>
</mgrwt>
</event>
<event>
12    1  0.2048318E-007  0.1491219E+04  0.7818608E-02  0.8890313E-01
         -1   -1    0    0    0  501 -0.00000000000E+00  0.00000000000E+00  0.13954599843E+04  0.13954599843E+04  0.00000000000E+00 0.  1.
          1   -1    0    0  501    0  0.00000000000E+00 -0.00000000000E+00 -0.39838730421E+03  0.39838730421E+03  0.00000000000E+00 0. -1.
         23    2    1    2    0    0  0.41505516375E+03  0.21368670582E+03  0.35399815767E+03  0.59328451745E+03  0.93482756722E+02 0.  0.
        254    2    1    2    0    0 -0.41505516375E+03 -0.21368670582E+03  0.64307452244E+03  0.12005627711E+04  0.89992962430E+03 0.  0.
        -24    2    4    4    0    0 -0.60672636172E+03 -0.31782851904E+03  0.23017846111E+03  0.72692933019E+03  0.79449868607E+02 0.  0.
         24    2    4    4    0    0  0.19167119796E+03  0.10414181322E+03  0.41289606133E+03  0.47363344089E+03  0.79133516802E+02 0.  0.
         13    1    3    3    0    0  0.80515565177E+02  0.29496606653E+02  0.11244605435E+03  0.14141047054E+03  0.00000000000E+00 0.  1.
        -13    1    3    3    0    0  0.33453959858E+03  0.18419009917E+03  0.24155210332E+03  0.45187404690E+03  0.00000000000E+00 0. -1.
          2    1    6    6  502    0  0.43598866862E+02 -0.69233921102E+00  0.41043900534E+02  0.59882737882E+02  0.00000000000E+00 0. -1.
          3    1    5    5  503    0 -0.11727554400E+03 -0.40213072874E+02  0.67609999879E+02  0.14121528435E+03  0.00000000000E+00 0. -1.
         -4    1    5    5    0  503 -0.48945081771E+03 -0.27761544616E+03  0.16256846124E+03  0.58571404584E+03  0.00000000000E+00 0.  1.
         -1    1    6    6    0  502  0.14807233110E+03  0.10483415243E+03  0.37185216080E+03  0.41375070301E+03  0.00000000000E+00 0.  1.
<mgrwt>
<rscale>  0 0.14912190E+04</rscale>
<asrwt>0</asrwt>
<pdfrwt beam="1">  1        1 0.61290355E-01 0.14912190E+04</pdfrwt>
<pdfrwt beam="2">  1       -1 0.21468615E+00 0.14912190E+04</pdfrwt>
<totfact> 0.69773783E+00</totfact>
</mgrwt>
</event>
<event>
12    1  0.2048318E-007  0.2875373E+04  0.7818608E-02  0.8280243E-01
         -2   -1    0    0    0  501 -0.00000000000E+00  0.00000000000E+00  0.12872938663E+04  0.12872938663E+04  0.00000000000E+00 0.  1.
          2   -1    0    0  501    0  0.00000000000E+00 -0.00000000000E+00 -0.16056497777E+04  0.16056497777E+04  0.00000000000E+00 0. -1.
         23    2    1    2    0    0  0.12002372486E+04 -0.19304327557E+03  0.30494038835E+03  0.12566398184E+04  0.91213121312E+02 0.  0.
        254    2    1    2    0    0 -0.12002372486E+04  0.19304327557E+03 -0.62329629980E+03  0.16363038257E+04  0.90064242265E+03 0.  0.
        -24    2    4    4    0    0  0.12451462928E+03  0.95101343667E+02 -0.13329081014E+02  0.17249358579E+03  0.70909902463E+02 0.  0.
         24    2    4    4    0    0 -0.13247518779E+04  0.97941931902E+02 -0.60996721878E+03  0.14638102399E+04  0.78232029912E+02 0.  0.
         13    1    3    3    0    0  0.38958233758E+03 -0.10068427401E+03  0.12216542001E+03  0.42051885883E+03  0.00000000000E+00 0.  1.
        -13    1    3    3    0    0  0.81065491101E+03 -0.92359001563E+02  0.18277496834E+03  0.83612095953E+03  0.00000000000E+00 0. -1.
          2    1    6    6  502    0 -0.55460954829E+03  0.63323024645E+02 -0.22158038011E+03  0.60058256830E+03  0.00000000000E+00 0. -1.
          3    1    5    5  503    0  0.10162089314E+03  0.36934034292E+02 -0.18789642188E+02  0.10974506579E+03  0.00000000000E+00 0. -1.
         -4    1    5    5    0  503  0.22893736139E+02  0.58167309375E+02  0.54605611741E+01  0.62748520004E+02  0.00000000000E+00 0.  1.
         -1    1    6    6    0  502 -0.77014232958E+03  0.34618907257E+02 -0.38838683868E+03  0.86322767159E+03  0.00000000000E+00 0.  1.
<mgrwt>
<rscale>  0 0.28753734E+04</rscale>
<asrwt>0</asrwt>
<pdfrwt beam="1">  1        2 0.24702304E+00 0.28753734E+04</pdfrwt>
<pdfrwt beam="2">  1       -2 0.19804521E+00 0.28753734E+04</pdfrwt>
<totfact> 0.13118500E+00</totfact>
</mgrwt>
</event>
<event>
12    1  0.2048318E-007  0.3144529E+04  0.7818608E-02  0.8203622E-01
          2   -1    0    0  501    0  0.00000000000E+00  0.00000000000E+00  0.24170559410E+04  0.24170559410E+04  0.00000000000E+00 0. -1.
         -2   -1    0    0    0  501 -0.00000000000E+00 -0.00000000000E+00 -0.10227386003E+04  0.10227386003E+04  0.00000000000E+00 0.  1.
         23    2    1    2    0    0 -0.91740817425E+03  0.96327106641E+03  0.12475597531E+04  0.18260030705E+04  0.91394585780E+02 0.  0.
        254    2    1    2    0    0  0.91740817425E+03 -0.96327106641E+03  0.14675758772E+03  0.16137914709E+04  0.90180719468E+03 0.  0.
        -24    2    4    4    0    0  0.73380123554E+02 -0.71479287225E+03  0.81124741585E+02  0.72754806695E+03  0.80196466748E+02 0.  0.
         24    2    4    4    0    0  0.84402805069E+03 -0.24847819416E+03  0.65632846130E+02  0.88624340393E+03  0.83635741073E+02 0.  0.
         11    1    3    3    0    0 -0.76534606200E+03  0.79788613256E+03  0.10816121155E+04  0.15466937782E+04  0.00000000000E+00 0. -1.
        -11    1    3    3    0    0 -0.15206211224E+03  0.16538493385E+03  0.16594763755E+03  0.27930929224E+03  0.00000000000E+00 0.  1.
          2    1    6    6  502    0  0.80512440662E+03 -0.25357567016E+03  0.56774414763E+02  0.84601965982E+03  0.00000000000E+00 0. -1.
          3    1    5    5  503    0  0.23739818096E+02 -0.44461491495E+03  0.82592326244E+02  0.45284378533E+03  0.00000000000E+00 0. -1.
         -4    1    5    5    0  503  0.49640305458E+02 -0.27017795730E+03 -0.14675846594E+01  0.27470428162E+03  0.00000000000E+00 0.  1.
         -1    1    6    6    0  502  0.38903644076E+02  0.50974759981E+01  0.88584313672E+01  0.40223744111E+02  0.00000000000E+00 0.  1.
<mgrwt>
<rscale>  0 0.31445295E+04</rscale>
<asrwt>0</asrwt>
<pdfrwt beam="1">  1        2 0.37185476E+00 0.31445295E+04</pdfrwt>
<pdfrwt beam="2">  1       -2 0.15734440E+00 0.31445295E+04</pdfrwt>
<totfact> 0.86663456E-01</totfact>
</mgrwt>
</event>
<event>
12    1  0.2048318E-007  0.2433388E+04  0.7818608E-02  0.8427108E-01
          1   -1    0    0  501    0  0.00000000000E+00  0.00000000000E+00  0.23602498099E+04  0.23602498099E+04  0.00000000000E+00 0. -1.
         -1   -1    0    0    0  501 -0.00000000000E+00 -0.00000000000E+00 -0.62719832150E+03  0.62719832150E+03  0.00000000000E+00 0.  1.
         23    2    1    2    0    0 -0.85443657288E+03 -0.14303531780E+03  0.26910220864E+02  0.87146720721E+03  0.90608907050E+02 0.  0.
        254    2    1    2    0    0  0.85443657288E+03  0.14303531780E+03  0.17061412675E+04  0.21159809242E+04  0.90329191713E+03 0.  0.
        -24    2    4    4    0    0  0.62508987883E+03 -0.84090248651E+02  0.16645815380E+04  0.17819021220E+04  0.80839033179E+02 0.  0.
         24    2    4    4    0    0  0.22934669405E+03  0.22712556645E+03  0.41559729521E+02  0.33407880216E+03  0.75468575734E+02 0.  0.
         11    1    3    3    0    0 -0.17339801216E+03 -0.35924297989E+02 -0.30433124853E+02  0.17967637824E+03  0.00000000000E+00 0.  1.
        -11    1    3    3    0    0 -0.68103856072E+03 -0.10711101981E+03  0.57343345717E+02  0.69179082898E+03  0.00000000000E+00 0. -1.
          2    1    6    6  502    0  0.14566934031E+02  0.46097883044E+02  0.20131545038E+02  0.52368783581E+02  0.00000000000E+00 0. -1.
          3    1    5    5  503    0  0.16421956286E+03  0.13333609989E+02  0.42025987043E+03  0.45140249078E+03  0.00000000000E+00 0. -1.
         -4    1    5    5    0  503  0.46087031597E+03 -0.97423858640E+02  0.12443216676E+04  0.13304996313E+04  0.00000000000E+00 0.  1.
         -1    1    6    6    0  502  0.21477976002E+03  0.18102768341E+03  0.21428184483E+02  0.28171001858E+03  0.00000000000E+00 0.  1.
<mgrwt>
<rscale>  0 0.24333884E+04</rscale>
<asrwt>0</asrwt>
<pdfrwt beam="1">  1        1 0.36311535E+00 0.24333884E+04</pdfrwt>
<pdfrwt beam="2">  1       -1 0.96492050E-01 0.24333884E+04</pdfrwt>
<totfact> 0.15625660E+00</totfact>
</mgrwt>
</event>
<event>
12    1  0.2048318E-007  0.1965802E+04  0.7818608E-02  0.8622778E-01
         -2   -1    0    0    0  501 -0.00000000000E+00  0.00000000000E+00  0.41588701273E+03  0.41588701273E+03  0.00000000000E+00 0.  1.
          2   -1    0    0  501    0  0.00000000000E+00 -0.00000000000E+00 -0.23229728261E+04  0.23229728261E+04  0.00000000000E+00 0. -1.
         23    2    1    2    0    0 -0.28364003209E+03  0.93492180913E+02 -0.17465626138E+04  0.17742232985E+04  0.90525650026E+02 0.  0.
        254    2    1    2    0    0  0.28364003209E+03 -0.93492180913E+02 -0.16052319963E+03  0.96463654040E+03  0.90308554509E+03 0.  0.
        -24    2    4    4    0    0 -0.21335509453E+03 -0.26278343815E+03 -0.24690641147E+03  0.42649731966E+03  0.79759989467E+02 0.  0.
         24    2    4    4    0    0  0.49699512662E+03  0.16929125724E+03  0.86383211842E+02  0.53813922074E+03  0.80424349216E+02 0.  0.
         11    1    3    3    0    0 -0.24490096900E+03  0.79629352181E+02 -0.12674441862E+04  0.12933414412E+04  0.00000000000E+00 0.  1.
        -11    1    3    3    0    0 -0.38739063088E+02  0.13862828732E+02 -0.47911842759E+03  0.48088185731E+03  0.00000000000E+00 0. -1.
          2    1    6    6  502    0  0.16028607261E+03  0.83918058158E+02  0.56266336685E+02  0.18947233624E+03  0.00000000000E+00 0. -1.
          1    1    5    5  503    0  0.18045328184E+01 -0.32560971953E+02 -0.21373957870E+02  0.38991272206E+02  0.00000000000E+00 0. -1.
         -2    1    5    5    0  503 -0.21515962735E+03 -0.23022246620E+03 -0.22553245360E+03  0.38750604745E+03  0.00000000000E+00 0.  1.
         -1    1    6    6    0  502  0.33670905401E+03  0.85373199082E+02  0.30116875157E+02  0.34866688450E+03  0.00000000000E+00 0.  1.
<mgrwt>
<rscale>  0 0.19658019E+04</rscale>
<asrwt>0</asrwt>
<pdfrwt beam="1">  1        2 0.35738043E+00 0.19658019E+04</pdfrwt>
<pdfrwt beam="2">  1       -2 0.63982618E-01 0.19658019E+04</pdfrwt>
<totfact> 0.92585394E+00</totfact>
</mgrwt>
</event>
<event>
12    1  0.2048318E-007  0.3128723E+04  0.7818608E-02  0.8207899E-01
          1   -1    0    0  501    0  0.00000000000E+00  0.00000000000E+00  0.13118631071E+04  0.13118631071E+04  0.00000000000E+00 0. -1.
         -1   -1    0    0    0  501 -0.00000000000E+00 -0.00000000000E+00 -0.18654588487E+04  0.18654588487E+04  0.00000000000E+00 0.  1.
         23    2    1    2    0    0 -0.61332237377E+03 -0.66782811879E+03 -0.13812986447E+04  0.16548073366E+04  0.90789013122E+02 0.  0.
        254    2    1    2    0    0  0.61332237377E+03  0.66782811879E+03  0.82770290306E+03  0.15225146192E+04  0.90044430123E+03 0.  0.
        -24    2    4    4    0    0  0.95520019791E+02  0.77662529251E+02 -0.18663179692E+03  0.23747238348E+03  0.80038507387E+02 0.  0.
         24    2    4    4    0    0  0.51780235398E+03  0.59016558954E+03  0.10143347000E+04  0.12850422357E+04  0.77742930332E+02 0.  0.
         13    1    3    3    0    0 -0.34326724590E+03 -0.38031199896E+03 -0.69819123864E+03  0.86599112257E+03  0.00000000000E+00 0. -1.
        -13    1    3    3    0    0 -0.27005512786E+03 -0.28751611984E+03 -0.68310740608E+03  0.78881621402E+03  0.00000000000E+00 0.  1.
          4    1    6    6  502    0  0.49889892289E+03  0.58070397280E+03  0.96834356551E+03  0.12344255750E+04  0.00000000000E+00 0. -1.
          3    1    5    5  503    0  0.10177045986E+03  0.70368908255E+02 -0.19046910390E+03  0.22712879450E+03  0.00000000000E+00 0. -1.
         -4    1    5    5    0  503 -0.62504400656E+01  0.72936209952E+01  0.38373069815E+01  0.10343588986E+02  0.00000000000E+00 0.  1.
         -3    1    6    6    0  502  0.18903431090E+02  0.94616167380E+01  0.45991134468E+02  0.50616660774E+02  0.00000000000E+00 0.  1.
<mgrwt>
<rscale>  0 0.31287228E+04</rscale>
<asrwt>0</asrwt>
<pdfrwt beam="1">  1        1 0.20182509E+00 0.31287228E+04</pdfrwt>
<pdfrwt beam="2">  1       -1 0.28699367E+00 0.31287228E+04</pdfrwt>
<totfact> 0.29938974E-01</totfact>
</mgrwt>
</event>
<event>
12    1  0.2048318E-007  0.3259660E+04  0.7818608E-02  0.8173237E-01
          1   -1    0    0  501    0  0.00000000000E+00  0.00000000000E+00  0.22065591306E+04  0.22065591306E+04  0.00000000000E+00 0. -1.
         -1   -1    0    0    0  501 -0.00000000000E+00 -0.00000000000E+00 -0.12038404614E+04  0.12038404614E+04  0.00000000000E+00 0.  1.
         23    2    1    2    0    0  0.25392803441E+03 -0.10065875592E+04 -0.67483803621E+03  0.12418142936E+04  0.94859916797E+02 0.  0.
        254    2    1    2    0    0 -0.25392803441E+03  0.10065875592E+04  0.16775567054E+04  0.21685852984E+04  0.90048194640E+03 0.  0.
        -24    2    4    4    0    0 -0.35252858160E+03  0.28875095605E+03  0.16840961962E+03  0.49250273715E+03  0.80892710751E+02 0.  0.
         24    2    4    4    0    0  0.98600547193E+02  0.71783660312E+03  0.15091470858E+04  0.16760825613E+04  0.81953456439E+02 0.  0.
         13    1    3    3    0    0  0.10125290995E+03 -0.24888624254E+03 -0.15274589614E+03  0.30907575493E+03  0.00000000000E+00 0. -1.
        -13    1    3    3    0    0  0.15267512446E+03 -0.75770131663E+03 -0.52209214007E+03  0.93273853870E+03  0.00000000000E+00 0.  1.
          2    1    6    6  502    0  0.93772913476E+02  0.54410667333E+03  0.12121027342E+04  0.13319303546E+04  0.00000000000E+00 0. -1.
          3    1    5    5  503    0 -0.71864009358E+02  0.10357312420E+03  0.56225817445E+02  0.13803322225E+03  0.00000000000E+00 0. -1.
         -4    1    5    5    0  503 -0.28066457224E+03  0.18517783185E+03  0.11218380217E+03  0.35446951490E+03  0.00000000000E+00 0.  1.
         -1    1    6    6    0  502  0.48276337174E+01  0.17372992979E+03  0.29704435154E+03  0.34415220664E+03  0.00000000000E+00 0.  1.
<mgrwt>
<rscale>  0 0.32596596E+04</rscale>
<asrwt>0</asrwt>
<pdfrwt beam="1">  1        1 0.33947063E+00 0.32596596E+04</pdfrwt>
<pdfrwt beam="2">  1       -1 0.18520623E+00 0.32596596E+04</pdfrwt>
<totfact> 0.34285468E-01</totfact>
</mgrwt>
</event>
<event>
12    1  0.2810425E-007  0.1927035E+04  0.7818608E-02  0.8641515E-01
          1   -1    0    0  501    0  0.00000000000E+00  0.00000000000E+00  0.14704660611E+04  0.14704660611E+04  0.00000000000E+00 0. -1.
         -1   -1    0    0    0  501 -0.00000000000E+00 -0.00000000000E+00 -0.63134136182E+03  0.63134136182E+03  0.00000000000E+00 0.  1.
         23    2    1    2    0    0  0.74864367940E+03  0.90831854986E+01  0.38378378755E+03  0.84512707587E+03  0.79999473911E+02 0.  0.
        254    2    1    2    0    0 -0.74864367940E+03 -0.90831854986E+01  0.45534091169E+03  0.12566803470E+04  0.90075539730E+03 0.  0.
        -24    2    4    4    0    0 -0.31451301322E+02 -0.11503792351E+03 -0.22018007025E+03  0.26283614975E+03  0.79879096634E+02 0.  0.
         24    2    4    4    0    0 -0.71719237807E+03  0.10595473802E+03  0.67552098195E+03  0.99384419727E+03  0.76199591349E+02 0.  0.
         11    1    3    3    0    0  0.30726190839E+03  0.43097565246E+02  0.15863469902E+03  0.34847130185E+03  0.00000000000E+00 0.  1.
        -11    1    3    3    0    0  0.44138177101E+03 -0.34014379747E+02  0.22514908853E+03  0.49665577402E+03  0.00000000000E+00 0. -1.
          4    1    6    6  502    0 -0.13172924262E+03  0.35125546159E+02  0.93808721820E+02  0.16548859068E+03  0.00000000000E+00 0. -1.
          3    1    5    5  503    0  0.23090984135E+02 -0.59470213891E+02 -0.78339939546E+02  0.10102992634E+03  0.00000000000E+00 0. -1.
         -4    1    5    5    0  503 -0.54542285457E+02 -0.55567709623E+02 -0.14184013071E+03  0.16180622341E+03  0.00000000000E+00 0.  1.
         -3    1    6    6    0  502 -0.58546313545E+03  0.70829191856E+02  0.58171226013E+03  0.82835560659E+03  0.00000000000E+00 0.  1.
<mgrwt>
<rscale>  0 0.19270351E+04</rscale>
<asrwt>0</asrwt>
<pdfrwt beam="1">  1        1 0.22622555E+00 0.19270351E+04</pdfrwt>
<pdfrwt beam="2">  1       -1 0.97129441E-01 0.19270351E+04</pdfrwt>
<totfact> 0.65202208E+00</totfact>
</mgrwt>
</event>
<event>
12    1  0.2048318E-007  0.4536220E+04  0.7818608E-02  0.7904326E-01
          2   -1    0    0  501    0  0.00000000000E+00  0.00000000000E+00  0.33933822540E+04  0.33933822540E+04  0.00000000000E+00 0. -1.
         -2   -1    0    0    0  501 -0.00000000000E+00 -0.00000000000E+00 -0.15159869592E+04  0.15159869592E+04  0.00000000000E+00 0.  1.
         23    2    1    2    0    0  0.55281713134E+03 -0.19860025048E+04  0.14222841881E+03  0.20683676522E+04  0.90017175207E+02 0.  0.
        254    2    1    2    0    0 -0.55281713134E+03  0.19860025048E+04  0.17351668759E+04  0.28410015610E+04  0.90037384057E+03 0.  0.
        -24    2    4    4    0    0 -0.64953995061E+03  0.13750062714E+04  0.15879791237E+04  0.22001787773E+04  0.81021977659E+02 0.  0.
         24    2    4    4    0    0  0.96722819265E+02  0.61099623340E+03  0.14718775221E+03  0.64082278375E+03  0.79485248862E+02 0.  0.
         11    1    3    3    0    0  0.43553892530E+03 -0.14351802477E+04  0.12348013912E+03  0.15048866547E+04  0.00000000000E+00 0.  1.
        -11    1    3    3    0    0  0.11727820604E+03 -0.55082225711E+03  0.18748279695E+02  0.56348099749E+03  0.00000000000E+00 0. -1.
          2    1    6    6  502    0  0.78021604645E+01  0.22880320605E+03  0.27542441121E+02  0.23058700499E+03  0.00000000000E+00 0. -1.
          1    1    5    5  503    0 -0.56054101104E+03  0.11785781034E+04  0.14018013163E+04  0.19152805281E+04  0.00000000000E+00 0. -1.
         -2    1    5    5    0  503 -0.88998939562E+02  0.19642816797E+03  0.18617780738E+03  0.28489824916E+03  0.00000000000E+00 0.  1.
         -3    1    6    6    0  502  0.88920658801E+02  0.38219302735E+03  0.11964531109E+03  0.41023577877E+03  0.00000000000E+00 0.  1.
<mgrwt>
<rscale>  0 0.45362201E+04</rscale>
<asrwt>0</asrwt>
<pdfrwt beam="1">  1        2 0.52205881E+00 0.45362201E+04</pdfrwt>
<pdfrwt beam="2">  1       -2 0.23322876E+00 0.45362201E+04</pdfrwt>
<totfact> 0.59310526E-02</totfact>
</mgrwt>
</event>
<event>
12    1  0.2048318E-007  0.1863542E+04  0.7818608E-02  0.8673220E-01
         -2   -1    0    0    0  501 -0.00000000000E+00  0.00000000000E+00  0.17219281658E+03  0.17219281658E+03  0.00000000000E+00 0.  1.
          2   -1    0    0  501    0  0.00000000000E+00 -0.00000000000E+00 -0.50420076588E+04  0.50420076588E+04  0.00000000000E+00 0. -1.
         23    2    1    2    0    0  0.55947965612E+02  0.55720440780E+03 -0.64875565186E+03  0.86198310311E+03  0.92325767308E+02 0.  0.
        254    2    1    2    0    0 -0.55947965612E+02 -0.55720440780E+03 -0.42210591904E+04  0.43522173723E+04  0.90047123221E+03 0.  0.
        -24    2    4    4    0    0 -0.18625905008E+03 -0.60187000393E+03 -0.15336466756E+04  0.16600595127E+04  0.82374295418E+02 0.  0.
         24    2    4    4    0    0  0.13031108447E+03  0.44665596128E+02 -0.26874125148E+04  0.26921578597E+04  0.80943946604E+02 0.  0.
         13    1    3    3    0    0  0.97405674737E+01  0.16018715091E+01 -0.86784915745E+01  0.13143852671E+02  0.00000000000E+00 0.  1.
        -13    1    3    3    0    0  0.46207398138E+02  0.55560253629E+03 -0.64007716028E+03  0.84883925044E+03  0.00000000000E+00 0. -1.
          4    1    6    6  502    0  0.63514571352E+02 -0.39676803401E+01 -0.17354275402E+04  0.17365939625E+04  0.00000000000E+00 0. -1.
          1    1    5    5  503    0 -0.87806818205E+02 -0.30362347323E+03 -0.66269920707E+03  0.73421215590E+03  0.00000000000E+00 0. -1.
         -4    1    5    5    0  503 -0.98452231873E+02 -0.29824653070E+03 -0.87094746855E+03  0.92584735675E+03  0.00000000000E+00 0.  1.
         -3    1    6    6    0  502  0.66796513114E+02  0.48633276469E+02 -0.95198497457E+03  0.95556389716E+03  0.00000000000E+00 0.  1.
<mgrwt>
<rscale>  0 0.18635423E+04</rscale>
<asrwt>0</asrwt>
<pdfrwt beam="1">  1        2 0.77569344E+00 0.18635423E+04</pdfrwt>
<pdfrwt beam="2">  1       -2 0.26491204E-01 0.18635423E+04</pdfrwt>
<totfact> 0.37960714E-01</totfact>
</mgrwt>
</event>
<event>
12    1  0.2048318E-007  0.2796019E+04  0.7818608E-02  0.8304505E-01
          2   -1    0    0  501    0  0.00000000000E+00  0.00000000000E+00  0.87095704044E+03  0.87095704044E+03  0.00000000000E+00 0. -1.
         -2   -1    0    0    0  501 -0.00000000000E+00 -0.00000000000E+00 -0.22440032641E+04  0.22440032641E+04  0.00000000000E+00 0.  1.
         23    2    1    2    0    0  0.60410030341E+03 -0.74812626170E+03  0.27854684785E+03  0.10053555179E+04  0.92310838024E+02 0.  0.
        254    2    1    2    0    0 -0.60410030341E+03  0.74812626170E+03 -0.16515930715E+04  0.21096047866E+04  0.89333230218E+03 0.  0.
        -24    2    4    4    0    0  0.19697598545E+03  0.36049022138E+03 -0.49573134327E+03  0.64861549434E+03  0.78738530831E+02 0.  0.
         24    2    4    4    0    0 -0.80107628886E+03  0.38763604032E+03 -0.11558617282E+04  0.14609892923E+04  0.80550960383E+02 0.  0.
         11    1    3    3    0    0  0.28119757689E+03 -0.28561598050E+03  0.92000652198E+02  0.41123312801E+03  0.00000000000E+00 0. -1.
        -11    1    3    3    0    0  0.32290272651E+03 -0.46251028120E+03  0.18654619565E+03  0.59412238985E+03  0.00000000000E+00 0.  1.
          4    1    6    6  502    0 -0.47933138793E+03  0.18772806631E+03 -0.66583936805E+03  0.84163083973E+03  0.00000000000E+00 0. -1.
          3    1    5    5  503    0  0.15218685380E+02  0.96459756470E+02 -0.11053041401E+03  0.14748920443E+03  0.00000000000E+00 0. -1.
         -4    1    5    5    0  503  0.18175730007E+03  0.26403046491E+03 -0.38520092926E+03  0.50112628991E+03  0.00000000000E+00 0.  1.
         -3    1    6    6    0  502 -0.32174490093E+03  0.19990797401E+03 -0.49002236015E+03  0.61935845259E+03  0.00000000000E+00 0.  1.
<mgrwt>
<rscale>  0 0.27960189E+04</rscale>
<asrwt>0</asrwt>
<pdfrwt beam="1">  1        2 0.13399339E+00 0.27960189E+04</pdfrwt>
<pdfrwt beam="2">  1       -2 0.34523127E+00 0.27960189E+04</pdfrwt>
<totfact> 0.44540368E-01</totfact>
</mgrwt>
</event>
<event>
12    1  0.2048318E-007  0.2175759E+04  0.7818608E-02  0.8528586E-01
         -1   -1    0    0    0  501 -0.00000000000E+00  0.00000000000E+00  0.41490880679E+03  0.41490880679E+03  0.00000000000E+00 0.  1.
          1   -1    0    0  501    0  0.00000000000E+00 -0.00000000000E+00 -0.28523910833E+04  0.28523910833E+04  0.00000000000E+00 0. -1.
         23    2    1    2    0    0  0.78009541461E+03  0.25264671393E+03 -0.45474132000E+03  0.94029171812E+03  0.70566487056E+02 0.  0.
        254    2    1    2    0    0 -0.78009541461E+03 -0.25264671393E+03 -0.19827409566E+04  0.23270081720E+04  0.90073642862E+03 0.  0.
        -24    2    4    4    0    0 -0.89839366301E+03 -0.37077939692E+03 -0.18733019017E+04  0.21119245117E+04  0.79853574220E+02 0.  0.
         24    2    4    4    0    0  0.11829824840E+03  0.11813268299E+03 -0.10943905488E+03  0.21508366033E+03  0.79588113689E+02 0.  0.
         13    1    3    3    0    0  0.42279908919E+03  0.13206341698E+03 -0.20566473733E+03  0.48836236557E+03  0.00000000000E+00 0.  1.
        -13    1    3    3    0    0  0.35729632542E+03  0.12058329695E+03 -0.24907658267E+03  0.45192935255E+03  0.00000000000E+00 0. -1.
          4    1    6    6  502    0  0.11273215063E+03  0.11578493729E+03 -0.12110705972E+03  0.20194457013E+03  0.00000000000E+00 0. -1.
          3    1    5    5  503    0 -0.75339886255E+03 -0.28224816883E+03 -0.15142120618E+04  0.17146754921E+04  0.00000000000E+00 0. -1.
         -4    1    5    5    0  503 -0.14499480046E+03 -0.88531228091E+02 -0.35908983986E+03  0.39724901963E+03  0.00000000000E+00 0.  1.
         -3    1    6    6    0  502  0.55660977710E+01  0.23477457008E+01  0.11668004842E+02  0.13139090199E+02  0.00000000000E+00 0.  1.
<mgrwt>
<rscale>  0 0.21757593E+04</rscale>
<asrwt>0</asrwt>
<pdfrwt beam="1">  1        1 0.43882939E+00 0.21757593E+04</pdfrwt>
<pdfrwt beam="2">  1       -1 0.63832125E-01 0.21757593E+04</pdfrwt>
<totfact> 0.17396061E+00</totfact>
</mgrwt>
</event>
<event>
12    1  0.2048318E-007  0.1204331E+04  0.7818608E-02  0.9109074E-01
          1   -1    0    0  501    0  0.00000000000E+00  0.00000000000E+00  0.27322181792E+03  0.27322181792E+03  0.00000000000E+00 0. -1.
         -1   -1    0    0    0  501 -0.00000000000E+00 -0.00000000000E+00 -0.13271386731E+04  0.13271386731E+04  0.00000000000E+00 0.  1.
         23    2    1    2    0    0  0.17698968037E+03 -0.13335732411E+03 -0.39928471463E+03  0.46566411567E+03  0.91133212552E+02 0.  0.
        254    2    1    2    0    0 -0.17698968037E+03  0.13335732411E+03 -0.65463214053E+03  0.11346963753E+04  0.89993505430E+03 0.  0.
        -24    2    4    4    0    0 -0.34953611668E+03 -0.16184088697E+03 -0.67520959465E+03  0.78252282842E+03  0.89810972243E+02 0.  0.
         24    2    4    4    0    0  0.17254643631E+03  0.29519821108E+03  0.20577454120E+02  0.35217354692E+03  0.81783366442E+02 0.  0.
         11    1    3    3    0    0  0.10364126420E+03 -0.21670843275E+02 -0.16944797273E+03  0.19980929046E+03  0.00000000000E+00 0. -1.
        -11    1    3    3    0    0  0.73348416170E+02 -0.11168648083E+03 -0.22983674191E+03  0.26585482521E+03  0.00000000000E+00 0.  1.
          4    1    6    6  502    0  0.17256061756E+03  0.28383191624E+03  0.41499270842E+01  0.33219714825E+03  0.00000000000E+00 0. -1.
          3    1    5    5  503    0 -0.28873119648E+03 -0.99449462242E+02 -0.48224517397E+03  0.57080321230E+03  0.00000000000E+00 0. -1.
         -4    1    5    5    0  503 -0.60804920201E+02 -0.62391424731E+02 -0.19296442068E+03  0.21171961612E+03  0.00000000000E+00 0.  1.
         -3    1    6    6    0  502 -0.14181253458E-01  0.11366294841E+02  0.16427527035E+02  0.19976398675E+02  0.00000000000E+00 0.  1.
<mgrwt>
<rscale>  0 0.12043309E+04</rscale>
<asrwt>0</asrwt>
<pdfrwt beam="1">  1        1 0.42034126E-01 0.12043309E+04</pdfrwt>
<pdfrwt beam="2">  1       -1 0.20417518E+00 0.12043309E+04</pdfrwt>
<totfact> 0.13811976E+01</totfact>
</mgrwt>
</event>
<event>
12    1  0.2048318E-007  0.1905472E+04  0.7818608E-02  0.8652137E-01
          1   -1    0    0  501    0  0.00000000000E+00  0.00000000000E+00  0.23405320504E+04  0.23405320504E+04  0.00000000000E+00 0. -1.
         -1   -1    0    0    0  501 -0.00000000000E+00 -0.00000000000E+00 -0.38782032856E+03  0.38782032856E+03  0.00000000000E+00 0.  1.
         23    2    1    2    0    0  0.70811260551E+03 -0.97823481653E+02  0.52167636119E+03  0.89246406337E+03  0.11555510780E+03 0.  0.
        254    2    1    2    0    0 -0.70811260551E+03  0.97823481653E+02  0.14310353607E+04  0.18358883156E+04  0.90090554904E+03 0.  0.
        -24    2    4    4    0    0 -0.45692753367E+03  0.49285564252E+02  0.14899733145E+04  0.15613232272E+04  0.80609577841E+02 0.  0.
         24    2    4    4    0    0 -0.25118507184E+03  0.48537917401E+02 -0.58937953839E+02  0.27456508840E+03  0.80389275542E+02 0.  0.
         11    1    3    3    0    0  0.48685053865E+03 -0.12058785595E+03  0.35372322376E+03  0.61374668798E+03  0.00000000000E+00 0. -1.
        -11    1    3    3    0    0  0.22126206686E+03  0.22764374299E+02  0.16795313743E+03  0.27871737539E+03  0.00000000000E+00 0.  1.
          4    1    6    6  502    0 -0.42012653725E+02  0.16687631145E+02  0.19064824767E+02  0.49061264248E+02  0.00000000000E+00 0. -1.
          1    1    5    5  503    0 -0.24540386797E+02 -0.91229672525E+01  0.14512758249E+03  0.14747024892E+03  0.00000000000E+00 0. -1.
         -2    1    5    5    0  503 -0.43238714688E+03  0.58408531504E+02  0.13448457320E+04  0.14138529783E+04  0.00000000000E+00 0.  1.
         -3    1    6    6    0  502 -0.20917241812E+03  0.31850286256E+02 -0.78002778606E+02  0.22550382415E+03  0.00000000000E+00 0.  1.
<mgrwt>
<rscale>  0 0.19054720E+04</rscale>
<asrwt>0</asrwt>
<pdfrwt beam="1">  1        1 0.36008185E+00 0.19054720E+04</pdfrwt>
<pdfrwt beam="2">  1       -1 0.59664667E-01 0.19054720E+04</pdfrwt>
<totfact> 0.46513648E+00</totfact>
</mgrwt>
</event>
<event>
12    1  0.2048318E-007  0.2022982E+04  0.7818608E-02  0.8595950E-01
         -2   -1    0    0    0  501 -0.00000000000E+00  0.00000000000E+00  0.78375751831E+03  0.78375751831E+03  0.00000000000E+00 0.  1.
          2   -1    0    0  501    0  0.00000000000E+00 -0.00000000000E+00 -0.13053964224E+04  0.13053964224E+04  0.00000000000E+00 0. -1.
         23    2    1    2    0    0  0.75089682991E+03  0.30108959954E+03 -0.19786171075E+03  0.83800183279E+03  0.92719032864E+02 0.  0.
        254    2    1    2    0    0 -0.75089682991E+03 -0.30108959954E+03 -0.32377719333E+03  0.12511521079E+04  0.89780227783E+03 0.  0.
        -24    2    4    4    0    0 -0.13956971758E+03 -0.46482044755E+02  0.29625170930E+03  0.34026328664E+03  0.79835721497E+02 0.  0.
         24    2    4    4    0    0 -0.61132711233E+03 -0.25460755479E+03 -0.62002890263E+03  0.91088882126E+03  0.82077764254E+02 0.  0.
         13    1    3    3    0    0  0.60432264205E+03  0.23770924953E+03 -0.19590411071E+03  0.67829931711E+03  0.00000000000E+00 0.  1.
        -13    1    3    3    0    0  0.14657418786E+03  0.63380350016E+02 -0.19576000413E+01  0.15970251568E+03  0.00000000000E+00 0. -1.
          4    1    6    6  502    0 -0.60685580713E+03 -0.24151723592E+03 -0.61088419203E+03  0.89430645864E+03  0.00000000000E+00 0. -1.
          3    1    5    5  503    0 -0.14788267069E+03 -0.36782844331E+02  0.25484973015E+03  0.29693542545E+03  0.00000000000E+00 0. -1.
         -4    1    5    5    0  503  0.83129531177E+01 -0.96992004244E+01  0.41401979152E+02  0.43327861199E+02  0.00000000000E+00 0.  1.
         -3    1    6    6    0  502 -0.44713052051E+01 -0.13090318871E+02 -0.91447105935E+01  0.16582362625E+02  0.00000000000E+00 0.  1.
<mgrwt>
<rscale>  0 0.20229822E+04</rscale>
<asrwt>0</asrwt>
<pdfrwt beam="1">  1        2 0.20083022E+00 0.20229822E+04</pdfrwt>
<pdfrwt beam="2">  1       -2 0.12057808E+00 0.20229822E+04</pdfrwt>
<totfact> 0.79868412E+00</totfact>
</mgrwt>
</event>
<event>
12    1  0.2048318E-007  0.2824654E+04  0.7818608E-02  0.8295655E-01
         -2   -1    0    0    0  501 -0.00000000000E+00  0.00000000000E+00  0.93216557115E+03  0.93216557115E+03  0.00000000000E+00 0.  1.
          2   -1    0    0  501    0  0.00000000000E+00 -0.00000000000E+00 -0.21398208567E+04  0.21398208567E+04  0.00000000000E+00 0. -1.
         23    2    1    2    0    0  0.78589178835E+03 -0.80199358212E+03  0.98137072379E+02  0.11289094295E+04  0.63134826759E+02 0.  0.
        254    2    1    2    0    0 -0.78589178835E+03  0.80199358212E+03 -0.13057923579E+04  0.19430769983E+04  0.89979716078E+03 0.  0.
        -24    2    4    4    0    0  0.17371992395E+03  0.11821295090E+03 -0.38248410028E+03  0.44364036912E+03  0.79810878970E+02 0.  0.
         24    2    4    4    0    0 -0.95961171230E+03  0.68378063122E+03 -0.92330825761E+03  0.14994366292E+04  0.86031832961E+02 0.  0.
         11    1    3    3    0    0  0.61495704225E+03 -0.64625784700E+03  0.99879047129E+02  0.89766207042E+03  0.00000000000E+00 0. -1.
        -11    1    3    3    0    0  0.17093474611E+03 -0.15573573512E+03 -0.17419747495E+01  0.23124735911E+03  0.00000000000E+00 0.  1.
          4    1    6    6  502    0 -0.15167745675E+02  0.87631067673E+00 -0.62713491223E+01  0.16436491386E+02  0.00000000000E+00 0. -1.
          3    1    5    5  503    0  0.14086398085E+02  0.40340614369E+02 -0.11378857593E+03  0.12154682962E+03  0.00000000000E+00 0. -1.
         -4    1    5    5    0  503  0.15963352587E+03  0.77872336530E+02 -0.26869552435E+03  0.32209353950E+03  0.00000000000E+00 0.  1.
         -3    1    6    6    0  502 -0.94444396663E+03  0.68290432054E+03 -0.91703690849E+03  0.14830001378E+04  0.00000000000E+00 0.  1.
<mgrwt>
<rscale>  0 0.28246538E+04</rscale>
<asrwt>0</asrwt>
<pdfrwt beam="1">  1        2 0.32920321E+00 0.28246538E+04</pdfrwt>
<pdfrwt beam="2">  1       -2 0.14341009E+00 0.28246538E+04</pdfrwt>
<totfact> 0.16349457E+00</totfact>
</mgrwt>
</event>
<event>
12    1  0.2048318E-007  0.2265815E+04  0.7818608E-02  0.8491523E-01
         -2   -1    0    0    0  501 -0.00000000000E+00  0.00000000000E+00  0.50156781064E+03  0.50156781064E+03  0.00000000000E+00 0.  1.
          2   -1    0    0  501    0  0.00000000000E+00 -0.00000000000E+00 -0.25589346273E+04  0.25589346273E+04  0.00000000000E+00 0. -1.
         23    2    1    2    0    0  0.45780080715E+03 -0.82254538782E+03 -0.10543497749E+04  0.14165820769E+04  0.94280637272E+02 0.  0.
        254    2    1    2    0    0 -0.45780080715E+03  0.82254538782E+03 -0.10030170418E+04  0.16439203611E+04  0.90014913961E+03 0.  0.
        -24    2    4    4    0    0 -0.41773367351E+03 -0.46046294713E+02 -0.29945597329E+03  0.52235649619E+03  0.80998431682E+02 0.  0.
         24    2    4    4    0    0 -0.40067133639E+02  0.86859168254E+03 -0.70356106846E+03  0.11215638649E+04  0.82767383934E+02 0.  0.
         13    1    3    3    0    0  0.18510525843E+03 -0.24257605934E+03 -0.33283921250E+03  0.45154074305E+03  0.00000000000E+00 0. -1.
        -13    1    3    3    0    0  0.27269554872E+03 -0.57996932848E+03 -0.72151056245E+03  0.96504133383E+03  0.00000000000E+00 0.  1.
          4    1    6    6  502    0 -0.44419485160E+02  0.25316055604E+03 -0.23169735565E+03  0.34604482717E+03  0.00000000000E+00 0. -1.
          1    1    5    5  503    0 -0.27953795617E+03 -0.63494405199E+02 -0.22498816847E+03  0.36440730561E+03  0.00000000000E+00 0. -1.
         -2    1    5    5    0  503 -0.13819571734E+03  0.17448110486E+02 -0.74467804819E+02  0.15794919058E+03  0.00000000000E+00 0.  1.
         -3    1    6    6    0  502  0.43523515217E+01  0.61543112650E+03 -0.47186371280E+03  0.77551903773E+03  0.00000000000E+00 0.  1.
<mgrwt>
<rscale>  0 0.22658149E+04</rscale>
<asrwt>0</asrwt>
<pdfrwt beam="1">  1        2 0.39368225E+00 0.22658149E+04</pdfrwt>
<pdfrwt beam="2">  1       -2 0.77164278E-01 0.22658149E+04</pdfrwt>
<totfact> 0.43833963E+00</totfact>
</mgrwt>
</event>
<event>
12    1  0.2048318E-007  0.1227780E+04  0.7818608E-02  0.9088883E-01
         -2   -1    0    0    0  501 -0.00000000000E+00  0.00000000000E+00  0.11117545841E+03  0.11117545841E+03  0.00000000000E+00 0. -1.
          2   -1    0    0  501    0  0.00000000000E+00 -0.00000000000E+00 -0.33897835716E+04  0.33897835716E+04  0.00000000000E+00 0.  1.
         23    2    1    2    0    0  0.26665792426E+03  0.60671983552E+02 -0.66784555952E+03  0.72592184090E+03  0.78468398475E+02 0.  0.
        254    2    1    2    0    0 -0.26665792426E+03 -0.60671983552E+02 -0.26107625537E+04  0.27750371891E+04  0.89997930597E+03 0.  0.
        -24    2    4    4    0    0 -0.51239775391E+03 -0.12230156952E+03 -0.23252744396E+04  0.23855465924E+04  0.80138586047E+02 0.  0.
         24    2    4    4    0    0  0.24573982965E+03  0.61629585964E+02 -0.28548811405E+03  0.38949059669E+03  0.77544773530E+02 0.  0.
         11    1    3    3    0    0  0.86882966983E+02  0.51127915738E+02 -0.18633537942E+03  0.21185746940E+03  0.00000000000E+00 0. -1.
        -11    1    3    3    0    0  0.17977495728E+03  0.95440678142E+01 -0.48151018011E+03  0.51406437150E+03  0.00000000000E+00 0.  1.
          4    1    6    6  502    0  0.17924742294E+03  0.12612189861E+02 -0.16894101239E+03  0.24663692268E+03  0.00000000000E+00 0. -1.
          1    1    5    5  503    0 -0.17100336573E+03 -0.30472295520E+02 -0.93712878903E+03  0.95309027857E+03  0.00000000000E+00 0. -1.
         -2    1    5    5    0  503 -0.34139438819E+03 -0.91829273997E+02 -0.13881456506E+04  0.14324563139E+04  0.00000000000E+00 0.  1.
         -3    1    6    6    0  502  0.66492406711E+02  0.49017396103E+02 -0.11654710167E+03  0.14285367401E+03  0.00000000000E+00 0.  1.
<mgrwt>
<rscale>  0 0.12277797E+04</rscale>
<asrwt>0</asrwt>
<pdfrwt beam="1">  1        2 0.52150505E+00 0.12277797E+04</pdfrwt>
<pdfrwt beam="2">  1       -2 0.17103920E-01 0.12277797E+04</pdfrwt>
<totfact> 0.27364623E+01</totfact>
</mgrwt>
</event>
<event>
12    1  0.2048318E-007  0.1782812E+04  0.7818608E-02  0.8715493E-01
          2   -1    0    0  501    0  0.00000000000E+00  0.00000000000E+00  0.37837767188E+04  0.37837767188E+04  0.00000000000E+00 0. -1.
         -2   -1    0    0    0  501 -0.00000000000E+00 -0.00000000000E+00 -0.21000310579E+03  0.21000310579E+03  0.00000000000E+00 0.  1.
         23    2    1    2    0    0 -0.59385920600E+03 -0.15870549207E+03  0.79908639613E+03  0.10121831344E+04  0.90107931646E+02 0.  0.
        254    2    1    2    0    0  0.59385920600E+03  0.15870549207E+03  0.27746872169E+04  0.29815966902E+04  0.90176132183E+03 0.  0.
        -24    2    4    4    0    0  0.13292712424E+03 -0.21703621841E+03  0.19129019543E+04  0.19314246590E+04  0.80205898493E+02 0.  0.
         24    2    4    4    0    0  0.46093208176E+03  0.37574171047E+03  0.86178526259E+03  0.10501720312E+04  0.80915012669E+02 0.  0.
         11    1    3    3    0    0 -0.14750261601E+03 -0.61737931272E-01  0.18400184291E+03  0.23582557906E+03  0.00000000000E+00 0.  1.
        -11    1    3    3    0    0 -0.44635658999E+03 -0.15864375413E+03  0.61508455321E+03  0.77635755535E+03  0.00000000000E+00 0. -1.
          4    1    6    6  502    0  0.19529790151E+03  0.14823352657E+03  0.28837013402E+03  0.37851259282E+03  0.00000000000E+00 0. -1.
          3    1    5    5  503    0  0.11998936457E+03 -0.18287226661E+03  0.17868156320E+04  0.18001527203E+04  0.00000000000E+00 0. -1.
         -4    1    5    5    0  503  0.12937759666E+02 -0.34163951793E+02  0.12608632224E+03  0.13127193867E+03  0.00000000000E+00 0.  1.
         -3    1    6    6    0  502  0.26563418026E+03  0.22750818390E+03  0.57341512857E+03  0.67165943836E+03  0.00000000000E+00 0.  1.
<mgrwt>
<rscale>  0 0.17828122E+04</rscale>
<asrwt>0</asrwt>
<pdfrwt beam="1">  1        2 0.58211944E+00 0.17828122E+04</pdfrwt>
<pdfrwt beam="2">  1       -2 0.32308173E-01 0.17828122E+04</pdfrwt>
<totfact> 0.43124568E+00</totfact>
</mgrwt>
</event>
<event>
12    1  0.2048318E-007  0.2518778E+04  0.7818608E-02  0.8396326E-01
          1   -1    0    0  501    0  0.00000000000E+00  0.00000000000E+00  0.10350220307E+04  0.10350220307E+04  0.00000000000E+00 0. -1.
         -1   -1    0    0    0  501 -0.00000000000E+00 -0.00000000000E+00 -0.15323936655E+04  0.15323936655E+04  0.00000000000E+00 0.  1.
         23    2    1    2    0    0 -0.25530706515E+03  0.96790507358E+03 -0.67311269023E+03  0.12084777652E+04  0.72910124598E+02 0.  0.
        254    2    1    2    0    0  0.25530706515E+03 -0.96790507358E+03  0.17574105538E+03  0.13589379310E+04  0.90211166309E+03 0.  0.
        -24    2    4    4    0    0 -0.89848429934E+02 -0.58669771679E+03  0.47036031089E+03  0.76107082063E+03  0.75518346753E+02 0.  0.
         24    2    4    4    0    0  0.34515549508E+03 -0.38120735679E+03 -0.29461925551E+03  0.59786711033E+03  0.78696958299E+02 0.  0.
         11    1    3    3    0    0 -0.19548619049E+03  0.64860990549E+03 -0.42493585854E+03  0.79967502402E+03  0.00000000000E+00 0. -1.
        -11    1    3    3    0    0 -0.59820874662E+02  0.31929516809E+03 -0.24817683170E+03  0.40880274119E+03  0.00000000000E+00 0.  1.
          4    1    6    6  502    0  0.32030618678E+03 -0.36290158897E+03 -0.25334956469E+03  0.54633288249E+03  0.00000000000E+00 0. -1.
          3    1    5    5  503    0 -0.35156025946E+02 -0.35228252625E+03  0.32026597179E+03  0.47739838410E+03  0.00000000000E+00 0. -1.
         -4    1    5    5    0  503 -0.54692403988E+02 -0.23441519054E+03  0.15009433911E+03  0.28367243652E+03  0.00000000000E+00 0.  1.
         -3    1    6    6    0  502  0.24849308309E+02 -0.18305767816E+02 -0.41269690819E+02  0.51534227841E+02  0.00000000000E+00 0.  1.
<mgrwt>
<rscale>  0 0.25187784E+04</rscale>
<asrwt>0</asrwt>
<pdfrwt beam="1">  1        1 0.15923416E+00 0.25187784E+04</pdfrwt>
<pdfrwt beam="2">  1       -1 0.23575287E+00 0.25187784E+04</pdfrwt>
<totfact> 0.10899020E+00</totfact>
</mgrwt>
</event>
<event>
12    1  0.2048318E-007  0.2353518E+04  0.7818608E-02  0.8457113E-01
          2   -1    0    0  501    0  0.00000000000E+00  0.00000000000E+00  0.31613936017E+04  0.31613936017E+04  0.00000000000E+00 0.  1.
         -2   -1    0    0    0  501 -0.00000000000E+00 -0.00000000000E+00 -0.43802268783E+03  0.43802268783E+03  0.00000000000E+00 0. -1.
         23    2    1    2    0    0  0.62916788183E+03 -0.28526359870E+03  0.22758516413E+04  0.23800752574E+04  0.89610231034E+02 0.  0.
        254    2    1    2    0    0 -0.62916788183E+03  0.28526359870E+03  0.44751927256E+03  0.12193410321E+04  0.89960630777E+03 0.  0.
        -24    2    4    4    0    0 -0.15076078601E+03 -0.11978664212E+03  0.54183427855E+03  0.58031524008E+03  0.78126424634E+02 0.  0.
         24    2    4    4    0    0 -0.47840709583E+03  0.40505024082E+03 -0.94315005989E+02  0.63902579202E+03  0.80744012709E+02 0.  0.
         13    1    3    3    0    0  0.39555272837E+03 -0.19997964875E+03  0.15857753397E+04  0.16465531418E+04  0.00000000000E+00 0.  1.
        -13    1    3    3    0    0  0.23361515346E+03 -0.85283949953E+02  0.69007630161E+03  0.73352211561E+03  0.00000000000E+00 0. -1.
          4    1    6    6  502    0 -0.55428835465E+02  0.85043905231E+02 -0.10520886347E+02  0.10205640924E+03  0.00000000000E+00 0. -1.
          1    1    5    5  503    0 -0.25279809889E+02 -0.14517699793E+01  0.25505410095E+02  0.35940261104E+02  0.00000000000E+00 0. -1.
         -2    1    5    5    0  503 -0.12548097612E+03 -0.11833487214E+03  0.51632886846E+03  0.54437497897E+03  0.00000000000E+00 0.  1.
         -3    1    6    6    0  502 -0.42297826036E+03  0.32000633559E+03 -0.83794119643E+02  0.53696938278E+03  0.00000000000E+00 0.  1.
<mgrwt>
<rscale>  0 0.23535183E+04</rscale>
<asrwt>0</asrwt>
<pdfrwt beam="1">  1        2 0.48636823E+00 0.23535183E+04</pdfrwt>
<pdfrwt beam="2">  1       -2 0.67388108E-01 0.23535183E+04</pdfrwt>
<totfact> 0.25071165E+00</totfact>
</mgrwt>
</event>
<event>
12    1  0.2048318E-007  0.1995087E+04  0.7818608E-02  0.8608921E-01
          2   -1    0    0  501    0  0.00000000000E+00  0.00000000000E+00  0.23272203381E+04  0.23272203381E+04  0.00000000000E+00 0.  1.
         -2   -1    0    0    0  501 -0.00000000000E+00 -0.00000000000E+00 -0.42758854924E+03  0.42758854924E+03  0.00000000000E+00 0. -1.
         23    2    1    2    0    0 -0.27388028374E+03  0.34509695119E+03  0.16627958718E+04  0.17225086350E+04  0.89685956655E+02 0.  0.
        254    2    1    2    0    0  0.27388028374E+03 -0.34509695119E+03  0.23683591704E+03  0.10323002523E+04  0.90302283681E+03 0.  0.
        -24    2    4    4    0    0 -0.15121739210E+03 -0.86114584379E+02  0.44654544923E+03  0.48596356955E+03  0.80469443793E+02 0.  0.
         24    2    4    4    0    0  0.42509767584E+03 -0.25898236681E+03 -0.20970953219E+03  0.54633668277E+03  0.82010869543E+02 0.  0.
         11    1    3    3    0    0 -0.94952755065E+02  0.16066488555E+03  0.56437149846E+03  0.59442780841E+03  0.00000000000E+00 0. -1.
        -11    1    3    3    0    0 -0.17892752868E+03  0.18443206565E+03  0.10984243734E+04  0.11280808266E+04  0.00000000000E+00 0.  1.
          4    1    6    6  502    0  0.38044381212E+03 -0.20050844481E+03 -0.19012389725E+03  0.47020019877E+03  0.00000000000E+00 0. -1.
          1    1    5    5  503    0 -0.78389049729E+02 -0.39050286208E+02  0.12295196261E+03  0.15095347986E+03  0.00000000000E+00 0. -1.
         -2    1    5    5    0  503 -0.72828342370E+02 -0.47064298171E+02  0.32359348662E+03  0.33501008969E+03  0.00000000000E+00 0.  1.
         -3    1    6    6    0  502  0.44653863724E+02 -0.58473922001E+02 -0.19585634941E+02  0.76136483999E+02  0.00000000000E+00 0.  1.
<mgrwt>
<rscale>  0 0.19950867E+04</rscale>
<asrwt>0</asrwt>
<pdfrwt beam="1">  1        2 0.35803389E+00 0.19950867E+04</pdfrwt>
<pdfrwt beam="2">  1       -2 0.65782855E-01 0.19950867E+04</pdfrwt>
<totfact> 0.86527151E+00</totfact>
</mgrwt>
</event>
<event>
12    1  0.2048318E-007  0.1179239E+04  0.7818608E-02  0.9131225E-01
          2   -1    0    0  501    0  0.00000000000E+00  0.00000000000E+00  0.42171248871E+03  0.42171248871E+03  0.00000000000E+00 0. -1.
         -2   -1    0    0    0  501 -0.00000000000E+00 -0.00000000000E+00 -0.82438023171E+03  0.82438023171E+03  0.00000000000E+00 0.  1.
         23    2    1    2    0    0 -0.12013838811E+03  0.15918621580E+03  0.40918229289E+02  0.22309225243E+03  0.91227013606E+02 0.  0.
        254    2    1    2    0    0  0.12013838811E+03 -0.15918621580E+03 -0.44358597229E+03  0.10230004680E+04  0.89999331057E+03 0.  0.
        -24    2    4    4    0    0  0.46141517409E+03  0.10318543526E+03 -0.28436506338E+03  0.55724277702E+03  0.78133388113E+02 0.  0.
         24    2    4    4    0    0 -0.34127678599E+03 -0.26237165106E+03 -0.15922090891E+03  0.46575769096E+03  0.79184600254E+02 0.  0.
         11    1    3    3    0    0  0.26396830250E+01  0.40183952977E+02 -0.15334334355E+02  0.43091296260E+02  0.00000000000E+00 0.  1.
        -11    1    3    3    0    0 -0.12277807113E+03  0.11900226282E+03  0.56252563644E+02  0.18000095617E+03  0.00000000000E+00 0. -1.
          4    1    6    6  502    0 -0.20165229624E+03 -0.19787491598E+03 -0.12057810230E+03  0.30717618675E+03  0.00000000000E+00 0. -1.
          1    1    5    5  503    0  0.39008283734E+03  0.95112763061E+02 -0.27049723586E+03  0.48412788836E+03  0.00000000000E+00 0. -1.
         -2    1    5    5    0  503  0.71332336758E+02  0.80726721987E+01 -0.13867827521E+02  0.73114888661E+02  0.00000000000E+00 0.  1.
         -3    1    6    6    0  502 -0.13962448975E+03 -0.64496735077E+02 -0.38642806611E+02  0.15858150420E+03  0.00000000000E+00 0.  1.
<mgrwt>
<rscale>  0 0.11792395E+04</rscale>
<asrwt>0</asrwt>
<pdfrwt beam="1">  1        2 0.64878845E-01 0.11792395E+04</pdfrwt>
<pdfrwt beam="2">  1       -2 0.12682773E+00 0.11792395E+04</pdfrwt>
<totfact> 0.34190633E+01</totfact>
</mgrwt>
</event>
<event>
12    1  0.2048318E-007  0.1146159E+04  0.7818608E-02  0.9161334E-01
         -2   -1    0    0    0  501 -0.00000000000E+00  0.00000000000E+00  0.83871652415E+03  0.83871652415E+03  0.00000000000E+00 0. -1.
          2   -1    0    0  501    0  0.00000000000E+00 -0.00000000000E+00 -0.39157482165E+03  0.39157482165E+03  0.00000000000E+00 0.  1.
         23    2    1    2    0    0 -0.90608286943E+01  0.18302794449E+03 -0.48014742629E+01  0.20382079932E+03  0.89098467997E+02 0.  0.
        254    2    1    2    0    0  0.90608286943E+01 -0.18302794449E+03  0.45194317676E+03  0.10264705465E+04  0.90322080396E+03 0.  0.
        -24    2    4    4    0    0  0.20991766039E+03  0.27923478000E+03  0.36013985692E+03  0.50805101948E+03  0.79860098575E+02 0.  0.
         24    2    4    4    0    0 -0.20085683169E+03 -0.46226272448E+03  0.91803319839E+02  0.51841952701E+03  0.79376716814E+02 0.  0.
         11    1    3    3    0    0 -0.13850478149E+02  0.49300180832E+02 -0.40544159862E+02  0.65315943489E+02  0.00000000000E+00 0.  1.
        -11    1    3    3    0    0  0.47896494552E+01  0.13372776365E+03  0.35742685599E+02  0.13850485583E+03  0.00000000000E+00 0. -1.
          4    1    6    6  502    0 -0.12396445055E+03 -0.22805406569E+03  0.80049170295E+02  0.27163157317E+03  0.00000000000E+00 0. -1.
          1    1    5    5  503    0  0.11877522231E+03  0.98590184365E+02  0.18023241579E+03  0.23730002442E+03  0.00000000000E+00 0. -1.
         -2    1    5    5    0  503  0.91142438081E+02  0.18064459563E+03  0.17990744113E+03  0.27075099506E+03  0.00000000000E+00 0.  1.
         -3    1    6    6    0  502 -0.76892381146E+02 -0.23420865879E+03  0.11754149544E+02  0.24678795385E+03  0.00000000000E+00 0.  1.
<mgrwt>
<rscale>  0 0.11461593E+04</rscale>
<asrwt>0</asrwt>
<pdfrwt beam="1">  1        2 0.60242280E-01 0.11461593E+04</pdfrwt>
<pdfrwt beam="2">  1       -2 0.12903331E+00 0.11461593E+04</pdfrwt>
<totfact> 0.35671019E+01</totfact>
</mgrwt>
</event>
<event>
12    1  0.2048318E-007  0.1528631E+04  0.7818608E-02  0.8865634E-01
          2   -1    0    0  501    0  0.00000000000E+00  0.00000000000E+00  0.27781323200E+04  0.27781323200E+04  0.00000000000E+00 0. -1.
         -2   -1    0    0    0  501 -0.00000000000E+00 -0.00000000000E+00 -0.21027725322E+03  0.21027725322E+03  0.00000000000E+00 0.  1.
         23    2    1    2    0    0 -0.34377229674E+03 -0.29223773318E+03  0.45297321456E+03  0.64593259685E+03  0.91988596350E+02 0.  0.
        254    2    1    2    0    0  0.34377229674E+03  0.29223773318E+03  0.21148818522E+04  0.23424769763E+04  0.90049478134E+03 0.  0.
        -24    2    4    4    0    0 -0.21969572299E+03  0.36424241216E+03  0.95910282067E+03  0.10522087929E+04  0.79538530194E+02 0.  0.
         24    2    4    4    0    0  0.56346801973E+03 -0.72004678980E+02  0.11557790315E+04  0.12902681834E+04  0.79283871905E+02 0.  0.
         13    1    3    3    0    0 -0.29640536949E+03 -0.28137423256E+03  0.37869327849E+03  0.55716801863E+03  0.00000000000E+00 0.  1.
        -13    1    3    3    0    0 -0.47366927255E+02 -0.10863500617E+02  0.74279936070E+02  0.88764578216E+02  0.00000000000E+00 0. -1.
          2    1    6    6  502    0  0.53726110809E+03 -0.53109082013E+02  0.10673384969E+04  0.11961110065E+04  0.00000000000E+00 0. -1.
          1    1    5    5  503    0 -0.21510365153E+03  0.33243603315E+03  0.83676860951E+03  0.92572404252E+03  0.00000000000E+00 0. -1.
         -2    1    5    5    0  503 -0.45920714602E+01  0.31806379009E+02  0.12233421117E+03  0.12648475042E+03  0.00000000000E+00 0.  1.
         -1    1    6    6    0  502  0.26206911641E+02 -0.18895596967E+02  0.88440534571E+02  0.94157176878E+02  0.00000000000E+00 0.  1.
<mgrwt>
<rscale>  0 0.15286308E+04</rscale>
<asrwt>0</asrwt>
<pdfrwt beam="1">  1        2 0.42740495E+00 0.15286308E+04</pdfrwt>
<pdfrwt beam="2">  1       -2 0.32350349E-01 0.15286308E+04</pdfrwt>
<totfact> 0.20549863E+01</totfact>
</mgrwt>
</event>
<event>
12    1  0.2048318E-007  0.3212080E+04  0.7818608E-02  0.8185634E-01
          1   -1    0    0  501    0  0.00000000000E+00  0.00000000000E+00  0.14232917431E+04  0.14232917431E+04  0.00000000000E+00 0. -1.
         -1   -1    0    0    0  501 -0.00000000000E+00 -0.00000000000E+00 -0.18122525636E+04  0.18122525636E+04  0.00000000000E+00 0.  1.
         23    2    1    2    0    0 -0.60054199649E+03  0.13084117854E+04  0.15963345123E+03  0.14513240329E+04  0.90920405026E+02 0.  0.
        254    2    1    2    0    0  0.60054199649E+03 -0.13084117854E+04 -0.54859427175E+03  0.17842202739E+04  0.89994123203E+03 0.  0.
        -24    2    4    4    0    0  0.45323057380E+03 -0.73304923050E+03 -0.75692308033E+03  0.11497901870E+04  0.79409050050E+02 0.  0.
         24    2    4    4    0    0  0.14731142269E+03 -0.57536255486E+03  0.20832880858E+03  0.63443008687E+03  0.79736552868E+02 0.  0.
         11    1    3    3    0    0 -0.31612687794E+03  0.79502130072E+03  0.89214795379E+02  0.86020599351E+03  0.00000000000E+00 0. -1.
        -11    1    3    3    0    0 -0.28441511855E+03  0.51339048463E+03  0.70418655854E+02  0.59111803936E+03  0.00000000000E+00 0.  1.
          2    1    6    6  502    0  0.99645074078E+02 -0.26388403712E+03  0.12477499835E+03  0.30843593508E+03  0.00000000000E+00 0. -1.
          3    1    5    5  503    0  0.27920795938E+03 -0.50620133504E+03 -0.47426402842E+03  0.74774544120E+03  0.00000000000E+00 0. -1.
         -4    1    5    5    0  503  0.17402261442E+03 -0.22684789546E+03 -0.28265905191E+03  0.40204474580E+03  0.00000000000E+00 0.  1.
         -1    1    6    6    0  502  0.47666348608E+02 -0.31147851773E+03  0.83553810222E+02  0.32599415179E+03  0.00000000000E+00 0.  1.
<mgrwt>
<rscale>  0 0.32120798E+04</rscale>
<asrwt>0</asrwt>
<pdfrwt beam="1">  1        1 0.21896796E+00 0.32120798E+04</pdfrwt>
<pdfrwt beam="2">  1       -1 0.27880809E+00 0.32120798E+04</pdfrwt>
<totfact> 0.28014457E-01</totfact>
</mgrwt>
</event>
<event>
12    1  0.2048318E-007  0.1764685E+04  0.7818608E-02  0.8725308E-01
          2   -1    0    0  501    0  0.00000000000E+00  0.00000000000E+00  0.10019875500E+04  0.10019875500E+04  0.00000000000E+00 0. -1.
         -2   -1    0    0    0  501 -0.00000000000E+00 -0.00000000000E+00 -0.77698368975E+03  0.77698368975E+03  0.00000000000E+00 0.  1.
         23    2    1    2    0    0  0.54774496678E+03 -0.34441660437E+03  0.24352289915E+02  0.65270664906E+03  0.82374690931E+02 0.  0.
        254    2    1    2    0    0 -0.54774496678E+03  0.34441660437E+03  0.20065157036E+03  0.11262645907E+04  0.89975748377E+03 0.  0.
        -24    2    4    4    0    0 -0.29525415754E+03  0.18831771533E+03  0.55197738690E+03  0.65946018082E+03  0.87006407774E+02 0.  0.
         24    2    4    4    0    0 -0.25249080924E+03  0.15609888904E+03 -0.35132581654E+03  0.46680440989E+03  0.79737417886E+02 0.  0.
         11    1    3    3    0    0  0.39732377003E+03 -0.27146234117E+03  0.49110186967E+02  0.48370423956E+03  0.00000000000E+00 0. -1.
        -11    1    3    3    0    0  0.15042119676E+03 -0.72954263201E+02 -0.24757897051E+02  0.16900240951E+03  0.00000000000E+00 0.  1.
          4    1    6    6  502    0 -0.14409528101E+03  0.42321243777E+02 -0.17555945204E+03  0.23103172701E+03  0.00000000000E+00 0. -1.
          1    1    5    5  503    0 -0.49288426712E+02  0.28520263524E+02  0.16040032831E+03  0.17020875348E+03  0.00000000000E+00 0. -1.
         -4    1    5    5    0  503 -0.24596573083E+03  0.15979745181E+03  0.39157705859E+03  0.48925142734E+03  0.00000000000E+00 0.  1.
         -3    1    6    6    0  502 -0.10839552824E+03  0.11377764526E+03 -0.17576636450E+03  0.23577268288E+03  0.00000000000E+00 0.  1.
<mgrwt>
<rscale>  0 0.17646847E+04</rscale>
<asrwt>0</asrwt>
<pdfrwt beam="1">  1        2 0.15415193E+00 0.17646847E+04</pdfrwt>
<pdfrwt beam="2">  1       -2 0.11953595E+00 0.17646847E+04</pdfrwt>
<totfact> 0.12748371E+01</totfact>
</mgrwt>
</event>
<event>
12    1  0.2048318E-007  0.1310155E+04  0.7818608E-02  0.9021550E-01
         -2   -1    0    0    0  501 -0.00000000000E+00  0.00000000000E+00  0.36799001748E+03  0.36799001748E+03  0.00000000000E+00 0.  1.
          2   -1    0    0  501    0  0.00000000000E+00 -0.00000000000E+00 -0.11661371296E+04  0.11661371296E+04  0.00000000000E+00 0. -1.
         23    2    1    2    0    0  0.22304664438E+03 -0.15876631916E+03 -0.44787897745E+03  0.53377941281E+03  0.96790151493E+02 0.  0.
        254    2    1    2    0    0 -0.22304664438E+03  0.15876631916E+03 -0.35026813466E+03  0.10003477343E+04  0.89613128147E+03 0.  0.
        -24    2    4    4    0    0 -0.16307596520E+03 -0.34268477555E+03 -0.12690077409E+02  0.38772891463E+03  0.78396730507E+02 0.  0.
         24    2    4    4    0    0 -0.59970679180E+02  0.50145109472E+03 -0.33757805725E+03  0.61261881965E+03  0.79329633138E+02 0.  0.
         11    1    3    3    0    0 -0.14590157226E+01  0.35992190121E+01 -0.43001886314E+02  0.43176907381E+02  0.00000000000E+00 0. -1.
        -11    1    3    3    0    0  0.22450566010E+03 -0.16236553818E+03 -0.40487709114E+03  0.49060250543E+03  0.00000000000E+00 0.  1.
          4    1    6    6  502    0 -0.50865323534E+02  0.49926721180E+03 -0.33161518084E+03  0.60151779532E+03  0.00000000000E+00 0. -1.
          1    1    5    5  503    0 -0.15064508940E+03 -0.33698083012E+03 -0.24115493251E+02  0.36990752878E+03  0.00000000000E+00 0. -1.
         -2    1    5    5    0  503 -0.12430875794E+02 -0.57039454275E+01  0.11425415842E+02  0.17821385849E+02  0.00000000000E+00 0.  1.
         -3    1    6    6    0  502 -0.91053556466E+01  0.21838829111E+01 -0.59628764120E+01  0.11101024328E+02  0.00000000000E+00 0.  1.
<mgrwt>
<rscale>  0 0.13101554E+04</rscale>
<asrwt>0</asrwt>
<pdfrwt beam="1">  1        2 0.17940571E+00 0.13101554E+04</pdfrwt>
<pdfrwt beam="2">  1       -2 0.56613850E-01 0.13101554E+04</pdfrwt>
<totfact> 0.56903408E+01</totfact>
</mgrwt>
</event>
<event>
12    1  0.2048318E-007  0.1531091E+04  0.7818608E-02  0.8864037E-01
          2   -1    0    0  501    0  0.00000000000E+00  0.00000000000E+00  0.28478162404E+04  0.28478162404E+04  0.00000000000E+00 0.  1.
         -2   -1    0    0    0  501 -0.00000000000E+00 -0.00000000000E+00 -0.20579285127E+03  0.20579285127E+03  0.00000000000E+00 0. -1.
         23    2    1    2    0    0 -0.41488853879E+03 -0.89165706551E+02  0.36239511185E+03  0.56510759349E+03  0.89069367779E+02 0.  0.
        254    2    1    2    0    0  0.41488853879E+03  0.89165706551E+02  0.22796282773E+04  0.24885014982E+04  0.90324503934E+03 0.  0.
        -24    2    4    4    0    0  0.26301595232E+02 -0.19202948383E+03  0.17771031261E+04  0.17893194654E+04  0.77469554568E+02 0.  0.
         24    2    4    4    0    0  0.38858694356E+03  0.28119519038E+03  0.50252515116E+03  0.69918203277E+03  0.79078692513E+02 0.  0.
         13    1    3    3    0    0 -0.35273160036E+03 -0.41510396731E+02  0.30196260166E+03  0.46618033820E+03  0.00000000000E+00 0.  1.
        -13    1    3    3    0    0 -0.62156938435E+02 -0.47655309819E+02  0.60432510193E+02  0.98927255283E+02  0.00000000000E+00 0. -1.
          4    1    6    6  502    0  0.34620212513E+03  0.27717580337E+03  0.46175393305E+03  0.64023357620E+03  0.00000000000E+00 0. -1.
          1    1    5    5  503    0  0.34567633925E+02 -0.18068038111E+03  0.17391615255E+04  0.17488633832E+04  0.00000000000E+00 0. -1.
         -2    1    5    5    0  503 -0.82660386927E+01 -0.11349102723E+02  0.37941600650E+02  0.40456082215E+02  0.00000000000E+00 0.  1.
         -3    1    6    6    0  502  0.42384818434E+02  0.40193870095E+01  0.40771218112E+02  0.58948456570E+02  0.00000000000E+00 0.  1.
<mgrwt>
<rscale>  0 0.15310914E+04</rscale>
<asrwt>0</asrwt>
<pdfrwt beam="1">  1        2 0.43812555E+00 0.15310914E+04</pdfrwt>
<pdfrwt beam="2">  1       -2 0.31660441E-01 0.15310914E+04</pdfrwt>
<totfact> 0.19425559E+01</totfact>
</mgrwt>
</event>
<event>
12    1  0.2048318E-007  0.1432729E+04  0.7818608E-02  0.8930463E-01
         -1   -1    0    0    0  501 -0.00000000000E+00  0.00000000000E+00  0.57035698529E+03  0.57035698529E+03  0.00000000000E+00 0.  1.
          1   -1    0    0  501    0  0.00000000000E+00 -0.00000000000E+00 -0.89974884508E+03  0.89974884508E+03  0.00000000000E+00 0. -1.
         23    2    1    2    0    0 -0.22327769840E+03  0.24917552693E+03 -0.39294244987E+03  0.52427464324E+03  0.92297122418E+02 0.  0.
        254    2    1    2    0    0  0.22327769840E+03 -0.24917552693E+03  0.63550590079E+02  0.94583118714E+03  0.88239253353E+03 0.  0.
        -24    2    4    4    0    0 -0.29835098996E+03 -0.56625982274E+02  0.19245822090E+03  0.36937026052E+03  0.84701874163E+02 0.  0.
         24    2    4    4    0    0  0.52162868836E+03 -0.19254954465E+03 -0.12890763082E+03  0.57646092662E+03  0.80735413360E+02 0.  0.
         13    1    3    3    0    0 -0.16053216870E+03  0.12911278890E+03 -0.18986983921E+03  0.28016289063E+03  0.00000000000E+00 0.  1.
        -13    1    3    3    0    0 -0.62745529706E+02  0.12006273802E+03 -0.20307261066E+03  0.24411175261E+03  0.00000000000E+00 0. -1.
          4    1    6    6  502    0  0.51918531415E+03 -0.18760009380E+03 -0.13493196702E+03  0.56829026153E+03  0.00000000000E+00 0. -1.
          1    1    5    5  503    0 -0.24926496426E+03 -0.55621447880E+02  0.12084276413E+03  0.28254157484E+03  0.00000000000E+00 0. -1.
         -2    1    5    5    0  503 -0.49086025699E+02 -0.10045343943E+01  0.71615456768E+02  0.86828685677E+02  0.00000000000E+00 0.  1.
         -3    1    6    6    0  502  0.24433742051E+01 -0.49494508490E+01  0.60243362070E+01  0.81706650860E+01  0.00000000000E+00 0.  1.
<mgrwt>
<rscale>  0 0.14327289E+04</rscale>
<asrwt>0</asrwt>
<pdfrwt beam="1">  1        1 0.13842290E+00 0.14327289E+04</pdfrwt>
<pdfrwt beam="2">  1       -1 0.87747229E-01 0.14327289E+04</pdfrwt>
<totfact> 0.22622581E+01</totfact>
</mgrwt>
</event>
<event>
12    1  0.2048318E-007  0.4651947E+04  0.7818608E-02  0.7884562E-01
          2   -1    0    0  501    0  0.00000000000E+00  0.00000000000E+00  0.40245440617E+04  0.40245440617E+04  0.00000000000E+00 0. -1.
         -2   -1    0    0    0  501 -0.00000000000E+00 -0.00000000000E+00 -0.13442895836E+04  0.13442895836E+04  0.00000000000E+00 0.  1.
         23    2    1    2    0    0  0.19147553017E+04 -0.11317552498E+04  0.15737610490E+04  0.27263319110E+04  0.94889613962E+02 0.  0.
        254    2    1    2    0    0 -0.19147553017E+04  0.11317552498E+04  0.11064934292E+04  0.26425017343E+04  0.90073852802E+03 0.  0.
        -24    2    4    4    0    0 -0.23595762828E+03  0.17166627330E+03 -0.14721411959E+03  0.33638559066E+03  0.79611286037E+02 0.  0.
         24    2    4    4    0    0 -0.16787976734E+04  0.96008897653E+03  0.12537075488E+04  0.23061161436E+04  0.79098538663E+02 0.  0.
         13    1    3    3    0    0  0.15711781557E+04 -0.96352988832E+03  0.13268736115E+04  0.22710315329E+04  0.00000000000E+00 0. -1.
        -13    1    3    3    0    0  0.34357714601E+03 -0.16822536151E+03  0.24688743754E+03  0.45530037814E+03  0.00000000000E+00 0.  1.
          2    1    6    6  502    0 -0.71230624744E+03  0.42767631929E+03  0.49697622148E+03  0.96812839487E+03  0.00000000000E+00 0. -1.
          1    1    5    5  503    0 -0.48580894527E+02  0.78033961376E+02 -0.58143463169E+02  0.10876610111E+03  0.00000000000E+00 0. -1.
         -2    1    5    5    0  503 -0.18737673375E+03  0.93632311924E+02 -0.89070656417E+02  0.22761948955E+03  0.00000000000E+00 0.  1.
         -1    1    6    6    0  502 -0.96649142600E+03  0.53241265724E+03  0.75673132729E+03  0.13379877488E+04  0.00000000000E+00 0.  1.
<mgrwt>
<rscale>  0 0.46519470E+04</rscale>
<asrwt>0</asrwt>
<pdfrwt beam="1">  1        2 0.61916062E+00 0.46519470E+04</pdfrwt>
<pdfrwt beam="2">  1       -2 0.20681378E+00 0.46519470E+04</pdfrwt>
<totfact> 0.29229630E-02</totfact>
</mgrwt>
</event>
<event>
12    1  0.4500567E-007  0.2533534E+04  0.7818608E-02  0.8391135E-01
          1   -1    0    0  501    0  0.00000000000E+00  0.00000000000E+00  0.15153294212E+04  0.15153294212E+04  0.00000000000E+00 0. -1.
         -1   -1    0    0    0  501 -0.00000000000E+00 -0.00000000000E+00 -0.10589767176E+04  0.10589767176E+04  0.00000000000E+00 0.  1.
         23    2    1    2    0    0  0.95239888764E+03 -0.72085676901E+02  0.76441410223E+03  0.12264499553E+04  0.87123976578E+02 0.  0.
        254    2    1    2    0    0 -0.95239888764E+03  0.72085676901E+02 -0.30806139861E+03  0.13478561835E+04  0.89975245487E+03 0.  0.
        -24    2    4    4    0    0 -0.33508472912E+03 -0.31993382662E+03  0.13480720172E+03  0.48924102046E+03  0.80897251880E+02 0.  0.
         24    2    4    4    0    0 -0.61731415852E+03  0.39201950352E+03 -0.44286860033E+03  0.85861516302E+03  0.79569715085E+02 0.  0.
         11    1    3    3    0    0  0.36100442288E+03 -0.22161151322E+02  0.34385432408E+03  0.49905020405E+03  0.00000000000E+00 0. -1.
        -11    1    3    3    0    0  0.59139446475E+03 -0.49924525579E+02  0.42055977815E+03  0.72739975130E+03  0.00000000000E+00 0.  1.
          2    1    6    6  502    0 -0.60534430607E+03  0.37259072806E+03 -0.43903789594E+03  0.83547582466E+03  0.00000000000E+00 0. -1.
          1    1    5    5  503    0 -0.33278661991E+03 -0.32062267321E+03  0.14055469971E+03  0.48301289484E+03  0.00000000000E+00 0. -1.
         -2    1    5    5    0  503 -0.22981092106E+01  0.68884659747E+00 -0.57474979919E+01  0.62281256206E+01  0.00000000000E+00 0.  1.
         -1    1    6    6    0  502 -0.11969852449E+02  0.19428775455E+02 -0.38307043973E+01  0.23139338355E+02  0.00000000000E+00 0.  1.
<mgrwt>
<rscale>  0 0.25335340E+04</rscale>
<asrwt>0</asrwt>
<pdfrwt beam="1">  1        1 0.23312760E+00 0.25335340E+04</pdfrwt>
<pdfrwt beam="2">  1       -1 0.16291950E+00 0.25335340E+04</pdfrwt>
<totfact> 0.15708266E+00</totfact>
</mgrwt>
</event>
<event>
12    1  0.2048318E-007  0.2003192E+04  0.7818608E-02  0.8605130E-01
          1   -1    0    0  501    0  0.00000000000E+00  0.00000000000E+00  0.98931999171E+03  0.98931999171E+03  0.00000000000E+00 0. -1.
         -1   -1    0    0    0  501 -0.00000000000E+00 -0.00000000000E+00 -0.10140244588E+04  0.10140244588E+04  0.00000000000E+00 0.  1.
         23    2    1    2    0    0  0.77411928510E+03 -0.13751852569E+03 -0.12764804962E+03  0.80174161553E+03  0.91233661709E+02 0.  0.
        254    2    1    2    0    0 -0.77411928510E+03  0.13751852569E+03  0.10294358252E+03  0.12016028350E+04  0.90281779969E+03 0.  0.
        -24    2    4    4    0    0 -0.34915488958E+03  0.50395924801E+03 -0.30688364811E+02  0.61902074847E+03  0.79754941717E+02 0.  0.
         24    2    4    4    0    0 -0.42496439552E+03 -0.36644072232E+03  0.13363194733E+03  0.58258208654E+03  0.81675270273E+02 0.  0.
         11    1    3    3    0    0  0.27597598790E+03 -0.75273938337E+02 -0.10568122777E+02  0.28625268018E+03  0.00000000000E+00 0.  1.
        -11    1    3    3    0    0  0.49814329720E+03 -0.62244587348E+02 -0.11707992684E+03  0.51548893535E+03  0.00000000000E+00 0. -1.
          2    1    6    6  502    0 -0.12101479479E+03 -0.61008099606E+02  0.20369836036E+02  0.13704560918E+03  0.00000000000E+00 0. -1.
          1    1    5    5  503    0 -0.94266253246E+02  0.80443260076E+02 -0.87398904077E+01  0.12423216281E+03  0.00000000000E+00 0. -1.
         -2    1    5    5    0  503 -0.25488863633E+03  0.42351598793E+03 -0.21948474404E+02  0.49478858566E+03  0.00000000000E+00 0.  1.
         -1    1    6    6    0  502 -0.30394960073E+03 -0.30543262272E+03  0.11326211129E+03  0.44553647736E+03  0.00000000000E+00 0.  1.
<mgrwt>
<rscale>  0 0.20031921E+04</rscale>
<asrwt>0</asrwt>
<pdfrwt beam="1">  1        1 0.15220308E+00 0.20031921E+04</pdfrwt>
<pdfrwt beam="2">  1       -1 0.15600376E+00 0.20031921E+04</pdfrwt>
<totfact> 0.44852019E+00</totfact>
</mgrwt>
</event>
<event>
12    1  0.2048318E-007  0.1788509E+04  0.7818608E-02  0.8712434E-01
          1   -1    0    0  501    0  0.00000000000E+00  0.00000000000E+00  0.85886820389E+03  0.85886820389E+03  0.00000000000E+00 0. -1.
         -1   -1    0    0    0  501 -0.00000000000E+00 -0.00000000000E+00 -0.93109870611E+03  0.93109870611E+03  0.00000000000E+00 0.  1.
         23    2    1    2    0    0  0.35860980917E+03  0.47971415817E+03 -0.30357025944E+03  0.67745231238E+03  0.89777861147E+02 0.  0.
        254    2    1    2    0    0 -0.35860980917E+03 -0.47971415817E+03  0.23133975722E+03  0.11125145976E+04  0.90853947513E+03 0.  0.
        -24    2    4    4    0    0 -0.75026572123E+02 -0.49479245519E+02  0.50807547672E+03  0.52203308271E+03  0.79376741796E+02 0.  0.
         24    2    4    4    0    0 -0.28358323705E+03 -0.43023491265E+03 -0.27673571950E+03  0.59048151492E+03  0.81019927293E+02 0.  0.
         11    1    3    3    0    0  0.63202834769E+02  0.51716805804E+02 -0.16084354109E+02  0.83234204343E+02  0.00000000000E+00 0. -1.
        -11    1    3    3    0    0  0.29540697440E+03  0.42799735237E+03 -0.28748590533E+03  0.59421810804E+03  0.00000000000E+00 0.  1.
          4    1    6    6  502    0 -0.23654482000E+03 -0.32916139935E+03 -0.24860132415E+03  0.47550320405E+03  0.00000000000E+00 0. -1.
          3    1    5    5  503    0 -0.55031153043E+02  0.10759889151E+02  0.25868100924E+03  0.26468862378E+03  0.00000000000E+00 0. -1.
         -4    1    5    5    0  503 -0.19995419081E+02 -0.60239134670E+02  0.24939446748E+03  0.25734445892E+03  0.00000000000E+00 0.  1.
         -3    1    6    6    0  502 -0.47038417047E+02 -0.10107351330E+03 -0.28134395345E+02  0.11497831087E+03  0.00000000000E+00 0.  1.
<mgrwt>
<rscale>  0 0.17885090E+04</rscale>
<asrwt>0</asrwt>
<pdfrwt beam="1">  1        1 0.13213357E+00 0.17885090E+04</pdfrwt>
<pdfrwt beam="2">  1       -1 0.14324596E+00 0.17885090E+04</pdfrwt>
<totfact> 0.73384072E+00</totfact>
</mgrwt>
</event>
<event>
12    1  0.2372943E-007  0.1546204E+04  0.7818608E-02  0.8854296E-01
          1   -1    0    0  501    0  0.00000000000E+00  0.00000000000E+00  0.21425730558E+04  0.21425730558E+04  0.00000000000E+00 0. -1.
         -1   -1    0    0    0  501 -0.00000000000E+00 -0.00000000000E+00 -0.27895757271E+03  0.27895757271E+03  0.00000000000E+00 0.  1.
         23    2    1    2    0    0 -0.25385041088E+03 -0.40947866053E+03  0.84940885094E+03  0.98102548308E+03  0.93823226681E+02 0.  0.
        254    2    1    2    0    0  0.25385041088E+03  0.40947866053E+03  0.10142066321E+04  0.14405051454E+04  0.90240078499E+03 0.  0.
        -24    2    4    4    0    0  0.57752204365E+03  0.23622777898E+03  0.49937389712E+03  0.80329044844E+03  0.81030740863E+02 0.  0.
         24    2    4    4    0    0 -0.32367163278E+03  0.17325088155E+03  0.51483273502E+03  0.63721469697E+03  0.78807557791E+02 0.  0.
         11    1    3    3    0    0 -0.12028315963E+03 -0.11694847687E+03  0.32823557791E+03  0.36862389958E+03  0.00000000000E+00 0. -1.
        -11    1    3    3    0    0 -0.13356725125E+03 -0.29253018366E+03  0.52117327303E+03  0.61240158350E+03  0.00000000000E+00 0.  1.
          2    1    6    6  502    0 -0.44449272987E+02  0.31448951899E+01  0.35415995756E+02  0.56920303849E+02  0.00000000000E+00 0. -1.
          3    1    5    5  503    0  0.40367538793E+02  0.60622718350E+01  0.58119787456E+02  0.71022524751E+02  0.00000000000E+00 0. -1.
         -4    1    5    5    0  503  0.53715450486E+03  0.23016550714E+03  0.44125410967E+03  0.73226792369E+03  0.00000000000E+00 0.  1.
         -1    1    6    6    0  502 -0.27922235979E+03  0.17010598636E+03  0.47941673927E+03  0.58029439312E+03  0.00000000000E+00 0.  1.
<mgrwt>
<rscale>  0 0.15462044E+04</rscale>
<asrwt>0</asrwt>
<pdfrwt beam="1">  1        1 0.32962661E+00 0.15462044E+04</pdfrwt>
<pdfrwt beam="2">  1       -1 0.42916551E-01 0.15462044E+04</pdfrwt>
<totfact> 0.12302007E+01</totfact>
</mgrwt>
</event>
<event>
12    1  0.2048318E-007  0.1327613E+04  0.7818608E-02  0.9007950E-01
         -2   -1    0    0    0  501 -0.00000000000E+00  0.00000000000E+00  0.13943430522E+03  0.13943430522E+03  0.00000000000E+00 0.  1.
          2   -1    0    0  501    0  0.00000000000E+00 -0.00000000000E+00 -0.31601908869E+04  0.31601908869E+04  0.00000000000E+00 0. -1.
         23    2    1    2    0    0 -0.33420746974E+03 -0.95205503696E+02 -0.74782733058E+03  0.83054686834E+03  0.99013450476E+02 0.  0.
        254    2    1    2    0    0  0.33420746974E+03  0.95205503696E+02 -0.22729292511E+04  0.24690783238E+04  0.89965641648E+03 0.  0.
        -24    2    4    4    0    0  0.27879482361E+03  0.29579456410E+01 -0.23110009626E+04  0.23290361151E+04  0.77126345526E+02 0.  0.
         24    2    4    4    0    0  0.55412646131E+02  0.92247558055E+02  0.38071711460E+02  0.14004220873E+03  0.81130707462E+02 0.  0.
         13    1    3    3    0    0 -0.90924471569E+02 -0.30284299092E+02 -0.32082454377E+03  0.33483247481E+03  0.00000000000E+00 0. -1.
        -13    1    3    3    0    0 -0.24328299817E+03 -0.64921204604E+02 -0.42700278682E+03  0.49571439353E+03  0.00000000000E+00 0.  1.
          4    1    6    6  502    0 -0.20840055480E+02  0.27208574538E+02  0.58566758489E+01  0.34769456320E+02  0.00000000000E+00 0. -1.
          3    1    5    5  503    0  0.67724679266E+02 -0.32208058033E+02 -0.64809407612E+03  0.65241851804E+03  0.00000000000E+00 0. -1.
         -4    1    5    5    0  503  0.21107014434E+03  0.35166003674E+02 -0.16629068865E+04  0.16766175970E+04  0.00000000000E+00 0.  1.
         -3    1    6    6    0  502  0.76252701611E+02  0.65038983517E+02  0.32215035611E+02  0.10527275241E+03  0.00000000000E+00 0.  1.
<mgrwt>
<rscale>  0 0.13276129E+04</rscale>
<asrwt>0</asrwt>
<pdfrwt beam="1">  1        2 0.48618320E+00 0.13276129E+04</pdfrwt>
<pdfrwt beam="2">  1       -2 0.21451432E-01 0.13276129E+04</pdfrwt>
<totfact> 0.25771625E+01</totfact>
</mgrwt>
</event>
<event>
12    1  0.2048318E-007  0.1958353E+04  0.7818608E-02  0.8626343E-01
          2   -1    0    0  501    0  0.00000000000E+00  0.00000000000E+00  0.17762791086E+04  0.17762791086E+04  0.00000000000E+00 0. -1.
         -2   -1    0    0    0  501 -0.00000000000E+00 -0.00000000000E+00 -0.53977242856E+03  0.53977242856E+03  0.00000000000E+00 0.  1.
         23    2    1    2    0    0  0.54540295591E+03  0.13611019640E+03 -0.12363736055E+03  0.58282415411E+03  0.91692026951E+02 0.  0.
        254    2    1    2    0    0 -0.54540295591E+03 -0.13611019640E+03  0.13601440405E+04  0.17332273830E+04  0.91547527565E+03 0.  0.
        -24    2    4    4    0    0 -0.83754454606E+02 -0.41724756166E+03  0.96901641258E+03  0.10613181002E+04  0.79328213761E+02 0.  0.
         24    2    4    4    0    0 -0.46164850130E+03  0.28113736526E+03  0.39112762797E+03  0.67190928286E+03  0.79521733697E+02 0.  0.
         11    1    3    3    0    0  0.41837640773E+03  0.10249893923E+03 -0.54020819735E+02  0.43412336962E+03  0.00000000000E+00 0. -1.
        -11    1    3    3    0    0  0.12702654818E+03  0.33611257166E+02 -0.69616540812E+02  0.14870078448E+03  0.00000000000E+00 0.  1.
          2    1    6    6  502    0 -0.15250394298E+02 -0.42782274114E+01  0.62297806838E+01  0.17020221015E+02  0.00000000000E+00 0. -1.
          1    1    5    5  503    0 -0.18279325051E+02 -0.13593624329E+02  0.35729184617E+02  0.42373281441E+02  0.00000000000E+00 0. -1.
         -2    1    5    5    0  503 -0.65475129556E+02 -0.40365393733E+03  0.93328722797E+03  0.10189448187E+04  0.00000000000E+00 0.  1.
         -1    1    6    6    0  502 -0.44639810701E+03  0.28541559267E+03  0.38489784728E+03  0.65488906184E+03  0.00000000000E+00 0.  1.
<mgrwt>
<rscale>  0 0.19583529E+04</rscale>
<asrwt>0</asrwt>
<pdfrwt beam="1">  1        2 0.27327371E+00 0.19583529E+04</pdfrwt>
<pdfrwt beam="2">  1       -2 0.83041913E-01 0.19583529E+04</pdfrwt>
<totfact> 0.10533327E+01</totfact>
</mgrwt>
</event>
<event>
12    1  0.2048318E-007  0.1838568E+04  0.7818608E-02  0.8686054E-01
          1   -1    0    0  501    0  0.00000000000E+00  0.00000000000E+00  0.13937626136E+04  0.13937626136E+04  0.00000000000E+00 0. -1.
         -1   -1    0    0    0  501 -0.00000000000E+00 -0.00000000000E+00 -0.60633187615E+03  0.60633187615E+03  0.00000000000E+00 0.  1.
         23    2    1    2    0    0  0.15749936334E+03  0.61751173464E+03  0.60380500492E+03  0.88221009830E+03  0.87105577873E+02 0.  0.
        254    2    1    2    0    0 -0.15749936334E+03 -0.61751173464E+03  0.18362573256E+03  0.11178843915E+04  0.89990016734E+03 0.  0.
        -24    2    4    4    0    0 -0.68855515570E+02  0.22530716708E+03  0.81790607689E+01  0.24868988062E+03  0.79217158028E+02 0.  0.
         24    2    4    4    0    0 -0.88643847775E+02 -0.84281890172E+03  0.17544667179E+03  0.86919451085E+03  0.80722550765E+02 0.  0.
         11    1    3    3    0    0  0.61980891310E+02  0.11698945500E+03  0.14754904439E+03  0.19823946118E+03  0.00000000000E+00 0. -1.
        -11    1    3    3    0    0  0.95518472035E+02  0.50052227965E+03  0.45625596053E+03  0.68397063712E+03  0.00000000000E+00 0.  1.
          4    1    6    6  502    0 -0.50379471199E+02 -0.55787366499E+03  0.77578697865E+02  0.56549055834E+03  0.00000000000E+00 0. -1.
          3    1    5    5  503    0 -0.15547157237E+02  0.10683779162E+03  0.39663718795E+02  0.11501842637E+03  0.00000000000E+00 0. -1.
         -4    1    5    5    0  503 -0.53308358333E+02  0.11846937546E+03 -0.31484658026E+02  0.13367145425E+03  0.00000000000E+00 0.  1.
         -3    1    6    6    0  502 -0.38264376575E+02 -0.28494523674E+03  0.97867973928E+02  0.30370395252E+03  0.00000000000E+00 0.  1.
<mgrwt>
<rscale>  0 0.18385676E+04</rscale>
<asrwt>0</asrwt>
<pdfrwt beam="1">  1        1 0.21442502E+00 0.18385676E+04</pdfrwt>
<pdfrwt beam="2">  1       -1 0.93281827E-01 0.18385676E+04</pdfrwt>
<totfact> 0.81421981E+00</totfact>
</mgrwt>
</event>
<event>
12    1  0.2048318E-007  0.2137315E+04  0.7818608E-02  0.8544982E-01
         -2   -1    0    0    0  501 -0.00000000000E+00  0.00000000000E+00  0.30465265619E+03  0.30465265619E+03  0.00000000000E+00 0.  1.
          2   -1    0    0  501    0  0.00000000000E+00 -0.00000000000E+00 -0.37486268816E+04  0.37486268816E+04  0.00000000000E+00 0. -1.
         23    2    1    2    0    0  0.57211889093E+03 -0.63708830761E+03 -0.10626990719E+04  0.13677928920E+04  0.91249881970E+02 0.  0.
        254    2    1    2    0    0 -0.57211889093E+03  0.63708830761E+03 -0.23812751535E+04  0.26854866457E+04  0.89898032841E+03 0.  0.
        -24    2    4    4    0    0 -0.38803444492E+03  0.62697172657E+03 -0.23702127490E+04  0.24837419941E+04  0.86032211589E+02 0.  0.
         24    2    4    4    0    0 -0.18408444602E+03  0.10116581037E+02 -0.11062404472E+02  0.20174465163E+03  0.81173266488E+02 0.  0.
         11    1    3    3    0    0  0.41800932337E+03 -0.42425383650E+03 -0.78654493527E+03  0.98659821985E+03  0.00000000000E+00 0. -1.
        -11    1    3    3    0    0  0.15410956756E+03 -0.21283447111E+03 -0.27615413666E+03  0.38119467218E+03  0.00000000000E+00 0.  1.
          2    1    6    6  502    0 -0.10466676265E+03  0.18653039200E+02 -0.44369980371E+02  0.11520313465E+03  0.00000000000E+00 0. -1.
          1    1    5    5  503    0 -0.28447355996E+03  0.50853383165E+03 -0.19423872570E+04  0.20279053530E+04  0.00000000000E+00 0. -1.
         -2    1    5    5    0  503 -0.10356088496E+03  0.11843789492E+03 -0.42782549195E+03  0.45583664115E+03  0.00000000000E+00 0.  1.
         -1    1    6    6    0  502 -0.79417683362E+02 -0.85364581633E+01  0.33307575899E+02  0.86541516978E+02  0.00000000000E+00 0.  1.
<mgrwt>
<rscale>  0 0.21373153E+04</rscale>
<asrwt>0</asrwt>
<pdfrwt beam="1">  1        2 0.57671187E+00 0.21373153E+04</pdfrwt>
<pdfrwt beam="2">  1       -2 0.46869636E-01 0.21373153E+04</pdfrwt>
<totfact> 0.21417758E+00</totfact>
</mgrwt>
</event>
<event>
12    1  0.2048318E-007  0.1919162E+04  0.7818608E-02  0.8645377E-01
          1   -1    0    0  501    0  0.00000000000E+00  0.00000000000E+00  0.23856338107E+04  0.23856338107E+04  0.00000000000E+00 0. -1.
         -1   -1    0    0    0  501 -0.00000000000E+00 -0.00000000000E+00 -0.38597512048E+03  0.38597512048E+03  0.00000000000E+00 0.  1.
         23    2    1    2    0    0  0.70863720549E+03  0.66310965589E+02  0.46223448763E+03  0.85351261494E+03  0.90880301289E+02 0.  0.
        254    2    1    2    0    0 -0.70863720549E+03 -0.66310965589E+02  0.15374242026E+04  0.19180963162E+04  0.89936447922E+03 0.  0.
        -24    2    4    4    0    0 -0.39007854370E+03  0.29203920492E+03  0.12711462538E+04  0.13637595837E+04  0.81112491065E+02 0.  0.
         24    2    4    4    0    0 -0.31855866179E+03 -0.35835017050E+03  0.26627794883E+03  0.55433673254E+03  0.80565509424E+02 0.  0.
         13    1    3    3    0    0  0.37839756421E+03  0.70332675876E+02  0.28320166917E+03  0.47784368503E+03  0.00000000000E+00 0. -1.
        -13    1    3    3    0    0  0.33023964127E+03 -0.40217102877E+01  0.17903281845E+03  0.37566892992E+03  0.00000000000E+00 0.  1.
          4    1    6    6  502    0 -0.33877711954E+02 -0.46904750294E+02  0.64418699600E+02  0.86588242998E+02  0.00000000000E+00 0. -1.
          3    1    5    5  503    0 -0.18622671276E+02  0.30626157215E+02  0.55939991035E+02  0.66438302118E+02  0.00000000000E+00 0. -1.
         -4    1    5    5    0  503 -0.37145587242E+03  0.26141304770E+03  0.12152062627E+04  0.12973212816E+04  0.00000000000E+00 0.  1.
         -3    1    6    6    0  502 -0.28468094983E+03 -0.31144542021E+03  0.20185924923E+03  0.46774848954E+03  0.00000000000E+00 0.  1.
<mgrwt>
<rscale>  0 0.19191616E+04</rscale>
<asrwt>0</asrwt>
<pdfrwt beam="1">  1        1 0.36702058E+00 0.19191616E+04</pdfrwt>
<pdfrwt beam="2">  1       -1 0.59380789E-01 0.19191616E+04</pdfrwt>
<totfact> 0.43668556E+00</totfact>
</mgrwt>
</event>
<event>
12    1  0.2048318E-007  0.2144992E+04  0.7818608E-02  0.8541679E-01
         -2   -1    0    0    0  501 -0.00000000000E+00  0.00000000000E+00  0.42450362254E+03  0.42450362254E+03  0.00000000000E+00 0.  1.
          2   -1    0    0  501    0  0.00000000000E+00 -0.00000000000E+00 -0.27096305239E+04  0.27096305239E+04  0.00000000000E+00 0. -1.
         23    2    1    2    0    0 -0.58653669413E+03 -0.40087107415E+03 -0.17042214460E+04  0.18482716327E+04  0.83751892242E+02 0.  0.
        254    2    1    2    0    0  0.58653669413E+03  0.40087107415E+03 -0.58090545530E+03  0.12858625137E+04  0.90070436024E+03 0.  0.
        -24    2    4    4    0    0  0.11244204188E+03  0.38417250248E+03  0.12921853159E+03  0.42833812215E+03  0.80897426031E+02 0.  0.
         24    2    4    4    0    0  0.47409465225E+03  0.16698571671E+02 -0.71012398689E+03  0.85752439158E+03  0.77636484996E+02 0.  0.
         11    1    3    3    0    0 -0.31547439007E+03 -0.26572327235E+03 -0.98129933851E+03  0.10644629350E+04  0.00000000000E+00 0. -1.
        -11    1    3    3    0    0 -0.27106230406E+03 -0.13514780179E+03 -0.72292210751E+03  0.78380869767E+03  0.00000000000E+00 0.  1.
          4    1    6    6  502    0  0.11065980766E+03  0.38564270496E+01 -0.22957483339E+03  0.25488246151E+03  0.00000000000E+00 0. -1.
          3    1    5    5  503    0  0.90265295444E+01  0.36210224395E+02  0.39642987562E+02  0.54444697163E+02  0.00000000000E+00 0. -1.
         -4    1    5    5    0  503  0.10341551233E+03  0.34796227808E+03  0.89575544025E+02  0.37389342499E+03  0.00000000000E+00 0.  1.
         -1    1    6    6    0  502  0.36343484459E+03  0.12842144621E+02 -0.48054915350E+03  0.60264193007E+03  0.00000000000E+00 0.  1.
<mgrwt>
<rscale>  0 0.21449923E+04</rscale>
<asrwt>0</asrwt>
<pdfrwt beam="1">  1        2 0.41686624E+00 0.21449923E+04</pdfrwt>
<pdfrwt beam="2">  1       -2 0.65308249E-01 0.21449923E+04</pdfrwt>
<totfact> 0.52030407E+00</totfact>
</mgrwt>
</event>
<event>
12    1  0.2048318E-007  0.1504795E+04  0.7818608E-02  0.8881270E-01
          2   -1    0    0  501    0  0.00000000000E+00  0.00000000000E+00  0.39486263564E+03  0.39486263564E+03  0.00000000000E+00 0. -1.
         -2   -1    0    0    0  501 -0.00000000000E+00 -0.00000000000E+00 -0.14336686381E+04  0.14336686381E+04  0.00000000000E+00 0.  1.
         23    2    1    2    0    0  0.25713183993E+03 -0.33611030437E+03 -0.60291427926E+03  0.74190988898E+03  0.88530985665E+02 0.  0.
        254    2    1    2    0    0 -0.25713183993E+03  0.33611030437E+03 -0.43589172319E+03  0.10866213847E+04  0.90092037364E+03 0.  0.
        -24    2    4    4    0    0 -0.33569117497E+03 -0.24471831886E+02  0.16049229398E+03  0.38153744848E+03  0.80781264251E+02 0.  0.
         24    2    4    4    0    0  0.78559335047E+02  0.36058213626E+03 -0.59638401717E+03  0.70508393627E+03  0.72652702259E+02 0.  0.
         11    1    3    3    0    0  0.50495860745E+01 -0.36540557835E+02 -0.85024955977E+02  0.92682003783E+02  0.00000000000E+00 0.  1.
        -11    1    3    3    0    0  0.25208225385E+03 -0.29956974654E+03 -0.51788932328E+03  0.64922788519E+03  0.00000000000E+00 0. -1.
          4    1    6    6  502    0  0.77824664296E+02  0.19513418144E+03 -0.35318005228E+03  0.41093816623E+03  0.00000000000E+00 0. -1.
          3    1    5    5  503    0 -0.77328137138E+02  0.27386109243E+02  0.28765735120E+02  0.86931624221E+02  0.00000000000E+00 0. -1.
         -4    1    5    5    0  503 -0.25836303783E+03 -0.51857941129E+02  0.13172655886E+03  0.29460582426E+03  0.00000000000E+00 0.  1.
         -3    1    6    6    0  502  0.73467075072E+00  0.16544795482E+03 -0.24320396489E+03  0.29414577004E+03  0.00000000000E+00 0.  1.
<mgrwt>
<rscale>  0 0.15047952E+04</rscale>
<asrwt>0</asrwt>
<pdfrwt beam="1">  1        2 0.60748097E-01 0.15047952E+04</pdfrwt>
<pdfrwt beam="2">  1       -2 0.22056441E+00 0.15047952E+04</pdfrwt>
<totfact> 0.76349292E+00</totfact>
</mgrwt>
</event>
<event>
12    1  0.2048318E-007  0.1361737E+04  0.7818608E-02  0.8981990E-01
          1   -1    0    0  501    0  0.00000000000E+00  0.00000000000E+00  0.17856760311E+04  0.17856760311E+04  0.00000000000E+00 0.  1.
         -1   -1    0    0    0  501 -0.00000000000E+00 -0.00000000000E+00 -0.25961150713E+03  0.25961150713E+03  0.00000000000E+00 0. -1.
         23    2    1    2    0    0 -0.22222143194E+03  0.14253151357E+03  0.32540118729E+02  0.28136285995E+03  0.91698432150E+02 0.  0.
        254    2    1    2    0    0  0.22222143194E+03 -0.14253151357E+03  0.14935244053E+04  0.17639246783E+04  0.90062063292E+03 0.  0.
        -24    2    4    4    0    0  0.34693143040E+03 -0.40409410373E+03  0.53370417682E+03  0.75820990981E+03  0.79929074235E+02 0.  0.
         24    2    4    4    0    0 -0.12470999846E+03  0.26156259016E+03  0.95982022845E+03  0.10057147685E+04  0.78992103119E+02 0.  0.
         13    1    3    3    0    0 -0.21098633406E+03  0.13128301229E+03  0.38080676930E+01  0.24852557989E+03  0.00000000000E+00 0. -1.
        -13    1    3    3    0    0 -0.11235097876E+02  0.11248501277E+02  0.28732051036E+02  0.32837280064E+02  0.00000000000E+00 0.  1.
          2    1    6    6  502    0 -0.75334121154E+02  0.20592231672E+03  0.61383082280E+03  0.65181861691E+03  0.00000000000E+00 0. -1.
          3    1    5    5  503    0  0.20222898527E+03 -0.19697846317E+03  0.23780171646E+03  0.36911615216E+03  0.00000000000E+00 0. -1.
         -4    1    5    5    0  503  0.14470244513E+03 -0.20711564055E+03  0.29590246036E+03  0.38909375764E+03  0.00000000000E+00 0.  1.
         -1    1    6    6    0  502 -0.49375877306E+02  0.55640273435E+02  0.34598940565E+03  0.35389615159E+03  0.00000000000E+00 0.  1.
<mgrwt>
<rscale>  0 0.13617372E+04</rscale>
<asrwt>0</asrwt>
<pdfrwt beam="1">  1        1 0.27471938E+00 0.13617372E+04</pdfrwt>
<pdfrwt beam="2">  1       -1 0.39940233E-01 0.13617372E+04</pdfrwt>
<totfact> 0.24894864E+01</totfact>
</mgrwt>
</event>
<event>
12    1  0.2048318E-007  0.2349886E+04  0.7818608E-02  0.8458507E-01
          1   -1    0    0  501    0  0.00000000000E+00  0.00000000000E+00  0.11057575693E+04  0.11057575693E+04  0.00000000000E+00 0. -1.
         -1   -1    0    0    0  501 -0.00000000000E+00 -0.00000000000E+00 -0.12484573786E+04  0.12484573786E+04  0.00000000000E+00 0.  1.
         23    2    1    2    0    0  0.29339513343E+03 -0.91593603584E+03 -0.33840695755E+03  0.10238522292E+04  0.93459040433E+02 0.  0.
        254    2    1    2    0    0 -0.29339513343E+03  0.91593603584E+03  0.19570714826E+03  0.13303627188E+04  0.89807803091E+03 0.  0.
        -24    2    4    4    0    0  0.15553748818E+03  0.76884130559E+03 -0.53264136906E+02  0.79020914769E+03  0.79275250865E+02 0.  0.
         24    2    4    4    0    0 -0.44893262161E+03  0.14709473024E+03  0.24897128516E+03  0.54015357109E+03  0.81251591507E+02 0.  0.
         13    1    3    3    0    0  0.11863022120E+03 -0.25154622197E+03 -0.74565935444E+02  0.28793872594E+03  0.00000000000E+00 0.  1.
        -13    1    3    3    0    0  0.17476491222E+03 -0.66438981387E+03 -0.26384102211E+03  0.73591350325E+03  0.00000000000E+00 0. -1.
          2    1    6    6  502    0 -0.94962013979E+02  0.37351077145E+02  0.93041260648E+02  0.13809258939E+03  0.00000000000E+00 0. -1.
          1    1    5    5  503    0  0.24495279055E+02  0.16276955888E+03 -0.42665143738E+02  0.17004194331E+03  0.00000000000E+00 0. -1.
         -2    1    5    5    0  503  0.13104220913E+03  0.60607174671E+03 -0.10598993169E+02  0.62016720438E+03  0.00000000000E+00 0.  1.
         -1    1    6    6    0  502 -0.35397060763E+03  0.10974365310E+03  0.15593002451E+03  0.40206098170E+03  0.00000000000E+00 0.  1.
<mgrwt>
<rscale>  0 0.23498861E+04</rscale>
<asrwt>0</asrwt>
<pdfrwt beam="1">  1        1 0.17011655E+00 0.23498861E+04</pdfrwt>
<pdfrwt beam="2">  1       -1 0.19207037E+00 0.23498861E+04</pdfrwt>
<totfact> 0.19306607E+00</totfact>
</mgrwt>
</event>
<event>
12    1  0.2048318E-007  0.1736395E+04  0.7818608E-02  0.8740875E-01
          2   -1    0    0  501    0  0.00000000000E+00  0.00000000000E+00  0.13406758092E+04  0.13406758092E+04  0.00000000000E+00 0. -1.
         -2   -1    0    0    0  501 -0.00000000000E+00 -0.00000000000E+00 -0.56222928863E+03  0.56222928863E+03  0.00000000000E+00 0.  1.
         23    2    1    2    0    0 -0.51631207688E+02  0.34248883283E+03  0.86761682833E+03  0.93830389598E+03  0.87697538089E+02 0.  0.
        254    2    1    2    0    0  0.51631207688E+02 -0.34248883283E+03 -0.89170307720E+02  0.96460120190E+03  0.89584583088E+03 0.  0.
        -24    2    4    4    0    0  0.44335620095E+03 -0.28822184824E+02 -0.64401232996E+02  0.45634426900E+03  0.81897092623E+02 0.  0.
         24    2    4    4    0    0 -0.39172499326E+03 -0.31366664801E+03 -0.24769074723E+02  0.50825693290E+03  0.76657461199E+02 0.  0.
         13    1    3    3    0    0 -0.43409260752E+02  0.18969008444E+03  0.37521551956E+03  0.42267408032E+03  0.00000000000E+00 0.  1.
        -13    1    3    3    0    0 -0.82219469361E+01  0.15279874839E+03  0.49240130876E+03  0.51562981566E+03  0.00000000000E+00 0. -1.
          2    1    6    6  502    0 -0.98107739526E+02 -0.40478982116E+02  0.37089488773E+01  0.10619525813E+03  0.00000000000E+00 0. -1.
          3    1    5    5  503    0  0.62801788064E+02 -0.28507947550E+02  0.63779208099E+01  0.69263594560E+02  0.00000000000E+00 0. -1.
         -4    1    5    5    0  503  0.38055441288E+03 -0.31423727345E+00 -0.70779153806E+02  0.38708067444E+03  0.00000000000E+00 0.  1.
         -1    1    6    6    0  502 -0.29361725374E+03 -0.27318766589E+03 -0.28478023601E+02  0.40206167476E+03  0.00000000000E+00 0.  1.
<mgrwt>
<rscale>  0 0.17363954E+04</rscale>
<asrwt>0</asrwt>
<pdfrwt beam="1">  1        2 0.20625782E+00 0.17363954E+04</pdfrwt>
<pdfrwt beam="2">  1       -2 0.86496814E-01 0.17363954E+04</pdfrwt>
<totfact> 0.17199967E+01</totfact>
</mgrwt>
</event>
<event>
12    1  0.2048318E-007  0.1452193E+04  0.7818608E-02  0.8916881E-01
         -2   -1    0    0    0  501 -0.00000000000E+00  0.00000000000E+00  0.22308534904E+03  0.22308534904E+03  0.00000000000E+00 0.  1.
          2   -1    0    0  501    0  0.00000000000E+00 -0.00000000000E+00 -0.23632944976E+04  0.23632944976E+04  0.00000000000E+00 0. -1.
         23    2    1    2    0    0 -0.23563557699E+02  0.43244344907E+03 -0.51033962285E+03  0.67465168992E+03  0.84532799360E+02 0.  0.
        254    2    1    2    0    0  0.23563557699E+02 -0.43244344907E+03 -0.16298695257E+04  0.19117281567E+04  0.90037064391E+03 0.  0.
        -24    2    4    4    0    0 -0.14686194301E+03 -0.37956311484E+03 -0.16622648595E+04  0.17131742599E+04  0.78771779864E+02 0.  0.
         24    2    4    4    0    0  0.17042550071E+03 -0.52880334230E+02  0.32395333843E+02  0.19855389673E+03  0.80827045060E+02 0.  0.
         11    1    3    3    0    0 -0.92499675901E+01  0.31189386468E+03 -0.42051098897E+03  0.52363425840E+03  0.00000000000E+00 0. -1.
        -11    1    3    3    0    0 -0.14313590109E+02  0.12054958439E+03 -0.89828633879E+02  0.15101743152E+03  0.00000000000E+00 0.  1.
          4    1    6    6  502    0  0.12405420895E+03 -0.32305986840E+01  0.39538386166E+02  0.13024272535E+03  0.00000000000E+00 0. -1.
          3    1    5    5  503    0 -0.15558908669E+03 -0.36631755517E+03 -0.15769385952E+04  0.16263861313E+04  0.00000000000E+00 0. -1.
         -4    1    5    5    0  503  0.87271436798E+01 -0.13245559670E+02 -0.85326264332E+02  0.86788128639E+02  0.00000000000E+00 0.  1.
         -3    1    6    6    0  502  0.46371291754E+02 -0.49649735546E+02 -0.71430523222E+01  0.68311171379E+02  0.00000000000E+00 0.  1.
<mgrwt>
<rscale>  0 0.14521933E+04</rscale>
<asrwt>0</asrwt>
<pdfrwt beam="1">  1        2 0.36358378E+00 0.14521933E+04</pdfrwt>
<pdfrwt beam="2">  1       -2 0.34320822E-01 0.14521933E+04</pdfrwt>
<totfact> 0.32249322E+01</totfact>
</mgrwt>
</event>
<event>
12    1  0.2048318E-007  0.2151726E+04  0.7818608E-02  0.8538794E-01
          2   -1    0    0  501    0  0.00000000000E+00  0.00000000000E+00  0.17648014246E+04  0.17648014246E+04  0.00000000000E+00 0. -1.
         -2   -1    0    0    0  501 -0.00000000000E+00 -0.00000000000E+00 -0.65587060342E+03  0.65587060342E+03  0.00000000000E+00 0.  1.
         23    2    1    2    0    0  0.79711479173E+03  0.18583454580E+03  0.78418945700E+02  0.82757103554E+03  0.93796685476E+02 0.  0.
        254    2    1    2    0    0 -0.79711479173E+03 -0.18583454580E+03  0.10305118755E+04  0.15931009925E+04  0.89782491455E+03 0.  0.
        -24    2    4    4    0    0 -0.54600389614E+03 -0.50603451838E+02  0.36843170659E+02  0.55621280236E+03  0.85640518116E+02 0.  0.
         24    2    4    4    0    0 -0.25111089559E+03 -0.13523109396E+03  0.99366870487E+03  0.10368881902E+04  0.80096774157E+02 0.  0.
         13    1    3    3    0    0  0.31958103366E+03  0.37608487593E+02  0.22564773853E+01  0.32179423100E+03  0.00000000000E+00 0.  1.
        -13    1    3    3    0    0  0.47753375808E+03  0.14822605821E+03  0.76162468315E+02  0.50577680454E+03  0.00000000000E+00 0. -1.
          4    1    6    6  502    0 -0.74138757226E+02 -0.57934453310E+02  0.45558238708E+03  0.46519702022E+03  0.00000000000E+00 0. -1.
          3    1    5    5  503    0 -0.15287248868E+03 -0.77654741116E+01  0.48539549151E+02  0.16058140682E+03  0.00000000000E+00 0. -1.
         -4    1    5    5    0  503 -0.39313140746E+03 -0.42837977726E+02 -0.11696378491E+02  0.39563139554E+03  0.00000000000E+00 0.  1.
         -3    1    6    6    0  502 -0.17697213837E+03 -0.77296640651E+02  0.53808631778E+03  0.57169116995E+03  0.00000000000E+00 0.  1.
<mgrwt>
<rscale>  0 0.21517262E+04</rscale>
<asrwt>0</asrwt>
<pdfrwt beam="1">  1        2 0.27150791E+00 0.21517262E+04</pdfrwt>
<pdfrwt beam="2">  1       -2 0.10090317E+00 0.21517262E+04</pdfrwt>
<totfact> 0.66971179E+00</totfact>
</mgrwt>
</event>
<event>
12    1  0.2048318E-007  0.2752205E+04  0.7818608E-02  0.8318262E-01
         -1   -1    0    0    0  501 -0.00000000000E+00  0.00000000000E+00  0.70992142394E+03  0.70992142394E+03  0.00000000000E+00 0.  1.
          1   -1    0    0  501    0  0.00000000000E+00 -0.00000000000E+00 -0.26674188729E+04  0.26674188729E+04  0.00000000000E+00 0. -1.
         23    2    1    2    0    0  0.37117069504E+03  0.65138781988E+03  0.31678105713E+03  0.81919908747E+03  0.93075936779E+02 0.  0.
        254    2    1    2    0    0 -0.37117069504E+03 -0.65138781988E+03 -0.22742785061E+04  0.25581412094E+04  0.89981661861E+03 0.  0.
        -24    2    4    4    0    0  0.22743838815E+03 -0.98500334849E+02 -0.19959921071E+03  0.32779336292E+03  0.78600938188E+02 0.  0.
         24    2    4    4    0    0 -0.59860908319E+03 -0.55288748503E+03 -0.20746792954E+04  0.22303478465E+04  0.78357718045E+02 0.  0.
         11    1    3    3    0    0  0.14461078610E+03  0.18023693121E+03  0.72790152369E+02  0.24227265036E+03  0.00000000000E+00 0. -1.
        -11    1    3    3    0    0  0.22655990894E+03  0.47115088866E+03  0.24399090476E+03  0.57692643711E+03  0.00000000000E+00 0.  1.
          4    1    6    6  502    0 -0.34858629617E+03 -0.29522357633E+03 -0.10693389665E+04  0.11628220806E+04  0.00000000000E+00 0. -1.
          3    1    5    5  503    0  0.14742836514E+03 -0.93912365571E+02 -0.16543785228E+03  0.24067475610E+03  0.00000000000E+00 0. -1.
         -4    1    5    5    0  503  0.80010023009E+02 -0.45879692778E+01 -0.34161358436E+02  0.87118606820E+02  0.00000000000E+00 0.  1.
         -3    1    6    6    0  502 -0.25002278702E+03 -0.25766390869E+03 -0.10053403289E+04  0.10675257659E+04  0.00000000000E+00 0.  1.
<mgrwt>
<rscale>  0 0.27522048E+04</rscale>
<asrwt>0</asrwt>
<pdfrwt beam="1">  1        1 0.41037213E+00 0.27522048E+04</pdfrwt>
<pdfrwt beam="2">  1       -1 0.10921868E+00 0.27522048E+04</pdfrwt>
<totfact> 0.69774549E-01</totfact>
</mgrwt>
</event>
<event>
12    1  0.2048318E-007  0.2559575E+04  0.7818608E-02  0.8382064E-01
         -2   -1    0    0    0  501 -0.00000000000E+00  0.00000000000E+00  0.11732178406E+04  0.11732178406E+04  0.00000000000E+00 0. -1.
          2   -1    0    0  501    0  0.00000000000E+00 -0.00000000000E+00 -0.13960372085E+04  0.13960372085E+04  0.00000000000E+00 0.  1.
         23    2    1    2    0    0 -0.59621151847E+02 -0.11081576154E+04  0.56206405649E+02  0.11148087099E+04  0.89840510740E+02 0.  0.
        254    2    1    2    0    0  0.59621151847E+02  0.11081576154E+04 -0.27902577354E+03  0.14544463392E+04  0.89776989759E+03 0.  0.
        -24    2    4    4    0    0 -0.19431015312E+03  0.80249365375E+03 -0.52268040010E+03  0.98012137648E+03  0.75436145618E+02 0.  0.
         24    2    4    4    0    0  0.25393130496E+03  0.30566396162E+03  0.24365462656E+03  0.47432496271E+03  0.87778289633E+02 0.  0.
         13    1    3    3    0    0 -0.37466136304E+02 -0.97871114568E+03  0.74287059849E+02  0.98224120526E+03  0.00000000000E+00 0. -1.
        -13    1    3    3    0    0 -0.22155015543E+02 -0.12944646969E+03 -0.18080654200E+02  0.13256750464E+03  0.00000000000E+00 0.  1.
          2    1    6    6  502    0  0.14705212124E+03  0.22825127114E+03  0.19228240848E+03  0.33270932321E+03  0.00000000000E+00 0. -1.
          1    1    5    5  503    0 -0.38114287810E+02  0.70391069264E+02 -0.40730681378E+02  0.89814196945E+02  0.00000000000E+00 0. -1.
         -2    1    5    5    0  503 -0.15619586531E+03  0.73210258449E+03 -0.48194971872E+03  0.89030717953E+03  0.00000000000E+00 0.  1.
         -1    1    6    6    0  502  0.10687918372E+03  0.77412690480E+02  0.51372218078E+02  0.14161563950E+03  0.00000000000E+00 0.  1.
<mgrwt>
<rscale>  0 0.25595748E+04</rscale>
<asrwt>0</asrwt>
<pdfrwt beam="1">  1        2 0.21477496E+00 0.25595748E+04</pdfrwt>
<pdfrwt beam="2">  1       -2 0.18049505E+00 0.25595748E+04</pdfrwt>
<totfact> 0.23228749E+00</totfact>
</mgrwt>
</event>
<event>
12    1  0.2048318E-007  0.1335276E+04  0.7818608E-02  0.9002050E-01
         -2   -1    0    0    0  501 -0.00000000000E+00  0.00000000000E+00  0.24792854158E+03  0.24792854158E+03  0.00000000000E+00 0.  1.
          2   -1    0    0  501    0  0.00000000000E+00 -0.00000000000E+00 -0.17978580042E+04  0.17978580042E+04  0.00000000000E+00 0. -1.
         23    2    1    2    0    0 -0.25400964440E+03 -0.60886757805E+02 -0.60625015711E+02  0.28312893607E+03  0.90876318057E+02 0.  0.
        254    2    1    2    0    0  0.25400964440E+03  0.60886757805E+02 -0.14893044469E+04  0.17626576097E+04  0.90592826250E+03 0.  0.
        -24    2    4    4    0    0 -0.12724066945E+02 -0.15708150355E+03 -0.13800007909E+04  0.13913538096E+04  0.81404790467E+02 0.  0.
         24    2    4    4    0    0  0.26673371135E+03  0.21796826136E+03 -0.10930365599E+03  0.37130380012E+03  0.85218466550E+02 0.  0.
         13    1    3    3    0    0 -0.17265287487E+03 -0.49480682908E+02 -0.83189570838E+02  0.19793397353E+03  0.00000000000E+00 0. -1.
        -13    1    3    3    0    0 -0.81356769539E+02 -0.11406074897E+02  0.22564555127E+02  0.85194962542E+02  0.00000000000E+00 0.  1.
          4    1    6    6  502    0  0.99914823245E+02  0.36046035943E+02 -0.50274425571E+02  0.11751513297E+03  0.00000000000E+00 0. -1.
          1    1    5    5  503    0  0.84973255807E+01 -0.16734451279E+02 -0.44023094492E+02  0.47856862102E+02  0.00000000000E+00 0. -1.
         -2    1    5    5    0  503 -0.21221392526E+02 -0.14034705227E+03 -0.13359776965E+04  0.13434969475E+04  0.00000000000E+00 0.  1.
         -3    1    6    6    0  502  0.16681888810E+03  0.18192222541E+03 -0.59029230417E+02  0.25378866714E+03  0.00000000000E+00 0.  1.
<mgrwt>
<rscale>  0 0.13352757E+04</rscale>
<asrwt>0</asrwt>
<pdfrwt beam="1">  1        2 0.27659354E+00 0.13352757E+04</pdfrwt>
<pdfrwt beam="2">  1       -2 0.38142853E-01 0.13352757E+04</pdfrwt>
<totfact> 0.54905884E+01</totfact>
</mgrwt>
</event>
<event>
12    1  0.2048318E-007  0.1746795E+04  0.7818608E-02  0.8735117E-01
         -2   -1    0    0    0  501 -0.00000000000E+00  0.00000000000E+00  0.16004173163E+04  0.16004173163E+04  0.00000000000E+00 0.  1.
          2   -1    0    0  501    0  0.00000000000E+00 -0.00000000000E+00 -0.47663996646E+03  0.47663996646E+03  0.00000000000E+00 0. -1.
         23    2    1    2    0    0 -0.30836068070E+02 -0.56372625375E+03  0.76317421760E+03  0.95437865306E+03  0.98313654973E+02 0.  0.
        254    2    1    2    0    0  0.30836068070E+02  0.56372625375E+03  0.36060313219E+03  0.11226786296E+04  0.90090761694E+03 0.  0.
        -24    2    4    4    0    0 -0.31253782877E+03  0.12415402339E+03  0.43315225048E+03  0.55433988202E+03  0.81103124268E+02 0.  0.
         24    2    4    4    0    0  0.34337389684E+03  0.43957223036E+03 -0.72549118291E+02  0.56833874762E+03  0.81339896403E+02 0.  0.
         11    1    3    3    0    0  0.31664685752E+02 -0.20225559459E+03  0.30714681649E+03  0.36911941800E+03  0.00000000000E+00 0.  1.
        -11    1    3    3    0    0 -0.62500753822E+02 -0.36147065916E+03  0.45602740111E+03  0.58525923506E+03  0.00000000000E+00 0. -1.
          2    1    6    6  502    0  0.16075829650E+03  0.27063858145E+03 -0.34346030708E+02  0.31665141953E+03  0.00000000000E+00 0. -1.
          3    1    5    5  503    0 -0.12388921857E+02  0.74291145829E+01  0.58687215049E+02  0.60438947199E+02  0.00000000000E+00 0. -1.
         -4    1    5    5    0  503 -0.30014890692E+03  0.11672490881E+03  0.37446503543E+03  0.49390093483E+03  0.00000000000E+00 0.  1.
         -1    1    6    6    0  502  0.18261560034E+03  0.16893364891E+03 -0.38203087583E+02  0.25168732809E+03  0.00000000000E+00 0.  1.
<mgrwt>
<rscale>  0 0.17467946E+04</rscale>
<asrwt>0</asrwt>
<pdfrwt beam="1">  1        2 0.73329226E-01 0.17467946E+04</pdfrwt>
<pdfrwt beam="2">  1       -2 0.24621805E+00 0.17467946E+04</pdfrwt>
<totfact> 0.41839683E+00</totfact>
</mgrwt>
</event>
<event>
12    1  0.2048318E-007  0.2633295E+04  0.7818608E-02  0.8356979E-01
          1   -1    0    0  501    0  0.00000000000E+00  0.00000000000E+00  0.29548791693E+04  0.29548791693E+04  0.00000000000E+00 0. -1.
         -1   -1    0    0    0  501 -0.00000000000E+00 -0.00000000000E+00 -0.58667750779E+03  0.58667750779E+03  0.00000000000E+00 0.  1.
         23    2    1    2    0    0 -0.11085067996E+04 -0.27117391055E+03  0.13280327083E+04  0.17532156121E+04  0.88156075942E+02 0.  0.
        254    2    1    2    0    0  0.11085067996E+04  0.27117391055E+03  0.10401689532E+04  0.17883410650E+04  0.90215835569E+03 0.  0.
        -24    2    4    4    0    0  0.60414951222E+03  0.51705714101E+03  0.90188816725E+03  0.12049877440E+04  0.79047307722E+02 0.  0.
         24    2    4    4    0    0  0.50435728742E+03 -0.24588323046E+03  0.13828078597E+03  0.58335332092E+03  0.79653530148E+02 0.  0.
         13    1    3    3    0    0 -0.45907262578E+03 -0.13056862247E+03  0.61649288385E+03  0.77965333114E+03  0.00000000000E+00 0. -1.
        -13    1    3    3    0    0 -0.64943417386E+03 -0.14060528808E+03  0.71153982442E+03  0.97356228098E+03  0.00000000000E+00 0.  1.
          4    1    6    6  502    0  0.44637844842E+03 -0.23532334325E+03  0.14228142947E+03  0.52428503723E+03  0.00000000000E+00 0. -1.
          3    1    5    5  503    0  0.39006293897E+03  0.34818125816E+03  0.53732828789E+03  0.74973393538E+03  0.00000000000E+00 0. -1.
         -4    1    5    5    0  503  0.21408657325E+03  0.16887588285E+03  0.36455987936E+03  0.45525380865E+03  0.00000000000E+00 0.  1.
         -3    1    6    6    0  502  0.57978838994E+02 -0.10559887213E+02 -0.40006435021E+01  0.59068283684E+02  0.00000000000E+00 0.  1.
<mgrwt>
<rscale>  0 0.26332954E+04</rscale>
<asrwt>0</asrwt>
<pdfrwt beam="1">  1        1 0.45459679E+00 0.26332954E+04</pdfrwt>
<pdfrwt beam="2">  1       -1 0.90258080E-01 0.26332954E+04</pdfrwt>
<totfact> 0.67937559E-01</totfact>
</mgrwt>
</event>
<event>
12    1  0.2048318E-007  0.1653448E+04  0.7818608E-02  0.8788369E-01
         -1   -1    0    0    0  501 -0.00000000000E+00  0.00000000000E+00  0.29848016400E+03  0.29848016400E+03  0.00000000000E+00 0.  1.
          1   -1    0    0  501    0  0.00000000000E+00 -0.00000000000E+00 -0.22898427817E+04  0.22898427817E+04  0.00000000000E+00 0. -1.
         23    2    1    2    0    0  0.28083934144E+03 -0.50745722596E+03 -0.76948375602E+03  0.96814594020E+03  0.93902816131E+02 0.  0.
        254    2    1    2    0    0 -0.28083934144E+03  0.50745722596E+03 -0.12218788616E+04  0.16201770055E+04  0.89196524855E+03 0.  0.
        -24    2    4    4    0    0 -0.49943771744E+03  0.15282320886E+03 -0.30526919128E+03  0.61032507589E+03  0.80712157412E+02 0.  0.
         24    2    4    4    0    0  0.21859837600E+03  0.35463401710E+03 -0.91660967037E+03  0.10098519296E+04  0.77955729519E+02 0.  0.
         11    1    3    3    0    0  0.19185935552E+03 -0.35815359814E+03 -0.46461007715E+03  0.61720866484E+03  0.00000000000E+00 0.  1.
        -11    1    3    3    0    0  0.88979985919E+02 -0.14930362782E+03 -0.30487367887E+03  0.35093727536E+03  0.00000000000E+00 0. -1.
          4    1    6    6  502    0  0.21526901285E+03  0.35810909261E+03 -0.89522650045E+03  0.98793388302E+03  0.00000000000E+00 0. -1.
          3    1    5    5  503    0 -0.15275499296E+03  0.79265774540E+02 -0.75294956950E+02  0.18784696279E+03  0.00000000000E+00 0. -1.
         -4    1    5    5    0  503 -0.34668272448E+03  0.73557434316E+02 -0.22997423433E+03  0.42247811310E+03  0.00000000000E+00 0.  1.
         -3    1    6    6    0  502  0.33293631496E+01 -0.34750755142E+01 -0.21383169920E+02  0.21918046551E+02  0.00000000000E+00 0.  1.
<mgrwt>
<rscale>  0 0.16534481E+04</rscale>
<asrwt>0</asrwt>
<pdfrwt beam="1">  1        1 0.35228350E+00 0.16534481E+04</pdfrwt>
<pdfrwt beam="2">  1       -1 0.45920026E-01 0.16534481E+04</pdfrwt>
<totfact> 0.85276882E+00</totfact>
</mgrwt>
</event>
<event>
12    1  0.2048318E-007  0.1324650E+04  0.7818608E-02  0.9010243E-01
          2   -1    0    0  501    0  0.00000000000E+00  0.00000000000E+00  0.31297170060E+04  0.31297170060E+04  0.00000000000E+00 0. -1.
         -2   -1    0    0    0  501 -0.00000000000E+00 -0.00000000000E+00 -0.14016419917E+03  0.14016419917E+03  0.00000000000E+00 0.  1.
         23    2    1    2    0    0 -0.96690430296E+02 -0.14557560524E+03  0.67076239709E+02  0.20733960598E+03  0.89158253239E+02 0.  0.
        254    2    1    2    0    0  0.96690430296E+02  0.14557560524E+03  0.29224765671E+04  0.30625415992E+04  0.89874938958E+03 0.  0.
        -24    2    4    4    0    0  0.45726825197E+03  0.24091131957E+03  0.14440605874E+04  0.15357926980E+04  0.78839793628E+02 0.  0.
         24    2    4    4    0    0 -0.36057782168E+03 -0.95335714330E+02  0.14784159797E+04  0.15267489012E+04  0.78378148861E+02 0.  0.
         11    1    3    3    0    0 -0.49495590044E+02 -0.15517743542E+02  0.41970155659E+02  0.66724116813E+02  0.00000000000E+00 0. -1.
        -11    1    3    3    0    0 -0.47194840252E+02 -0.13005786170E+03  0.25106084050E+02  0.14061548916E+03  0.00000000000E+00 0.  1.
          4    1    6    6  502    0 -0.27715430647E+03 -0.37940541466E+02  0.11018499226E+04  0.11368057205E+04  0.00000000000E+00 0. -1.
          3    1    5    5  503    0  0.40890582766E+03  0.20192810078E+03  0.11939237468E+04  0.12780582330E+04  0.00000000000E+00 0. -1.
         -4    1    5    5    0  503  0.48362424316E+02  0.38983218793E+02  0.25013684061E+03  0.25773446503E+03  0.00000000000E+00 0.  1.
         -3    1    6    6    0  502 -0.83423515210E+02 -0.57395172864E+02  0.37656605717E+03  0.38994318070E+03  0.00000000000E+00 0.  1.
<mgrwt>
<rscale>  0 0.13246498E+04</rscale>
<asrwt>0</asrwt>
<pdfrwt beam="1">  1        2 0.48149487E+00 0.13246498E+04</pdfrwt>
<pdfrwt beam="2">  1       -2 0.21563725E-01 0.13246498E+04</pdfrwt>
<totfact> 0.26710887E+01</totfact>
</mgrwt>
</event>
<event>
12    1  0.2048318E-007  0.1320234E+04  0.7818608E-02  0.9013672E-01
         -1   -1    0    0    0  501 -0.00000000000E+00  0.00000000000E+00  0.91534215527E+03  0.91534215527E+03  0.00000000000E+00 0.  1.
          1   -1    0    0  501    0  0.00000000000E+00 -0.00000000000E+00 -0.47605619253E+03  0.47605619253E+03  0.00000000000E+00 0. -1.
         23    2    1    2    0    0 -0.21382725229E+03  0.22892838451E+03  0.27005969375E+03  0.42343139286E+03  0.90728205193E+02 0.  0.
        254    2    1    2    0    0  0.21382725229E+03 -0.22892838451E+03  0.16922626899E+03  0.96796695494E+03  0.90010676960E+03 0.  0.
        -24    2    4    4    0    0 -0.65957356966E+02 -0.93514749910E+02 -0.33917187625E+03  0.36680023537E+03  0.80059163385E+02 0.  0.
         24    2    4    4    0    0  0.27978460926E+03 -0.13541363460E+03  0.50839814524E+03  0.60116671957E+03  0.79476226790E+02 0.  0.
         13    1    3    3    0    0 -0.19832654236E+03  0.20732501795E+03  0.27378878016E+03  0.39658211838E+03  0.00000000000E+00 0.  1.
        -13    1    3    3    0    0 -0.15500709933E+02  0.21603366556E+02 -0.37290864135E+01  0.26849274486E+02  0.00000000000E+00 0. -1.
          2    1    6    6  502    0  0.12031885317E+03 -0.15642101787E+02  0.19816954653E+03  0.23236280027E+03  0.00000000000E+00 0. -1.
          3    1    5    5  503    0 -0.87897908575E+01 -0.18957111909E+02 -0.76977010366E+01  0.22268522997E+02  0.00000000000E+00 0. -1.
         -4    1    5    5    0  503 -0.57167566108E+02 -0.74557638001E+02 -0.33147417521E+03  0.34453171237E+03  0.00000000000E+00 0.  1.
         -1    1    6    6    0  502  0.15946575609E+03 -0.11977153281E+03  0.31022859871E+03  0.36880391930E+03  0.00000000000E+00 0.  1.
<mgrwt>
<rscale>  0 0.13202338E+04</rscale>
<asrwt>0</asrwt>
<pdfrwt beam="1">  1        1 0.73239414E-01 0.13202338E+04</pdfrwt>
<pdfrwt beam="2">  1       -1 0.14082187E+00 0.13202338E+04</pdfrwt>
<totfact> 0.19206059E+01</totfact>
</mgrwt>
</event>
<event>
12    1  0.2048318E-007  0.1249214E+04  0.7818608E-02  0.9070838E-01
         -2   -1    0    0    0  501 -0.00000000000E+00  0.00000000000E+00  0.25680085747E+03  0.25680085747E+03  0.00000000000E+00 0.  1.
          2   -1    0    0  501    0  0.00000000000E+00 -0.00000000000E+00 -0.15192082696E+04  0.15192082696E+04  0.00000000000E+00 0. -1.
         23    2    1    2    0    0  0.32075520931E+02  0.28664198156E+03 -0.34337256689E+03  0.45766039803E+03  0.91410369199E+02 0.  0.
        254    2    1    2    0    0 -0.32075520931E+02 -0.28664198156E+03 -0.91903484522E+03  0.13183487290E+04  0.90012546901E+03 0.  0.
        -24    2    4    4    0    0 -0.30664367019E+03 -0.32015981629E+03 -0.92742431172E+03  0.10308029981E+04  0.76852576937E+02 0.  0.
         24    2    4    4    0    0  0.27456814926E+03  0.33517834731E+02  0.83894664946E+01  0.28754573088E+03  0.78109220765E+02 0.  0.
         13    1    3    3    0    0  0.13890253851E+02  0.25761986407E+02 -0.85580110698E+02  0.90446528086E+02  0.00000000000E+00 0. -1.
        -13    1    3    3    0    0  0.18185267080E+02  0.26087999516E+03 -0.25779245619E+03  0.36721386994E+03  0.00000000000E+00 0.  1.
          4    1    6    6  502    0  0.11220822707E+03  0.36657247561E+02  0.34697989519E+02  0.12303816684E+03  0.00000000000E+00 0. -1.
          1    1    5    5  503    0 -0.18698357442E+03 -0.24114749415E+03 -0.59210343141E+03  0.66610918363E+03  0.00000000000E+00 0. -1.
         -2    1    5    5    0  503 -0.11966009577E+03 -0.79012322148E+02 -0.33532088031E+03  0.36469381451E+03  0.00000000000E+00 0.  1.
         -3    1    6    6    0  502  0.16235992219E+03 -0.31394128306E+01 -0.26308523024E+02  0.16450756405E+03  0.00000000000E+00 0.  1.
<mgrwt>
<rscale>  0 0.12492141E+04</rscale>
<asrwt>0</asrwt>
<pdfrwt beam="1">  1        2 0.23372435E+00 0.12492141E+04</pdfrwt>
<pdfrwt beam="2">  1       -2 0.39507824E-01 0.12492141E+04</pdfrwt>
<totfact> 0.73752110E+01</totfact>
</mgrwt>
</event>
<event>
12    1  0.2048318E-007  0.1902388E+04  0.7818608E-02  0.8653669E-01
         -1   -1    0    0    0  501 -0.00000000000E+00  0.00000000000E+00  0.87833468736E+03  0.87833468736E+03  0.00000000000E+00 0.  1.
          1   -1    0    0  501    0  0.00000000000E+00 -0.00000000000E+00 -0.10300966635E+04  0.10300966635E+04  0.00000000000E+00 0. -1.
         23    2    1    2    0    0  0.49890017549E+03  0.20652776444E+03  0.44004688692E+03  0.70202172712E+03  0.87396453415E+02 0.  0.
        254    2    1    2    0    0 -0.49890017549E+03 -0.20652776444E+03 -0.59180886301E+03  0.12064096237E+04  0.90201515909E+03 0.  0.
        -24    2    4    4    0    0 -0.36543735446E+03 -0.53954355807E+03 -0.24319324866E+03  0.70002229066E+03  0.78971768035E+02 0.  0.
         24    2    4    4    0    0 -0.13346282104E+03  0.33301579363E+03 -0.34861561436E+03  0.50638733304E+03  0.78634859212E+02 0.  0.
         11    1    3    3    0    0  0.19515594290E+03  0.10226090919E+03  0.22876241729E+03  0.31760884617E+03  0.00000000000E+00 0.  1.
        -11    1    3    3    0    0  0.30374423259E+03  0.10426685525E+03  0.21128446962E+03  0.38441288095E+03  0.00000000000E+00 0. -1.
          4    1    6    6  502    0 -0.17124107668E+02  0.10088539879E+03 -0.13944998606E+03  0.17296646312E+03  0.00000000000E+00 0. -1.
          3    1    5    5  503    0 -0.27549302048E+03 -0.37166746118E+03 -0.13971655336E+03  0.48327406440E+03  0.00000000000E+00 0. -1.
         -4    1    5    5    0  503 -0.89944333975E+02 -0.16787609688E+03 -0.10347669529E+03  0.21674822626E+03  0.00000000000E+00 0.  1.
         -3    1    6    6    0  502 -0.11633871337E+03  0.23213039484E+03 -0.20916562830E+03  0.33342086992E+03  0.00000000000E+00 0.  1.
<mgrwt>
<rscale>  0 0.19023876E+04</rscale>
<asrwt>0</asrwt>
<pdfrwt beam="1">  1        1 0.15847641E+00 0.19023876E+04</pdfrwt>
<pdfrwt beam="2">  1       -1 0.13512841E+00 0.19023876E+04</pdfrwt>
<totfact> 0.61633014E+00</totfact>
</mgrwt>
</event>
<event>
12    1  0.2048318E-007  0.1563188E+04  0.7818608E-02  0.8843488E-01
          2   -1    0    0  501    0  0.00000000000E+00  0.00000000000E+00  0.34110128161E+04  0.34110128161E+04  0.00000000000E+00 0. -1.
         -2   -1    0    0    0  501 -0.00000000000E+00 -0.00000000000E+00 -0.17909318460E+03  0.17909318460E+03  0.00000000000E+00 0.  1.
         23    2    1    2    0    0  0.12847870626E+03 -0.71377147197E+02  0.22133673469E+04  0.22203972883E+04  0.97814264369E+02 0.  0.
        254    2    1    2    0    0 -0.12847870626E+03  0.71377147197E+02  0.10185522846E+04  0.13697087125E+04  0.90390913558E+03 0.  0.
        -24    2    4    4    0    0  0.19908739643E+03 -0.32903457544E+03  0.42828382242E+03  0.58100023312E+03  0.78960085467E+02 0.  0.
         24    2    4    4    0    0 -0.32756610269E+03  0.40041172263E+03  0.59026846221E+03  0.78870847934E+03  0.77557131548E+02 0.  0.
         11    1    3    3    0    0  0.69664369070E+02 -0.10997229902E+02  0.15630158966E+04  0.15646062624E+04  0.00000000000E+00 0. -1.
        -11    1    3    3    0    0  0.58814337195E+02 -0.60379917295E+02  0.65035145029E+03  0.65579102583E+03  0.00000000000E+00 0.  1.
          2    1    6    6  502    0 -0.79078703757E+02  0.15418472973E+03  0.19775797913E+03  0.26293457471E+03  0.00000000000E+00 0. -1.
          1    1    5    5  503    0  0.15639656189E+03 -0.23725086489E+03  0.26305166121E+03  0.38722607599E+03  0.00000000000E+00 0. -1.
         -2    1    5    5    0  503  0.42690834540E+02 -0.91783710542E+02  0.16523216121E+03  0.19377415713E+03  0.00000000000E+00 0.  1.
         -1    1    6    6    0  502 -0.24848739894E+03  0.24622699291E+03  0.39251048308E+03  0.52577390464E+03  0.00000000000E+00 0.  1.
<mgrwt>
<rscale>  0 0.15631880E+04</rscale>
<asrwt>0</asrwt>
<pdfrwt beam="1">  1        2 0.52477116E+00 0.15631880E+04</pdfrwt>
<pdfrwt beam="2">  1       -2 0.27552800E-01 0.15631880E+04</pdfrwt>
<totfact> 0.10944163E+01</totfact>
</mgrwt>
</event>
<event>
12    1  0.2048318E-007  0.1856819E+04  0.7818608E-02  0.8676654E-01
         -1   -1    0    0    0  501 -0.00000000000E+00  0.00000000000E+00  0.58539542123E+03  0.58539542123E+03  0.00000000000E+00 0.  1.
          1   -1    0    0  501    0  0.00000000000E+00 -0.00000000000E+00 -0.14724139950E+04  0.14724139950E+04  0.00000000000E+00 0. -1.
         23    2    1    2    0    0  0.37532828224E+03  0.36947688806E+03  0.18150630151E+03  0.56464455193E+03  0.92165298677E+02 0.  0.
        254    2    1    2    0    0 -0.37532828224E+03 -0.36947688806E+03 -0.10685248752E+04  0.14931648643E+04  0.90022853354E+03 0.  0.
        -24    2    4    4    0    0 -0.56948991341E+03 -0.12287444345E+03 -0.10039725712E+04  0.11631676991E+04  0.74707979339E+02 0.  0.
         24    2    4    4    0    0  0.19416163117E+03 -0.24660244460E+03 -0.64552304045E+02  0.32999716517E+03  0.78864595105E+02 0.  0.
         13    1    3    3    0    0  0.23900523085E+03  0.29384040875E+03  0.12720410314E+03  0.39955796832E+03  0.00000000000E+00 0.  1.
        -13    1    3    3    0    0  0.13632305139E+03  0.75636479303E+02  0.54302198374E+02  0.16508658361E+03  0.00000000000E+00 0. -1.
          2    1    6    6  502    0  0.86888425038E+02 -0.96712468611E+02 -0.65706496125E+02  0.14567169809E+03  0.00000000000E+00 0. -1.
          3    1    5    5  503    0 -0.17826275584E+03 -0.56157766859E+02 -0.38360014848E+03  0.42670877517E+03  0.00000000000E+00 0. -1.
         -4    1    5    5    0  503 -0.39122715756E+03 -0.66716676595E+02 -0.62037242272E+03  0.73645892392E+03  0.00000000000E+00 0.  1.
         -1    1    6    6    0  502  0.10727320613E+03 -0.14988997599E+03  0.11541920801E+01  0.18432546708E+03  0.00000000000E+00 0.  1.
<mgrwt>
<rscale>  0 0.18568192E+04</rscale>
<asrwt>0</asrwt>
<pdfrwt beam="1">  1        1 0.22652523E+00 0.18568192E+04</pdfrwt>
<pdfrwt beam="2">  1       -1 0.90060834E-01 0.18568192E+04</pdfrwt>
<totfact> 0.77434619E+00</totfact>
</mgrwt>
</event>
<event>
12    1  0.2048318E-007  0.1337759E+04  0.7818608E-02  0.9000146E-01
         -1   -1    0    0    0  501 -0.00000000000E+00  0.00000000000E+00  0.34593036475E+03  0.34593036475E+03  0.00000000000E+00 0.  1.
          1   -1    0    0  501    0  0.00000000000E+00 -0.00000000000E+00 -0.12933233928E+04  0.12933233928E+04  0.00000000000E+00 0. -1.
         23    2    1    2    0    0  0.95093961590E+02 -0.34798248342E+03 -0.26477669380E+03  0.45655826619E+03  0.90576390669E+02 0.  0.
        254    2    1    2    0    0 -0.95093961590E+02  0.34798248342E+03 -0.68261633425E+03  0.11826954914E+04  0.89591790650E+03 0.  0.
        -24    2    4    4    0    0  0.36453649356E+03  0.26465190535E+03 -0.49462315014E+03  0.67395123380E+03  0.81429225368E+02 0.  0.
         24    2    4    4    0    0 -0.45963045515E+03  0.83330578068E+02 -0.18799318411E+03  0.50874425756E+03  0.72630171286E+02 0.  0.
         11    1    3    3    0    0  0.10371437654E+03 -0.29596597769E+03 -0.19571947747E+03  0.36967370168E+03  0.00000000000E+00 0.  1.
        -11    1    3    3    0    0 -0.86204149546E+01 -0.52016505730E+02 -0.69057216336E+02  0.86884564512E+02  0.00000000000E+00 0. -1.
          4    1    6    6  502    0 -0.36866668142E+03  0.42076223922E+02 -0.12957497775E+03  0.39303333888E+03  0.00000000000E+00 0. -1.
          3    1    5    5  503    0  0.31360512916E+03  0.25439270994E+03 -0.45674173306E+03  0.60965304775E+03  0.00000000000E+00 0. -1.
         -4    1    5    5    0  503  0.50931364398E+02  0.10259195413E+02 -0.37881417075E+02  0.64298186052E+02  0.00000000000E+00 0.  1.
         -3    1    6    6    0  502 -0.90963773729E+02  0.41254354146E+02 -0.58418206362E+02  0.11571091868E+03  0.00000000000E+00 0.  1.
<mgrwt>
<rscale>  0 0.13377591E+04</rscale>
<asrwt>0</asrwt>
<pdfrwt beam="1">  1        1 0.19897283E+00 0.13377591E+04</pdfrwt>
<pdfrwt beam="2">  1       -1 0.53220056E-01 0.13377591E+04</pdfrwt>
<totfact> 0.31902863E+01</totfact>
</mgrwt>
</event>
<event>
12    1  0.2048318E-007  0.1971904E+04  0.7818608E-02  0.8619870E-01
         -2   -1    0    0    0  501 -0.00000000000E+00  0.00000000000E+00  0.92740341657E+03  0.92740341657E+03  0.00000000000E+00 0.  1.
          2   -1    0    0  501    0  0.00000000000E+00 -0.00000000000E+00 -0.10481968614E+04  0.10481968614E+04  0.00000000000E+00 0. -1.
         23    2    1    2    0    0  0.13665735690E+03  0.75374386654E+03  0.76480645780E+02  0.77514845164E+03  0.90558176583E+02 0.  0.
        254    2    1    2    0    0 -0.13665735690E+03 -0.75374386654E+03 -0.19727409062E+03  0.12004518263E+04  0.90297423606E+03 0.  0.
        -24    2    4    4    0    0  0.21263523334E+03 -0.39042153107E+03 -0.44416833481E+03  0.63348255677E+03  0.79824342789E+02 0.  0.
         24    2    4    4    0    0 -0.34929259024E+03 -0.36332233547E+03  0.24689424419E+03  0.56696926957E+03  0.80554030148E+02 0.  0.
         13    1    3    3    0    0  0.44201187205E+02  0.10003996918E+03 -0.74600518678E+01  0.10962386947E+03  0.00000000000E+00 0. -1.
        -13    1    3    3    0    0  0.92456169695E+02  0.65370389737E+03  0.83940697648E+02  0.66552458217E+03  0.00000000000E+00 0.  1.
          2    1    6    6  502    0 -0.34673030216E+03 -0.33741832603E+03  0.23985856426E+03  0.54000477778E+03  0.00000000000E+00 0. -1.
          1    1    5    5  503    0  0.13258515413E+03 -0.30452543865E+03 -0.30013801990E+03  0.44765767822E+03  0.00000000000E+00 0. -1.
         -2    1    5    5    0  503  0.80050079209E+02 -0.85896092424E+02 -0.14403031491E+03  0.18582487855E+03  0.00000000000E+00 0.  1.
         -1    1    6    6    0  502 -0.25622880814E+01 -0.25904009445E+02  0.70356799299E+01  0.26964491792E+02  0.00000000000E+00 0.  1.
<mgrwt>
<rscale>  0 0.19719040E+04</rscale>
<asrwt>0</asrwt>
<pdfrwt beam="1">  1        2 0.16126106E+00 0.19719040E+04</pdfrwt>
<pdfrwt beam="2">  1       -2 0.14267745E+00 0.19719040E+04</pdfrwt>
<totfact> 0.74706474E+00</totfact>
</mgrwt>
</event>
<event>
12    1  0.2048318E-007  0.1672521E+04  0.7818608E-02  0.8777194E-01
         -2   -1    0    0    0  501 -0.00000000000E+00  0.00000000000E+00  0.46634683787E+03  0.46634683787E+03  0.00000000000E+00 0. -1.
          2   -1    0    0  501    0  0.00000000000E+00 -0.00000000000E+00 -0.14995958743E+04  0.14995958743E+04  0.00000000000E+00 0.  1.
         23    2    1    2    0    0 -0.21659201736E+03 -0.53139883589E+03 -0.51632643653E+03  0.77759638315E+03  0.93628634804E+02 0.  0.
        254    2    1    2    0    0  0.21659201736E+03  0.53139883589E+03 -0.51692259994E+03  0.11883463291E+04  0.90313963411E+03 0.  0.
        -24    2    4    4    0    0 -0.20038407871E+03  0.59903115144E+03 -0.27337820092E+03  0.69377196507E+03  0.87130932425E+02 0.  0.
         24    2    4    4    0    0  0.41697609607E+03 -0.67632315547E+02 -0.24354439902E+03  0.49457436399E+03  0.82744984308E+02 0.  0.
         13    1    3    3    0    0 -0.15381499550E+03 -0.38286753533E+03 -0.42470318207E+03  0.59213123150E+03  0.00000000000E+00 0.  1.
        -13    1    3    3    0    0 -0.62777021857E+02 -0.14853130056E+03 -0.91623254454E+02  0.18546515165E+03  0.00000000000E+00 0. -1.
          4    1    6    6  502    0  0.40610049396E+03 -0.52562577721E+02 -0.24261950025E+03  0.47596707625E+03  0.00000000000E+00 0. -1.
          1    1    5    5  503    0 -0.16528648724E+03  0.47138393360E+03 -0.17673867890E+03  0.52986696099E+03  0.00000000000E+00 0. -1.
         -2    1    5    5    0  503 -0.35097591461E+02  0.12764721783E+03 -0.96639522019E+02  0.16390500408E+03  0.00000000000E+00 0.  1.
         -3    1    6    6    0  502  0.10875602101E+02 -0.15069737827E+02 -0.92489876536E+00  0.18607287738E+02  0.00000000000E+00 0.  1.
<mgrwt>
<rscale>  0 0.16725212E+04</rscale>
<asrwt>0</asrwt>
<pdfrwt beam="1">  1        2 0.23070706E+00 0.16725212E+04</pdfrwt>
<pdfrwt beam="2">  1       -2 0.71745665E-01 0.16725212E+04</pdfrwt>
<totfact> 0.21328728E+01</totfact>
</mgrwt>
</event>
<event>
12    1  0.2048318E-007  0.1796324E+04  0.7818608E-02  0.8708257E-01
          4   -1    0    0  501    0  0.00000000000E+00  0.00000000000E+00  0.47405775751E+03  0.47405775751E+03  0.00000000000E+00 0. -1.
         -4   -1    0    0    0  501 -0.00000000000E+00 -0.00000000000E+00 -0.17016804843E+04  0.17016804843E+04  0.00000000000E+00 0.  1.
         23    2    1    2    0    0 -0.29852127497E+03  0.57055176438E+03 -0.24491667509E+03  0.69508909900E+03  0.92306068908E+02 0.  0.
        254    2    1    2    0    0  0.29852127497E+03 -0.57055176438E+03 -0.98270605170E+03  0.14806491428E+04  0.90109180032E+03 0.  0.
        -24    2    4    4    0    0  0.27992553515E+03 -0.73872998305E+03 -0.10168982118E+04  0.12902827356E+04  0.81653361469E+02 0.  0.
         24    2    4    4    0    0  0.18595739814E+02  0.16817821867E+03  0.34192160087E+02  0.19036640726E+03  0.80253039982E+02 0.  0.
         11    1    3    3    0    0 -0.80222524467E+02  0.25063419341E+03 -0.94829102163E+02  0.27972434816E+03  0.00000000000E+00 0. -1.
        -11    1    3    3    0    0 -0.21829875050E+03  0.31991757097E+03 -0.15008757293E+03  0.41536475083E+03  0.00000000000E+00 0.  1.
          4    1    6    6  502    0  0.28665627718E+02  0.13225160283E+03  0.56778411611E+02  0.14675146571E+03  0.00000000000E+00 0. -1.
          1    1    5    5  503    0  0.18167297505E+03 -0.56332089404E+03 -0.78980335276E+03  0.98697762667E+03  0.00000000000E+00 0. -1.
         -2    1    5    5    0  503  0.98252560105E+02 -0.17540908902E+03 -0.22709485902E+03  0.30330510888E+03  0.00000000000E+00 0.  1.
         -3    1    6    6    0  502 -0.10069887904E+02  0.35926615843E+02 -0.22586251524E+02  0.43614941548E+02  0.00000000000E+00 0.  1.
<mgrwt>
<rscale>  0 0.17963238E+04</rscale>
<asrwt>0</asrwt>
<pdfrwt beam="1">  1        4 0.72931963E-01 0.17963238E+04</pdfrwt>
<pdfrwt beam="2">  1       -4 0.26179700E+00 0.17963238E+04</pdfrwt>
<totfact> 0.17249397E-01</totfact>
</mgrwt>
</event>
<event>
12    1  0.2048318E-007  0.2717440E+04  0.7818608E-02  0.8329369E-01
         -2   -1    0    0    0  501 -0.00000000000E+00  0.00000000000E+00  0.24030444665E+04  0.24030444665E+04  0.00000000000E+00 0.  1.
          2   -1    0    0  501    0  0.00000000000E+00 -0.00000000000E+00 -0.76824191530E+03  0.76824191530E+03  0.00000000000E+00 0. -1.
         23    2    1    2    0    0  0.22279583819E+03  0.79466098539E+03 -0.30077013756E+03  0.88304424957E+03  0.90445584971E+02 0.  0.
        254    2    1    2    0    0 -0.22279583819E+03 -0.79466098539E+03  0.19355726888E+04  0.22882421323E+04  0.89915869289E+03 0.  0.
        -24    2    4    4    0    0  0.13745477201E+03 -0.23057726828E+03  0.13983664722E+04  0.14262831037E+04  0.82431852916E+02 0.  0.
         24    2    4    4    0    0 -0.36025061020E+03 -0.56408371711E+03  0.53720621657E+03  0.86195902852E+03  0.80074375835E+02 0.  0.
         13    1    3    3    0    0  0.16941790204E+03  0.67971505901E+03 -0.28103490228E+03  0.75478182495E+03  0.00000000000E+00 0. -1.
        -13    1    3    3    0    0  0.53377936147E+02  0.11494592638E+03 -0.19735235287E+02  0.12826242462E+03  0.00000000000E+00 0.  1.
          4    1    6    6  502    0 -0.11542160062E+03 -0.19800300244E+03  0.13785940254E+03  0.26745569677E+03  0.00000000000E+00 0. -1.
          3    1    5    5  503    0  0.13405026237E+03 -0.21789756775E+03  0.13810869406E+04  0.14045817742E+04  0.00000000000E+00 0. -1.
         -4    1    5    5    0  503  0.34045096400E+01 -0.12679700534E+02  0.17279531646E+02  0.21701329577E+02  0.00000000000E+00 0.  1.
         -3    1    6    6    0  502 -0.24482900958E+03 -0.36608071466E+03  0.39934681404E+03  0.59450333175E+03  0.00000000000E+00 0.  1.
<mgrwt>
<rscale>  0 0.27174396E+04</rscale>
<asrwt>0</asrwt>
<pdfrwt beam="1">  1        2 0.11819106E+00 0.27174396E+04</pdfrwt>
<pdfrwt beam="2">  1       -2 0.36969915E+00 0.27174396E+04</pdfrwt>
<totfact> 0.37126609E-01</totfact>
</mgrwt>
</event>
<event>
12    1  0.2048318E-007  0.1569162E+04  0.7818608E-02  0.8839720E-01
          1   -1    0    0  501    0  0.00000000000E+00  0.00000000000E+00  0.14996734616E+04  0.14996734616E+04  0.00000000000E+00 0. -1.
         -1   -1    0    0    0  501 -0.00000000000E+00 -0.00000000000E+00 -0.41046757794E+03  0.41046757794E+03  0.00000000000E+00 0.  1.
         23    2    1    2    0    0 -0.31015245815E+03 -0.31771801054E+03  0.69805935018E+03  0.83234109800E+03  0.91463465488E+02 0.  0.
        254    2    1    2    0    0  0.31015245815E+03  0.31771801054E+03  0.39114653348E+03  0.10777999415E+04  0.90084283969E+03 0.  0.
        -24    2    4    4    0    0 -0.31240188012E+03  0.85698905893E+02  0.14996646171E+03  0.36645789622E+03  0.82838474715E+02 0.  0.
         24    2    4    4    0    0  0.62255433827E+03  0.23201910465E+03  0.24118007177E+03  0.71134204532E+03  0.80205420033E+02 0.  0.
         11    1    3    3    0    0 -0.67724439882E+02 -0.48049904890E+02  0.19741911559E+03  0.21417212778E+03  0.00000000000E+00 0. -1.
        -11    1    3    3    0    0 -0.24242801827E+03 -0.26966810565E+03  0.50064023459E+03  0.61816897022E+03  0.00000000000E+00 0.  1.
          2    1    6    6  502    0  0.12280991371E+03  0.37242818799E+02  0.14867404483E+02  0.12919110718E+03  0.00000000000E+00 0. -1.
          3    1    5    5  503    0 -0.59546060810E+02 -0.14180327531E+02  0.15444793765E+02  0.63129681619E+02  0.00000000000E+00 0. -1.
         -4    1    5    5    0  503 -0.25285581931E+03  0.99879233424E+02  0.13452166794E+03  0.30332821460E+03  0.00000000000E+00 0.  1.
         -1    1    6    6    0  502  0.49974442456E+03  0.19477628585E+03  0.22631266729E+03  0.58215093814E+03  0.00000000000E+00 0.  1.
<mgrwt>
<rscale>  0 0.15691620E+04</rscale>
<asrwt>0</asrwt>
<pdfrwt beam="1">  1        1 0.23071899E+00 0.15691620E+04</pdfrwt>
<pdfrwt beam="2">  1       -1 0.63148859E-01 0.15691620E+04</pdfrwt>
<totfact> 0.16012486E+01</totfact>
</mgrwt>
</event>
<event>
12    1  0.2048318E-007  0.1716772E+04  0.7818608E-02  0.8751856E-01
          2   -1    0    0  501    0  0.00000000000E+00  0.00000000000E+00  0.22706359806E+04  0.22706359806E+04  0.00000000000E+00 0. -1.
         -2   -1    0    0    0  501 -0.00000000000E+00 -0.00000000000E+00 -0.32450240533E+03  0.32450240533E+03  0.00000000000E+00 0.  1.
         23    2    1    2    0    0 -0.36962208059E+03 -0.27092059111E+03  0.13527556736E+04  0.14314241391E+04  0.94914195105E+02 0.  0.
        254    2    1    2    0    0  0.36962208059E+03  0.27092059111E+03  0.59337790172E+03  0.11637142469E+04  0.89000846343E+03 0.  0.
        -24    2    4    4    0    0  0.43509778183E+03 -0.14792087543E+03  0.50786702699E+02  0.47047533639E+03  0.87046469430E+02 0.  0.
         24    2    4    4    0    0 -0.65475701243E+02  0.41884146654E+03  0.54259119902E+03  0.69323891048E+03  0.80372484102E+02 0.  0.
         11    1    3    3    0    0 -0.29332310392E+03 -0.16526967420E+03  0.93193232930E+03  0.99088363338E+03  0.00000000000E+00 0.  1.
        -11    1    3    3    0    0 -0.76298976666E+02 -0.10565091692E+03  0.42082334426E+03  0.44054050570E+03  0.00000000000E+00 0. -1.
          4    1    6    6  502    0 -0.42228177877E+02  0.23305143494E+03  0.23847852105E+03  0.33610741637E+03  0.00000000000E+00 0. -1.
          1    1    5    5  503    0  0.60540320080E+02 -0.24522778182E+02  0.38715001387E+02  0.75929890936E+02  0.00000000000E+00 0. -1.
         -2    1    5    5    0  503  0.37455746175E+03 -0.12339809725E+03  0.12071701312E+02  0.39454544546E+03  0.00000000000E+00 0.  1.
         -3    1    6    6    0  502 -0.23247523366E+02  0.18579003160E+03  0.30411267797E+03  0.35713149412E+03  0.00000000000E+00 0.  1.
<mgrwt>
<rscale>  0 0.17167724E+04</rscale>
<asrwt>0</asrwt>
<pdfrwt beam="1">  1        2 0.34932860E+00 0.17167724E+04</pdfrwt>
<pdfrwt beam="2">  1       -2 0.49923448E-01 0.17167724E+04</pdfrwt>
<totfact> 0.17005433E+01</totfact>
</mgrwt>
</event>
<event>
12    1  0.2048318E-007  0.2968243E+04  0.7818608E-02  0.8252858E-01
         -1   -1    0    0    0  501 -0.00000000000E+00  0.00000000000E+00  0.81484147215E+03  0.81484147215E+03  0.00000000000E+00 0.  1.
          1   -1    0    0  501    0  0.00000000000E+00 -0.00000000000E+00 -0.27031232287E+04  0.27031232287E+04  0.00000000000E+00 0. -1.
         23    2    1    2    0    0 -0.18158294079E+01 -0.13441061118E+04 -0.77951963880E+03  0.15564181063E+04  0.90343330028E+02 0.  0.
        254    2    1    2    0    0  0.18158294079E+01  0.13441061118E+04 -0.11087621177E+04  0.19615465945E+04  0.90093677455E+03 0.  0.
        -24    2    4    4    0    0  0.29270176979E+03  0.25978425912E+03 -0.61298363089E+03  0.73166099449E+03  0.80104255783E+02 0.  0.
         24    2    4    4    0    0 -0.29088594038E+03  0.10843218527E+04 -0.49577848681E+03  0.12298856000E+04  0.80335363406E+02 0.  0.
         11    1    3    3    0    0  0.34833885223E+02 -0.62072829749E+03 -0.39186857734E+03  0.73489999372E+03  0.00000000000E+00 0.  1.
        -11    1    3    3    0    0 -0.36649714631E+02 -0.72337781432E+03 -0.38765106146E+03  0.82151811257E+03  0.00000000000E+00 0. -1.
          4    1    6    6  502    0 -0.84778661107E+02  0.22772768392E+03 -0.13364589859E+03  0.27732390018E+03  0.00000000000E+00 0. -1.
          3    1    5    5  503    0  0.14288716632E+03  0.87535988667E+02 -0.21176408308E+03  0.27004317894E+03  0.00000000000E+00 0. -1.
         -4    1    5    5    0  503  0.14981460348E+03  0.17224827045E+03 -0.40121954781E+03  0.46161781555E+03  0.00000000000E+00 0.  1.
         -3    1    6    6    0  502 -0.20610727928E+03  0.85659416877E+03 -0.36213258822E+03  0.95256169983E+03  0.00000000000E+00 0.  1.
<mgrwt>
<rscale>  0 0.29682432E+04</rscale>
<asrwt>0</asrwt>
<pdfrwt beam="1">  1        1 0.41586511E+00 0.29682432E+04</pdfrwt>
<pdfrwt beam="2">  1       -1 0.12536023E+00 0.29682432E+04</pdfrwt>
<totfact> 0.46271041E-01</totfact>
</mgrwt>
</event>
<event>
12    1  0.2048318E-007  0.1822424E+04  0.7818608E-02  0.8694465E-01
         -2   -1    0    0    0  501 -0.00000000000E+00  0.00000000000E+00  0.13913052383E+04  0.13913052383E+04  0.00000000000E+00 0.  1.
          2   -1    0    0  501    0  0.00000000000E+00 -0.00000000000E+00 -0.59678277997E+03  0.59678277997E+03  0.00000000000E+00 0. -1.
         23    2    1    2    0    0  0.86677688233E+02 -0.59152488841E+03 -0.63408185956E+02  0.60805549961E+03  0.91083353652E+02 0.  0.
        254    2    1    2    0    0 -0.86677688233E+02  0.59152488841E+03  0.85793064425E+03  0.13800325186E+04  0.90057206645E+03 0.  0.
        -24    2    4    4    0    0  0.29471640303E+03  0.13047723611E+03  0.16391728927E+01  0.33237303998E+03  0.81160849306E+02 0.  0.
         24    2    4    4    0    0 -0.38139409126E+03  0.46104765229E+03  0.85629147136E+03  0.10476594786E+04  0.79554438760E+02 0.  0.
         13    1    3    3    0    0  0.78295859441E+02 -0.55464704995E+03 -0.81653170993E+02  0.56606610210E+03  0.00000000000E+00 0. -1.
        -13    1    3    3    0    0  0.83818287921E+01 -0.36877838461E+02  0.18244985037E+02  0.41989397501E+02  0.00000000000E+00 0.  1.
          4    1    6    6  502    0 -0.15599665875E+03  0.14843862892E+03  0.35722528556E+03  0.41710776634E+03  0.00000000000E+00 0. -1.
          1    1    5    5  503    0  0.14916384249E+02  0.15206686416E+02 -0.19690741536E+02  0.29008052900E+02  0.00000000000E+00 0. -1.
         -2    1    5    5    0  503  0.27980001878E+03  0.11527054970E+03  0.21329914428E+02  0.30336498708E+03  0.00000000000E+00 0.  1.
         -3    1    6    6    0  502 -0.22539743251E+03  0.31260902337E+03  0.49906618579E+03  0.63055171230E+03  0.00000000000E+00 0.  1.
<mgrwt>
<rscale>  0 0.18224237E+04</rscale>
<asrwt>0</asrwt>
<pdfrwt beam="1">  1        2 0.91812736E-01 0.18224237E+04</pdfrwt>
<pdfrwt beam="2">  1       -2 0.21404696E+00 0.18224237E+04</pdfrwt>
<totfact> 0.50702135E+00</totfact>
</mgrwt>
</event>
<event>
12    1  0.2048318E-007  0.1652475E+04  0.7818608E-02  0.8788943E-01
         -2   -1    0    0    0  501 -0.00000000000E+00  0.00000000000E+00  0.39692600392E+03  0.39692600392E+03  0.00000000000E+00 0. -1.
          2   -1    0    0  501    0  0.00000000000E+00 -0.00000000000E+00 -0.17198888338E+04  0.17198888338E+04  0.00000000000E+00 0.  1.
         23    2    1    2    0    0 -0.20599520112E+03 -0.54611486771E+03 -0.50828371100E+03  0.77952264767E+03  0.92885713349E+02 0.  0.
        254    2    1    2    0    0  0.20599520112E+03  0.54611486771E+03 -0.81467911891E+03  0.13372921901E+04  0.88542242077E+03 0.  0.
        -24    2    4    4    0    0  0.29061904187E+03  0.48140001594E+03 -0.59812752211E+02  0.57088965430E+03  0.78307274362E+02 0.  0.
         24    2    4    4    0    0 -0.84623840756E+02  0.64714851772E+02 -0.75486636669E+03  0.76640253576E+03  0.78742674512E+02 0.  0.
         11    1    3    3    0    0 -0.83566758063E+02 -0.11376630780E+03 -0.10791629632E+03  0.17768540417E+03  0.00000000000E+00 0. -1.
        -11    1    3    3    0    0 -0.12242844305E+03 -0.43234855992E+03 -0.40036741468E+03  0.60183724350E+03  0.00000000000E+00 0.  1.
          4    1    6    6  502    0 -0.58268660407E+02  0.21535696407E+02 -0.60600334592E+03  0.60917901989E+03  0.00000000000E+00 0. -1.
          1    1    5    5  503    0  0.49411205025E+02  0.12267756490E+03 -0.39951535738E+02  0.13815707481E+03  0.00000000000E+00 0. -1.
         -2    1    5    5    0  503  0.24120783685E+03  0.35872245104E+03 -0.19861216473E+02  0.43273257950E+03  0.00000000000E+00 0.  1.
         -3    1    6    6    0  502 -0.26355180349E+02  0.43179155365E+02 -0.14886302078E+03  0.15722351588E+03  0.00000000000E+00 0.  1.
<mgrwt>
<rscale>  0 0.16524752E+04</rscale>
<asrwt>0</asrwt>
<pdfrwt beam="1">  1        2 0.26459829E+00 0.16524752E+04</pdfrwt>
<pdfrwt beam="2">  1       -2 0.61065537E-01 0.16524752E+04</pdfrwt>
<totfact> 0.22778668E+01</totfact>
</mgrwt>
</event>
<event>
12    1  0.2048318E-007  0.3374009E+04  0.7818608E-02  0.8144315E-01
          1   -1    0    0  501    0  0.00000000000E+00  0.00000000000E+00  0.24105393243E+04  0.24105393243E+04  0.00000000000E+00 0. -1.
         -1   -1    0    0    0  501 -0.00000000000E+00 -0.00000000000E+00 -0.11806420812E+04  0.11806420812E+04  0.00000000000E+00 0.  1.
         23    2    1    2    0    0 -0.15190033855E+04  0.32692465595E+03  0.77676297843E+03  0.17396362093E+04  0.93393790549E+02 0.  0.
        254    2    1    2    0    0  0.15190033855E+04 -0.32692465595E+03  0.45313426464E+03  0.18515451962E+04  0.89924297937E+03 0.  0.
        -24    2    4    4    0    0  0.21396942885E+03  0.22558435083E+03  0.27019114868E+03  0.42025703957E+03  0.83315704758E+02 0.  0.
         24    2    4    4    0    0  0.13050339567E+04 -0.55250900677E+03  0.18294311596E+03  0.14312881567E+04  0.82083939055E+02 0.  0.
         13    1    3    3    0    0 -0.11122983318E+04  0.27720514056E+03  0.59223074964E+03  0.12902664568E+04  0.00000000000E+00 0. -1.
        -13    1    3    3    0    0 -0.40670505377E+03  0.49719515386E+02  0.18453222879E+03  0.44936975247E+03  0.00000000000E+00 0.  1.
          2    1    6    6  502    0  0.18635574925E+03 -0.98341262861E+02  0.50583976577E+02  0.21669842627E+03  0.00000000000E+00 0. -1.
          3    1    5    5  503    0  0.11974039851E+02  0.84256278656E+01 -0.51972065910E+01  0.15536402145E+02  0.00000000000E+00 0. -1.
         -4    1    5    5    0  503  0.20199538900E+03  0.21715872296E+03  0.27538835527E+03  0.40472063742E+03  0.00000000000E+00 0.  1.
         -1    1    6    6    0  502  0.11186782074E+04 -0.45416774391E+03  0.13235913938E+03  0.12145897304E+04  0.00000000000E+00 0.  1.
<mgrwt>
<rscale>  0 0.33740090E+04</rscale>
<asrwt>0</asrwt>
<pdfrwt beam="1">  1        1 0.37085220E+00 0.33740090E+04</pdfrwt>
<pdfrwt beam="2">  1       -1 0.18163724E+00 0.33740090E+04</pdfrwt>
<totfact> 0.26087762E-01</totfact>
</mgrwt>
</event>
<event>
12    1  0.2048318E-007  0.2158893E+04  0.7818608E-02  0.8535735E-01
         -2   -1    0    0    0  501 -0.00000000000E+00  0.00000000000E+00  0.35674778267E+03  0.35674778267E+03  0.00000000000E+00 0. -1.
          2   -1    0    0  501    0  0.00000000000E+00 -0.00000000000E+00 -0.32661853219E+04  0.32661853219E+04  0.00000000000E+00 0.  1.
         23    2    1    2    0    0  0.57114327137E+03 -0.60587230641E+03 -0.17292812876E+04  0.19214077333E+04  0.90044533330E+02 0.  0.
        254    2    1    2    0    0 -0.57114327137E+03  0.60587230641E+03 -0.11801562516E+04  0.17015253712E+04  0.89951871719E+03 0.  0.
        -24    2    4    4    0    0 -0.16169309091E+03  0.75755268103E+03 -0.80707527077E+03  0.11214684337E+04  0.79311001341E+02 0.  0.
         24    2    4    4    0    0 -0.40945018046E+03 -0.15168037461E+03 -0.37308098085E+03  0.58005693753E+03  0.81364895210E+02 0.  0.
         11    1    3    3    0    0  0.64006681161E+02 -0.11520737604E+03 -0.26453409572E+03  0.29554675185E+03  0.00000000000E+00 0. -1.
        -11    1    3    3    0    0  0.50713659021E+03 -0.49066493037E+03 -0.14647471919E+04  0.16258609815E+04  0.00000000000E+00 0.  1.
          2    1    6    6  502    0 -0.31358284141E+02  0.87378481192E+01 -0.18412346536E+02  0.37399284472E+02  0.00000000000E+00 0. -1.
          1    1    5    5  503    0 -0.11250345572E+03  0.61392172337E+03 -0.61037050736E+03  0.87298858311E+03  0.00000000000E+00 0. -1.
         -2    1    5    5    0  503 -0.49189635187E+02  0.14363095765E+03 -0.19670476341E+03  0.24847985060E+03  0.00000000000E+00 0.  1.
         -1    1    6    6    0  502 -0.37809189632E+03 -0.16041822273E+03 -0.35466863432E+03  0.54265765305E+03  0.00000000000E+00 0.  1.
<mgrwt>
<rscale>  0 0.21588927E+04</rscale>
<asrwt>0</asrwt>
<pdfrwt beam="1">  1        2 0.50249004E+00 0.21588927E+04</pdfrwt>
<pdfrwt beam="2">  1       -2 0.54884275E-01 0.21588927E+04</pdfrwt>
<totfact> 0.33682515E+00</totfact>
</mgrwt>
</event>
<event>
12    1  0.2048318E-007  0.3359624E+04  0.7818608E-02  0.8147888E-01
         -2   -1    0    0    0  501 -0.00000000000E+00  0.00000000000E+00  0.10150481867E+04  0.10150481867E+04  0.00000000000E+00 0.  1.
          2   -1    0    0  501    0  0.00000000000E+00 -0.00000000000E+00 -0.27799348640E+04  0.27799348640E+04  0.00000000000E+00 0. -1.
         23    2    1    2    0    0 -0.25536568041E+03  0.14971596296E+04 -0.43047416361E+03  0.15811960468E+04  0.90412089326E+02 0.  0.
        254    2    1    2    0    0  0.25536568041E+03 -0.14971596296E+04 -0.13344125137E+04  0.22137870039E+04  0.90194099310E+03 0.  0.
        -24    2    4    4    0    0  0.24050848676E+03 -0.83310150026E+03 -0.12728683592E+04  0.15420591361E+04  0.76485799386E+02 0.  0.
         24    2    4    4    0    0  0.14857193646E+02 -0.66405812930E+03 -0.61544154502E+02  0.67172786784E+03  0.78972844616E+02 0.  0.
         11    1    3    3    0    0 -0.20005223570E+03  0.13010400775E+04 -0.34960936596E+03  0.13619665521E+04  0.00000000000E+00 0. -1.
        -11    1    3    3    0    0 -0.55313444707E+02  0.19611955206E+03 -0.80864797655E+02  0.21922949474E+03  0.00000000000E+00 0.  1.
          4    1    6    6  502    0  0.28662953395E+02 -0.64095297266E+03 -0.63575874955E+02  0.64473573651E+03  0.00000000000E+00 0. -1.
          3    1    5    5  503    0  0.21040643050E+03 -0.75388413690E+03 -0.11834745343E+04  0.14188812956E+04  0.00000000000E+00 0. -1.
         -4    1    5    5    0  503  0.30102056258E+02 -0.79217363354E+02 -0.89393824906E+02  0.12317784045E+03  0.00000000000E+00 0.  1.
         -3    1    6    6    0  502 -0.13805759749E+02 -0.23105156639E+02  0.20317204536E+01  0.26992131327E+02  0.00000000000E+00 0.  1.
<mgrwt>
<rscale>  0 0.33596237E+04</rscale>
<asrwt>0</asrwt>
<pdfrwt beam="1">  1        2 0.42768228E+00 0.33596237E+04</pdfrwt>
<pdfrwt beam="2">  1       -2 0.15616126E+00 0.33596237E+04</pdfrwt>
<totfact> 0.53153584E-01</totfact>
</mgrwt>
</event>
<event>
12    1  0.2048318E-007  0.1578940E+04  0.7818608E-02  0.8833591E-01
         -2   -1    0    0    0  501 -0.00000000000E+00  0.00000000000E+00  0.14344655368E+04  0.14344655368E+04  0.00000000000E+00 0.  1.
          2   -1    0    0  501    0  0.00000000000E+00 -0.00000000000E+00 -0.43449130672E+03  0.43449130672E+03  0.00000000000E+00 0. -1.
         23    2    1    2    0    0 -0.51969346113E+03  0.83972028882E+02  0.32952144805E+03  0.62775051076E+03  0.91398708197E+02 0.  0.
        254    2    1    2    0    0  0.51969346113E+03 -0.83972028882E+02  0.67045278207E+03  0.12412063328E+04  0.90219378873E+03 0.  0.
        -24    2    4    4    0    0 -0.21623193509E+03  0.14108738301E+03  0.17120334466E+03  0.32043287695E+03  0.81882501232E+02 0.  0.
         24    2    4    4    0    0  0.73592539622E+03 -0.22505941190E+03  0.49924943741E+03  0.92077345586E+03  0.79597918116E+02 0.  0.
         11    1    3    3    0    0 -0.18799238803E+03  0.41787969200E+02  0.71597936146E+02  0.20545957458E+03  0.00000000000E+00 0. -1.
        -11    1    3    3    0    0 -0.33170107311E+03  0.42184059682E+02  0.25792351190E+03  0.42229093618E+03  0.00000000000E+00 0.  1.
          4    1    6    6  502    0  0.68354602758E+03 -0.22652870609E+03  0.47752311175E+03  0.86404788568E+03  0.00000000000E+00 0. -1.
          1    1    5    5  503    0 -0.11177161702E+03  0.65246307383E+02  0.37870235816E+02  0.13484854378E+03  0.00000000000E+00 0. -1.
         -2    1    5    5    0  503 -0.10446031807E+03  0.75841075632E+02  0.13333310884E+03  0.18558433317E+03  0.00000000000E+00 0.  1.
         -3    1    6    6    0  502  0.52379368641E+02  0.14692941895E+01  0.21726325667E+02  0.56725570175E+02  0.00000000000E+00 0.  1.
<mgrwt>
<rscale>  0 0.15789399E+04</rscale>
<asrwt>0</asrwt>
<pdfrwt beam="1">  1        2 0.66844817E-01 0.15789399E+04</pdfrwt>
<pdfrwt beam="2">  1       -2 0.22068700E+00 0.15789399E+04</pdfrwt>
<totfact> 0.67991715E+00</totfact>
</mgrwt>
</event>
<event>
12    1  0.2048318E-007  0.1457150E+04  0.7818608E-02  0.8913458E-01
          1   -1    0    0  501    0  0.00000000000E+00  0.00000000000E+00  0.61607773921E+03  0.61607773921E+03  0.00000000000E+00 0. -1.
         -1   -1    0    0    0  501 -0.00000000000E+00 -0.00000000000E+00 -0.86161501652E+03  0.86161501652E+03  0.00000000000E+00 0.  1.
         23    2    1    2    0    0 -0.43680616022E+03  0.68784814223E+02 -0.33670177378E+02  0.45266936927E+03  0.90801457894E+02 0.  0.
        254    2    1    2    0    0  0.43680616022E+03 -0.68784814223E+02 -0.21186709993E+03  0.10250233865E+04  0.90014126806E+03 0.  0.
        -24    2    4    4    0    0  0.26858804893E+03  0.77737455549E+02 -0.54436474642E+03  0.61703531929E+03  0.78847676470E+02 0.  0.
         24    2    4    4    0    0  0.16821811130E+03 -0.14652226977E+03  0.33249764649E+03  0.40798806717E+03  0.78316470295E+02 0.  0.
         13    1    3    3    0    0 -0.42544573302E+03  0.74905792190E+02 -0.17992824279E+02  0.43236407248E+03  0.00000000000E+00 0. -1.
        -13    1    3    3    0    0 -0.11360427206E+02 -0.61209779676E+01 -0.15677353100E+02  0.20305296792E+02  0.00000000000E+00 0.  1.
          4    1    6    6  502    0  0.64159358582E+02 -0.28325702880E+02  0.55827878235E+02  0.89641066066E+02  0.00000000000E+00 0. -1.
          1    1    5    5  503    0  0.12849389257E+03  0.33944277561E+01 -0.19767779441E+03  0.23579379332E+03  0.00000000000E+00 0. -1.
         -4    1    5    5    0  503  0.14009415636E+03  0.74343027793E+02 -0.34668695201E+03  0.38124152597E+03  0.00000000000E+00 0.  1.
         -3    1    6    6    0  502  0.10405875271E+03 -0.11819656689E+03  0.27666976826E+03  0.31834700110E+03  0.00000000000E+00 0.  1.
<mgrwt>
<rscale>  0 0.14571504E+04</rscale>
<asrwt>0</asrwt>
<pdfrwt beam="1">  1        1 0.94781191E-01 0.14571504E+04</pdfrwt>
<pdfrwt beam="2">  1       -1 0.13255616E+00 0.14571504E+04</pdfrwt>
<totfact> 0.15444728E+01</totfact>
</mgrwt>
</event>
<event>
12    1  0.2739351E-007  0.2397926E+04  0.7818608E-02  0.8440281E-01
         -2   -1    0    0    0  501 -0.00000000000E+00  0.00000000000E+00  0.97929657373E+03  0.97929657373E+03  0.00000000000E+00 0.  1.
          2   -1    0    0  501    0  0.00000000000E+00 -0.00000000000E+00 -0.14679025840E+04  0.14679025840E+04  0.00000000000E+00 0. -1.
         23    2    1    2    0    0  0.11106089726E+03 -0.94814175351E+03  0.17582525749E+03  0.97534297495E+03  0.95247519510E+02 0.  0.
        254    2    1    2    0    0 -0.11106089726E+03  0.94814175351E+03 -0.66443126779E+03  0.14718561828E+04  0.90198913828E+03 0.  0.
        -24    2    4    4    0    0 -0.24518412845E+03  0.10736937015E+04 -0.50010108925E+03  0.12123685646E+04  0.82480394015E+02 0.  0.
         24    2    4    4    0    0  0.13412323119E+03 -0.12555194798E+03 -0.16433017854E+03  0.25948761824E+03  0.81099221043E+02 0.  0.
         13    1    3    3    0    0 -0.14680217215E+02 -0.19229338466E+03  0.44748293395E+02  0.19797642365E+03  0.00000000000E+00 0. -1.
        -13    1    3    3    0    0  0.12574111448E+03 -0.75584836885E+03  0.13107696409E+03  0.77736655130E+03  0.00000000000E+00 0.  1.
          4    1    6    6  502    0 -0.61895344470E+00  0.38532380471E+01  0.56802290482E+01  0.68917014485E+01  0.00000000000E+00 0. -1.
          1    1    5    5  503    0 -0.44408360935E+02  0.25095417901E+03 -0.15196562064E+03  0.29672150637E+03  0.00000000000E+00 0. -1.
         -2    1    5    5    0  503 -0.20077576752E+03  0.82273952248E+03 -0.34813546861E+03  0.91564705819E+03  0.00000000000E+00 0.  1.
         -3    1    6    6    0  502  0.13474218463E+03 -0.12940518603E+03 -0.17001040759E+03  0.25259591679E+03  0.00000000000E+00 0.  1.
<mgrwt>
<rscale>  0 0.23979257E+04</rscale>
<asrwt>0</asrwt>
<pdfrwt beam="1">  1        2 0.22583117E+00 0.23979257E+04</pdfrwt>
<pdfrwt beam="2">  1       -2 0.15066101E+00 0.23979257E+04</pdfrwt>
<totfact> 0.35260225E+00</totfact>
</mgrwt>
</event>
<event>
12    1  0.2203477E-007  0.2911728E+04  0.7818608E-02  0.8269396E-01
         -2   -1    0    0    0  501 -0.00000000000E+00  0.00000000000E+00  0.11691780303E+04  0.11691780303E+04  0.00000000000E+00 0. -1.
          2   -1    0    0  501    0  0.00000000000E+00 -0.00000000000E+00 -0.18128468538E+04  0.18128468538E+04  0.00000000000E+00 0.  1.
         23    2    1    2    0    0 -0.10133062623E+04  0.51362539479E+03 -0.97218481087E+03  0.14982633477E+04  0.95126889667E+02 0.  0.
        254    2    1    2    0    0  0.10133062623E+04 -0.51362539479E+03  0.32851598742E+03  0.14837615364E+04  0.89611657485E+03 0.  0.
        -24    2    4    4    0    0  0.52650845116E+03  0.94361939692E+02 -0.15623469016E+03  0.56296333914E+03  0.80019485122E+02 0.  0.
         24    2    4    4    0    0  0.48679781111E+03 -0.60798733448E+03  0.48475067757E+03  0.92079819731E+03  0.79154235300E+02 0.  0.
         13    1    3    3    0    0 -0.50333154130E+03  0.28291554763E+03 -0.44025988018E+03  0.72609407769E+03  0.00000000000E+00 0. -1.
        -13    1    3    3    0    0 -0.50997472097E+03  0.23070984716E+03 -0.53192493069E+03  0.77216926998E+03  0.00000000000E+00 0.  1.
          2    1    6    6  502    0  0.33481142228E+03 -0.46947056160E+03  0.37306405372E+03  0.68678823874E+03  0.00000000000E+00 0. -1.
          3    1    5    5  503    0  0.52194426354E+03  0.83950856033E+02 -0.15726647246E+03  0.55154900402E+03  0.00000000000E+00 0. -1.
         -4    1    5    5    0  503  0.45641876218E+01  0.10411083660E+02  0.10317822996E+01  0.11414335124E+02  0.00000000000E+00 0.  1.
         -1    1    6    6    0  502  0.15198638883E+03 -0.13851677288E+03  0.11168662386E+03  0.23400995856E+03  0.00000000000E+00 0.  1.
<mgrwt>
<rscale>  0 0.29117285E+04</rscale>
<asrwt>0</asrwt>
<pdfrwt beam="1">  1        2 0.27889951E+00 0.29117285E+04</pdfrwt>
<pdfrwt beam="2">  1       -2 0.17987354E+00 0.29117285E+04</pdfrwt>
<totfact> 0.13299611E+00</totfact>
</mgrwt>
</event>
<event>
12    1  0.2048318E-007  0.1423626E+04  0.7818608E-02  0.8936893E-01
          2   -1    0    0  501    0  0.00000000000E+00  0.00000000000E+00  0.82174040579E+03  0.82174040579E+03  0.00000000000E+00 0.  1.
         -2   -1    0    0    0  501 -0.00000000000E+00 -0.00000000000E+00 -0.61659062912E+03  0.61659062912E+03  0.00000000000E+00 0. -1.
         23    2    1    2    0    0 -0.13657322031E+03 -0.39778350819E+03  0.40868756995E+02  0.43128316604E+03  0.86318886241E+02 0.  0.
        254    2    1    2    0    0  0.13657322031E+03  0.39778350819E+03  0.16428101968E+03  0.10070478689E+04  0.90015176102E+03 0.  0.
        -24    2    4    4    0    0  0.39818312385E+03  0.51564464369E+03  0.24136536954E+03  0.69940679913E+03  0.80457630956E+02 0.  0.
         24    2    4    4    0    0 -0.26160990354E+03 -0.11786113550E+03 -0.77084349865E+02  0.30764106974E+03  0.79812542281E+02 0.  0.
         11    1    3    3    0    0 -0.26116120301E+02 -0.18390384126E+03 -0.68737522734E+01  0.18587609594E+03  0.00000000000E+00 0. -1.
        -11    1    3    3    0    0 -0.11045710001E+03 -0.21387966692E+03  0.47742509269E+02  0.24540707010E+03  0.00000000000E+00 0.  1.
          4    1    6    6  502    0 -0.16846103026E+03 -0.10288153039E+03 -0.22570789386E+02  0.19867855582E+03  0.00000000000E+00 0. -1.
          3    1    5    5  503    0  0.37343223690E+03  0.44413478495E+03  0.22212759287E+03  0.62132761911E+03  0.00000000000E+00 0. -1.
         -4    1    5    5    0  503  0.24750886947E+02  0.71509858736E+02  0.19237776673E+02  0.78079180019E+02  0.00000000000E+00 0.  1.
         -3    1    6    6    0  502 -0.93148873281E+02 -0.14979605111E+02 -0.54513560479E+02  0.10896251392E+03  0.00000000000E+00 0.  1.
<mgrwt>
<rscale>  0 0.14236256E+04</rscale>
<asrwt>0</asrwt>
<pdfrwt beam="1">  1        2 0.12642160E+00 0.14236256E+04</pdfrwt>
<pdfrwt beam="2">  1       -2 0.94860097E-01 0.14236256E+04</pdfrwt>
<totfact> 0.30204729E+01</totfact>
</mgrwt>
</event>
<event>
12    1  0.2048318E-007  0.1829613E+04  0.7818608E-02  0.8690708E-01
         -1   -1    0    0    0  501 -0.00000000000E+00  0.00000000000E+00  0.61540485956E+03  0.61540485956E+03  0.00000000000E+00 0.  1.
          1   -1    0    0  501    0  0.00000000000E+00 -0.00000000000E+00 -0.13598712361E+04  0.13598712361E+04  0.00000000000E+00 0. -1.
         23    2    1    2    0    0  0.18829076513E+03 -0.24058703976E+02  0.43294338682E+03  0.48128887478E+03  0.90370190474E+02 0.  0.
        254    2    1    2    0    0 -0.18829076513E+03  0.24058703976E+02 -0.11774097634E+04  0.14939872209E+04  0.89981766587E+03 0.  0.
        -24    2    4    4    0    0  0.34344077322E+03 -0.92339319671E+02 -0.40292289955E+03  0.54382890997E+03  0.83216018103E+02 0.  0.
         24    2    4    4    0    0 -0.53173153835E+03  0.11639802365E+03 -0.77448686380E+03  0.95015831090E+03  0.81755640713E+02 0.  0.
         11    1    3    3    0    0  0.11161561564E+03 -0.13991235692E+02  0.14717246543E+03  0.18523912899E+03  0.00000000000E+00 0. -1.
        -11    1    3    3    0    0  0.76675149496E+02 -0.10067468283E+02  0.28577092139E+03  0.29604974579E+03  0.00000000000E+00 0.  1.
          4    1    6    6  502    0 -0.97227750962E+02  0.18986731294E+02 -0.91634070796E+02  0.13494641326E+03  0.00000000000E+00 0. -1.
          3    1    5    5  503    0  0.60860721051E+02 -0.31156853882E+02 -0.12664994927E+03  0.14392701818E+03  0.00000000000E+00 0. -1.
         -4    1    5    5    0  503  0.28258005216E+03 -0.61182465790E+02 -0.27627295028E+03  0.39990189179E+03  0.00000000000E+00 0.  1.
         -3    1    6    6    0  502 -0.43450378739E+03  0.97411292353E+02 -0.68285279301E+03  0.81521189764E+03  0.00000000000E+00 0.  1.
<mgrwt>
<rscale>  0 0.18296135E+04</rscale>
<asrwt>0</asrwt>
<pdfrwt beam="1">  1        1 0.20921096E+00 0.18296135E+04</pdfrwt>
<pdfrwt beam="2">  1       -1 0.94677670E-01 0.18296135E+04</pdfrwt>
<totfact> 0.83280863E+00</totfact>
</mgrwt>
</event>
<event>
12    1  0.2048318E-007  0.2069187E+04  0.7818608E-02  0.8574939E-01
         -2   -1    0    0    0  501 -0.00000000000E+00  0.00000000000E+00  0.31355892013E+03  0.31355892013E+03  0.00000000000E+00 0. -1.
          2   -1    0    0  501    0  0.00000000000E+00 -0.00000000000E+00 -0.34136618150E+04  0.34136618150E+04  0.00000000000E+00 0.  1.
         23    2    1    2    0    0  0.72496434509E+03  0.30480490688E+03 -0.75470505187E+03  0.10942216671E+04  0.96239329540E+02 0.  0.
        254    2    1    2    0    0 -0.72496434509E+03 -0.30480490688E+03 -0.23453978430E+04  0.26329990680E+04  0.90183907510E+03 0.  0.
        -24    2    4    4    0    0 -0.75785336165E+03 -0.49603124637E+03 -0.21901478341E+04  0.23715232050E+04  0.83582662786E+02 0.  0.
         24    2    4    4    0    0  0.32889016566E+02  0.19122633949E+03 -0.15525000894E+03  0.26147586306E+03  0.81350238858E+02 0.  0.
         11    1    3    3    0    0  0.36959054511E+03  0.19799874081E+03 -0.43843395352E+03  0.60665064411E+03  0.00000000000E+00 0.  1.
        -11    1    3    3    0    0  0.35537379997E+03  0.10680616606E+03 -0.31627109835E+03  0.48757102300E+03  0.00000000000E+00 0. -1.
          2    1    6    6  502    0  0.27530902483E+01  0.14470024310E+03 -0.72488791775E+02  0.16186526740E+03  0.00000000000E+00 0. -1.
          3    1    5    5  503    0 -0.50608343546E+03 -0.36597528812E+03 -0.15717817731E+04  0.16913179173E+04  0.00000000000E+00 0. -1.
         -4    1    5    5    0  503 -0.25176992620E+03 -0.13005595825E+03 -0.61836606098E+03  0.68020528768E+03  0.00000000000E+00 0.  1.
         -1    1    6    6    0  502  0.30135926318E+02  0.46526096387E+02 -0.82761217162E+02  0.99610595652E+02  0.00000000000E+00 0.  1.
<mgrwt>
<rscale>  0 0.20691874E+04</rscale>
<asrwt>0</asrwt>
<pdfrwt beam="1">  1        2 0.52517869E+00 0.20691874E+04</pdfrwt>
<pdfrwt beam="2">  1       -2 0.48239839E-01 0.20691874E+04</pdfrwt>
<totfact> 0.35241502E+00</totfact>
</mgrwt>
</event>
<event>
12    1  0.2048318E-007  0.3559710E+04  0.7818608E-02  0.8099783E-01
         -1   -1    0    0    0  501 -0.00000000000E+00  0.00000000000E+00  0.13806797483E+04  0.13806797483E+04  0.00000000000E+00 0.  1.
          1   -1    0    0  501    0  0.00000000000E+00 -0.00000000000E+00 -0.22944377686E+04  0.22944377686E+04  0.00000000000E+00 0. -1.
         23    2    1    2    0    0  0.16238696560E+04 -0.31703068620E+03 -0.23151027698E+03  0.16731525789E+04  0.91550140269E+02 0.  0.
        254    2    1    2    0    0 -0.16238696560E+04  0.31703068620E+03 -0.68224774331E+03  0.20019649379E+04  0.89718477119E+03 0.  0.
        -24    2    4    4    0    0 -0.14897445846E+04  0.12671946871E+03 -0.26978190407E+03  0.15214289881E+04  0.81037886616E+02 0.  0.
         24    2    4    4    0    0 -0.13412507146E+03  0.19031121748E+03 -0.41246583923E+03  0.48053594982E+03  0.81110025529E+02 0.  0.
         13    1    3    3    0    0  0.59369205264E+03 -0.11899049105E+03 -0.40390091217E+02  0.60684458455E+03  0.00000000000E+00 0.  1.
        -13    1    3    3    0    0  0.10301776034E+04 -0.19804019515E+03 -0.19112018577E+03  0.10663079944E+04  0.00000000000E+00 0. -1.
          2    1    6    6  502    0 -0.75998992812E+02  0.10750594057E+03 -0.15187858305E+03  0.20099870188E+03  0.00000000000E+00 0. -1.
          1    1    5    5  503    0 -0.15584970111E+03  0.31491134148E+02 -0.11409087032E+02  0.15940824362E+03  0.00000000000E+00 0. -1.
         -2    1    5    5    0  503 -0.13338948835E+04  0.95228334565E+02 -0.25837281704E+03  0.13620207445E+04  0.00000000000E+00 0.  1.
         -1    1    6    6    0  502 -0.58126078650E+02  0.82805276911E+02 -0.26058725618E+03  0.27953724794E+03  0.00000000000E+00 0.  1.
<mgrwt>
<rscale>  0 0.35597100E+04</rscale>
<asrwt>0</asrwt>
<pdfrwt beam="1">  1        1 0.35299042E+00 0.35597100E+04</pdfrwt>
<pdfrwt beam="2">  1       -1 0.21241227E+00 0.35597100E+04</pdfrwt>
<totfact> 0.18870014E-01</totfact>
</mgrwt>
</event>
<event>
12    1  0.2048318E-007  0.1722602E+04  0.7818608E-02  0.8748577E-01
          1   -1    0    0  501    0  0.00000000000E+00  0.00000000000E+00  0.55344824158E+03  0.55344824158E+03  0.00000000000E+00 0. -1.
         -1   -1    0    0    0  501 -0.00000000000E+00 -0.00000000000E+00 -0.13403959828E+04  0.13403959828E+04  0.00000000000E+00 0.  1.
         23    2    1    2    0    0 -0.43738608806E+03  0.44185392459E+03 -0.21975223672E+03  0.66539583943E+03  0.88989307741E+02 0.  0.
        254    2    1    2    0    0  0.43738608806E+03 -0.44185392459E+03 -0.56719550450E+03  0.12284483850E+04  0.89489285027E+03 0.  0.
        -24    2    4    4    0    0  0.19409797318E+03 -0.32520282813E+03  0.18275673028E+03  0.42771178655E+03  0.78143760288E+02 0.  0.
         24    2    4    4    0    0  0.24328811488E+03 -0.11665109645E+03 -0.74995223477E+03  0.80073659840E+03  0.77163206517E+02 0.  0.
         11    1    3    3    0    0 -0.30809450002E+03  0.36379669597E+03 -0.17569196224E+03  0.50807275319E+03  0.00000000000E+00 0.  1.
        -11    1    3    3    0    0 -0.12929158804E+03  0.78057228616E+02 -0.44060274483E+02  0.15732308624E+03  0.00000000000E+00 0. -1.
          4    1    6    6  502    0  0.20769647553E+03 -0.74577908994E+02 -0.65216341015E+03  0.68848878277E+03  0.00000000000E+00 0. -1.
          1    1    5    5  503    0  0.18533939922E+03 -0.28707508487E+03  0.18491588475E+03  0.38853144234E+03  0.00000000000E+00 0. -1.
         -2    1    5    5    0  503  0.87585739604E+01 -0.38127743261E+02 -0.21591544696E+01  0.39180344205E+02  0.00000000000E+00 0.  1.
         -3    1    6    6    0  502  0.35591639350E+02 -0.42073187458E+02 -0.97788824622E+02  0.11224781564E+03  0.00000000000E+00 0.  1.
<mgrwt>
<rscale>  0 0.17226024E+04</rscale>
<asrwt>0</asrwt>
<pdfrwt beam="1">  1        1 0.85145884E-01 0.17226024E+04</pdfrwt>
<pdfrwt beam="2">  1       -1 0.20621477E+00 0.17226024E+04</pdfrwt>
<totfact> 0.49810289E+00</totfact>
</mgrwt>
</event>
<event>
12    1  0.2048318E-007  0.1668420E+04  0.7818608E-02  0.8779584E-01
         -2   -1    0    0    0  501 -0.00000000000E+00  0.00000000000E+00  0.13446494542E+03  0.13446494542E+03  0.00000000000E+00 0.  1.
          2   -1    0    0  501    0  0.00000000000E+00 -0.00000000000E+00 -0.51753711943E+04  0.51753711943E+04  0.00000000000E+00 0. -1.
         23    2    1    2    0    0  0.50611363588E+03 -0.29734545654E+03 -0.17889728341E+04  0.18850306220E+04  0.91385511527E+02 0.  0.
        254    2    1    2    0    0 -0.50611363588E+03  0.29734545654E+03 -0.32519334147E+04  0.34248055177E+04  0.89980918375E+03 0.  0.
        -24    2    4    4    0    0 -0.27661357688E+03 -0.30799373164E+03 -0.13405135617E+04  0.14051859828E+04  0.78713578572E+02 0.  0.
         24    2    4    4    0    0 -0.22950005900E+03  0.60533918817E+03 -0.19114198530E+04  0.20196195349E+04  0.78939225900E+02 0.  0.
         13    1    3    3    0    0  0.16843240052E+03 -0.11607405388E+03 -0.75832144333E+03  0.78542604422E+03  0.00000000000E+00 0. -1.
        -13    1    3    3    0    0  0.33768123536E+03 -0.18127140266E+03 -0.10306513908E+04  0.10996045778E+04  0.00000000000E+00 0.  1.
          2    1    6    6  502    0 -0.25344657527E+02  0.11420353742E+03 -0.42931838951E+03  0.44497087455E+03  0.00000000000E+00 0. -1.
          3    1    5    5  503    0 -0.16163912524E+02  0.20126940189E+01 -0.61046917873E+02  0.63182665242E+02  0.00000000000E+00 0. -1.
         -4    1    5    5    0  503 -0.26044966436E+03 -0.31000642566E+03 -0.12794666438E+04  0.13420033175E+04  0.00000000000E+00 0.  1.
         -3    1    6    6    0  502 -0.20415540147E+03  0.49113565075E+03 -0.14821014635E+04  0.15746486604E+04  0.00000000000E+00 0.  1.
<mgrwt>
<rscale>  0 0.16684196E+04</rscale>
<asrwt>0</asrwt>
<pdfrwt beam="1">  1        2 0.79621090E+00 0.16684196E+04</pdfrwt>
<pdfrwt beam="2">  1       -2 0.20686916E-01 0.16684196E+04</pdfrwt>
<totfact> 0.40259865E-01</totfact>
</mgrwt>
</event>
<event>
12    1  0.2048318E-007  0.2361416E+04  0.7818608E-02  0.8454092E-01
          2   -1    0    0  501    0  0.00000000000E+00  0.00000000000E+00  0.39974952920E+04  0.39974952920E+04  0.00000000000E+00 0. -1.
         -2   -1    0    0    0  501 -0.00000000000E+00 -0.00000000000E+00 -0.34873626702E+03  0.34873626702E+03  0.00000000000E+00 0.  1.
         23    2    1    2    0    0 -0.91097414768E+03 -0.28045241012E+03  0.21583998496E+04  0.23611243581E+04  0.87697614384E+02 0.  0.
        254    2    1    2    0    0  0.91097414768E+03  0.28045241012E+03  0.14903591754E+04  0.19851072009E+04  0.90052910859E+03 0.  0.
        -24    2    4    4    0    0  0.10764672418E+04  0.23037022352E+03  0.11454256428E+04  0.15912189240E+04  0.90142101084E+02 0.  0.
         24    2    4    4    0    0 -0.16549309411E+03  0.50082186602E+02  0.34493353262E+03  0.39388827694E+03  0.79200020063E+02 0.  0.
         11    1    3    3    0    0 -0.62901870938E+03 -0.20104729892E+03  0.15901290597E+04  0.17217999244E+04  0.00000000000E+00 0. -1.
        -11    1    3    3    0    0 -0.28195543830E+03 -0.79405111206E+02  0.56827078987E+03  0.63932443367E+03  0.00000000000E+00 0.  1.
          2    1    6    6  502    0 -0.13198039212E+03  0.64458236440E+02  0.31160116490E+03  0.34448363403E+03  0.00000000000E+00 0. -1.
          1    1    5    5  503    0  0.50330664454E+03  0.76644184425E+02  0.57678472604E+03  0.76933252215E+03  0.00000000000E+00 0. -1.
         -2    1    5    5    0  503  0.57316059725E+03  0.15372603910E+03  0.56864091674E+03  0.82188640183E+03  0.00000000000E+00 0.  1.
         -1    1    6    6    0  502 -0.33512701993E+02 -0.14376049838E+02  0.33332367719E+02  0.49404642916E+02  0.00000000000E+00 0.  1.
<mgrwt>
<rscale>  0 0.23614162E+04</rscale>
<asrwt>0</asrwt>
<pdfrwt beam="1">  1        2 0.61499924E+00 0.23614162E+04</pdfrwt>
<pdfrwt beam="2">  1       -2 0.53651736E-01 0.23614162E+04</pdfrwt>
<totfact> 0.10200925E+00</totfact>
</mgrwt>
</event>
<event>
12    1  0.2048318E-007  0.1110897E+04  0.7818608E-02  0.9194636E-01
         -1   -1    0    0    0  501 -0.00000000000E+00  0.00000000000E+00  0.23445657097E+03  0.23445657097E+03  0.00000000000E+00 0.  1.
          1   -1    0    0  501    0  0.00000000000E+00 -0.00000000000E+00 -0.13159059897E+04  0.13159059897E+04  0.00000000000E+00 0. -1.
         23    2    1    2    0    0  0.48101348281E+02 -0.68982613616E+02 -0.40168860425E+03  0.41912510154E+03  0.85086868988E+02 0.  0.
        254    2    1    2    0    0 -0.48101348281E+02  0.68982613616E+02 -0.67976081451E+03  0.11312374592E+04  0.90030610537E+03 0.  0.
        -24    2    4    4    0    0  0.20725934168E+03 -0.33276308150E+03 -0.43589065791E+03  0.59151861066E+03  0.78777522066E+02 0.  0.
         24    2    4    4    0    0 -0.25536068996E+03  0.40174569512E+03 -0.24387015660E+03  0.53971884849E+03  0.72215625813E+02 0.  0.
         13    1    3    3    0    0  0.34451907839E+02 -0.58665510377E+01 -0.46797198828E+02  0.58406576625E+02  0.00000000000E+00 0.  1.
        -13    1    3    3    0    0  0.13649440442E+02 -0.63116062578E+02 -0.35489140542E+03  0.36071852492E+03  0.00000000000E+00 0. -1.
          2    1    6    6  502    0 -0.24854124287E+03  0.34990749880E+03 -0.21698386217E+03  0.48092619347E+03  0.00000000000E+00 0. -1.
          1    1    5    5  503    0  0.80435484640E+02 -0.12115242840E+03 -0.10779154851E+03  0.18101601042E+03  0.00000000000E+00 0. -1.
         -2    1    5    5    0  503  0.12682385704E+03 -0.21161065310E+03 -0.32809910940E+03  0.41050260025E+03  0.00000000000E+00 0.  1.
         -1    1    6    6    0  502 -0.68194470934E+01  0.51838196317E+02 -0.26886294431E+02  0.58792655019E+02  0.00000000000E+00 0.  1.
<mgrwt>
<rscale>  0 0.11108966E+04</rscale>
<asrwt>0</asrwt>
<pdfrwt beam="1">  1        1 0.20244708E+00 0.11108966E+04</pdfrwt>
<pdfrwt beam="2">  1       -1 0.36070242E-01 0.11108966E+04</pdfrwt>
<totfact> 0.64457199E+01</totfact>
</mgrwt>
</event>
<event>
12    1  0.2048318E-007  0.2462492E+04  0.7818608E-02  0.8416471E-01
          1   -1    0    0  501    0  0.00000000000E+00  0.00000000000E+00  0.12381352135E+04  0.12381352135E+04  0.00000000000E+00 0. -1.
         -1   -1    0    0    0  501 -0.00000000000E+00 -0.00000000000E+00 -0.12243954840E+04  0.12243954840E+04  0.00000000000E+00 0.  1.
         23    2    1    2    0    0 -0.41663508969E+02 -0.94854231923E+03 -0.47531272945E+03  0.10656376189E+04  0.90514997074E+02 0.  0.
        254    2    1    2    0    0  0.41663508969E+02  0.94854231923E+03  0.48905245891E+03  0.13968930786E+04  0.90037191548E+03 0.  0.
        -24    2    4    4    0    0 -0.90600171749E+02  0.59429851684E+03 -0.17259979452E+03  0.63058568673E+03  0.80302559129E+02 0.  0.
         24    2    4    4    0    0  0.13226368072E+03  0.35424380239E+03  0.66165225342E+03  0.76630739189E+03  0.80380107192E+02 0.  0.
         11    1    3    3    0    0  0.69306306009E+01 -0.11975937694E+02 -0.16683022666E+02  0.21674408169E+02  0.00000000000E+00 0. -1.
        -11    1    3    3    0    0 -0.48594139570E+02 -0.93656638153E+03 -0.45862970679E+03  0.10439632107E+04  0.00000000000E+00 0.  1.
          4    1    6    6  502    0  0.27143153052E+02  0.18755077664E+03  0.32597656491E+03  0.37705803989E+03  0.00000000000E+00 0. -1.
          3    1    5    5  503    0 -0.12119918839E+01  0.18951615673E+02 -0.22221517441E+02  0.29230608929E+02  0.00000000000E+00 0. -1.
         -4    1    5    5    0  503 -0.89388179865E+02  0.57534690117E+03 -0.15037827708E+03  0.60135507780E+03  0.00000000000E+00 0.  1.
         -1    1    6    6    0  502  0.10512052767E+03  0.16669302574E+03  0.33567568851E+03  0.38924935199E+03  0.00000000000E+00 0.  1.
<mgrwt>
<rscale>  0 0.24624924E+04</rscale>
<asrwt>0</asrwt>
<pdfrwt beam="1">  1        1 0.19048234E+00 0.24624924E+04</pdfrwt>
<pdfrwt beam="2">  1       -1 0.18836854E+00 0.24624924E+04</pdfrwt>
<totfact> 0.16209322E+00</totfact>
</mgrwt>
</event>
<event>
12    1  0.2048318E-007  0.1172519E+04  0.7818608E-02  0.9137256E-01
          2   -1    0    0  501    0  0.00000000000E+00  0.00000000000E+00  0.18287305852E+04  0.18287305852E+04  0.00000000000E+00 0. -1.
         -2   -1    0    0    0  501 -0.00000000000E+00 -0.00000000000E+00 -0.18794482405E+03  0.18794482405E+03  0.00000000000E+00 0.  1.
         23    2    1    2    0    0 -0.21301480855E+03  0.99775648893E+01  0.20749546370E+03  0.31151668953E+03  0.92268195693E+02 0.  0.
        254    2    1    2    0    0  0.21301480855E+03 -0.99775648893E+01  0.14332902974E+04  0.17051587197E+04  0.89876043650E+03 0.  0.
        -24    2    4    4    0    0  0.40855738110E+03 -0.29212985158E+03  0.52515439333E+03  0.73107924975E+03  0.80191949415E+02 0.  0.
         24    2    4    4    0    0 -0.19554257254E+03  0.28215228669E+03  0.90813590412E+03  0.97407946997E+03  0.79203427369E+02 0.  0.
         13    1    3    3    0    0 -0.12826456164E+03 -0.36912136999E+02  0.99682185474E+02  0.16658583892E+03  0.00000000000E+00 0.  1.
        -13    1    3    3    0    0 -0.84750246919E+02  0.46889701889E+02  0.10781327822E+03  0.14493085061E+03  0.00000000000E+00 0. -1.
          4    1    6    6  502    0 -0.14692077074E+03  0.23460221702E+03  0.63701050616E+03  0.69455474807E+03  0.00000000000E+00 0. -1.
          1    1    5    5  503    0  0.24372669794E+03 -0.22124513646E+03  0.33675244005E+03  0.47090797357E+03  0.00000000000E+00 0. -1.
         -2    1    5    5    0  503  0.16483068316E+03 -0.70884715114E+02  0.18840195328E+03  0.26017127617E+03  0.00000000000E+00 0.  1.
         -3    1    6    6    0  502 -0.48621801799E+02  0.47550069668E+02  0.27112539796E+03  0.27952472190E+03  0.00000000000E+00 0.  1.
<mgrwt>
<rscale>  0 0.11725194E+04</rscale>
<asrwt>0</asrwt>
<pdfrwt beam="1">  1        2 0.28134315E+00 0.11725194E+04</pdfrwt>
<pdfrwt beam="2">  1       -2 0.28914590E-01 0.11725194E+04</pdfrwt>
<totfact> 0.90341287E+01</totfact>
</mgrwt>
</event>
<event>
12    1  0.2048318E-007  0.1568660E+04  0.7818608E-02  0.8840036E-01
         -1   -1    0    0    0  501 -0.00000000000E+00  0.00000000000E+00  0.29264886694E+03  0.29264886694E+03  0.00000000000E+00 0.  1.
          1   -1    0    0  501    0  0.00000000000E+00 -0.00000000000E+00 -0.21020887053E+04  0.21020887053E+04  0.00000000000E+00 0. -1.
         23    2    1    2    0    0  0.47316164982E+03 -0.21194122770E+03 -0.67243903371E+03  0.85400191035E+03  0.91345377374E+02 0.  0.
        254    2    1    2    0    0 -0.47316164982E+03  0.21194122770E+03 -0.11370008046E+04  0.15407356618E+04  0.90127383139E+03 0.  0.
        -24    2    4    4    0    0 -0.84795576008E+01  0.84405428032E+02 -0.10343504298E+04  0.10411647372E+04  0.83348780284E+02 0.  0.
         24    2    4    4    0    0 -0.46468209222E+03  0.12753579967E+03 -0.10265037482E+03  0.49957092467E+03  0.82699348834E+02 0.  0.
         11    1    3    3    0    0  0.17533723720E+03 -0.10707059982E+03 -0.20764086570E+03  0.29209927970E+03  0.00000000000E+00 0.  1.
        -11    1    3    3    0    0  0.29782441262E+03 -0.10487062788E+03 -0.46479816801E+03  0.56190263065E+03  0.00000000000E+00 0. -1.
          2    1    6    6  502    0 -0.53325895791E+02  0.29279939415E+02  0.10577463140E+02  0.61748269130E+02  0.00000000000E+00 0. -1.
          3    1    5    5  503    0  0.25535858174E+02  0.46314002855E+01 -0.12363600842E+03  0.12633048919E+03  0.00000000000E+00 0. -1.
         -4    1    5    5    0  503 -0.34015415774E+02  0.79774027746E+02 -0.91071442136E+03  0.91483424798E+03  0.00000000000E+00 0.  1.
         -1    1    6    6    0  502 -0.41135619643E+03  0.98255860253E+02 -0.11322783796E+03  0.43782265554E+03  0.00000000000E+00 0.  1.
<mgrwt>
<rscale>  0 0.15686604E+04</rscale>
<asrwt>0</asrwt>
<pdfrwt beam="1">  1        1 0.32339827E+00 0.15686604E+04</pdfrwt>
<pdfrwt beam="2">  1       -1 0.45022902E-01 0.15686604E+04</pdfrwt>
<totfact> 0.11964622E+01</totfact>
</mgrwt>
</event>
<event>
12    1  0.2493684E-007  0.2614762E+04  0.7818608E-02  0.8363204E-01
          2   -1    0    0  501    0  0.00000000000E+00  0.00000000000E+00  0.19421253747E+04  0.19421253747E+04  0.00000000000E+00 0. -1.
         -2   -1    0    0    0  501 -0.00000000000E+00 -0.00000000000E+00 -0.88009029944E+03  0.88009029944E+03  0.00000000000E+00 0.  1.
         23    2    1    2    0    0 -0.11426318603E+04  0.96739435910E+02  0.37079999032E+03  0.12086447254E+04  0.91451368565E+02 0.  0.
        254    2    1    2    0    0  0.11426318603E+04 -0.96739435910E+02  0.69123508493E+03  0.16135709487E+04  0.90046608885E+03 0.  0.
        -24    2    4    4    0    0  0.69740157272E+03 -0.44519993744E+02  0.87515282556E+03  0.11227041405E+04  0.78874174668E+02 0.  0.
         24    2    4    4    0    0  0.44523028760E+03 -0.52219442165E+02 -0.18391774062E+03  0.49086680825E+03  0.78534126264E+02 0.  0.
         13    1    3    3    0    0 -0.48063561558E+03  0.40575343074E+02  0.20359275825E+03  0.52355225588E+03  0.00000000000E+00 0. -1.
        -13    1    3    3    0    0 -0.66199624474E+03  0.56164092835E+02  0.16720723207E+03  0.68509246955E+03  0.00000000000E+00 0.  1.
          2    1    6    6  502    0  0.30404969056E+03 -0.69559624869E+02 -0.14097413793E+03  0.34228418501E+03  0.00000000000E+00 0. -1.
          1    1    5    5  503    0  0.61340930197E+03 -0.53504340333E+02  0.73249481090E+03  0.95691291881E+03  0.00000000000E+00 0. -1.
         -2    1    5    5    0  503  0.83992270747E+02  0.89843465889E+01  0.14265801465E+03  0.16579122164E+03  0.00000000000E+00 0.  1.
         -1    1    6    6    0  502  0.14118059704E+03  0.17340182704E+02 -0.42943602691E+02  0.14858262324E+03  0.00000000000E+00 0.  1.
<mgrwt>
<rscale>  0 0.26147625E+04</rscale>
<asrwt>0</asrwt>
<pdfrwt beam="1">  1        2 0.29878852E+00 0.26147625E+04</pdfrwt>
<pdfrwt beam="2">  1       -2 0.13539851E+00 0.26147625E+04</pdfrwt>
<totfact> 0.24891824E+00</totfact>
</mgrwt>
</event>
<event>
12    1  0.2048318E-007  0.1987270E+04  0.7818608E-02  0.8612596E-01
          1   -1    0    0  501    0  0.00000000000E+00  0.00000000000E+00  0.34575754057E+04  0.34575754057E+04  0.00000000000E+00 0. -1.
         -1   -1    0    0    0  501 -0.00000000000E+00 -0.00000000000E+00 -0.28554983589E+03  0.28554983589E+03  0.00000000000E+00 0.  1.
         23    2    1    2    0    0 -0.38929426542E+03  0.65931018807E+03  0.15904105683E+04  0.17674914834E+04  0.91544627212E+02 0.  0.
        254    2    1    2    0    0  0.38929426542E+03 -0.65931018807E+03  0.15816150015E+04  0.19756337582E+04  0.90298548410E+03 0.  0.
        -24    2    4    4    0    0  0.37094381095E+03  0.51816822512E+02  0.93782964249E+03  0.10129838215E+04  0.79545523266E+02 0.  0.
         24    2    4    4    0    0  0.18350454471E+02 -0.71112701058E+03  0.64378535900E+03  0.96264993674E+03  0.78720695385E+02 0.  0.
         11    1    3    3    0    0 -0.19186615360E+03  0.41102325002E+03  0.91140405844E+03  0.10180422834E+04  0.00000000000E+00 0. -1.
        -11    1    3    3    0    0 -0.19742811181E+03  0.24828693805E+03  0.67900650989E+03  0.74944920002E+03  0.00000000000E+00 0.  1.
          2    1    6    6  502    0 -0.27582058957E+02 -0.13813638917E+03  0.12913639699E+03  0.19109851129E+03  0.00000000000E+00 0. -1.
          3    1    5    5  503    0 -0.89748489238E+00 -0.12512201767E+01 -0.97865146097E+00  0.18244971211E+01  0.00000000000E+00 0. -1.
         -4    1    5    5    0  503  0.37184129584E+03  0.53068042689E+02  0.93880829395E+03  0.10111593244E+04  0.00000000000E+00 0.  1.
         -1    1    6    6    0  502  0.45932513428E+02 -0.57299062141E+03  0.51464896201E+03  0.77155142545E+03  0.00000000000E+00 0.  1.
<mgrwt>
<rscale>  0 0.19872696E+04</rscale>
<asrwt>0</asrwt>
<pdfrwt beam="1">  1        1 0.53193465E+00 0.19872696E+04</pdfrwt>
<pdfrwt beam="2">  1       -1 0.43930747E-01 0.19872696E+04</pdfrwt>
<totfact> 0.12890796E+00</totfact>
</mgrwt>
</event>
<event>
12    1  0.2048318E-007  0.4753731E+04  0.7818608E-02  0.7867662E-01
         -1   -1    0    0    0  501 -0.00000000000E+00  0.00000000000E+00  0.14596519326E+04  0.14596519326E+04  0.00000000000E+00 0. -1.
          1   -1    0    0  501    0  0.00000000000E+00 -0.00000000000E+00 -0.38704358675E+04  0.38704358675E+04  0.00000000000E+00 0.  1.
         23    2    1    2    0    0 -0.15201656062E+04  0.17137669667E+04 -0.11276505386E+04  0.25549469662E+04  0.90871207367E+02 0.  0.
        254    2    1    2    0    0  0.15201656062E+04 -0.17137669667E+04 -0.12831333963E+04  0.27751408339E+04  0.89837333472E+03 0.  0.
        -24    2    4    4    0    0  0.20470343633E+03 -0.57482159372E+03 -0.58064162778E+01  0.61506263669E+03  0.77103638845E+02 0.  0.
         24    2    4    4    0    0  0.13154621699E+04 -0.11389453730E+04 -0.12773269800E+04  0.21600781972E+04  0.82075093256E+02 0.  0.
         11    1    3    3    0    0 -0.68994050139E+03  0.81977390921E+03 -0.56717926255E+03  0.12123281212E+04  0.00000000000E+00 0. -1.
        -11    1    3    3    0    0 -0.83022510484E+03  0.89399305753E+03 -0.56047127607E+03  0.13426188450E+04  0.00000000000E+00 0.  1.
          4    1    6    6  502    0  0.45892552776E+03 -0.44896371801E+03 -0.46252278047E+03  0.79127010722E+03  0.00000000000E+00 0. -1.
          1    1    5    5  503    0  0.15391413829E+03 -0.49933949313E+03  0.10533353805E+02  0.52262839849E+03  0.00000000000E+00 0. -1.
         -2    1    5    5    0  503  0.50789298032E+02 -0.75482100596E+02 -0.16339770083E+02  0.92434238199E+02  0.00000000000E+00 0.  1.
         -3    1    6    6    0  502  0.85653664214E+03 -0.68998165500E+03 -0.81480419958E+03  0.13688080900E+04  0.00000000000E+00 0.  1.
<mgrwt>
<rscale>  0 0.47537308E+04</rscale>
<asrwt>0</asrwt>
<pdfrwt beam="1">  1        1 0.59545168E+00 0.47537308E+04</pdfrwt>
<pdfrwt beam="2">  1       -1 0.22456183E+00 0.47537308E+04</pdfrwt>
<totfact> 0.93582203E-03</totfact>
</mgrwt>
</event>
<event>
12    1  0.2048318E-007  0.2497924E+04  0.7818608E-02  0.8403725E-01
         -2   -1    0    0    0  501 -0.00000000000E+00  0.00000000000E+00  0.12724750546E+04  0.12724750546E+04  0.00000000000E+00 0.  1.
          2   -1    0    0  501    0  0.00000000000E+00 -0.00000000000E+00 -0.12258836252E+04  0.12258836252E+04  0.00000000000E+00 0. -1.
         23    2    1    2    0    0  0.51768210665E+03  0.92004288994E+03  0.27152288309E+03  0.10938853141E+04  0.91579045428E+02 0.  0.
        254    2    1    2    0    0 -0.51768210665E+03 -0.92004288994E+03 -0.22493145372E+03  0.14044733657E+04  0.89859757025E+03 0.  0.
        -24    2    4    4    0    0 -0.54086284374E+03 -0.34027719296E+03  0.20748737546E+03  0.67653586597E+03  0.79552392602E+02 0.  0.
         24    2    4    4    0    0  0.23180737094E+02 -0.57976569697E+03 -0.43241882918E+03  0.72793749974E+03  0.79002213580E+02 0.  0.
         11    1    3    3    0    0  0.25967230582E+03  0.50667031658E+03  0.18745117755E+03  0.59940175182E+03  0.00000000000E+00 0.  1.
        -11    1    3    3    0    0  0.25800980083E+03  0.41337257335E+03  0.84071705532E+02  0.49448356231E+03  0.00000000000E+00 0. -1.
          4    1    6    6  502    0  0.81498857257E+01 -0.47185363913E+03 -0.38528120982E+03  0.60922400481E+03  0.00000000000E+00 0. -1.
          3    1    5    5  503    0 -0.50545282596E+03 -0.31732386641E+03  0.17118630386E+03  0.62087176300E+03  0.00000000000E+00 0. -1.
         -4    1    5    5    0  503 -0.35410017786E+02 -0.22953326556E+02  0.36301071603E+02  0.55664102967E+02  0.00000000000E+00 0.  1.
         -3    1    6    6    0  502  0.15030851369E+02 -0.10791205784E+03 -0.47137619354E+02  0.11871349493E+03  0.00000000000E+00 0.  1.
<mgrwt>
<rscale>  0 0.24979242E+04</rscale>
<asrwt>0</asrwt>
<pdfrwt beam="1">  1        2 0.18859748E+00 0.24979242E+04</pdfrwt>
<pdfrwt beam="2">  1       -2 0.19576539E+00 0.24979242E+04</pdfrwt>
<totfact> 0.23129155E+00</totfact>
</mgrwt>
</event>
<event>
12    1  0.2048318E-007  0.2113919E+04  0.7818608E-02  0.8555137E-01
         -2   -1    0    0    0  501 -0.00000000000E+00  0.00000000000E+00  0.48159656102E+03  0.48159656102E+03  0.00000000000E+00 0.  1.
          2   -1    0    0  501    0  0.00000000000E+00 -0.00000000000E+00 -0.23197083700E+04  0.23197083700E+04  0.00000000000E+00 0. -1.
         23    2    1    2    0    0  0.35199818935E+03 -0.29457699108E+03  0.21020859383E+03  0.51323483670E+03  0.92433845007E+02 0.  0.
        254    2    1    2    0    0 -0.35199818935E+03  0.29457699108E+03 -0.20483204028E+04  0.22880700944E+04  0.91047787178E+03 0.  0.
        -24    2    4    4    0    0  0.30177572664E+03  0.83618417706E+02 -0.55543767667E+03  0.64258937925E+03  0.79683553391E+02 0.  0.
         24    2    4    4    0    0 -0.65377391600E+03  0.21095857337E+03 -0.14928827262E+04  0.16454807151E+04  0.83570908724E+02 0.  0.
         11    1    3    3    0    0  0.18859309951E+03 -0.10047682808E+03  0.11105826026E+03  0.24082542918E+03  0.00000000000E+00 0.  1.
        -11    1    3    3    0    0  0.16340508984E+03 -0.19410016300E+03  0.99150333567E+02  0.27240940752E+03  0.00000000000E+00 0. -1.
          2    1    6    6  502    0 -0.29340460178E+03  0.13799344222E+03 -0.68463636585E+03  0.75753244412E+03  0.00000000000E+00 0. -1.
          3    1    5    5  503    0  0.14038004435E+03 -0.55016570053E+00 -0.22075070645E+03  0.26160606631E+03  0.00000000000E+00 0. -1.
         -4    1    5    5    0  503  0.16139568229E+03  0.84168583407E+02 -0.33468697023E+03  0.38098331294E+03  0.00000000000E+00 0.  1.
         -1    1    6    6    0  502 -0.36036931422E+03  0.72965131147E+02 -0.80824636032E+03  0.88794827099E+03  0.00000000000E+00 0.  1.
<mgrwt>
<rscale>  0 0.21139192E+04</rscale>
<asrwt>0</asrwt>
<pdfrwt beam="1">  1        2 0.35687821E+00 0.21139192E+04</pdfrwt>
<pdfrwt beam="2">  1       -2 0.74091779E-01 0.21139192E+04</pdfrwt>
<totfact> 0.66720710E+00</totfact>
</mgrwt>
</event>
<event>
12    1  0.2702066E-007  0.2639679E+04  0.7818608E-02  0.8354847E-01
          2   -1    0    0  501    0  0.00000000000E+00  0.00000000000E+00  0.34443769131E+04  0.34443769131E+04  0.00000000000E+00 0. -1.
         -2   -1    0    0    0  501 -0.00000000000E+00 -0.00000000000E+00 -0.50574510837E+03  0.50574510837E+03  0.00000000000E+00 0.  1.
         23    2    1    2    0    0  0.10242400909E+04  0.44922153637E+03  0.17940552358E+04  0.21158981888E+04  0.86736404298E+02 0.  0.
        254    2    1    2    0    0 -0.10242400909E+04 -0.44922153637E+03  0.11445765690E+04  0.18342238327E+04  0.89635584104E+03 0.  0.
        -24    2    4    4    0    0 -0.65104619442E+03 -0.21667279912E+03  0.10004268971E+03  0.69802867161E+03  0.80170053434E+02 0.  0.
         24    2    4    4    0    0 -0.37319389643E+03 -0.23254873725E+03  0.10445338792E+04  0.11361951611E+04  0.80844416369E+02 0.  0.
         13    1    3    3    0    0  0.66961025613E+03  0.30176409893E+03  0.10999687699E+04  0.13226378043E+04  0.00000000000E+00 0.  1.
        -13    1    3    3    0    0  0.35462983472E+03  0.14745743744E+03  0.69408646589E+03  0.79326038452E+03  0.00000000000E+00 0. -1.
          4    1    6    6  502    0  0.28601320096E+01 -0.92872712383E+01  0.20690811254E+02  0.22859208921E+02  0.00000000000E+00 0. -1.
          3    1    5    5  503    0 -0.88330877738E+02 -0.45779280725E+02  0.38677882351E+02  0.10674298613E+03  0.00000000000E+00 0. -1.
         -4    1    5    5    0  503 -0.56271531669E+03 -0.17089351840E+03  0.61364807362E+02  0.59128568547E+03  0.00000000000E+00 0.  1.
         -3    1    6    6    0  502 -0.37605402844E+03 -0.22326146601E+03  0.10238430680E+04  0.11133359522E+04  0.00000000000E+00 0.  1.
<mgrwt>
<rscale>  0 0.26396794E+04</rscale>
<asrwt>0</asrwt>
<pdfrwt beam="1">  1        2 0.52990412E+00 0.26396794E+04</pdfrwt>
<pdfrwt beam="2">  1       -2 0.77806942E-01 0.26396794E+04</pdfrwt>
<totfact> 0.11533117E+00</totfact>
</mgrwt>
</event>
<event>
12    1  0.2048318E-007  0.1950376E+04  0.7818608E-02  0.8630179E-01
          2   -1    0    0  501    0  0.00000000000E+00  0.00000000000E+00  0.20294296330E+04  0.20294296330E+04  0.00000000000E+00 0. -1.
         -2   -1    0    0    0  501 -0.00000000000E+00 -0.00000000000E+00 -0.46860053568E+03  0.46860053568E+03  0.00000000000E+00 0.  1.
         23    2    1    2    0    0 -0.50433317005E+03 -0.56346002215E+03  0.73438786645E+03  0.10608906680E+04  0.11968428518E+03 0.  0.
        254    2    1    2    0    0  0.50433317005E+03  0.56346002215E+03  0.82644123088E+03  0.14371395007E+04  0.90029200446E+03 0.  0.
        -24    2    4    4    0    0 -0.24612600737E+03  0.77714665796E+02  0.26274534227E+03  0.37720547309E+03  0.81432630191E+02 0.  0.
         24    2    4    4    0    0  0.75045917742E+03  0.48574535636E+03  0.56369588862E+03  0.10599340276E+04  0.81052820942E+02 0.  0.
         11    1    3    3    0    0 -0.17022090663E+03 -0.27697452171E+03  0.29523925718E+03  0.43915402960E+03  0.00000000000E+00 0.  1.
        -11    1    3    3    0    0 -0.33411226342E+03 -0.28648550044E+03  0.43914860926E+03  0.62173663842E+03  0.00000000000E+00 0. -1.
          4    1    6    6  502    0  0.21247875433E+03  0.95462156850E+02  0.15042806466E+03  0.27728838250E+03  0.00000000000E+00 0. -1.
          3    1    5    5  503    0 -0.17722603561E+01  0.10215984017E+02  0.34721941010E+02  0.36237003514E+02  0.00000000000E+00 0. -1.
         -4    1    5    5    0  503 -0.24435374701E+03  0.67498681778E+02  0.22802340126E+03  0.34096846957E+03  0.00000000000E+00 0.  1.
         -3    1    6    6    0  502  0.53798042309E+03  0.39028319951E+03  0.41326782396E+03  0.78264564508E+03  0.00000000000E+00 0.  1.
<mgrwt>
<rscale>  0 0.19503762E+04</rscale>
<asrwt>0</asrwt>
<pdfrwt beam="1">  1        2 0.31221994E+00 0.19503762E+04</pdfrwt>
<pdfrwt beam="2">  1       -2 0.72092391E-01 0.19503762E+04</pdfrwt>
<totfact> 0.10457363E+01</totfact>
</mgrwt>
</event>
<event>
12    1  0.2048318E-007  0.2006280E+04  0.7818608E-02  0.8603690E-01
          2   -1    0    0  501    0  0.00000000000E+00  0.00000000000E+00  0.66954985484E+03  0.66954985484E+03  0.00000000000E+00 0. -1.
         -2   -1    0    0    0  501 -0.00000000000E+00 -0.00000000000E+00 -0.15029352351E+04  0.15029352351E+04  0.00000000000E+00 0.  1.
         23    2    1    2    0    0 -0.30256926715E+03 -0.63903982752E+03 -0.73276796325E+03  0.10223426813E+04  0.91189952407E+02 0.  0.
        254    2    1    2    0    0  0.30256926715E+03  0.63903982752E+03 -0.10061741702E+03  0.11501424087E+04  0.90154513643E+03 0.  0.
        -24    2    4    4    0    0  0.47006966057E+02 -0.15654867459E+03 -0.23789474627E+03  0.29971236361E+03  0.80724520567E+02 0.  0.
         24    2    4    4    0    0  0.25556230109E+03  0.79558850211E+03  0.13727732925E+03  0.85043004506E+03  0.78185944928E+02 0.  0.
         11    1    3    3    0    0 -0.27152964842E+03 -0.61792188519E+03 -0.68596062456E+03  0.96233974490E+03  0.00000000000E+00 0. -1.
        -11    1    3    3    0    0 -0.31039618726E+02 -0.21117942332E+02 -0.46807338683E+02  0.60002936374E+02  0.00000000000E+00 0.  1.
          4    1    6    6  502    0  0.19451902367E+03  0.56839183819E+03  0.13215781265E+03  0.61512000433E+03  0.00000000000E+00 0. -1.
          1    1    5    5  503    0  0.37564337845E+02 -0.12438442980E+03 -0.23166776836E+03  0.26561724483E+03  0.00000000000E+00 0. -1.
         -2    1    5    5    0  503  0.94426282119E+01 -0.32164244787E+02 -0.62269779110E+01  0.34095118773E+02  0.00000000000E+00 0.  1.
         -3    1    6    6    0  502  0.61043277419E+02  0.22719666392E+03  0.51195166026E+01  0.23531004073E+03  0.00000000000E+00 0.  1.
<mgrwt>
<rscale>  0 0.20062802E+04</rscale>
<asrwt>0</asrwt>
<pdfrwt beam="1">  1        2 0.10300767E+00 0.20062802E+04</pdfrwt>
<pdfrwt beam="2">  1       -2 0.23122080E+00 0.20062802E+04</pdfrwt>
<totfact> 0.33788992E+00</totfact>
</mgrwt>
</event>
<event>
12    1  0.2048318E-007  0.2798789E+04  0.7818608E-02  0.8303644E-01
         -2   -1    0    0    0  501 -0.00000000000E+00  0.00000000000E+00  0.71757327925E+03  0.71757327925E+03  0.00000000000E+00 0.  1.
          2   -1    0    0  501    0  0.00000000000E+00 -0.00000000000E+00 -0.27290667957E+04  0.27290667957E+04  0.00000000000E+00 0. -1.
         23    2    1    2    0    0  0.72849123837E+03  0.75617523886E+03 -0.61108941093E+02  0.10564821164E+04  0.99597607528E+02 0.  0.
        254    2    1    2    0    0 -0.72849123837E+03 -0.75617523886E+03 -0.19503845754E+04  0.23901579585E+04  0.89797249323E+03 0.  0.
        -24    2    4    4    0    0 -0.30314835695E+01 -0.29320056717E+03 -0.12240224195E+04  0.12611945227E+04  0.80031107739E+02 0.  0.
         24    2    4    4    0    0 -0.72545975480E+03 -0.46297467170E+03 -0.72636215593E+03  0.11289634359E+04  0.79492486928E+02 0.  0.
         11    1    3    3    0    0  0.39213791681E+03  0.45553947018E+03 -0.70966807735E+02  0.60524758776E+03  0.00000000000E+00 0. -1.
        -11    1    3    3    0    0  0.33635332156E+03  0.30063576868E+03  0.98578666422E+01  0.45123452868E+03  0.00000000000E+00 0.  1.
          2    1    6    6  502    0 -0.61036731707E+03 -0.40215624898E+03 -0.64932928277E+03  0.97770467310E+03  0.00000000000E+00 0. -1.
          1    1    5    5  503    0  0.26666323530E+02 -0.17681983727E+03 -0.84018191045E+03  0.85900057644E+03  0.00000000000E+00 0. -1.
         -2    1    5    5    0  503 -0.29697807100E+02 -0.11638072990E+03 -0.38384050901E+03  0.40219394624E+03  0.00000000000E+00 0.  1.
         -1    1    6    6    0  502 -0.11509243773E+03 -0.60818422720E+02 -0.77032873155E+02  0.15125876276E+03  0.00000000000E+00 0.  1.
<mgrwt>
<rscale>  0 0.27987893E+04</rscale>
<asrwt>0</asrwt>
<pdfrwt beam="1">  1        2 0.41985643E+00 0.27987893E+04</pdfrwt>
<pdfrwt beam="2">  1       -2 0.11039589E+00 0.27987893E+04</pdfrwt>
<totfact> 0.14456473E+00</totfact>
</mgrwt>
</event>
<event>
12    1  0.2048318E-007  0.2669894E+04  0.7818608E-02  0.8344840E-01
         -2   -1    0    0    0  501 -0.00000000000E+00  0.00000000000E+00  0.12316720176E+04  0.12316720176E+04  0.00000000000E+00 0.  1.
          2   -1    0    0  501    0  0.00000000000E+00 -0.00000000000E+00 -0.14468811973E+04  0.14468811973E+04  0.00000000000E+00 0. -1.
         23    2    1    2    0    0  0.40322575164E+03 -0.49827732483E+03 -0.10926104096E+04  0.12699521665E+04  0.90053865332E+02 0.  0.
        254    2    1    2    0    0 -0.40322575164E+03  0.49827732483E+03  0.87740122992E+03  0.14086010485E+04  0.89635522892E+03 0.  0.
        -24    2    4    4    0    0 -0.21831060709E+03 -0.90833911391E+02  0.72658643994E+03  0.76833130662E+03  0.80590454752E+02 0.  0.
         24    2    4    4    0    0 -0.18491514456E+03  0.58911123622E+03  0.15081478998E+03  0.64026974190E+03  0.77165939313E+02 0.  0.
         13    1    3    3    0    0  0.20061262776E+03 -0.26353558615E+03 -0.47780064844E+03  0.58136898028E+03  0.00000000000E+00 0. -1.
        -13    1    3    3    0    0  0.20261312389E+03 -0.23474173868E+03 -0.61480976117E+03  0.68858318617E+03  0.00000000000E+00 0.  1.
          4    1    6    6  502    0 -0.51593169816E+01  0.10974790553E+03  0.17667511333E+02  0.11128055659E+03  0.00000000000E+00 0. -1.
          1    1    5    5  503    0 -0.81258761236E+02 -0.51278147012E+02  0.18743017283E+03  0.21062408297E+03  0.00000000000E+00 0. -1.
         -2    1    5    5    0  503 -0.13705184585E+03 -0.39555764380E+02  0.53915626712E+03  0.55770722365E+03  0.00000000000E+00 0.  1.
         -3    1    6    6    0  502 -0.17975582757E+03  0.47936333070E+03  0.13314727864E+03  0.52898918531E+03  0.00000000000E+00 0.  1.
<mgrwt>
<rscale>  0 0.26698937E+04</rscale>
<asrwt>0</asrwt>
<pdfrwt beam="1">  1        2 0.22259711E+00 0.26698937E+04</pdfrwt>
<pdfrwt beam="2">  1       -2 0.18948800E+00 0.26698937E+04</pdfrwt>
<totfact> 0.18696608E+00</totfact>
</mgrwt>
</event>
<event>
12    1  0.2048318E-007  0.1582611E+04  0.7818608E-02  0.8831303E-01
          2   -1    0    0  501    0  0.00000000000E+00  0.00000000000E+00  0.14230254334E+04  0.14230254334E+04  0.00000000000E+00 0.  1.
         -2   -1    0    0    0  501 -0.00000000000E+00 -0.00000000000E+00 -0.44002325021E+03  0.44002325021E+03  0.00000000000E+00 0. -1.
         23    2    1    2    0    0 -0.94710684154E+02  0.48929975438E+03  0.56680880837E+03  0.76015331050E+03  0.90423818162E+02 0.  0.
        254    2    1    2    0    0  0.94710684154E+02 -0.48929975438E+03  0.41619337483E+03  0.11028953731E+04  0.89150261663E+03 0.  0.
        -24    2    4    4    0    0 -0.33126616203E+03 -0.38741746861E+03  0.40810370582E+03  0.65778772963E+03  0.79413458992E+02 0.  0.
         24    2    4    4    0    0  0.42597684618E+03 -0.10188228577E+03  0.80896690121E+01  0.44510764348E+03  0.78861257332E+02 0.  0.
         13    1    3    3    0    0 -0.11094156055E+03  0.40767001103E+03  0.48873417552E+03  0.64603712128E+03  0.00000000000E+00 0.  1.
        -13    1    3    3    0    0  0.16230876392E+02  0.81629743352E+02  0.78074632847E+02  0.11411618922E+03  0.00000000000E+00 0. -1.
          2    1    6    6  502    0  0.24555073340E+03 -0.23571248986E+02 -0.14623030517E+02  0.24711252391E+03  0.00000000000E+00 0. -1.
          1    1    5    5  503    0 -0.15950906261E+03 -0.24443286626E+03  0.24578605207E+03  0.38157745027E+03  0.00000000000E+00 0. -1.
         -2    1    5    5    0  503 -0.17175709941E+03 -0.14298460235E+03  0.16231765375E+03  0.27621027937E+03  0.00000000000E+00 0.  1.
         -1    1    6    6    0  502  0.18042611278E+03 -0.78311036783E+02  0.22712699529E+02  0.19799511957E+03  0.00000000000E+00 0.  1.
<mgrwt>
<rscale>  0 0.15826109E+04</rscale>
<asrwt>0</asrwt>
<pdfrwt beam="1">  1        2 0.21892699E+00 0.15826109E+04</pdfrwt>
<pdfrwt beam="2">  1       -2 0.67695885E-01 0.15826109E+04</pdfrwt>
<totfact> 0.26951757E+01</totfact>
</mgrwt>
</event>
<event>
12    1  0.2048318E-007  0.3400142E+04  0.7818608E-02  0.8137871E-01
          1   -1    0    0  501    0  0.00000000000E+00  0.00000000000E+00  0.23415081117E+04  0.23415081117E+04  0.00000000000E+00 0. -1.
         -1   -1    0    0    0  501 -0.00000000000E+00 -0.00000000000E+00 -0.12343505244E+04  0.12343505244E+04  0.00000000000E+00 0.  1.
         23    2    1    2    0    0 -0.23562462469E+03  0.12573792787E+04  0.14902488107E+04  0.19661861308E+04  0.92329675820E+02 0.  0.
        254    2    1    2    0    0  0.23562462469E+03 -0.12573792787E+04 -0.38309122340E+03  0.16096725053E+04  0.89875751724E+03 0.  0.
        -24    2    4    4    0    0 -0.19998524727E+03 -0.57742316542E+03 -0.49518747595E+03  0.79041274308E+03  0.78294680460E+02 0.  0.
         24    2    4    4    0    0  0.43560987197E+03 -0.67995611323E+03  0.11209625255E+03  0.81925976225E+03  0.80775687713E+02 0.  0.
         11    1    3    3    0    0 -0.21354109309E+03  0.94324716047E+03  0.11490780778E+04  0.15018972778E+04  0.00000000000E+00 0.  1.
        -11    1    3    3    0    0 -0.22083531600E+02  0.31413211818E+03  0.34117073292E+03  0.46428885302E+03  0.00000000000E+00 0. -1.
          2    1    6    6  502    0  0.11842122483E+03 -0.12602927896E+03  0.33124229973E+02  0.17608003934E+03  0.00000000000E+00 0. -1.
          3    1    5    5  503    0 -0.23300434775E+02 -0.54066574378E+02 -0.21277086790E+02  0.62600472426E+02  0.00000000000E+00 0. -1.
         -4    1    5    5    0  503 -0.17668481250E+03 -0.52335659104E+03 -0.47391038916E+03  0.72781227065E+03  0.00000000000E+00 0.  1.
         -3    1    6    6    0  502  0.31718864714E+03 -0.55392683428E+03  0.78972022576E+02  0.64317972290E+03  0.00000000000E+00 0.  1.
<mgrwt>
<rscale>  0 0.34001422E+04</rscale>
<asrwt>0</asrwt>
<pdfrwt beam="1">  1        1 0.36023202E+00 0.34001422E+04</pdfrwt>
<pdfrwt beam="2">  1       -1 0.18990008E+00 0.34001422E+04</pdfrwt>
<totfact> 0.25376652E-01</totfact>
</mgrwt>
</event>
<event>
12    1  0.2048318E-007  0.1672377E+04  0.7818608E-02  0.8777278E-01
          2   -1    0    0  501    0  0.00000000000E+00  0.00000000000E+00  0.10491087552E+04  0.10491087552E+04  0.00000000000E+00 0.  1.
         -2   -1    0    0    0  501 -0.00000000000E+00 -0.00000000000E+00 -0.66648093280E+03  0.66648093280E+03  0.00000000000E+00 0. -1.
         23    2    1    2    0    0 -0.44260079977E+03  0.28891777438E+03  0.40843043634E+03  0.67418789113E+03  0.91350659035E+02 0.  0.
        254    2    1    2    0    0  0.44260079977E+03 -0.28891777438E+03 -0.25802613941E+02  0.10414017969E+04  0.89692975162E+03 0.  0.
        -24    2    4    4    0    0  0.57433421274E+03 -0.38579345466E+03  0.22376457075E+03  0.73170718078E+03  0.81415217889E+02 0.  0.
         24    2    4    4    0    0 -0.13173341297E+03  0.96875680281E+02 -0.24956718469E+03  0.30969461609E+03  0.82996301363E+02 0.  0.
         11    1    3    3    0    0 -0.57267160502E+02  0.21800278280E+02  0.84197776599E+02  0.10413474631E+03  0.00000000000E+00 0.  1.
        -11    1    3    3    0    0 -0.38533363927E+03  0.26711749610E+03  0.32423265975E+03  0.57005314482E+03  0.00000000000E+00 0. -1.
          2    1    6    6  502    0 -0.89189804838E+02  0.38919249667E+02 -0.19985271246E+03  0.22228503314E+03  0.00000000000E+00 0. -1.
          3    1    5    5  503    0  0.54043527954E+03 -0.36414451523E+03  0.22987442649E+03  0.69102371254E+03  0.00000000000E+00 0. -1.
         -4    1    5    5    0  503  0.33898933206E+02 -0.21648939430E+02 -0.61098557460E+01  0.40683468242E+02  0.00000000000E+00 0.  1.
         -1    1    6    6    0  502 -0.42543608137E+02  0.57956430614E+02 -0.49714472231E+02  0.87409582953E+02  0.00000000000E+00 0.  1.
<mgrwt>
<rscale>  0 0.16723767E+04</rscale>
<asrwt>0</asrwt>
<pdfrwt beam="1">  1        2 0.16140135E+00 0.16723767E+04</pdfrwt>
<pdfrwt beam="2">  1       -2 0.10253553E+00 0.16723767E+04</pdfrwt>
<totfact> 0.17395496E+01</totfact>
</mgrwt>
</event>
<event>
12    1  0.2048318E-007  0.2336134E+04  0.7818608E-02  0.8463809E-01
          1   -1    0    0  501    0  0.00000000000E+00  0.00000000000E+00  0.17603948792E+04  0.17603948792E+04  0.00000000000E+00 0. -1.
         -1   -1    0    0    0  501 -0.00000000000E+00 -0.00000000000E+00 -0.77504223469E+03  0.77504223469E+03  0.00000000000E+00 0.  1.
         23    2    1    2    0    0  0.89729304645E+03 -0.37765933416E+03  0.63143525212E+03  0.11638902789E+04  0.90380970499E+02 0.  0.
        254    2    1    2    0    0 -0.89729304645E+03  0.37765933416E+03  0.35391739234E+03  0.13715468349E+04  0.89895595885E+03 0.  0.
        -24    2    4    4    0    0 -0.84989567934E+03  0.16977179285E+03  0.58361034455E+03  0.10483606448E+04  0.85521224145E+02 0.  0.
         24    2    4    4    0    0 -0.47397367108E+02  0.20788754130E+03 -0.22969295221E+03  0.32318619019E+03  0.78909574806E+02 0.  0.
         13    1    3    3    0    0  0.62752228221E+03 -0.22639450864E+03  0.45923476745E+03  0.80989830216E+03  0.00000000000E+00 0. -1.
        -13    1    3    3    0    0  0.26977076424E+03 -0.15126482552E+03  0.17220048467E+03  0.35399197675E+03  0.00000000000E+00 0.  1.
          2    1    6    6  502    0 -0.30840910968E+02  0.43648578962E+02 -0.99522997302E+02  0.11296542492E+03  0.00000000000E+00 0. -1.
          1    1    5    5  503    0 -0.14439274843E+03  0.43296599467E+02  0.13807280704E+03  0.20442103944E+03  0.00000000000E+00 0. -1.
         -2    1    5    5    0  503 -0.70550293091E+03  0.12647519339E+03  0.44553753752E+03  0.84393960531E+03  0.00000000000E+00 0.  1.
         -1    1    6    6    0  502 -0.16556456140E+02  0.16423896234E+03 -0.13016995491E+03  0.21022076527E+03  0.00000000000E+00 0.  1.
<mgrwt>
<rscale>  0 0.23361339E+04</rscale>
<asrwt>0</asrwt>
<pdfrwt beam="1">  1        1 0.27082998E+00 0.23361339E+04</pdfrwt>
<pdfrwt beam="2">  1       -1 0.11923727E+00 0.23361339E+04</pdfrwt>
<totfact> 0.24560275E+00</totfact>
</mgrwt>
</event>
<event>
12    1  0.2048318E-007  0.1785415E+04  0.7818608E-02  0.8714094E-01
         -1   -1    0    0    0  501 -0.00000000000E+00  0.00000000000E+00  0.10144830851E+04  0.10144830851E+04  0.00000000000E+00 0.  1.
          1   -1    0    0  501    0  0.00000000000E+00 -0.00000000000E+00 -0.78554946606E+03  0.78554946606E+03  0.00000000000E+00 0. -1.
         23    2    1    2    0    0  0.57448610187E+03 -0.17487105597E+03 -0.19433341981E+03  0.63780565267E+03  0.91740967215E+02 0.  0.
        254    2    1    2    0    0 -0.57448610187E+03  0.17487105597E+03  0.42326703887E+03  0.11622268985E+04  0.90055661120E+03 0.  0.
        -24    2    4    4    0    0 -0.43141695939E+03  0.45068971972E+03 -0.23506777044E+01  0.62923362418E+03  0.81777819755E+02 0.  0.
         24    2    4    4    0    0 -0.14306914248E+03 -0.27581866375E+03  0.42561771657E+03  0.53299327433E+03  0.79916675489E+02 0.  0.
         11    1    3    3    0    0  0.32862096392E+03 -0.14624769512E+03 -0.10595473861E+03  0.37497537638E+03  0.00000000000E+00 0. -1.
        -11    1    3    3    0    0  0.24586513795E+03 -0.28623360851E+02 -0.88378681200E+02  0.26283027630E+03  0.00000000000E+00 0.  1.
          2    1    6    6  502    0 -0.10931088867E+03 -0.25820826066E+03  0.39350580289E+03  0.48318442976E+03  0.00000000000E+00 0. -1.
          3    1    5    5  503    0 -0.38230918334E+03  0.37034331524E+03  0.19256112304E+02  0.53262114178E+03  0.00000000000E+00 0. -1.
         -4    1    5    5    0  503 -0.49107776048E+02  0.80346404475E+02 -0.21606790009E+02  0.96612482398E+02  0.00000000000E+00 0.  1.
         -1    1    6    6    0  502 -0.33758253812E+02 -0.17610403090E+02  0.32111913686E+02  0.49808844576E+02  0.00000000000E+00 0.  1.
<mgrwt>
<rscale>  0 0.17854150E+04</rscale>
<asrwt>0</asrwt>
<pdfrwt beam="1">  1        1 0.12085376E+00 0.17854150E+04</pdfrwt>
<pdfrwt beam="2">  1       -1 0.15607432E+00 0.17854150E+04</pdfrwt>
<totfact> 0.67346396E+00</totfact>
</mgrwt>
</event>
<event>
12    1  0.2048318E-007  0.2212818E+04  0.7818608E-02  0.8513112E-01
         -2   -1    0    0    0  501 -0.00000000000E+00  0.00000000000E+00  0.13156201044E+04  0.13156201044E+04  0.00000000000E+00 0.  1.
          2   -1    0    0  501    0  0.00000000000E+00 -0.00000000000E+00 -0.93046671023E+03  0.93046671023E+03  0.00000000000E+00 0. -1.
         23    2    1    2    0    0  0.64100224840E+03 -0.21454295261E+03 -0.47418272639E+03  0.83070493839E+03  0.91153034451E+02 0.  0.
        254    2    1    2    0    0 -0.64100224840E+03  0.21454295261E+03  0.85933612060E+03  0.14153818763E+04  0.89885189357E+03 0.  0.
        -24    2    4    4    0    0  0.18963212785E+02  0.37034330083E+03  0.94804076238E+02  0.39063619353E+03  0.78070858310E+02 0.  0.
         24    2    4    4    0    0 -0.65996546118E+03 -0.15580034822E+03  0.76453204436E+03  0.10247456827E+04  0.75936216613E+02 0.  0.
         13    1    3    3    0    0  0.35020842225E+03 -0.16433359416E+03 -0.27691030286E+03  0.47574235150E+03  0.00000000000E+00 0. -1.
        -13    1    3    3    0    0  0.29079382615E+03 -0.50209358446E+02 -0.19727242353E+03  0.35496258688E+03  0.00000000000E+00 0.  1.
          4    1    6    6  502    0 -0.44077026335E+03 -0.12870879457E+03  0.55474442304E+03  0.72012898410E+03  0.00000000000E+00 0. -1.
          3    1    5    5  503    0 -0.26909210861E+02  0.99665509231E+02  0.39814155245E+02  0.11064576954E+03  0.00000000000E+00 0. -1.
         -4    1    5    5    0  503  0.45872423646E+02  0.27067779160E+03  0.54989920994E+02  0.27999042399E+03  0.00000000000E+00 0.  1.
         -3    1    6    6    0  502 -0.21919519784E+03 -0.27091553655E+02  0.20978762132E+03  0.30461669865E+03  0.00000000000E+00 0.  1.
<mgrwt>
<rscale>  0 0.22128179E+04</rscale>
<asrwt>0</asrwt>
<pdfrwt beam="1">  1        2 0.14314872E+00 0.22128179E+04</pdfrwt>
<pdfrwt beam="2">  1       -2 0.20240309E+00 0.22128179E+04</pdfrwt>
<totfact> 0.32748410E+00</totfact>
</mgrwt>
</event>
<event>
12    1  0.2048318E-007  0.1577952E+04  0.7818608E-02  0.8834209E-01
          2   -1    0    0  501    0  0.00000000000E+00  0.00000000000E+00  0.28052969818E+04  0.28052969818E+04  0.00000000000E+00 0. -1.
         -2   -1    0    0    0  501 -0.00000000000E+00 -0.00000000000E+00 -0.22189562897E+03  0.22189562897E+03  0.00000000000E+00 0.  1.
         23    2    1    2    0    0  0.37297313717E+03  0.34966643450E+03  0.11001428606E+04  0.12165702180E+04  0.91395869517E+02 0.  0.
        254    2    1    2    0    0 -0.37297313717E+03 -0.34966643450E+03  0.14832584922E+04  0.18106223928E+04  0.90383744012E+03 0.  0.
        -24    2    4    4    0    0 -0.34270726477E+03  0.48903980965E+02  0.13281322474E+04  0.13747270121E+04  0.78097518069E+02 0.  0.
         24    2    4    4    0    0 -0.30265872402E+02 -0.39857041546E+03  0.15512624472E+03  0.43589538071E+03  0.78525358987E+02 0.  0.
         13    1    3    3    0    0  0.13763179584E+03  0.16574361942E+03  0.37778759294E+03  0.43489875142E+03  0.00000000000E+00 0.  1.
        -13    1    3    3    0    0  0.23534134133E+03  0.18392281507E+03  0.72235526770E+03  0.78167146655E+03  0.00000000000E+00 0. -1.
          4    1    6    6  502    0  0.26729855160E+02 -0.11757723002E+03  0.49501906046E+02  0.13034311979E+03  0.00000000000E+00 0. -1.
          1    1    5    5  503    0 -0.21766603271E+03  0.52047701035E+02  0.72482415562E+03  0.75858916519E+03  0.00000000000E+00 0. -1.
         -2    1    5    5    0  503 -0.12504123206E+03 -0.31437200699E+01  0.60330809183E+03  0.61613784688E+03  0.00000000000E+00 0.  1.
         -3    1    6    6    0  502 -0.56995727562E+02 -0.28099318545E+03  0.10562433868E+03  0.30555226091E+03  0.00000000000E+00 0.  1.
<mgrwt>
<rscale>  0 0.15779520E+04</rscale>
<asrwt>0</asrwt>
<pdfrwt beam="1">  1        2 0.43158413E+00 0.15779520E+04</pdfrwt>
<pdfrwt beam="2">  1       -2 0.34137791E-01 0.15779520E+04</pdfrwt>
<totfact> 0.17794836E+01</totfact>
</mgrwt>
</event>
<event>
12    1  0.2048318E-007  0.2478757E+04  0.7818608E-02  0.8410593E-01
         -1   -1    0    0    0  501 -0.00000000000E+00  0.00000000000E+00  0.80649759430E+03  0.80649759430E+03  0.00000000000E+00 0.  1.
          1   -1    0    0  501    0  0.00000000000E+00 -0.00000000000E+00 -0.19046052225E+04  0.19046052225E+04  0.00000000000E+00 0. -1.
         23    2    1    2    0    0  0.79318518942E+03 -0.59303118318E+03 -0.93346448308E+03  0.13630717381E+04  0.76025608327E+02 0.  0.
        254    2    1    2    0    0 -0.79318518942E+03  0.59303118318E+03 -0.16464314516E+03  0.13480310787E+04  0.89958417896E+03 0.  0.
        -24    2    4    4    0    0 -0.43887775553E+03  0.78791575098E+03 -0.22157835209E+03  0.93211764943E+03  0.79507429331E+02 0.  0.
         24    2    4    4    0    0 -0.35430743388E+03 -0.19488456780E+03  0.56935206930E+02  0.41591342930E+03  0.78921545911E+02 0.  0.
         13    1    3    3    0    0  0.42187443445E+03 -0.29213982591E+03 -0.52867229265E+03  0.73676190818E+03  0.00000000000E+00 0. -1.
        -13    1    3    3    0    0  0.37131075497E+03 -0.30089135727E+03 -0.40479219042E+03  0.62630982992E+03  0.00000000000E+00 0.  1.
          4    1    6    6  502    0 -0.26587778732E+03 -0.10636917737E+03  0.30047399486E+02  0.28793792022E+03  0.00000000000E+00 0. -1.
          1    1    5    5  503    0 -0.27902719584E+03  0.54289511637E+03 -0.11754285451E+03  0.62161692870E+03  0.00000000000E+00 0. -1.
         -2    1    5    5    0  503 -0.15985055969E+03  0.24502063461E+03 -0.10403549758E+03  0.31050072073E+03  0.00000000000E+00 0.  1.
         -3    1    6    6    0  502 -0.88429646563E+02 -0.88515390429E+02  0.26887807443E+02  0.12797550908E+03  0.00000000000E+00 0.  1.
<mgrwt>
<rscale>  0 0.24787574E+04</rscale>
<asrwt>0</asrwt>
<pdfrwt beam="1">  1        1 0.29301618E+00 0.24787574E+04</pdfrwt>
<pdfrwt beam="2">  1       -1 0.12407655E+00 0.24787574E+04</pdfrwt>
<totfact> 0.17548177E+00</totfact>
</mgrwt>
</event>
<event>
12    1  0.2048318E-007  0.1339860E+04  0.7818608E-02  0.8998540E-01
         -2   -1    0    0    0  501 -0.00000000000E+00  0.00000000000E+00  0.14602678512E+04  0.14602678512E+04  0.00000000000E+00 0.  1.
          2   -1    0    0  501    0  0.00000000000E+00 -0.00000000000E+00 -0.30734504626E+03  0.30734504626E+03  0.00000000000E+00 0. -1.
         23    2    1    2    0    0 -0.33655853916E+03  0.11354119738E+03  0.39028476761E+03  0.53566110909E+03  0.91909576128E+02 0.  0.
        254    2    1    2    0    0  0.33655853916E+03 -0.11354119738E+03  0.76263803730E+03  0.12319517883E+04  0.89995843186E+03 0.  0.
        -24    2    4    4    0    0 -0.20284912599E+03 -0.54596111136E+02 -0.70615532037E+02  0.23440003953E+03  0.76343446980E+02 0.  0.
         24    2    4    4    0    0  0.53940766515E+03 -0.58945086239E+02  0.83325356933E+03  0.99755174881E+03  0.79767338756E+02 0.  0.
         13    1    3    3    0    0 -0.27622644229E+02  0.24928235975E+02  0.11595454235E+02  0.38972836463E+02  0.00000000000E+00 0. -1.
        -13    1    3    3    0    0 -0.30893589493E+03  0.88612961400E+02  0.37868931337E+03  0.49668827263E+03  0.00000000000E+00 0.  1.
          4    1    6    6  502    0  0.67780294957E+02 -0.19028447638E+02  0.68822971576E+02  0.98452280931E+02  0.00000000000E+00 0. -1.
          3    1    5    5  503    0 -0.13536392268E+03  0.12472276429E+01 -0.50837383548E+02  0.14460078390E+03  0.00000000000E+00 0. -1.
         -4    1    5    5    0  503 -0.67485203318E+02 -0.55843338779E+02 -0.19778148489E+02  0.89799255624E+02  0.00000000000E+00 0.  1.
         -3    1    6    6    0  502  0.47162737020E+03 -0.39916638602E+02  0.76443059776E+03  0.89909946788E+03  0.00000000000E+00 0.  1.
<mgrwt>
<rscale>  0 0.13398598E+04</rscale>
<asrwt>0</asrwt>
<pdfrwt beam="1">  1        2 0.47283854E-01 0.13398598E+04</pdfrwt>
<pdfrwt beam="2">  1       -2 0.22465659E+00 0.13398598E+04</pdfrwt>
<totfact> 0.96480344E+00</totfact>
</mgrwt>
</event>
<event>
12    1  0.2048318E-007  0.1908265E+04  0.7818608E-02  0.8650753E-01
          2   -1    0    0  501    0  0.00000000000E+00  0.00000000000E+00  0.19227612550E+04  0.19227612550E+04  0.00000000000E+00 0.  1.
         -2   -1    0    0    0  501 -0.00000000000E+00 -0.00000000000E+00 -0.47346931332E+03  0.47346931332E+03  0.00000000000E+00 0. -1.
         23    2    1    2    0    0 -0.43716180678E+03  0.53043276616E+03  0.22997905352E+03  0.73049291853E+03  0.90885500764E+02 0.  0.
        254    2    1    2    0    0  0.43716180678E+03 -0.53043276616E+03  0.12193128881E+04  0.16657376497E+04  0.90304409301E+03 0.  0.
        -24    2    4    4    0    0  0.35677768967E+03 -0.62827571178E+03  0.39433215935E+03  0.82723365958E+03  0.82443834199E+02 0.  0.
         24    2    4    4    0    0  0.80384117112E+02  0.97842945619E+02  0.82498072876E+03  0.83850399015E+03  0.80379664019E+02 0.  0.
         13    1    3    3    0    0 -0.34766750301E+03  0.46114969750E+03  0.16803138929E+03  0.60147010228E+03  0.00000000000E+00 0. -1.
        -13    1    3    3    0    0 -0.89494303769E+02  0.69283068655E+02  0.61947664224E+02  0.12902281625E+03  0.00000000000E+00 0.  1.
          2    1    6    6  502    0  0.20523915660E+01 -0.77008302159E+01  0.90675280605E+01  0.12072081937E+02  0.00000000000E+00 0. -1.
          1    1    5    5  503    0  0.14158292449E+03 -0.25411917515E+03  0.11332844169E+03  0.31219483561E+03  0.00000000000E+00 0. -1.
         -2    1    5    5    0  503  0.21519476517E+03 -0.37415653662E+03  0.28100371766E+03  0.51503882397E+03  0.00000000000E+00 0.  1.
         -1    1    6    6    0  502  0.78331725546E+02  0.10554377584E+03  0.81591320070E+03  0.82643190822E+03  0.00000000000E+00 0.  1.
<mgrwt>
<rscale>  0 0.19082646E+04</rscale>
<asrwt>0</asrwt>
<pdfrwt beam="1">  1        2 0.29580942E+00 0.19082646E+04</pdfrwt>
<pdfrwt beam="2">  1       -2 0.72841434E-01 0.19082646E+04</pdfrwt>
<totfact> 0.11757705E+01</totfact>
</mgrwt>
</event>
<event>
12    1  0.2048318E-007  0.1794045E+04  0.7818608E-02  0.8709473E-01
          1   -1    0    0  501    0  0.00000000000E+00  0.00000000000E+00  0.15814268550E+04  0.15814268550E+04  0.00000000000E+00 0. -1.
         -1   -1    0    0    0  501 -0.00000000000E+00 -0.00000000000E+00 -0.50881238017E+03  0.50881238017E+03  0.00000000000E+00 0.  1.
         23    2    1    2    0    0 -0.21004119595E+03 -0.57571484423E+03  0.95920863772E+02  0.62695295071E+03  0.91127956384E+02 0.  0.
        254    2    1    2    0    0  0.21004119595E+03  0.57571484423E+03  0.97669361105E+03  0.14632862845E+04  0.90095030636E+03 0.  0.
        -24    2    4    4    0    0 -0.31393706322E+03  0.35992960210E+03  0.62847566861E+03  0.79347391680E+03  0.80705591351E+02 0.  0.
         24    2    4    4    0    0  0.52397825917E+03  0.21578524213E+03  0.34821794245E+03  0.66981236766E+03  0.79223643060E+02 0.  0.
         13    1    3    3    0    0 -0.11269014882E+02 -0.83508703240E+02  0.39724312338E+02  0.93159622176E+02  0.00000000000E+00 0. -1.
        -13    1    3    3    0    0 -0.19877218107E+03 -0.49220614099E+03  0.56196551434E+02  0.53379332853E+03  0.00000000000E+00 0.  1.
          2    1    6    6  502    0  0.37285505459E+03  0.16714544012E+03  0.21047316979E+03  0.45962750688E+03  0.00000000000E+00 0. -1.
          1    1    5    5  503    0 -0.14634859140E+03  0.19543858372E+03  0.37923150528E+03  0.45103290879E+03  0.00000000000E+00 0. -1.
         -4    1    5    5    0  503 -0.16758847182E+03  0.16449101838E+03  0.24924416332E+03  0.34244100801E+03  0.00000000000E+00 0.  1.
         -1    1    6    6    0  502  0.15112320458E+03  0.48639802013E+02  0.13774477266E+03  0.21018486078E+03  0.00000000000E+00 0.  1.
<mgrwt>
<rscale>  0 0.17940452E+04</rscale>
<asrwt>0</asrwt>
<pdfrwt beam="1">  1        1 0.24329644E+00 0.17940452E+04</pdfrwt>
<pdfrwt beam="2">  1       -1 0.78278829E-01 0.17940452E+04</pdfrwt>
<totfact> 0.88630946E+00</totfact>
</mgrwt>
</event>
<event>
12    1  0.2048318E-007  0.2544133E+04  0.7818608E-02  0.8387430E-01
         -1   -1    0    0    0  501 -0.00000000000E+00  0.00000000000E+00  0.14080711429E+04  0.14080711429E+04  0.00000000000E+00 0.  1.
          1   -1    0    0  501    0  0.00000000000E+00 -0.00000000000E+00 -0.11491981267E+04  0.11491981267E+04  0.00000000000E+00 0. -1.
         23    2    1    2    0    0 -0.10266401127E+04  0.28255230282E+03 -0.20676044054E+03  0.10887663631E+04  0.94003131637E+02 0.  0.
        254    2    1    2    0    0  0.10266401127E+04 -0.28255230282E+03  0.46563345670E+03  0.14685029065E+04  0.89769735740E+03 0.  0.
        -24    2    4    4    0    0  0.73221310816E+02  0.18292674687E+03 -0.12957349169E+03  0.24932219027E+03  0.80924098623E+02 0.  0.
         24    2    4    4    0    0  0.95341880190E+03 -0.46547904968E+03  0.59520694839E+03  0.12191807162E+04  0.80325275266E+02 0.  0.
         11    1    3    3    0    0 -0.43226706767E+03  0.76853804367E+02 -0.10758087001E+03  0.45203425604E+03  0.00000000000E+00 0. -1.
        -11    1    3    3    0    0 -0.59437304504E+03  0.20569849845E+03 -0.99179570528E+02  0.63673210705E+03  0.00000000000E+00 0.  1.
          4    1    6    6  502    0  0.31155939227E+03 -0.12910821564E+03  0.22517692441E+03  0.40551551579E+03  0.00000000000E+00 0. -1.
          3    1    5    5  503    0 -0.31003023021E+01  0.56382718761E+01 -0.32757519456E+02  0.33383484914E+02  0.00000000000E+00 0. -1.
         -4    1    5    5    0  503  0.76321613118E+02  0.17728847499E+03 -0.96815972233E+02  0.21593870536E+03  0.00000000000E+00 0.  1.
         -3    1    6    6    0  502  0.64185940963E+03 -0.33637083405E+03  0.37003002398E+03  0.81366520042E+03  0.00000000000E+00 0.  1.
<mgrwt>
<rscale>  0 0.25441326E+04</rscale>
<asrwt>0</asrwt>
<pdfrwt beam="1">  1        1 0.17679971E+00 0.25441326E+04</pdfrwt>
<pdfrwt beam="2">  1       -1 0.21662633E+00 0.25441326E+04</pdfrwt>
<totfact> 0.11952919E+00</totfact>
</mgrwt>
</event>
<event>
12    1  0.2048318E-007  0.2643615E+04  0.7818608E-02  0.8353535E-01
         -2   -1    0    0    0  501 -0.00000000000E+00  0.00000000000E+00  0.10717539987E+04  0.10717539987E+04  0.00000000000E+00 0.  1.
          2   -1    0    0  501    0  0.00000000000E+00 -0.00000000000E+00 -0.16302014470E+04  0.16302014470E+04  0.00000000000E+00 0. -1.
         23    2    1    2    0    0 -0.71408483812E+03  0.61870762200E+03  0.45369891494E+03  0.10521802439E+04  0.92327041516E+02 0.  0.
        254    2    1    2    0    0  0.71408483812E+03 -0.61870762200E+03 -0.10121463633E+04  0.16497752018E+04  0.89699591881E+03 0.  0.
        -24    2    4    4    0    0  0.57606381276E+03 -0.87353006849E+02 -0.12304089384E+03  0.60184366078E+03  0.87158856639E+02 0.  0.
         24    2    4    4    0    0  0.13802102536E+03 -0.53135461516E+03 -0.88910546943E+03  0.10479315411E+04  0.79148268969E+02 0.  0.
         13    1    3    3    0    0 -0.28105162907E+03  0.30206382928E+03  0.21020002030E+03  0.46305142662E+03  0.00000000000E+00 0.  1.
        -13    1    3    3    0    0 -0.43303320905E+03  0.31664379272E+03  0.24349889464E+03  0.58912881724E+03  0.00000000000E+00 0. -1.
          4    1    6    6  502    0  0.86586506860E+02 -0.37026052600E+03 -0.54529180217E+03  0.66478058771E+03  0.00000000000E+00 0. -1.
          1    1    5    5  503    0  0.43080812751E+03 -0.59637660050E+02 -0.12962024609E+03  0.45382122187E+03  0.00000000000E+00 0. -1.
         -2    1    5    5    0  503  0.14525568525E+03 -0.27715346799E+02  0.65793522452E+01  0.14802243891E+03  0.00000000000E+00 0.  1.
         -3    1    6    6    0  502  0.51434518504E+02 -0.16109408916E+03 -0.34381366726E+03  0.38315095335E+03  0.00000000000E+00 0.  1.
<mgrwt>
<rscale>  0 0.26436149E+04</rscale>
<asrwt>0</asrwt>
<pdfrwt beam="1">  1        2 0.25080022E+00 0.26436149E+04</pdfrwt>
<pdfrwt beam="2">  1       -2 0.16488523E+00 0.26436149E+04</pdfrwt>
<totfact> 0.21933599E+00</totfact>
</mgrwt>
</event>
<event>
12    1  0.2048318E-007  0.2057257E+04  0.7818608E-02  0.8580309E-01
          2   -1    0    0  501    0  0.00000000000E+00  0.00000000000E+00  0.29852816462E+04  0.29852816462E+04  0.00000000000E+00 0.  1.
         -2   -1    0    0    0  501 -0.00000000000E+00 -0.00000000000E+00 -0.35443101147E+03  0.35443101147E+03  0.00000000000E+00 0. -1.
         23    2    1    2    0    0 -0.35365559448E+03  0.66945137788E+03  0.51876341904E+03  0.92253888581E+03  0.93408158376E+02 0.  0.
        254    2    1    2    0    0  0.35365559448E+03 -0.66945137788E+03  0.21120872156E+04  0.24171737718E+04  0.89921032570E+03 0.  0.
        -24    2    4    4    0    0  0.37840339827E+02  0.21363039953E+03  0.50167511298E+03  0.55183939055E+03  0.76019438689E+02 0.  0.
         24    2    4    4    0    0  0.31581525465E+03 -0.88308177740E+03  0.16104121027E+04  0.18653343813E+04  0.80451929078E+02 0.  0.
         11    1    3    3    0    0 -0.17111996998E+03  0.22980499253E+03  0.20777233901E+03  0.35392333008E+03  0.00000000000E+00 0. -1.
        -11    1    3    3    0    0 -0.18253562450E+03  0.43964638535E+03  0.31099108003E+03  0.56861555573E+03  0.00000000000E+00 0.  1.
          4    1    6    6  502    0  0.10231264746E+03 -0.40401327855E+03  0.70423864562E+03  0.81831942239E+03  0.00000000000E+00 0. -1.
          3    1    5    5  503    0  0.22842030688E+02  0.16907989758E+03  0.45348789074E+03  0.48452145172E+03  0.00000000000E+00 0. -1.
         -4    1    5    5    0  503  0.14998309139E+02  0.44550501948E+02  0.48187222243E+02  0.67317938830E+02  0.00000000000E+00 0.  1.
         -3    1    6    6    0  502  0.21350260719E+03 -0.47906849885E+03  0.90617345704E+03  0.10470149589E+04  0.00000000000E+00 0.  1.
<mgrwt>
<rscale>  0 0.20572568E+04</rscale>
<asrwt>0</asrwt>
<pdfrwt beam="1">  1        2 0.45927408E+00 0.20572568E+04</pdfrwt>
<pdfrwt beam="2">  1       -2 0.54527850E-01 0.20572568E+04</pdfrwt>
<totfact> 0.52161421E+00</totfact>
</mgrwt>
</event>
<event>
12    1  0.2048318E-007  0.1369909E+04  0.7818608E-02  0.8975893E-01
         -2   -1    0    0    0  501 -0.00000000000E+00  0.00000000000E+00  0.15941178461E+03  0.15941178461E+03  0.00000000000E+00 0.  1.
          2   -1    0    0  501    0  0.00000000000E+00 -0.00000000000E+00 -0.29430867603E+04  0.29430867603E+04  0.00000000000E+00 0. -1.
         23    2    1    2    0    0 -0.33757547299E+03  0.12590519151E+03 -0.48472454088E+03  0.60851431474E+03  0.74313346697E+02 0.  0.
        254    2    1    2    0    0  0.33757547299E+03 -0.12590519151E+03 -0.22989504349E+04  0.24939842302E+04  0.89720394638E+03 0.  0.
        -24    2    4    4    0    0  0.26179498617E+03 -0.46586197589E+03 -0.18038551504E+04  0.18829210190E+04  0.77033530522E+02 0.  0.
         24    2    4    4    0    0  0.75780486818E+02  0.33995678438E+03 -0.49509528448E+03  0.61106321122E+03  0.83460229873E+02 0.  0.
         11    1    3    3    0    0 -0.18796709768E+03  0.31207898117E+02 -0.23949276563E+03  0.30604304845E+03  0.00000000000E+00 0.  1.
        -11    1    3    3    0    0 -0.14960837531E+03  0.94697293389E+02 -0.24523177525E+03  0.30247126629E+03  0.00000000000E+00 0. -1.
          2    1    6    6  502    0  0.58492569858E+00  0.13632332878E+03 -0.14409934730E+03  0.19836585896E+03  0.00000000000E+00 0. -1.
          1    1    5    5  503    0  0.26686280350E+03 -0.45440475831E+03 -0.17717492461E+04  0.18484574194E+04  0.00000000000E+00 0. -1.
         -2    1    5    5    0  503 -0.50678173238E+01 -0.11457217575E+02 -0.32105904260E+02  0.34463599570E+02  0.00000000000E+00 0.  1.
         -1    1    6    6    0  502  0.75195561119E+02  0.20363345560E+03 -0.35099593718E+03  0.41269735226E+03  0.00000000000E+00 0.  1.
<mgrwt>
<rscale>  0 0.13699091E+04</rscale>
<asrwt>0</asrwt>
<pdfrwt beam="1">  1        2 0.45278259E+00 0.13699091E+04</pdfrwt>
<pdfrwt beam="2">  1       -2 0.24524889E-01 0.13699091E+04</pdfrwt>
<totfact> 0.27623798E+01</totfact>
</mgrwt>
</event>
<event>
12    1  0.2048318E-007  0.1761701E+04  0.7818608E-02  0.8726936E-01
          1   -1    0    0  501    0  0.00000000000E+00  0.00000000000E+00  0.16226857331E+04  0.16226857331E+04  0.00000000000E+00 0. -1.
         -1   -1    0    0    0  501 -0.00000000000E+00 -0.00000000000E+00 -0.47815638756E+03  0.47815638756E+03  0.00000000000E+00 0.  1.
         23    2    1    2    0    0 -0.22621937939E+03 -0.18254230698E+03 -0.26374484450E+03  0.40260967567E+03  0.89645448814E+02 0.  0.
        254    2    1    2    0    0  0.22621937939E+03  0.18254230698E+03  0.14082741901E+04  0.16982324450E+04  0.90347127318E+03 0.  0.
        -24    2    4    4    0    0 -0.18071281260E+03  0.40426488661E+03  0.48032950860E+03  0.65822412509E+03  0.80345148100E+02 0.  0.
         24    2    4    4    0    0  0.40693219199E+03 -0.22172257963E+03  0.92794468149E+03  0.10400083200E+04  0.76034613665E+02 0.  0.
         11    1    3    3    0    0 -0.91972626442E+02 -0.81900734325E+02 -0.55223188792E+02  0.13496775496E+03  0.00000000000E+00 0. -1.
        -11    1    3    3    0    0 -0.13424675294E+03 -0.10064157265E+03 -0.20852165571E+03  0.26764192071E+03  0.00000000000E+00 0.  1.
          4    1    6    6  502    0  0.39096951639E+03 -0.21532794960E+03  0.84863565984E+03  0.95885649176E+03  0.00000000000E+00 0. -1.
          3    1    5    5  503    0 -0.18502034591E+03  0.37601719908E+03  0.43056253564E+03  0.60083738191E+03  0.00000000000E+00 0. -1.
         -4    1    5    5    0  503  0.43075333140E+01  0.28247687535E+02  0.49766972959E+02  0.57386743172E+02  0.00000000000E+00 0.  1.
         -3    1    6    6    0  502  0.15962675595E+02 -0.63946300360E+01  0.79309021644E+02  0.81151828197E+02  0.00000000000E+00 0.  1.
<mgrwt>
<rscale>  0 0.17617009E+04</rscale>
<asrwt>0</asrwt>
<pdfrwt beam="1">  1        1 0.24964396E+00 0.17617009E+04</pdfrwt>
<pdfrwt beam="2">  1       -1 0.73562522E-01 0.17617009E+04</pdfrwt>
<totfact> 0.94874508E+00</totfact>
</mgrwt>
</event>
<event>
12    1  0.2048318E-007  0.2662825E+04  0.7818608E-02  0.8347169E-01
          2   -1    0    0  501    0  0.00000000000E+00  0.00000000000E+00  0.73626877762E+03  0.73626877762E+03  0.00000000000E+00 0.  1.
         -2   -1    0    0    0  501 -0.00000000000E+00 -0.00000000000E+00 -0.24076258443E+04  0.24076258443E+04  0.00000000000E+00 0. -1.
         23    2    1    2    0    0 -0.60735248759E+03 -0.76998429801E+03  0.28599612255E+02  0.98520450287E+03  0.89761413193E+02 0.  0.
        254    2    1    2    0    0  0.60735248759E+03  0.76998429801E+03 -0.16999566790E+04  0.21586901191E+04  0.89907589028E+03 0.  0.
        -24    2    4    4    0    0  0.63598044194E+03  0.31613834165E+03 -0.49863647857E+03  0.87146500739E+03  0.79989672768E+02 0.  0.
         24    2    4    4    0    0 -0.28627954354E+02  0.45384595636E+03 -0.12013202004E+04  0.12872251117E+04  0.83561668230E+02 0.  0.
         13    1    3    3    0    0 -0.46672293381E+03 -0.61501561173E+03 -0.11438999884E+02  0.77214334830E+03  0.00000000000E+00 0.  1.
        -13    1    3    3    0    0 -0.14062955378E+03 -0.15496868628E+03  0.40038612139E+02  0.21306115457E+03  0.00000000000E+00 0. -1.
          2    1    6    6  502    0  0.14672468588E+02  0.17502730285E+02 -0.80759190478E+02  0.83926597385E+02  0.00000000000E+00 0. -1.
          3    1    5    5  503    0  0.33798200949E+03  0.12418233714E+03 -0.26067264382E+03  0.44452594844E+03  0.00000000000E+00 0. -1.
         -4    1    5    5    0  503  0.29799843245E+03  0.19195600451E+03 -0.23796383475E+03  0.42693905896E+03  0.00000000000E+00 0.  1.
         -1    1    6    6    0  502 -0.43300422942E+02  0.43634322607E+03 -0.11205610099E+04  0.12032985143E+04  0.00000000000E+00 0.  1.
<mgrwt>
<rscale>  0 0.26628254E+04</rscale>
<asrwt>0</asrwt>
<pdfrwt beam="1">  1        2 0.11327212E+00 0.26628254E+04</pdfrwt>
<pdfrwt beam="2">  1       -2 0.37040397E+00 0.26628254E+04</pdfrwt>
<totfact> 0.39010366E-01</totfact>
</mgrwt>
</event>
<event>
12    1  0.2048318E-007  0.3313540E+04  0.7818608E-02  0.8159459E-01
         -2   -1    0    0    0  501 -0.00000000000E+00  0.00000000000E+00  0.14114192998E+04  0.14114192998E+04  0.00000000000E+00 0.  1.
          2   -1    0    0  501    0  0.00000000000E+00 -0.00000000000E+00 -0.19447700668E+04  0.19447700668E+04  0.00000000000E+00 0. -1.
         23    2    1    2    0    0  0.13213611073E+04  0.52809459268E+03 -0.82786755177E+03  0.16488226265E+04  0.91500250325E+02 0.  0.
        254    2    1    2    0    0 -0.13213611073E+04 -0.52809459268E+03  0.29451678474E+03  0.17073667401E+04  0.89637156022E+03 0.  0.
        -24    2    4    4    0    0 -0.13028029881E+04 -0.17106593900E+03  0.23489327956E+03  0.13371196116E+04  0.78452671893E+02 0.  0.
         24    2    4    4    0    0 -0.18558119234E+02 -0.35702865368E+03  0.59623505180E+02  0.37024712849E+03  0.75591735333E+02 0.  0.
         11    1    3    3    0    0  0.73537093054E+03  0.29998678191E+03 -0.51398225975E+03  0.94601281077E+03  0.00000000000E+00 0.  1.
        -11    1    3    3    0    0  0.58599017676E+03  0.22810781076E+03 -0.31388529202E+03  0.70280981576E+03  0.00000000000E+00 0. -1.
          4    1    6    6  502    0 -0.20756682321E+02 -0.46242571211E+02 -0.10207076885E+02  0.51704928892E+02  0.00000000000E+00 0. -1.
          1    1    5    5  503    0 -0.86642111051E+03 -0.14350122030E+03  0.17939937405E+03  0.89636057275E+03  0.00000000000E+00 0. -1.
         -4    1    5    5    0  503 -0.43638187756E+03 -0.27564718696E+02  0.55493905503E+02  0.44075903885E+03  0.00000000000E+00 0.  1.
         -3    1    6    6    0  502  0.21985630874E+01 -0.31078608247E+03  0.69830582065E+02  0.31854219960E+03  0.00000000000E+00 0.  1.
<mgrwt>
<rscale>  0 0.33135395E+04</rscale>
<asrwt>0</asrwt>
<pdfrwt beam="1">  1        2 0.29919539E+00 0.33135395E+04</pdfrwt>
<pdfrwt beam="2">  1       -2 0.21714143E+00 0.33135395E+04</pdfrwt>
<totfact> 0.61659098E-01</totfact>
</mgrwt>
</event>
<event>
12    1  0.2048318E-007  0.1562612E+04  0.7818608E-02  0.8843852E-01
          2   -1    0    0  501    0  0.00000000000E+00  0.00000000000E+00  0.31912891966E+03  0.31912891966E+03  0.00000000000E+00 0. -1.
         -2   -1    0    0    0  501 -0.00000000000E+00 -0.00000000000E+00 -0.19128291097E+04  0.19128291097E+04  0.00000000000E+00 0.  1.
         23    2    1    2    0    0  0.42138848651E+03 -0.24128157145E+03 -0.28507636593E+03  0.57063558637E+03  0.92581773214E+02 0.  0.
        254    2    1    2    0    0 -0.42138848651E+03  0.24128157145E+03 -0.13086238241E+04  0.16613224430E+04  0.90094999487E+03 0.  0.
        -24    2    4    4    0    0 -0.21927908970E+03  0.29962357638E+03 -0.13747128026E+04  0.14265937774E+04  0.86469123312E+02 0.  0.
         24    2    4    4    0    0 -0.20210939681E+03 -0.58342004924E+02  0.66088978551E+02  0.23472866557E+03  0.80484753432E+02 0.  0.
         11    1    3    3    0    0  0.17477638577E+03 -0.60298988983E+02 -0.74834945577E+02  0.19945681782E+03  0.00000000000E+00 0. -1.
        -11    1    3    3    0    0  0.24661210074E+03 -0.18098258247E+03 -0.21024142036E+03  0.37117876855E+03  0.00000000000E+00 0.  1.
          2    1    6    6  502    0 -0.64511205082E+02 -0.92838655812E+01  0.59892091095E+02  0.88515243416E+02  0.00000000000E+00 0. -1.
          3    1    5    5  503    0 -0.21672588419E+03  0.27250605613E+03 -0.13241504619E+04  0.13691618258E+04  0.00000000000E+00 0. -1.
         -4    1    5    5    0  503 -0.25532055049E+01  0.27117520252E+02 -0.50562340749E+02  0.57431951604E+02  0.00000000000E+00 0.  1.
         -1    1    6    6    0  502 -0.13759819173E+03 -0.49058139343E+02  0.61968874560E+01  0.14621342215E+03  0.00000000000E+00 0.  1.
<mgrwt>
<rscale>  0 0.15626120E+04</rscale>
<asrwt>0</asrwt>
<pdfrwt beam="1">  1        2 0.49096757E-01 0.15626120E+04</pdfrwt>
<pdfrwt beam="2">  1       -2 0.29428140E+00 0.15626120E+04</pdfrwt>
<totfact> 0.34042737E+00</totfact>
</mgrwt>
</event>
<event>
12    1  0.2048318E-007  0.2320296E+04  0.7818608E-02  0.8469961E-01
         -2   -1    0    0    0  501 -0.00000000000E+00  0.00000000000E+00  0.12860069109E+04  0.12860069109E+04  0.00000000000E+00 0.  1.
          2   -1    0    0  501    0  0.00000000000E+00 -0.00000000000E+00 -0.10466067112E+04  0.10466067112E+04  0.00000000000E+00 0. -1.
         23    2    1    2    0    0 -0.41333286618E+03 -0.68607006476E+03  0.67725417575E+03  0.10529192160E+04  0.91812117165E+02 0.  0.
        254    2    1    2    0    0  0.41333286618E+03  0.68607006476E+03 -0.43785397607E+03  0.12796944061E+04  0.89686424650E+03 0.  0.
        -24    2    4    4    0    0 -0.89438649947E+02 -0.16343093510E+03 -0.16650003037E+02  0.20348860787E+03  0.80133939622E+02 0.  0.
         24    2    4    4    0    0  0.50277151612E+03  0.84950099986E+03 -0.42120397304E+03  0.10762057982E+04  0.79843516231E+02 0.  0.
         13    1    3    3    0    0 -0.30783091285E+03 -0.57953422518E+03  0.54656377731E+03  0.85402093167E+03  0.00000000000E+00 0. -1.
        -13    1    3    3    0    0 -0.10550195333E+03 -0.10653583958E+03  0.13069039843E+03  0.19889828434E+03  0.00000000000E+00 0.  1.
          2    1    6    6  502    0  0.78026873414E+02  0.86707805620E+02 -0.37421651540E+02  0.12250231236E+03  0.00000000000E+00 0. -1.
          3    1    5    5  503    0 -0.17387801286E+02  0.48062652894E+01  0.61453547586E+01  0.19057838406E+02  0.00000000000E+00 0. -1.
         -4    1    5    5    0  503 -0.72050848660E+02 -0.16823720039E+03 -0.22795357796E+02  0.18443076946E+03  0.00000000000E+00 0.  1.
         -1    1    6    6    0  502  0.42474464271E+03  0.76279319424E+03 -0.38378232150E+03  0.95370348588E+03  0.00000000000E+00 0.  1.
<mgrwt>
<rscale>  0 0.23202961E+04</rscale>
<asrwt>0</asrwt>
<pdfrwt beam="1">  1        2 0.16101642E+00 0.23202961E+04</pdfrwt>
<pdfrwt beam="2">  1       -2 0.19784722E+00 0.23202961E+04</pdfrwt>
<totfact> 0.29253171E+00</totfact>
</mgrwt>
</event>
<event>
12    1  0.2048318E-007  0.1561211E+04  0.7818608E-02  0.8844738E-01
         -2   -1    0    0    0  501 -0.00000000000E+00  0.00000000000E+00  0.23847535360E+03  0.23847535360E+03  0.00000000000E+00 0.  1.
          2   -1    0    0  501    0  0.00000000000E+00 -0.00000000000E+00 -0.25551692013E+04  0.25551692013E+04  0.00000000000E+00 0. -1.
         23    2    1    2    0    0  0.37389640029E+02 -0.97370171412E+02  0.12762057152E+03  0.18665057179E+03  0.87592752043E+02 0.  0.
        254    2    1    2    0    0 -0.37389640029E+02  0.97370171412E+02 -0.24443144193E+04  0.26069939831E+04  0.90048082294E+03 0.  0.
        -24    2    4    4    0    0  0.21720504330E+03  0.24966639855E+03 -0.34374990129E+03  0.48408086437E+03  0.81602372575E+02 0.  0.
         24    2    4    4    0    0 -0.25459468332E+03 -0.15229622714E+03 -0.21005645180E+04  0.21229131188E+04  0.79851250089E+02 0.  0.
         13    1    3    3    0    0  0.78877592520E+01 -0.73651567422E+02  0.12901912170E+03  0.14877064191E+03  0.00000000000E+00 0.  1.
        -13    1    3    3    0    0  0.29501880777E+02 -0.23718603990E+02 -0.13985501827E+01  0.37879929874E+02  0.00000000000E+00 0. -1.
          2    1    6    6  502    0 -0.24253572313E+03 -0.13465053444E+03 -0.20381241904E+04  0.20569162742E+04  0.00000000000E+00 0. -1.
          1    1    5    5  503    0  0.18960791164E+03  0.20853175748E+03 -0.24433842081E+03  0.37301195413E+03  0.00000000000E+00 0. -1.
         -2    1    5    5    0  503  0.27597131654E+02  0.41134641071E+02 -0.99411480474E+02  0.11106891024E+03  0.00000000000E+00 0.  1.
         -1    1    6    6    0  502 -0.12058960197E+02 -0.17645692699E+02 -0.62440327537E+02  0.65996844581E+02  0.00000000000E+00 0.  1.
<mgrwt>
<rscale>  0 0.15612109E+04</rscale>
<asrwt>0</asrwt>
<pdfrwt beam="1">  1        2 0.39310295E+00 0.15612109E+04</pdfrwt>
<pdfrwt beam="2">  1       -2 0.36688516E-01 0.15612109E+04</pdfrwt>
<totfact> 0.21815902E+01</totfact>
</mgrwt>
</event>
<event>
12    1  0.2048318E-007  0.2374990E+04  0.7818608E-02  0.8448927E-01
          2   -1    0    0  501    0  0.00000000000E+00  0.00000000000E+00  0.11933138273E+04  0.11933138273E+04  0.00000000000E+00 0.  1.
         -2   -1    0    0    0  501 -0.00000000000E+00 -0.00000000000E+00 -0.11817045174E+04  0.11817045174E+04  0.00000000000E+00 0. -1.
         23    2    1    2    0    0 -0.19087263987E+03  0.97928093221E+03 -0.18092043034E+03  0.10181293871E+04  0.91824495514E+02 0.  0.
        254    2    1    2    0    0  0.19087263987E+03 -0.97928093221E+03  0.19252974018E+03  0.13568889576E+04  0.89925326434E+03 0.  0.
        -24    2    4    4    0    0  0.24115445623E+03 -0.98131388408E+03  0.43026528654E+03  0.11013827712E+04  0.82361284326E+02 0.  0.
         24    2    4    4    0    0 -0.50281816367E+02  0.20329518653E+01 -0.23773554636E+03  0.25550618630E+03  0.78948257004E+02 0.  0.
         13    1    3    3    0    0 -0.90363960520E+02  0.30406336695E+03 -0.27140210565E+02  0.31836577629E+03  0.00000000000E+00 0. -1.
        -13    1    3    3    0    0 -0.10050867935E+03  0.67521756527E+03 -0.15378021978E+03  0.69976361085E+03  0.00000000000E+00 0.  1.
          2    1    6    6  502    0 -0.38993225918E+02  0.28889252561E+02 -0.69495630842E+02  0.84762629072E+02  0.00000000000E+00 0. -1.
          3    1    5    5  503    0  0.17369162805E+03 -0.55870196684E+03  0.22655743579E+03  0.62741130140E+03  0.00000000000E+00 0. -1.
         -4    1    5    5    0  503  0.67462828181E+02 -0.42261191724E+03  0.20370785075E+03  0.47397146985E+03  0.00000000000E+00 0.  1.
         -1    1    6    6    0  502 -0.11288590450E+02 -0.26856300696E+02 -0.16823991552E+03  0.17074355723E+03  0.00000000000E+00 0.  1.
<mgrwt>
<rscale>  0 0.23749900E+04</rscale>
<asrwt>0</asrwt>
<pdfrwt beam="1">  1        2 0.18358674E+00 0.23749900E+04</pdfrwt>
<pdfrwt beam="2">  1       -2 0.18180070E+00 0.23749900E+04</pdfrwt>
<totfact> 0.30353468E+00</totfact>
</mgrwt>
</event>
<event>
12    1  0.2048318E-007  0.3054326E+04  0.7818608E-02  0.8228386E-01
          1   -1    0    0  501    0  0.00000000000E+00  0.00000000000E+00  0.97454783279E+03  0.97454783279E+03  0.00000000000E+00 0. -1.
         -1   -1    0    0    0  501 -0.00000000000E+00 -0.00000000000E+00 -0.23931371345E+04  0.23931371345E+04  0.00000000000E+00 0.  1.
         23    2    1    2    0    0  0.88147871635E+03  0.95390629805E+03 -0.93263129062E+02  0.13050209117E+04  0.86253208651E+02 0.  0.
        254    2    1    2    0    0 -0.88147871635E+03 -0.95390629805E+03 -0.13253261727E+04  0.20626640556E+04  0.90063954459E+03 0.  0.
        -24    2    4    4    0    0  0.49338467686E+02 -0.47210255261E+03 -0.19700297876E+03  0.52051548495E+03  0.82529339347E+02 0.  0.
         24    2    4    4    0    0 -0.93081718403E+03 -0.48180374544E+03 -0.11283231939E+04  0.15421485706E+04  0.80953719554E+02 0.  0.
         11    1    3    3    0    0  0.60318309484E+03  0.70848348893E+03 -0.75854667059E+02  0.93355911999E+03  0.00000000000E+00 0.  1.
        -11    1    3    3    0    0  0.27829562150E+03  0.24542280912E+03 -0.17408462003E+02  0.37146179176E+03  0.00000000000E+00 0. -1.
          4    1    6    6  502    0 -0.25940491025E+03 -0.17275133158E+03 -0.35551404145E+03  0.47278342155E+03  0.00000000000E+00 0. -1.
          3    1    5    5  503    0 -0.61953204223E+01 -0.29782557877E+03 -0.10573633221E+03  0.31609908148E+03  0.00000000000E+00 0. -1.
         -4    1    5    5    0  503  0.55533788108E+02 -0.17427697385E+03 -0.91266646548E+02  0.20441640347E+03  0.00000000000E+00 0.  1.
         -3    1    6    6    0  502 -0.67141227378E+03 -0.30905241386E+03 -0.77280915245E+03  0.10693651491E+04  0.00000000000E+00 0.  1.
<mgrwt>
<rscale>  0 0.30543259E+04</rscale>
<asrwt>0</asrwt>
<pdfrwt beam="1">  1        1 0.14993044E+00 0.30543259E+04</pdfrwt>
<pdfrwt beam="2">  1       -1 0.36817494E+00 0.30543259E+04</pdfrwt>
<totfact> 0.15768931E-01</totfact>
</mgrwt>
</event>
<event>
12    1  0.2048318E-007  0.2386016E+04  0.7818608E-02  0.8444758E-01
         -2   -1    0    0    0  501 -0.00000000000E+00  0.00000000000E+00  0.77847441140E+03  0.77847441140E+03  0.00000000000E+00 0.  1.
          2   -1    0    0  501    0  0.00000000000E+00 -0.00000000000E+00 -0.18282786232E+04  0.18282786232E+04  0.00000000000E+00 0. -1.
         23    2    1    2    0    0 -0.96528738002E+03 -0.23171068762E+03 -0.70887600951E+03  0.12229816832E+04  0.87803370474E+02 0.  0.
        254    2    1    2    0    0  0.96528738002E+03  0.23171068762E+03 -0.34092820228E+03  0.13837713514E+04  0.90173252408E+03 0.  0.
        -24    2    4    4    0    0  0.60034092970E+03  0.46326610605E+03  0.90656920769E+02  0.76810337097E+03  0.82093814146E+02 0.  0.
         24    2    4    4    0    0  0.36494645032E+03 -0.23155541842E+03 -0.43158512305E+03  0.61566798040E+03  0.77314424607E+02 0.  0.
         11    1    3    3    0    0 -0.69786633521E+03 -0.12711143719E+03 -0.49731562734E+03  0.86631262976E+03  0.00000000000E+00 0. -1.
        -11    1    3    3    0    0 -0.26742104481E+03 -0.10459925043E+03 -0.21156038217E+03  0.35666905346E+03  0.00000000000E+00 0.  1.
          4    1    6    6  502    0  0.48020096372E+02 -0.62020524288E+02 -0.95614625801E+02  0.12367146702E+03  0.00000000000E+00 0. -1.
          1    1    5    5  503    0  0.22238344889E+03  0.19430706974E+03 -0.66351130439E+00  0.29531352143E+03  0.00000000000E+00 0. -1.
         -2    1    5    5    0  503  0.37795748081E+03  0.26895903630E+03  0.91320432073E+02  0.47278984954E+03  0.00000000000E+00 0.  1.
         -3    1    6    6    0  502  0.31692635394E+03 -0.16953489414E+03 -0.33597049725E+03  0.49199651338E+03  0.00000000000E+00 0.  1.
<mgrwt>
<rscale>  0 0.23860160E+04</rscale>
<asrwt>0</asrwt>
<pdfrwt beam="1">  1        2 0.28127363E+00 0.23860160E+04</pdfrwt>
<pdfrwt beam="2">  1       -2 0.11976530E+00 0.23860160E+04</pdfrwt>
<totfact> 0.39981752E+00</totfact>
</mgrwt>
</event>
<event>
12    1  0.2048318E-007  0.3029206E+04  0.7818608E-02  0.8235440E-01
         -1   -1    0    0    0  501 -0.00000000000E+00  0.00000000000E+00  0.12448261503E+04  0.12448261503E+04  0.00000000000E+00 0.  1.
          1   -1    0    0  501    0  0.00000000000E+00 -0.00000000000E+00 -0.18428459270E+04  0.18428459270E+04  0.00000000000E+00 0. -1.
         23    2    1    2    0    0 -0.44580699317E+03 -0.59136549275E+03  0.91297983999E+03  0.11794510942E+04  0.95476039564E+02 0.  0.
        254    2    1    2    0    0  0.44580699317E+03  0.59136549275E+03 -0.15109996167E+04  0.19082209831E+04  0.89985024167E+03 0.  0.
        -24    2    4    4    0    0  0.11632486414E+03 -0.10315253766E+03  0.37212413973E+02  0.17783730341E+03  0.77906499644E+02 0.  0.
         24    2    4    4    0    0  0.32948212903E+03  0.69451803041E+03 -0.15482120307E+04  0.17303836797E+04  0.79708337472E+02 0.  0.
         13    1    3    3    0    0 -0.12422629174E+03 -0.23745810543E+03  0.30677658920E+03  0.40734555242E+03  0.00000000000E+00 0.  1.
        -13    1    3    3    0    0 -0.32158070143E+03 -0.35390738732E+03  0.60620325078E+03  0.77210554174E+03  0.00000000000E+00 0. -1.
          4    1    6    6  502    0  0.23022927977E+03  0.40377772626E+03 -0.97061730355E+03  0.10761690961E+04  0.00000000000E+00 0. -1.
          1    1    5    5  503    0  0.31009109843E+02 -0.62564498768E+02  0.44946987924E+02  0.83042839082E+02  0.00000000000E+00 0. -1.
         -2    1    5    5    0  503  0.85315754300E+02 -0.40588038888E+02 -0.77345739512E+01  0.94794464325E+02  0.00000000000E+00 0.  1.
         -3    1    6    6    0  502  0.99252849257E+02  0.29074030415E+03 -0.57759472710E+03  0.65421458354E+03  0.00000000000E+00 0.  1.
<mgrwt>
<rscale>  0 0.30292064E+04</rscale>
<asrwt>0</asrwt>
<pdfrwt beam="1">  1        1 0.28351476E+00 0.30292064E+04</pdfrwt>
<pdfrwt beam="2">  1       -1 0.19151172E+00 0.30292064E+04</pdfrwt>
<totfact> 0.55773411E-01</totfact>
</mgrwt>
</event>
<event>
12    1  0.2048318E-007  0.2343620E+04  0.7818608E-02  0.8460918E-01
          1   -1    0    0  501    0  0.00000000000E+00  0.00000000000E+00  0.21468142058E+04  0.21468142058E+04  0.00000000000E+00 0. -1.
         -1   -1    0    0    0  501 -0.00000000000E+00 -0.00000000000E+00 -0.63961689791E+03  0.63961689791E+03  0.00000000000E+00 0.  1.
         23    2    1    2    0    0 -0.81972488434E+03 -0.41986406584E+03  0.19284392142E+03  0.94540280637E+03  0.91449267280E+02 0.  0.
        254    2    1    2    0    0  0.81972488434E+03  0.41986406584E+03  0.13143533864E+04  0.18410282973E+04  0.90201199950E+03 0.  0.
        -24    2    4    4    0    0  0.68655778784E+03  0.62730607982E+03  0.67708940151E+03  0.11530220662E+04  0.78328243545E+02 0.  0.
         24    2    4    4    0    0  0.13316709650E+03 -0.20744201398E+03  0.63726398492E+03  0.68800623107E+03  0.80507904992E+02 0.  0.
         13    1    3    3    0    0 -0.30933888254E+03 -0.14312710990E+03  0.11446439168E+03  0.35955251467E+03  0.00000000000E+00 0. -1.
        -13    1    3    3    0    0 -0.51038600179E+03 -0.27673695594E+03  0.78379529744E+02  0.58585029171E+03  0.00000000000E+00 0.  1.
          2    1    6    6  502    0  0.98745081832E+01 -0.48627136506E+02  0.67257380194E+02  0.83580257880E+02  0.00000000000E+00 0. -1.
          1    1    5    5  503    0  0.34734267440E+03  0.34638709850E+03  0.39709606772E+03  0.63112300106E+03  0.00000000000E+00 0. -1.
         -2    1    5    5    0  503  0.33921511344E+03  0.28091898132E+03  0.27999333378E+03  0.52189906516E+03  0.00000000000E+00 0.  1.
         -1    1    6    6    0  502  0.12329258832E+03 -0.15881487748E+03  0.57000660472E+03  0.60442597319E+03  0.00000000000E+00 0.  1.
<mgrwt>
<rscale>  0 0.23436200E+04</rscale>
<asrwt>0</asrwt>
<pdfrwt beam="1">  1        1 0.33027910E+00 0.23436200E+04</pdfrwt>
<pdfrwt beam="2">  1       -1 0.98402601E-01 0.23436200E+04</pdfrwt>
<totfact> 0.21082226E+00</totfact>
</mgrwt>
</event>
<event>
12    1  0.2048318E-007  0.2021580E+04  0.7818608E-02  0.8596597E-01
         -2   -1    0    0    0  501 -0.00000000000E+00  0.00000000000E+00  0.70885152561E+03  0.70885152561E+03  0.00000000000E+00 0. -1.
          2   -1    0    0  501    0  0.00000000000E+00 -0.00000000000E+00 -0.14413404334E+04  0.14413404334E+04  0.00000000000E+00 0.  1.
         23    2    1    2    0    0  0.19143701072E+03  0.64212693602E+03 -0.77380179766E+03  0.10275856161E+04  0.90486713176E+02 0.  0.
        254    2    1    2    0    0 -0.19143701072E+03 -0.64212693602E+03  0.41312889895E+02  0.11226063429E+04  0.89975725349E+03 0.  0.
        -24    2    4    4    0    0 -0.46224086235E+03 -0.44945604475E+03  0.27843441434E+03  0.70655388613E+03  0.77558493593E+02 0.  0.
         24    2    4    4    0    0  0.27080385163E+03 -0.19267089127E+03 -0.23712152444E+03  0.41605245677E+03  0.80101379710E+02 0.  0.
         11    1    3    3    0    0  0.86062139481E+02  0.43791833969E+03 -0.51669410928E+03  0.68275322530E+03  0.00000000000E+00 0.  1.
        -11    1    3    3    0    0  0.10537487124E+03  0.20420859634E+03 -0.25710768837E+03  0.34483239077E+03  0.00000000000E+00 0. -1.
          4    1    6    6  502    0  0.26258570120E+03 -0.19121522742E+03 -0.20790436645E+03  0.38566661673E+03  0.00000000000E+00 0. -1.
          1    1    5    5  503    0 -0.42263657662E+03 -0.42981379056E+03  0.27393035280E+03  0.66211736772E+03  0.00000000000E+00 0. -1.
         -2    1    5    5    0  503 -0.39604285735E+02 -0.19642254192E+02  0.45040615381E+01  0.44436518413E+02  0.00000000000E+00 0.  1.
         -3    1    6    6    0  502  0.82181504312E+01 -0.14556638496E+01 -0.29217157996E+02  0.30385840043E+02  0.00000000000E+00 0.  1.
<mgrwt>
<rscale>  0 0.20215799E+04</rscale>
<asrwt>0</asrwt>
<pdfrwt beam="1">  1        2 0.22174468E+00 0.20215799E+04</pdfrwt>
<pdfrwt beam="2">  1       -2 0.10905408E+00 0.20215799E+04</pdfrwt>
<totfact> 0.85287687E+00</totfact>
</mgrwt>
</event>
<event>
12    1  0.2048318E-007  0.2725657E+04  0.7818608E-02  0.8326728E-01
          2   -1    0    0  501    0  0.00000000000E+00  0.00000000000E+00  0.32056418140E+04  0.32056418140E+04  0.00000000000E+00 0. -1.
         -2   -1    0    0    0  501 -0.00000000000E+00 -0.00000000000E+00 -0.57938539614E+03  0.57938539614E+03  0.00000000000E+00 0.  1.
         23    2    1    2    0    0 -0.55756251616E+03  0.10517663048E+04  0.86013331146E+03  0.14715119679E+04  0.91814153437E+02 0.  0.
        254    2    1    2    0    0  0.55756251616E+03 -0.10517663048E+04  0.17661231064E+04  0.23135152423E+04  0.90336793722E+03 0.  0.
        -24    2    4    4    0    0 -0.96710167941E+02  0.54689801602E+02  0.45676549283E+03  0.47690234019E+03  0.80357299947E+02 0.  0.
         24    2    4    4    0    0  0.65427268410E+03 -0.11064561064E+04  0.13093576136E+04  0.18366129021E+04  0.80073287600E+02 0.  0.
         11    1    3    3    0    0 -0.12853408631E+03  0.29996050982E+03  0.27415578869E+03  0.42621440059E+03  0.00000000000E+00 0. -1.
        -11    1    3    3    0    0 -0.42902842984E+03  0.75180579497E+03  0.58597752277E+03  0.10452975673E+04  0.00000000000E+00 0.  1.
          2    1    6    6  502    0  0.29156005489E+02 -0.89773429301E+02  0.92268883056E+02  0.13199578798E+03  0.00000000000E+00 0. -1.
          3    1    5    5  503    0 -0.30097238191E+01  0.38015599445E+02  0.85257450931E+02  0.93397415264E+02  0.00000000000E+00 0. -1.
         -4    1    5    5    0  503 -0.93700444122E+02  0.16674202157E+02  0.37150804190E+03  0.38350492493E+03  0.00000000000E+00 0.  1.
         -1    1    6    6    0  502  0.62511667861E+03 -0.10166826771E+04  0.12170887305E+04  0.17046171141E+04  0.00000000000E+00 0.  1.
<mgrwt>
<rscale>  0 0.27256574E+04</rscale>
<asrwt>0</asrwt>
<pdfrwt beam="1">  1        2 0.49317566E+00 0.27256574E+04</pdfrwt>
<pdfrwt beam="2">  1       -2 0.89136216E-01 0.27256574E+04</pdfrwt>
<totfact> 0.12161154E+00</totfact>
</mgrwt>
</event>
<event>
12    1  0.2048318E-007  0.1909464E+04  0.7818608E-02  0.8650160E-01
         -2   -1    0    0    0  501 -0.00000000000E+00  0.00000000000E+00  0.87456245480E+03  0.87456245480E+03  0.00000000000E+00 0. -1.
          2   -1    0    0  501    0  0.00000000000E+00 -0.00000000000E+00 -0.10422508647E+04  0.10422508647E+04  0.00000000000E+00 0.  1.
         23    2    1    2    0    0  0.17200213549E+03 -0.70315659590E+03 -0.21465632766E+03  0.76060402798E+03  0.91799866062E+02 0.  0.
        254    2    1    2    0    0 -0.17200213549E+03  0.70315659590E+03  0.46967917720E+02  0.11562092916E+04  0.90033327587E+03 0.  0.
        -24    2    4    4    0    0 -0.33890858764E+03  0.83921637152E+03 -0.42743210877E+02  0.90981652511E+03  0.82437723646E+02 0.  0.
         24    2    4    4    0    0  0.16690645216E+03 -0.13605977562E+03  0.89711128597E+02  0.24639276646E+03  0.79317604941E+02 0.  0.
         11    1    3    3    0    0  0.13480505319E+03 -0.43458853222E+03 -0.98047342417E+02  0.46545985440E+03  0.00000000000E+00 0.  1.
        -11    1    3    3    0    0  0.37197082293E+02 -0.26856806368E+03 -0.11660898524E+03  0.29514417358E+03  0.00000000000E+00 0. -1.
          2    1    6    6  502    0  0.54154027746E+02 -0.19960992002E+01  0.17905361803E+02  0.57072279737E+02  0.00000000000E+00 0. -1.
          1    1    5    5  503    0 -0.10427571767E+03  0.22490242943E+03  0.22875482388E+02  0.24895344093E+03  0.00000000000E+00 0. -1.
         -2    1    5    5    0  503 -0.23463286998E+03  0.61431394209E+03 -0.65618693264E+02  0.66086308418E+03  0.00000000000E+00 0.  1.
         -1    1    6    6    0  502  0.11275242441E+03 -0.13406367642E+03  0.71805766794E+02  0.18932048672E+03  0.00000000000E+00 0.  1.
<mgrwt>
<rscale>  0 0.19094643E+04</rscale>
<asrwt>0</asrwt>
<pdfrwt beam="1">  1        2 0.16034629E+00 0.19094643E+04</pdfrwt>
<pdfrwt beam="2">  1       -2 0.13454807E+00 0.19094643E+04</pdfrwt>
<totfact> 0.88157898E+00</totfact>
</mgrwt>
</event>
<event>
12    1  0.2048318E-007  0.1183496E+04  0.7818608E-02  0.9127427E-01
         -2   -1    0    0    0  501 -0.00000000000E+00  0.00000000000E+00  0.10526056985E+03  0.10526056985E+03  0.00000000000E+00 0.  1.
          2   -1    0    0  501    0  0.00000000000E+00 -0.00000000000E+00 -0.33266545993E+04  0.33266545993E+04  0.00000000000E+00 0. -1.
         23    2    1    2    0    0 -0.94252566254E+02  0.19263693529E+03 -0.97755395855E+03  0.10045235806E+04  0.86390664784E+02 0.  0.
        254    2    1    2    0    0  0.94252566254E+02 -0.19263693529E+03 -0.22438400709E+04  0.24273915886E+04  0.90078805799E+03 0.  0.
        -24    2    4    4    0    0  0.37692612760E+03  0.11094918027E+03 -0.54198895431E+03  0.67386445817E+03  0.77189734543E+02 0.  0.
         24    2    4    4    0    0 -0.28267356134E+03 -0.30358611556E+03 -0.17018511166E+04  0.17535271304E+04  0.80568617824E+02 0.  0.
         11    1    3    3    0    0 -0.25330463373E+02  0.74759584848E+02 -0.19895024141E+03  0.21403697451E+03  0.00000000000E+00 0.  1.
        -11    1    3    3    0    0 -0.68922102881E+02  0.11787735044E+03 -0.77860371714E+03  0.79048660606E+03  0.00000000000E+00 0. -1.
          2    1    6    6  502    0 -0.19957444807E+03 -0.16809269017E+03 -0.11507751144E+04  0.11799866426E+04  0.00000000000E+00 0. -1.
          3    1    5    5  503    0  0.16367527544E+02 -0.84595005180E+01 -0.12613913035E+02  0.22328679069E+02  0.00000000000E+00 0. -1.
         -4    1    5    5    0  503  0.36055860005E+03  0.11940868079E+03 -0.52937504127E+03  0.65153577910E+03  0.00000000000E+00 0.  1.
         -1    1    6    6    0  502 -0.83099113278E+02 -0.13549342539E+03 -0.55107600222E+03  0.57354048782E+03  0.00000000000E+00 0.  1.
<mgrwt>
<rscale>  0 0.11834958E+04</rscale>
<asrwt>0</asrwt>
<pdfrwt beam="1">  1        2 0.51179296E+00 0.11834958E+04</pdfrwt>
<pdfrwt beam="2">  1       -2 0.16193936E-01 0.11834958E+04</pdfrwt>
<totfact> 0.33281979E+01</totfact>
</mgrwt>
</event>
<event>
12    1  0.2048318E-007  0.1271302E+04  0.7818608E-02  0.9052638E-01
          2   -1    0    0  501    0  0.00000000000E+00  0.00000000000E+00  0.24159102085E+04  0.24159102085E+04  0.00000000000E+00 0.  1.
         -2   -1    0    0    0  501 -0.00000000000E+00 -0.00000000000E+00 -0.16724629058E+03  0.16724629058E+03  0.00000000000E+00 0. -1.
         23    2    1    2    0    0  0.28682624677E+02 -0.18438066029E+02 -0.49583397510E+02  0.11437413433E+03  0.97263940172E+02 0.  0.
        254    2    1    2    0    0 -0.28682624677E+02  0.18438066029E+02  0.22982473155E+04  0.24687823648E+04  0.90099000349E+03 0.  0.
        -24    2    4    4    0    0  0.30232217404E+03 -0.30042439173E+03  0.10348351003E+04  0.11220259235E+04  0.80031094521E+02 0.  0.
         24    2    4    4    0    0 -0.33100479872E+03  0.31886245776E+03  0.12634122151E+04  0.13467564413E+04  0.79404301037E+02 0.  0.
         13    1    3    3    0    0  0.11735957602E+02  0.12639404739E+02 -0.70957591326E+02  0.73023742850E+02  0.00000000000E+00 0. -1.
        -13    1    3    3    0    0  0.16946667074E+02 -0.31077470768E+02  0.21374193816E+02  0.41350391480E+02  0.00000000000E+00 0.  1.
          4    1    6    6  502    0 -0.32695668345E+02  0.11252968230E+02  0.58948667065E+02  0.68341651804E+02  0.00000000000E+00 0. -1.
          1    1    5    5  503    0  0.89426224187E+02 -0.14263500414E+03  0.42293884872E+03  0.45521320690E+03  0.00000000000E+00 0. -1.
         -2    1    5    5    0  503  0.21289594986E+03 -0.15778938759E+03  0.61189625161E+03  0.66681271661E+03  0.00000000000E+00 0.  1.
         -3    1    6    6    0  502 -0.29830913037E+03  0.30760948953E+03  0.12044635481E+04  0.12784147895E+04  0.00000000000E+00 0.  1.
<mgrwt>
<rscale>  0 0.12713017E+04</rscale>
<asrwt>0</asrwt>
<pdfrwt beam="1">  1        2 0.37167847E+00 0.12713017E+04</pdfrwt>
<pdfrwt beam="2">  1       -2 0.25730200E-01 0.12713017E+04</pdfrwt>
<totfact> 0.52268880E+01</totfact>
</mgrwt>
</event>
<event>
12    1  0.2048318E-007  0.3267133E+04  0.7818608E-02  0.8171309E-01
         -2   -1    0    0    0  501 -0.00000000000E+00  0.00000000000E+00  0.12198292144E+04  0.12198292144E+04  0.00000000000E+00 0. -1.
          2   -1    0    0  501    0  0.00000000000E+00 -0.00000000000E+00 -0.21876340584E+04  0.21876340584E+04  0.00000000000E+00 0.  1.
         23    2    1    2    0    0 -0.74750964143E+03 -0.21607916537E+03 -0.17953278333E+04  0.19587666899E+04  0.90022478798E+02 0.  0.
        254    2    1    2    0    0  0.74750964143E+03  0.21607916537E+03  0.82752298930E+03  0.14486965828E+04  0.89914771953E+03 0.  0.
        -24    2    4    4    0    0  0.85858337470E+03  0.28575663543E+03  0.90066569809E+03  0.12794133342E+04  0.82930778998E+02 0.  0.
         24    2    4    4    0    0 -0.11107373327E+03 -0.69677470056E+02 -0.73142708787E+02  0.16928324859E+03  0.78196153037E+02 0.  0.
         13    1    3    3    0    0 -0.14941471851E+03 -0.81398411908E+02 -0.37828767316E+03  0.41479154190E+03  0.00000000000E+00 0. -1.
        -13    1    3    3    0    0 -0.59809492292E+03 -0.13468075347E+03 -0.14170401601E+04  0.15439751480E+04  0.00000000000E+00 0.  1.
          2    1    6    6  502    0 -0.11030442239E+02 -0.46703650434E+02 -0.36498296545E+02  0.60291187337E+02  0.00000000000E+00 0. -1.
          3    1    5    5  503    0  0.89965200908E+02  0.56752756842E+02  0.11630961995E+03  0.15761516576E+03  0.00000000000E+00 0. -1.
         -4    1    5    5    0  503  0.76861817379E+03  0.22900387859E+03  0.78435607814E+03  0.11217981685E+04  0.00000000000E+00 0.  1.
         -1    1    6    6    0  502 -0.10004329103E+03 -0.22973819622E+02 -0.36644412243E+02  0.10899206126E+03  0.00000000000E+00 0.  1.
<mgrwt>
<rscale>  0 0.32671333E+04</rscale>
<asrwt>0</asrwt>
<pdfrwt beam="1">  1        2 0.33655908E+00 0.32671333E+04</pdfrwt>
<pdfrwt beam="2">  1       -2 0.18766603E+00 0.32671333E+04</pdfrwt>
<totfact> 0.70623776E-01</totfact>
</mgrwt>
</event>
<event>
12    1  0.2048318E-007  0.2820353E+04  0.7818608E-02  0.8296977E-01
         -1   -1    0    0    0  501 -0.00000000000E+00  0.00000000000E+00  0.19894417595E+04  0.19894417595E+04  0.00000000000E+00 0.  1.
          1   -1    0    0  501    0  0.00000000000E+00 -0.00000000000E+00 -0.99957606859E+03  0.99957606859E+03  0.00000000000E+00 0. -1.
         23    2    1    2    0    0  0.61154564882E+03 -0.11068433492E+04  0.42311716787E+03  0.13372236104E+04  0.10024253676E+03 0.  0.
        254    2    1    2    0    0 -0.61154564882E+03  0.11068433492E+04  0.56674852302E+03  0.16517942177E+04  0.89896049357E+03 0.  0.
        -24    2    4    4    0    0 -0.19228040138E+03  0.65234005434E+03 -0.15167096215E+03  0.70056260516E+03  0.72557451349E+02 0.  0.
         24    2    4    4    0    0 -0.41926524744E+03  0.45450329486E+03  0.71841948516E+03  0.95123161253E+03  0.79739772113E+02 0.  0.
         13    1    3    3    0    0  0.39944774665E+03 -0.81629428184E+03  0.30437808696E+03  0.95840538224E+03  0.00000000000E+00 0. -1.
        -13    1    3    3    0    0  0.21209790217E+03 -0.29054906735E+03  0.11873908091E+03  0.37881822815E+03  0.00000000000E+00 0.  1.
          2    1    6    6  502    0 -0.76939189822E+02  0.11785733886E+03  0.20089260756E+03  0.24529131870E+03  0.00000000000E+00 0. -1.
          1    1    5    5  503    0 -0.14449460052E+03  0.36337308941E+03 -0.85078780930E+02  0.40019631514E+03  0.00000000000E+00 0. -1.
         -2    1    5    5    0  503 -0.47785800860E+02  0.28896696492E+03 -0.66592181218E+02  0.30036629002E+03  0.00000000000E+00 0.  1.
         -1    1    6    6    0  502 -0.34232605762E+03  0.33664595600E+03  0.51752687760E+03  0.70594029383E+03  0.00000000000E+00 0.  1.
<mgrwt>
<rscale>  0 0.28203534E+04</rscale>
<asrwt>0</asrwt>
<pdfrwt beam="1">  1        1 0.15378093E+00 0.28203534E+04</pdfrwt>
<pdfrwt beam="2">  1       -1 0.30606796E+00 0.28203534E+04</pdfrwt>
<totfact> 0.39467241E-01</totfact>
</mgrwt>
</event>
<event>
12    1  0.2048318E-007  0.2014152E+04  0.7818608E-02  0.8600033E-01
          2   -1    0    0  501    0  0.00000000000E+00  0.00000000000E+00  0.34392547473E+04  0.34392547473E+04  0.00000000000E+00 0.  1.
         -2   -1    0    0    0  501 -0.00000000000E+00 -0.00000000000E+00 -0.29489000130E+03  0.29489000130E+03  0.00000000000E+00 0. -1.
         23    2    1    2    0    0  0.58207301473E+03  0.41151161129E+03  0.56947969363E+03  0.91696246325E+03  0.91445266919E+02 0.  0.
        254    2    1    2    0    0 -0.58207301473E+03 -0.41151161129E+03  0.25748850524E+04  0.28171822853E+04  0.89349437336E+03 0.  0.
        -24    2    4    4    0    0  0.31937065982E+02 -0.47547616321E+03  0.14917198000E+04  0.15679571435E+04  0.78511681559E+02 0.  0.
         24    2    4    4    0    0 -0.61401008072E+03  0.63964551925E+02  0.10831652523E+04  0.12492251418E+04  0.78845722553E+02 0.  0.
         13    1    3    3    0    0  0.22589845265E+03  0.11072657477E+03  0.22199773832E+03  0.33551971788E+03  0.00000000000E+00 0.  1.
        -13    1    3    3    0    0  0.35617456209E+03  0.30078503652E+03  0.34748195531E+03  0.58144274537E+03  0.00000000000E+00 0. -1.
          4    1    6    6  502    0 -0.20923215016E+03  0.26205595184E+02  0.44726151434E+03  0.49447718662E+03  0.00000000000E+00 0. -1.
          3    1    5    5  503    0  0.22861248690E+02 -0.29855437556E+03  0.80923655129E+03  0.86285638886E+03  0.00000000000E+00 0. -1.
         -4    1    5    5    0  503  0.90758172922E+01 -0.17692178765E+03  0.68248324872E+03  0.70510075463E+03  0.00000000000E+00 0.  1.
         -3    1    6    6    0  502 -0.40477793056E+03  0.37758956741E+02  0.63590373800E+03  0.75474795521E+03  0.00000000000E+00 0.  1.
<mgrwt>
<rscale>  0 0.20141518E+04</rscale>
<asrwt>0</asrwt>
<pdfrwt beam="1">  1        2 0.52911609E+00 0.20141518E+04</pdfrwt>
<pdfrwt beam="2">  1       -2 0.45367695E-01 0.20141518E+04</pdfrwt>
<totfact> 0.38503292E+00</totfact>
</mgrwt>
</event>
<event>
12    1  0.2048318E-007  0.1275164E+04  0.7818608E-02  0.9049496E-01
         -2   -1    0    0    0  501 -0.00000000000E+00  0.00000000000E+00  0.12571758219E+04  0.12571758219E+04  0.00000000000E+00 0.  1.
          2   -1    0    0  501    0  0.00000000000E+00 -0.00000000000E+00 -0.32335238086E+03  0.32335238086E+03  0.00000000000E+00 0. -1.
         23    2    1    2    0    0  0.13524235782E+03  0.22569161905E+03  0.45037025023E+03  0.52926150036E+03  0.89761746919E+02 0.  0.
        254    2    1    2    0    0 -0.13524235782E+03 -0.22569161905E+03  0.48345319080E+03  0.10512667024E+04  0.89566036509E+03 0.  0.
        -24    2    4    4    0    0  0.13752280957E+03 -0.17246811420E+03  0.66824034359E+03  0.70806119820E+03  0.78407461559E+02 0.  0.
         24    2    4    4    0    0 -0.27276516739E+03 -0.53223504852E+02 -0.18478715279E+03  0.34320550418E+03  0.80063401478E+02 0.  0.
         13    1    3    3    0    0  0.12995632581E+03  0.16020634748E+03  0.28937025033E+03  0.35537284951E+03  0.00000000000E+00 0.  1.
        -13    1    3    3    0    0  0.52860320115E+01  0.65485271575E+02  0.16099999990E+03  0.17388865085E+03  0.00000000000E+00 0. -1.
          2    1    6    6  502    0 -0.23871730369E+03 -0.20397176677E+02 -0.13709174393E+03  0.27603648700E+03  0.00000000000E+00 0. -1.
          1    1    5    5  503    0  0.62075217233E+02 -0.98131389599E+02  0.23581233050E+03  0.26285082734E+03  0.00000000000E+00 0. -1.
         -2    1    5    5    0  503  0.75447592338E+02 -0.74336724602E+02  0.43242801309E+03  0.44521037086E+03  0.00000000000E+00 0.  1.
         -1    1    6    6    0  502 -0.34047863696E+02 -0.32826328176E+02 -0.47695408859E+02  0.67169017187E+02  0.00000000000E+00 0.  1.
<mgrwt>
<rscale>  0 0.12751640E+04</rscale>
<asrwt>0</asrwt>
<pdfrwt beam="1">  1        2 0.49746521E-01 0.12751640E+04</pdfrwt>
<pdfrwt beam="2">  1       -2 0.19341166E+00 0.12751640E+04</pdfrwt>
<totfact> 0.14565363E+01</totfact>
</mgrwt>
</event>
<event>
12    1  0.2048318E-007  0.1845545E+04  0.7818608E-02  0.8682447E-01
         -2   -1    0    0    0  501 -0.00000000000E+00  0.00000000000E+00  0.36411566031E+03  0.36411566031E+03  0.00000000000E+00 0. -1.
          2   -1    0    0  501    0  0.00000000000E+00 -0.00000000000E+00 -0.23385688341E+04  0.23385688341E+04  0.00000000000E+00 0.  1.
         23    2    1    2    0    0 -0.49206891460E+03 -0.49638233198E+03 -0.69520002256E+03  0.98996137145E+03  0.90516348619E+02 0.  0.
        254    2    1    2    0    0  0.49206891460E+03  0.49638233198E+03 -0.12792531512E+04  0.17127231229E+04  0.89911324913E+03 0.  0.
        -24    2    4    4    0    0 -0.25562448870E+03  0.96952703139E+02 -0.36983458035E+03  0.46696262967E+03  0.80825582693E+02 0.  0.
         24    2    4    4    0    0  0.74769340330E+03  0.39942962884E+03 -0.90941857086E+03  0.12457604933E+04  0.79294488019E+02 0.  0.
         13    1    3    3    0    0 -0.21345457469E+03 -0.23690467922E+03 -0.37694322194E+03  0.49373360738E+03  0.00000000000E+00 0.  1.
        -13    1    3    3    0    0 -0.27861433991E+03 -0.25947765276E+03 -0.31825680063E+03  0.49622776407E+03  0.00000000000E+00 0. -1.
          2    1    6    6  502    0  0.33756908996E+03  0.13716579848E+03 -0.37550598102E+03  0.52323234662E+03  0.00000000000E+00 0. -1.
          3    1    5    5  503    0 -0.45725707068E+02 -0.13688597913E+02 -0.57739513889E+02  0.74913746828E+02  0.00000000000E+00 0. -1.
         -4    1    5    5    0  503 -0.20989878163E+03  0.11064130105E+03 -0.31209506646E+03  0.39204888284E+03  0.00000000000E+00 0.  1.
         -1    1    6    6    0  502  0.41012431334E+03  0.26226383036E+03 -0.53391258984E+03  0.72252814664E+03  0.00000000000E+00 0.  1.
<mgrwt>
<rscale>  0 0.18455455E+04</rscale>
<asrwt>0</asrwt>
<pdfrwt beam="1">  1        2 0.35977981E+00 0.18455455E+04</pdfrwt>
<pdfrwt beam="2">  1       -2 0.56017795E-01 0.18455455E+04</pdfrwt>
<totfact> 0.12138358E+01</totfact>
</mgrwt>
</event>
<event>
12    1  0.2048318E-007  0.2262104E+04  0.7818608E-02  0.8493015E-01
         -2   -1    0    0    0  501 -0.00000000000E+00  0.00000000000E+00  0.97506613068E+03  0.97506613068E+03  0.00000000000E+00 0.  1.
          2   -1    0    0  501    0  0.00000000000E+00 -0.00000000000E+00 -0.13119910806E+04  0.13119910806E+04  0.00000000000E+00 0. -1.
         23    2    1    2    0    0 -0.64875081673E+03 -0.36506481305E+03 -0.73825169412E+03  0.10524219414E+04  0.91795637363E+02 0.  0.
        254    2    1    2    0    0  0.64875081673E+03  0.36506481305E+03  0.40132674416E+03  0.12346352699E+04  0.89950606120E+03 0.  0.
        -24    2    4    4    0    0  0.59950486493E+03  0.47473670268E+02 -0.11853525150E+03  0.61793727553E+03  0.78332867885E+02 0.  0.
         24    2    4    4    0    0  0.49245951796E+02  0.31759114278E+03  0.51986199566E+03  0.61669799436E+03  0.82283801439E+02 0.  0.
         13    1    3    3    0    0 -0.43052975844E+03 -0.20102363032E+03 -0.50440707897E+03  0.69295950398E+03  0.00000000000E+00 0. -1.
        -13    1    3    3    0    0 -0.21822105828E+03 -0.16404118273E+03 -0.23384461515E+03  0.35946243746E+03  0.00000000000E+00 0.  1.
          2    1    6    6  502    0  0.33168274543E+02  0.30589004230E+03  0.45829330721E+03  0.55199783319E+03  0.00000000000E+00 0. -1.
          3    1    5    5  503    0  0.31821871373E+03 -0.11186219521E+02 -0.77216418615E+02  0.32764410048E+03  0.00000000000E+00 0. -1.
         -4    1    5    5    0  503  0.28128615120E+03  0.58659889789E+02 -0.41318832885E+02  0.29029317505E+03  0.00000000000E+00 0.  1.
         -1    1    6    6    0  502  0.16077677253E+02  0.11701100481E+02  0.61568688448E+02  0.64700161171E+02  0.00000000000E+00 0.  1.
<mgrwt>
<rscale>  0 0.22621035E+04</rscale>
<asrwt>0</asrwt>
<pdfrwt beam="1">  1        2 0.20184478E+00 0.22621035E+04</pdfrwt>
<pdfrwt beam="2">  1       -2 0.15001017E+00 0.22621035E+04</pdfrwt>
<totfact> 0.44323145E+00</totfact>
</mgrwt>
</event>
<event>
12    1  0.2048318E-007  0.2087966E+04  0.7818608E-02  0.8566563E-01
         -2   -1    0    0    0  501 -0.00000000000E+00  0.00000000000E+00  0.11795387404E+04  0.11795387404E+04  0.00000000000E+00 0.  1.
          2   -1    0    0  501    0  0.00000000000E+00 -0.00000000000E+00 -0.92400534488E+03  0.92400534488E+03  0.00000000000E+00 0. -1.
         23    2    1    2    0    0  0.13421769848E+03 -0.69509297912E+03  0.56201478076E+03  0.90861174286E+03  0.92444822819E+02 0.  0.
        254    2    1    2    0    0 -0.13421769848E+03  0.69509297912E+03 -0.30648138523E+03  0.11949323424E+04  0.91255894235E+03 0.  0.
        -24    2    4    4    0    0  0.28492115707E+03 -0.16353515133E+02  0.34279170253E+02  0.29816149360E+03  0.79232010888E+02 0.  0.
         24    2    4    4    0    0 -0.41913885555E+03  0.71144649426E+03 -0.34076055548E+03  0.89677084882E+03  0.79036097487E+02 0.  0.
         11    1    3    3    0    0  0.82015543237E+02 -0.36696249814E+03  0.35512977417E+03  0.51720903016E+03  0.00000000000E+00 0. -1.
        -11    1    3    3    0    0  0.52202155247E+02 -0.32813048098E+03  0.20688500658E+03  0.39140271270E+03  0.00000000000E+00 0.  1.
          2    1    6    6  502    0 -0.16235308826E+03  0.35024129789E+03 -0.17038617704E+03  0.42197030860E+03  0.00000000000E+00 0. -1.
          3    1    5    5  503    0  0.16942317866E+02  0.27683568087E+01 -0.17547203408E+02  0.24548121752E+02  0.00000000000E+00 0. -1.
         -4    1    5    5    0  503  0.26797883920E+03 -0.19121871942E+02  0.51826373660E+02  0.27361337185E+03  0.00000000000E+00 0.  1.
         -1    1    6    6    0  502 -0.25678576730E+03  0.36120519636E+03 -0.17037437844E+03  0.47480054022E+03  0.00000000000E+00 0.  1.
<mgrwt>
<rscale>  0 0.20879656E+04</rscale>
<asrwt>0</asrwt>
<pdfrwt beam="1">  1        2 0.14215467E+00 0.20879656E+04</pdfrwt>
<pdfrwt beam="2">  1       -2 0.18146750E+00 0.20879656E+04</pdfrwt>
<totfact> 0.46150133E+00</totfact>
</mgrwt>
</event>
<event>
12    1  0.2048318E-007  0.3500606E+04  0.7818608E-02  0.8113646E-01
          2   -1    0    0  501    0  0.00000000000E+00  0.00000000000E+00  0.41874045941E+04  0.41874045941E+04  0.00000000000E+00 0. -1.
         -2   -1    0    0    0  501 -0.00000000000E+00 -0.00000000000E+00 -0.73161334070E+03  0.73161334070E+03  0.00000000000E+00 0.  1.
         23    2    1    2    0    0  0.52427336457E+03  0.15037128723E+04  0.11080164973E+04  0.19428228860E+04  0.10414050648E+03 0.  0.
        254    2    1    2    0    0 -0.52427336457E+03 -0.15037128723E+04  0.23477747562E+04  0.29761950488E+04  0.89981981516E+03 0.  0.
        -24    2    4    4    0    0 -0.48515566418E+03 -0.35929661106E+03  0.12381998855E+04  0.13796425784E+04  0.76188020647E+02 0.  0.
         24    2    4    4    0    0 -0.39117700387E+02 -0.11444162613E+04  0.11095748707E+04  0.15965524704E+04  0.81268835800E+02 0.  0.
         13    1    3    3    0    0  0.14555405350E+03  0.29261955168E+03  0.23738624770E+03  0.40393615227E+03  0.00000000000E+00 0.  1.
        -13    1    3    3    0    0  0.37871931107E+03  0.12110933206E+04  0.87063024959E+03  0.15388867338E+04  0.00000000000E+00 0. -1.
          4    1    6    6  502    0  0.14331761363E+02 -0.22836238606E+03  0.18926964111E+03  0.29694742934E+03  0.00000000000E+00 0. -1.
          1    1    5    5  503    0 -0.68696139389E+02 -0.74181116571E+02  0.25877937961E+03  0.27782866111E+03  0.00000000000E+00 0. -1.
         -2    1    5    5    0  503 -0.41645952479E+03 -0.28511549449E+03  0.97942050587E+03  0.11018139173E+04  0.00000000000E+00 0.  1.
         -3    1    6    6    0  502 -0.53449461750E+02 -0.91605387519E+03  0.92030522957E+03  0.12996050411E+04  0.00000000000E+00 0.  1.
<mgrwt>
<rscale>  0 0.35006063E+04</rscale>
<asrwt>0</asrwt>
<pdfrwt beam="1">  1        2 0.64421608E+00 0.35006063E+04</pdfrwt>
<pdfrwt beam="2">  1       -2 0.11255590E+00 0.35006063E+04</pdfrwt>
<totfact> 0.12133778E-01</totfact>
</mgrwt>
</event>
<event>
12    1  0.2413464E-007  0.3267144E+04  0.7818608E-02  0.8171306E-01
          1   -1    0    0  501    0  0.00000000000E+00  0.00000000000E+00  0.18506785516E+04  0.18506785516E+04  0.00000000000E+00 0. -1.
         -1   -1    0    0    0  501 -0.00000000000E+00 -0.00000000000E+00 -0.14419342137E+04  0.14419342137E+04  0.00000000000E+00 0.  1.
         23    2    1    2    0    0  0.66654407340E+03  0.13408935009E+04  0.61747226137E+01  0.15001115989E+04  0.89556124454E+02 0.  0.
        254    2    1    2    0    0 -0.66654407340E+03 -0.13408935009E+04  0.40256961524E+03  0.17925011664E+04  0.89928958279E+03 0.  0.
        -24    2    4    4    0    0  0.62707814752E+02 -0.28784575523E+03  0.40803363661E+03  0.50923593817E+03  0.77732511095E+02 0.  0.
         24    2    4    4    0    0 -0.72925188815E+03 -0.10530477457E+04 -0.54640213713E+01  0.12832652282E+04  0.77601026399E+02 0.  0.
         13    1    3    3    0    0  0.41654830769E+03  0.75445261099E+03  0.27589316888E+02  0.86224845914E+03  0.00000000000E+00 0.  1.
        -13    1    3    3    0    0  0.24999576571E+03  0.58644088993E+03 -0.21414594275E+02  0.63786313979E+03  0.00000000000E+00 0. -1.
          2    1    6    6  502    0 -0.29638324355E+03 -0.42283796056E+03 -0.40160098402E+02  0.51792644405E+03  0.00000000000E+00 0. -1.
          1    1    5    5  503    0 -0.35619530317E+01 -0.15850213913E+03  0.19435458922E+03  0.25081730796E+03  0.00000000000E+00 0. -1.
         -2    1    5    5    0  503  0.66269767784E+02 -0.12934361610E+03  0.21367904739E+03  0.25841863021E+03  0.00000000000E+00 0.  1.
         -1    1    6    6    0  502 -0.43286864460E+03 -0.63020978514E+03  0.34696077031E+02  0.76533878415E+03  0.00000000000E+00 0.  1.
<mgrwt>
<rscale>  0 0.32671435E+04</rscale>
<asrwt>0</asrwt>
<pdfrwt beam="1">  1        1 0.28471978E+00 0.32671435E+04</pdfrwt>
<pdfrwt beam="2">  1       -1 0.22183603E+00 0.32671435E+04</pdfrwt>
<totfact> 0.33495190E-01</totfact>
</mgrwt>
</event>
<event>
12    1  0.2048318E-007  0.3039976E+04  0.7818608E-02  0.8232407E-01
         -2   -1    0    0    0  501 -0.00000000000E+00  0.00000000000E+00  0.96763069073E+03  0.96763069073E+03  0.00000000000E+00 0. -1.
          2   -1    0    0  501    0  0.00000000000E+00 -0.00000000000E+00 -0.23876501692E+04  0.23876501692E+04  0.00000000000E+00 0.  1.
         23    2    1    2    0    0  0.79463731872E+03 -0.11788233013E+03  0.59731731427E+03  0.10048277400E+04  0.86868297477E+02 0.  0.
        254    2    1    2    0    0 -0.79463731872E+03  0.11788233013E+03 -0.20173367927E+04  0.23504531199E+04  0.89979854497E+03 0.  0.
        -24    2    4    4    0    0 -0.12224505386E+03 -0.14286759260E+03  0.22198292798E+01  0.20452134820E+03  0.80430417256E+02 0.  0.
         24    2    4    4    0    0 -0.67239226486E+03  0.26074992272E+03 -0.20195566220E+04  0.21459317717E+04  0.79450231536E+02 0.  0.
         13    1    3    3    0    0  0.11501386533E+03 -0.46656636397E+02  0.10552566476E+03  0.16291315742E+03  0.00000000000E+00 0. -1.
        -13    1    3    3    0    0  0.67962345340E+03 -0.71225693731E+02  0.49179164951E+03  0.84191458259E+03  0.00000000000E+00 0.  1.
          4    1    6    6  502    0 -0.16189099662E+03  0.30586018283E+02 -0.50258060953E+03  0.52889646281E+03  0.00000000000E+00 0. -1.
          1    1    5    5  503    0 -0.73204980231E+02 -0.58070130154E+02 -0.34931203245E+02  0.99756193326E+02  0.00000000000E+00 0. -1.
         -2    1    5    5    0  503 -0.49040073632E+02 -0.84797462442E+02  0.37151032525E+02  0.10476515488E+03  0.00000000000E+00 0.  1.
         -3    1    6    6    0  502 -0.51050126824E+03  0.23016390444E+03 -0.15169760124E+04  0.16170353089E+04  0.00000000000E+00 0.  1.
<mgrwt>
<rscale>  0 0.30399760E+04</rscale>
<asrwt>0</asrwt>
<pdfrwt beam="1">  1        2 0.36733079E+00 0.30399760E+04</pdfrwt>
<pdfrwt beam="2">  1       -2 0.14886626E+00 0.30399760E+04</pdfrwt>
<totfact> 0.10538337E+00</totfact>
</mgrwt>
</event>
<event>
12    1  0.2048318E-007  0.2044225E+04  0.7818608E-02  0.8586219E-01
         -2   -1    0    0    0  501 -0.00000000000E+00  0.00000000000E+00  0.77190415081E+03  0.77190415081E+03  0.00000000000E+00 0.  1.
          2   -1    0    0  501    0  0.00000000000E+00 -0.00000000000E+00 -0.13534244999E+04  0.13534244999E+04  0.00000000000E+00 0. -1.
         23    2    1    2    0    0 -0.66254035795E+03 -0.48740782842E+03 -0.22628169525E+03  0.85806295076E+03  0.92425671473E+02 0.  0.
        254    2    1    2    0    0  0.66254035795E+03  0.48740782842E+03 -0.35523865383E+03  0.12672656999E+04  0.89623754439E+03 0.  0.
        -24    2    4    4    0    0  0.50295596394E+03 -0.30955705534E+01  0.16041586712E+03  0.53372374418E+03  0.78444250663E+02 0.  0.
         24    2    4    4    0    0  0.15958439401E+03  0.49050339897E+03 -0.51565452095E+03  0.73354195577E+03  0.78252493083E+02 0.  0.
         13    1    3    3    0    0 -0.18966386165E+03 -0.94356667087E+02 -0.40152604309E+02  0.21561027961E+03  0.00000000000E+00 0. -1.
        -13    1    3    3    0    0 -0.47287649630E+03 -0.39305116133E+03 -0.18612909094E+03  0.64245267115E+03  0.00000000000E+00 0.  1.
          2    1    6    6  502    0  0.10672907490E+03  0.37772561019E+03 -0.43099145273E+03  0.58294199056E+03  0.00000000000E+00 0. -1.
          3    1    5    5  503    0  0.34658850581E+03 -0.36633722607E+02  0.97826842586E+02  0.36198855385E+03  0.00000000000E+00 0. -1.
         -4    1    5    5    0  503  0.15636745813E+03  0.33538152054E+02  0.62589024535E+02  0.17173519033E+03  0.00000000000E+00 0.  1.
         -1    1    6    6    0  502  0.52855319115E+02  0.11277778878E+03 -0.84663068218E+02  0.15059996521E+03  0.00000000000E+00 0.  1.
<mgrwt>
<rscale>  0 0.20442250E+04</rscale>
<asrwt>0</asrwt>
<pdfrwt beam="1">  1        2 0.20821915E+00 0.20442250E+04</pdfrwt>
<pdfrwt beam="2">  1       -2 0.11875449E+00 0.20442250E+04</pdfrwt>
<totfact> 0.77661472E+00</totfact>
</mgrwt>
</event>
<event>
12    1  0.2048318E-007  0.1319961E+04  0.7818608E-02  0.9013884E-01
         -3   -1    0    0    0  501 -0.00000000000E+00  0.00000000000E+00  0.71705085832E+03  0.71705085832E+03  0.00000000000E+00 0.  1.
          3   -1    0    0  501    0  0.00000000000E+00 -0.00000000000E+00 -0.60745279179E+03  0.60745279179E+03  0.00000000000E+00 0. -1.
         23    2    1    2    0    0  0.23150765637E+03  0.26010853077E+03  0.10249686848E+02  0.35982964471E+03  0.90111455403E+02 0.  0.
        254    2    1    2    0    0 -0.23150765637E+03 -0.26010853077E+03  0.99348379684E+02  0.96467400540E+03  0.89413287235E+03 0.  0.
        -24    2    4    4    0    0 -0.23715793353E+03 -0.34227261848E+03  0.43672428181E+03  0.60870873188E+03  0.80023691223E+02 0.  0.
         24    2    4    4    0    0  0.56502771547E+01  0.82164087712E+02 -0.33737590212E+03  0.35596527352E+03  0.78140346017E+02 0.  0.
         11    1    3    3    0    0  0.13151766379E+02  0.20856649748E+02 -0.23625111350E+02  0.34148421397E+02  0.00000000000E+00 0. -1.
        -11    1    3    3    0    0  0.21835588999E+03  0.23925188102E+03  0.33874798198E+02  0.32568122331E+03  0.00000000000E+00 0.  1.
          4    1    6    6  502    0 -0.36161197003E+02  0.32673618721E+02 -0.14325360138E+03  0.15131685906E+03  0.00000000000E+00 0. -1.
          1    1    5    5  503    0  0.46127649853E+01  0.13408117331E+00  0.28064040927E+01  0.54010630900E+01  0.00000000000E+00 0. -1.
         -2    1    5    5    0  503 -0.24177069851E+03 -0.34240669965E+03  0.43391787771E+03  0.60330766879E+03  0.00000000000E+00 0.  1.
         -3    1    6    6    0  502  0.41811474157E+02  0.49490468991E+02 -0.19412230074E+03  0.20464841445E+03  0.00000000000E+00 0.  1.
<mgrwt>
<rscale>  0 0.13199614E+04</rscale>
<asrwt>0</asrwt>
<pdfrwt beam="1">  1        3 0.93454275E-01 0.13199614E+04</pdfrwt>
<pdfrwt beam="2">  1       -3 0.11031552E+00 0.13199614E+04</pdfrwt>
<totfact> 0.18182700E+00</totfact>
</mgrwt>
</event>
<event>
12    1  0.2048318E-007  0.1302120E+04  0.7818608E-02  0.9027886E-01
          2   -1    0    0  501    0  0.00000000000E+00  0.00000000000E+00  0.10707051127E+04  0.10707051127E+04  0.00000000000E+00 0. -1.
         -2   -1    0    0    0  501 -0.00000000000E+00 -0.00000000000E+00 -0.39588756312E+03  0.39588756312E+03  0.00000000000E+00 0.  1.
         23    2    1    2    0    0  0.26899977186E+03  0.15947476746E+03  0.30416920178E+03  0.44423650363E+03  0.83869476776E+02 0.  0.
        254    2    1    2    0    0 -0.26899977186E+03 -0.15947476746E+03  0.37064834776E+03  0.10223561721E+04  0.90002159213E+03 0.  0.
        -24    2    4    4    0    0 -0.99931827244E+02  0.84416904579E+02  0.61278262262E+03  0.63178370535E+03  0.80842587043E+02 0.  0.
         24    2    4    4    0    0 -0.16906794461E+03 -0.24389167203E+03 -0.24213427486E+03  0.39057246679E+03  0.76490046234E+02 0.  0.
         13    1    3    3    0    0  0.70135603258E+02  0.87780740469E+02  0.10329908679E+03  0.15262752889E+03  0.00000000000E+00 0. -1.
        -13    1    3    3    0    0  0.19886416860E+03  0.71694026986E+02  0.20087011498E+03  0.29160897474E+03  0.00000000000E+00 0.  1.
          4    1    6    6  502    0 -0.56845051327E+02 -0.30710079705E+02 -0.64093767487E+02  0.91008130882E+02  0.00000000000E+00 0. -1.
          3    1    5    5  503    0  0.10551434630E+02  0.87012767023E+01  0.21202300306E+02  0.25230587137E+02  0.00000000000E+00 0. -1.
         -4    1    5    5    0  503 -0.11048326187E+03  0.75715627877E+02  0.59158032231E+03  0.60655311821E+03  0.00000000000E+00 0.  1.
         -3    1    6    6    0  502 -0.11222289329E+03 -0.21318159233E+03 -0.17804050737E+03  0.29956433591E+03  0.00000000000E+00 0.  1.
<mgrwt>
<rscale>  0 0.13021196E+04</rscale>
<asrwt>0</asrwt>
<pdfrwt beam="1">  1        2 0.16472386E+00 0.13021196E+04</pdfrwt>
<pdfrwt beam="2">  1       -2 0.60905779E-01 0.13021196E+04</pdfrwt>
<totfact> 0.55866434E+01</totfact>
</mgrwt>
</event>
<event>
12    1  0.2048318E-007  0.1175598E+04  0.7818608E-02  0.9134488E-01
         -2   -1    0    0    0  501 -0.00000000000E+00  0.00000000000E+00  0.43126668329E+03  0.43126668329E+03  0.00000000000E+00 0.  1.
          2   -1    0    0  501    0  0.00000000000E+00 -0.00000000000E+00 -0.80114616360E+03  0.80114616360E+03  0.00000000000E+00 0. -1.
         23    2    1    2    0    0  0.68872216609E+01 -0.20463603336E+03 -0.18085669337E+03  0.28868158382E+03  0.93298302927E+02 0.  0.
        254    2    1    2    0    0 -0.68872216609E+01  0.20463603336E+03 -0.18902278693E+03  0.94373126307E+03  0.90165167495E+03 0.  0.
        -24    2    4    4    0    0 -0.30068928677E+03  0.41253538939E+03  0.25111401174E+02  0.51738405286E+03  0.80350364086E+02 0.  0.
         24    2    4    4    0    0  0.29380206511E+03 -0.20789935603E+03 -0.21413418811E+03  0.42634721021E+03  0.79854226145E+02 0.  0.
         13    1    3    3    0    0  0.64556347522E+01 -0.13488699304E+03 -0.57089247363E+02  0.14661295398E+03  0.00000000000E+00 0.  1.
        -13    1    3    3    0    0  0.43158690870E+00 -0.69749040321E+02 -0.12376744601E+03  0.14206862984E+03  0.00000000000E+00 0. -1.
          4    1    6    6  502    0  0.57896929467E+02 -0.89236637588E+01 -0.20737503679E+02  0.62142821592E+02  0.00000000000E+00 0. -1.
          1    1    5    5  503    0 -0.88474568407E+02  0.67009170232E+02 -0.17928537977E+01  0.11100086700E+03  0.00000000000E+00 0. -1.
         -2    1    5    5    0  503 -0.21221471837E+03  0.34552621916E+03  0.26904254971E+02  0.40638318586E+03  0.00000000000E+00 0.  1.
         -3    1    6    6    0  502  0.23590513565E+03 -0.19897569227E+03 -0.19339668443E+03  0.36420438861E+03  0.00000000000E+00 0.  1.
<mgrwt>
<rscale>  0 0.11755980E+04</rscale>
<asrwt>0</asrwt>
<pdfrwt beam="1">  1        2 0.12325326E+00 0.11755980E+04</pdfrwt>
<pdfrwt beam="2">  1       -2 0.66348720E-01 0.11755980E+04</pdfrwt>
<totfact> 0.70993633E+01</totfact>
</mgrwt>
</event>
<event>
12    1  0.2048318E-007  0.2444670E+04  0.7818608E-02  0.8422966E-01
          2   -1    0    0  501    0  0.00000000000E+00  0.00000000000E+00  0.13412220130E+04  0.13412220130E+04  0.00000000000E+00 0.  1.
         -2   -1    0    0    0  501 -0.00000000000E+00 -0.00000000000E+00 -0.11139866094E+04  0.11139866094E+04  0.00000000000E+00 0. -1.
         23    2    1    2    0    0 -0.96511110413E+03 -0.11666508625E+03 -0.31243407778E+03  0.10251835627E+04  0.91302237988E+02 0.  0.
        254    2    1    2    0    0  0.96511110413E+03  0.11666508625E+03  0.53966948144E+03  0.14300250597E+04  0.89926544270E+03 0.  0.
        -24    2    4    4    0    0 -0.15736748990E+02  0.48806800745E+02  0.42724500277E+03  0.43711777749E+03  0.76836904781E+02 0.  0.
         24    2    4    4    0    0  0.98084785312E+03  0.67858285507E+02  0.11242447867E+03  0.99290728218E+03  0.80983638705E+02 0.  0.
         13    1    3    3    0    0 -0.53818428203E+03 -0.19524050452E+02 -0.16783990709E+03  0.56408664616E+03  0.00000000000E+00 0. -1.
        -13    1    3    3    0    0 -0.42692682210E+03 -0.97141035800E+02 -0.14459417069E+03  0.46109691656E+03  0.00000000000E+00 0.  1.
          2    1    6    6  502    0  0.36030011445E+03  0.49552517145E+01  0.74751917583E+01  0.36041171663E+03  0.00000000000E+00 0. -1.
          3    1    5    5  503    0  0.81852320835E+01  0.32837704246E+02  0.38205468104E+03  0.38355063831E+03  0.00000000000E+00 0. -1.
         -4    1    5    5    0  503 -0.23921981073E+02  0.15969096499E+02  0.45190321728E+02  0.53567139175E+02  0.00000000000E+00 0.  1.
         -1    1    6    6    0  502  0.62054773866E+03  0.62903033792E+02  0.10494928691E+03  0.63249556555E+03  0.00000000000E+00 0.  1.
<mgrwt>
<rscale>  0 0.24446704E+04</rscale>
<asrwt>0</asrwt>
<pdfrwt beam="1">  1        2 0.20634185E+00 0.24446704E+04</pdfrwt>
<pdfrwt beam="2">  1       -2 0.17138256E+00 0.24446704E+04</pdfrwt>
<totfact> 0.29207698E+00</totfact>
</mgrwt>
</event>
<event>
12    1  0.2048318E-007  0.1444236E+04  0.7818608E-02  0.8922406E-01
          2   -1    0    0  501    0  0.00000000000E+00  0.00000000000E+00  0.13551522198E+04  0.13551522198E+04  0.00000000000E+00 0. -1.
         -2   -1    0    0    0  501 -0.00000000000E+00 -0.00000000000E+00 -0.38479401389E+03  0.38479401389E+03  0.00000000000E+00 0.  1.
         23    2    1    2    0    0  0.39719168763E+03  0.10619889959E+03  0.12362486266E+03  0.43814070261E+03  0.87434121592E+02 0.  0.
        254    2    1    2    0    0 -0.39719168763E+03 -0.10619889959E+03  0.84673334328E+03  0.13018055311E+04  0.89927795657E+03 0.  0.
        -24    2    4    4    0    0 -0.67376011391E+03 -0.59607379857E+02  0.47806955932E+03  0.83257575650E+03  0.84416562013E+02 0.  0.
         24    2    4    4    0    0  0.27656842627E+03 -0.46591519736E+02  0.36866378396E+03  0.46922977460E+03  0.74851397068E+02 0.  0.
         13    1    3    3    0    0  0.13227829437E+03  0.62651164956E+02  0.77904523124E+02  0.16580660528E+03  0.00000000000E+00 0. -1.
        -13    1    3    3    0    0  0.26491339326E+03  0.43547734637E+02  0.45720339535E+02  0.27233409733E+03  0.00000000000E+00 0.  1.
          2    1    6    6  502    0  0.11710155152E+03 -0.19027095246E+01  0.20676912737E+03  0.23763389006E+03  0.00000000000E+00 0. -1.
          1    1    5    5  503    0 -0.62123232572E+03 -0.65590747691E+02  0.46312935851E+03  0.77763780220E+03  0.00000000000E+00 0. -1.
         -2    1    5    5    0  503 -0.52527788187E+02  0.59833678333E+01  0.14940200813E+02  0.54937954301E+02  0.00000000000E+00 0.  1.
         -1    1    6    6    0  502  0.15946687476E+03 -0.44688810211E+02  0.16189465658E+03  0.23159588453E+03  0.00000000000E+00 0.  1.
<mgrwt>
<rscale>  0 0.14442361E+04</rscale>
<asrwt>0</asrwt>
<pdfrwt beam="1">  1        2 0.20848495E+00 0.14442361E+04</pdfrwt>
<pdfrwt beam="2">  1       -2 0.59199080E-01 0.14442361E+04</pdfrwt>
<totfact> 0.39694352E+01</totfact>
</mgrwt>
</event>
<event>
12    1  0.2048318E-007  0.1918522E+04  0.7818608E-02  0.8645692E-01
          1   -1    0    0  501    0  0.00000000000E+00  0.00000000000E+00  0.14780691578E+04  0.14780691578E+04  0.00000000000E+00 0. -1.
         -1   -1    0    0    0  501 -0.00000000000E+00 -0.00000000000E+00 -0.62255624650E+03  0.62255624650E+03  0.00000000000E+00 0.  1.
         23    2    1    2    0    0 -0.48438948212E+03  0.35870450886E+03  0.81120628302E+03  0.10145381253E+04  0.89049868588E+02 0.  0.
        254    2    1    2    0    0  0.48438948212E+03 -0.35870450886E+03  0.44306628323E+02  0.10860872790E+04  0.90239703302E+03 0.  0.
        -24    2    4    4    0    0  0.38551062310E+03 -0.27659997952E+03 -0.39416800821E+03  0.62209101621E+03  0.80640092723E+02 0.  0.
         24    2    4    4    0    0  0.98878859024E+02 -0.82104529337E+02  0.43847463654E+03  0.46399626279E+03  0.80711476832E+02 0.  0.
         13    1    3    3    0    0 -0.20450195135E+02  0.11498417122E+01  0.50198100683E+02  0.54216067077E+02  0.00000000000E+00 0. -1.
        -13    1    3    3    0    0 -0.46393928699E+03  0.35755466715E+03  0.76100818233E+03  0.96032205826E+03  0.00000000000E+00 0.  1.
          4    1    6    6  502    0  0.35253923708E+02 -0.74536504237E+02  0.18489149974E+03  0.20244356319E+03  0.00000000000E+00 0. -1.
          1    1    5    5  503    0  0.23141649704E+03 -0.16111710926E+03 -0.28413467914E+03  0.40030592538E+03  0.00000000000E+00 0. -1.
         -4    1    5    5    0  503  0.15409412606E+03 -0.11548287026E+03 -0.11003332907E+03  0.22178509083E+03  0.00000000000E+00 0.  1.
         -3    1    6    6    0  502  0.63624935316E+02 -0.75680251003E+01  0.25358313680E+03  0.26155269959E+03  0.00000000000E+00 0.  1.
<mgrwt>
<rscale>  0 0.19185215E+04</rscale>
<asrwt>0</asrwt>
<pdfrwt beam="1">  1        1 0.22739525E+00 0.19185215E+04</pdfrwt>
<pdfrwt beam="2">  1       -1 0.95777884E-01 0.19185215E+04</pdfrwt>
<totfact> 0.66533625E+00</totfact>
</mgrwt>
</event>
<event>
12    1  0.2048318E-007  0.1623810E+04  0.7818608E-02  0.8806053E-01
         -1   -1    0    0    0  501 -0.00000000000E+00  0.00000000000E+00  0.35157123688E+03  0.35157123688E+03  0.00000000000E+00 0.  1.
          1   -1    0    0  501    0  0.00000000000E+00 -0.00000000000E+00 -0.18749815108E+04  0.18749815108E+04  0.00000000000E+00 0. -1.
         23    2    1    2    0    0 -0.22644994514E+03  0.50242074823E+03 -0.44811322851E+03  0.72118609788E+03  0.12489089760E+03 0.  0.
        254    2    1    2    0    0  0.22644994514E+03 -0.50242074823E+03 -0.10752970454E+04  0.15053666498E+04  0.89786347991E+03 0.  0.
        -24    2    4    4    0    0  0.87561922988E+02 -0.58605357043E+03 -0.11604988469E+04  0.13053570562E+04  0.77933257121E+02 0.  0.
         24    2    4    4    0    0  0.13888802215E+03  0.83632822198E+02  0.85201801518E+02  0.20000959364E+03  0.80375113816E+02 0.  0.
         11    1    3    3    0    0 -0.14603693258E+02  0.16630258178E+03 -0.11512999074E+03  0.20279233549E+03  0.00000000000E+00 0.  1.
        -11    1    3    3    0    0 -0.21184625188E+03  0.33611816645E+03 -0.33298323777E+03  0.51839376239E+03  0.00000000000E+00 0. -1.
          2    1    6    6  502    0  0.57152404797E+02 -0.43034212701E+01  0.46698845796E+02  0.73930365935E+02  0.00000000000E+00 0. -1.
          1    1    5    5  503    0  0.32125308759E+01 -0.19320760116E+00 -0.21532050102E+02  0.21771239409E+02  0.00000000000E+00 0. -1.
         -2    1    5    5    0  503  0.84349392112E+02 -0.58586036283E+03 -0.11389667968E+04  0.12835858168E+04  0.00000000000E+00 0.  1.
         -1    1    6    6    0  502  0.81735617353E+02  0.87936243468E+02  0.38502955722E+02  0.12607922771E+03  0.00000000000E+00 0.  1.
<mgrwt>
<rscale>  0 0.16238098E+04</rscale>
<asrwt>0</asrwt>
<pdfrwt beam="1">  1        1 0.28845869E+00 0.16238098E+04</pdfrwt>
<pdfrwt beam="2">  1       -1 0.54087883E-01 0.16238098E+04</pdfrwt>
<totfact> 0.11976899E+01</totfact>
</mgrwt>
</event>
<event>
12    1  0.2048318E-007  0.1212603E+04  0.7818608E-02  0.9101896E-01
          1   -1    0    0  501    0  0.00000000000E+00  0.00000000000E+00  0.99944548872E+03  0.99944548872E+03  0.00000000000E+00 0. -1.
         -1   -1    0    0    0  501 -0.00000000000E+00 -0.00000000000E+00 -0.36780540448E+03  0.36780540448E+03  0.00000000000E+00 0.  1.
         23    2    1    2    0    0  0.47178858100E+02 -0.24257161470E+03  0.52547496486E+02  0.26855055336E+03  0.91056726371E+02 0.  0.
        254    2    1    2    0    0 -0.47178858100E+02  0.24257161470E+03  0.57909258775E+03  0.10987003398E+04  0.90040400858E+03 0.  0.
        -24    2    4    4    0    0  0.11060525269E+03 -0.31173616125E+03  0.13652849935E+03  0.36758079462E+03  0.84039593543E+02 0.  0.
         24    2    4    4    0    0 -0.15778411079E+03  0.55430777595E+03  0.44256408840E+03  0.73111954522E+03  0.80745779860E+02 0.  0.
         11    1    3    3    0    0  0.58865962032E+00 -0.19421072009E+03  0.53304894436E+02  0.20139404681E+03  0.00000000000E+00 0. -1.
        -11    1    3    3    0    0  0.46590198480E+02 -0.48360894606E+02 -0.75739794982E+00  0.67156506559E+02  0.00000000000E+00 0.  1.
          4    1    6    6  502    0 -0.69089307401E+02  0.14930448610E+03  0.15922140149E+03  0.22894675507E+03  0.00000000000E+00 0. -1.
          1    1    5    5  503    0  0.20340416512E+02 -0.18037435788E+02  0.34292963754E+02  0.43761729819E+02  0.00000000000E+00 0. -1.
         -2    1    5    5    0  503  0.90264836179E+02 -0.29369872546E+03  0.10223553559E+03  0.32381906480E+03  0.00000000000E+00 0.  1.
         -3    1    6    6    0  502 -0.88694803391E+02  0.40500328985E+03  0.28334268691E+03  0.50217279015E+03  0.00000000000E+00 0.  1.
<mgrwt>
<rscale>  0 0.12126029E+04</rscale>
<asrwt>0</asrwt>
<pdfrwt beam="1">  1        1 0.15376084E+00 0.12126029E+04</pdfrwt>
<pdfrwt beam="2">  1       -1 0.56585447E-01 0.12126029E+04</pdfrwt>
<totfact> 0.47338606E+01</totfact>
</mgrwt>
</event>
<event>
12    1  0.2048318E-007  0.2393973E+04  0.7818608E-02  0.8441763E-01
          2   -1    0    0  501    0  0.00000000000E+00  0.00000000000E+00  0.12606842967E+04  0.12606842967E+04  0.00000000000E+00 0. -1.
         -2   -1    0    0    0  501 -0.00000000000E+00 -0.00000000000E+00 -0.11365070118E+04  0.11365070118E+04  0.00000000000E+00 0.  1.
         23    2    1    2    0    0  0.79338805638E+03  0.24432252181E+03  0.65945700030E+03  0.10627846713E+04  0.73956876267E+02 0.  0.
        254    2    1    2    0    0 -0.79338805638E+03 -0.24432252181E+03 -0.53527971547E+03  0.13344066372E+04  0.89719484894E+03 0.  0.
        -24    2    4    4    0    0 -0.33783339335E+03  0.38831093030E+02 -0.68764833771E+03  0.77114258959E+03  0.78494596539E+02 0.  0.
         24    2    4    4    0    0 -0.45555466304E+03 -0.28315361484E+03  0.15236862224E+03  0.56326404762E+03  0.79650296230E+02 0.  0.
         13    1    3    3    0    0  0.55385017409E+03  0.19915964715E+03  0.44094388396E+03  0.73542238829E+03  0.00000000000E+00 0.  1.
        -13    1    3    3    0    0  0.23953788230E+03  0.45162874658E+02  0.21851311634E+03  0.32736228297E+03  0.00000000000E+00 0. -1.
          2    1    6    6  502    0 -0.31314022996E+03 -0.19355534544E+03  0.65518203144E+02  0.37391591342E+03  0.00000000000E+00 0. -1.
          1    1    5    5  503    0 -0.12066310871E+03 -0.17578434341E+02 -0.28932003394E+03  0.31396603192E+03  0.00000000000E+00 0. -1.
         -2    1    5    5    0  503 -0.21717028464E+03  0.56409527370E+02 -0.39832830376E+03  0.45717655767E+03  0.00000000000E+00 0.  1.
         -1    1    6    6    0  502 -0.14241443308E+03 -0.89598269404E+02  0.86850419094E+02  0.18934813420E+03  0.00000000000E+00 0.  1.
<mgrwt>
<rscale>  0 0.23939729E+04</rscale>
<asrwt>0</asrwt>
<pdfrwt beam="1">  1        2 0.19395143E+00 0.23939729E+04</pdfrwt>
<pdfrwt beam="2">  1       -2 0.17484723E+00 0.23939729E+04</pdfrwt>
<totfact> 0.30893473E+00</totfact>
</mgrwt>
</event>
<event>
12    1  0.2048318E-007  0.1600717E+04  0.7818608E-02  0.8820107E-01
         -2   -1    0    0    0  501 -0.00000000000E+00  0.00000000000E+00  0.18708061165E+03  0.18708061165E+03  0.00000000000E+00 0.  1.
          2   -1    0    0  501    0  0.00000000000E+00 -0.00000000000E+00 -0.34240539771E+04  0.34240539771E+04  0.00000000000E+00 0. -1.
         23    2    1    2    0    0  0.53423918338E+03 -0.93166933483E+02 -0.11322792688E+04  0.12587140226E+04  0.90625965561E+02 0.  0.
        254    2    1    2    0    0 -0.53423918338E+03  0.93166933483E+02 -0.21046940966E+04  0.23524205661E+04  0.90002983115E+03 0.  0.
        -24    2    4    4    0    0 -0.14943665893E+03 -0.12297655913E+03 -0.17953402629E+04  0.18075277405E+04  0.80345032484E+02 0.  0.
         24    2    4    4    0    0 -0.38480252445E+03  0.21614349262E+03 -0.30935383375E+03  0.54489282556E+03  0.80108705319E+02 0.  0.
         11    1    3    3    0    0  0.33601007261E+03 -0.72077789786E+02 -0.80824532535E+03  0.87827016494E+03  0.00000000000E+00 0. -1.
        -11    1    3    3    0    0  0.19822911077E+03 -0.21089143697E+02 -0.32403394347E+03  0.38044385770E+03  0.00000000000E+00 0.  1.
          2    1    6    6  502    0 -0.35528976114E+03  0.20754172969E+03 -0.30826645371E+03  0.51413285288E+03  0.00000000000E+00 0. -1.
          3    1    5    5  503    0 -0.10699598425E+03 -0.64174799387E+02 -0.81338330668E+03  0.82289668191E+03  0.00000000000E+00 0. -1.
         -4    1    5    5    0  503 -0.42440674682E+02 -0.58801759746E+02 -0.98195695619E+03  0.98463105863E+03  0.00000000000E+00 0.  1.
         -1    1    6    6    0  502 -0.29512763309E+02  0.86017629263E+01 -0.10873800406E+01  0.30759972674E+02  0.00000000000E+00 0.  1.
<mgrwt>
<rscale>  0 0.16007175E+04</rscale>
<asrwt>0</asrwt>
<pdfrwt beam="1">  1        2 0.52677757E+00 0.16007175E+04</pdfrwt>
<pdfrwt beam="2">  1       -2 0.28781631E-01 0.16007175E+04</pdfrwt>
<totfact> 0.98558802E+00</totfact>
</mgrwt>
</event>
<event>
12    1  0.2048318E-007  0.1440237E+04  0.7818608E-02  0.8925197E-01
          2   -1    0    0  501    0  0.00000000000E+00  0.00000000000E+00  0.19967835430E+04  0.19967835430E+04  0.00000000000E+00 0.  1.
         -2   -1    0    0    0  501 -0.00000000000E+00 -0.00000000000E+00 -0.25970284044E+03  0.25970284044E+03  0.00000000000E+00 0. -1.
         23    2    1    2    0    0 -0.18052161279E+03  0.46253016484E+02  0.11533236230E+04  0.11717500621E+04  0.90085705801E+02 0.  0.
        254    2    1    2    0    0  0.18052161279E+03 -0.46253016484E+02  0.58375707955E+03  0.10847363214E+04  0.89507159754E+03 0.  0.
        -24    2    4    4    0    0  0.22176221645E+03 -0.10557134810E+03 -0.17977864338E+03  0.31366048289E+03  0.75754522821E+02 0.  0.
         24    2    4    4    0    0 -0.41240603654E+02  0.59318331613E+02  0.76353572293E+03  0.77107583846E+03  0.79697532056E+02 0.  0.
         13    1    3    3    0    0 -0.99327167104E+02  0.60840119348E+02  0.50844726761E+03  0.52161866358E+03  0.00000000000E+00 0. -1.
        -13    1    3    3    0    0 -0.81194445687E+02 -0.14587102864E+02  0.64487635540E+03  0.65013139852E+03  0.00000000000E+00 0.  1.
          2    1    6    6  502    0  0.10926410617E+02 -0.11828974303E+02  0.20323523997E+03  0.20387219979E+03  0.00000000000E+00 0. -1.
          3    1    5    5  503    0  0.19012610967E+00  0.67532493829E+00 -0.21187334353E+02  0.21198946877E+02  0.00000000000E+00 0. -1.
         -4    1    5    5    0  503  0.22157209034E+03 -0.10624667304E+03 -0.15859130903E+03  0.29246153601E+03  0.00000000000E+00 0.  1.
         -1    1    6    6    0  502 -0.52167014271E+02  0.71147305916E+02  0.56030048296E+03  0.56720363867E+03  0.00000000000E+00 0.  1.
<mgrwt>
<rscale>  0 0.14402366E+04</rscale>
<asrwt>0</asrwt>
<pdfrwt beam="1">  1        2 0.30719746E+00 0.14402366E+04</pdfrwt>
<pdfrwt beam="2">  1       -2 0.39954285E-01 0.14402366E+04</pdfrwt>
<totfact> 0.38611879E+01</totfact>
</mgrwt>
</event>
<event>
12    1  0.2048318E-007  0.1573246E+04  0.7818608E-02  0.8837154E-01
          2   -1    0    0  501    0  0.00000000000E+00  0.00000000000E+00  0.76514916256E+03  0.76514916256E+03  0.00000000000E+00 0. -1.
         -2   -1    0    0    0  501 -0.00000000000E+00 -0.00000000000E+00 -0.80869993335E+03  0.80869993335E+03  0.00000000000E+00 0.  1.
         23    2    1    2    0    0 -0.32406039842E+03  0.38694802090E+03  0.11991934534E+03  0.52667871998E+03  0.90917061052E+02 0.  0.
        254    2    1    2    0    0  0.32406039842E+03 -0.38694802090E+03 -0.16347011613E+03  0.10471703759E+04  0.90282855773E+03 0.  0.
        -24    2    4    4    0    0  0.24884822629E+03 -0.30452563027E+03 -0.52478777974E+03  0.66074668491E+03  0.80763040049E+02 0.  0.
         24    2    4    4    0    0  0.75212172131E+02 -0.82422390628E+02  0.36131766361E+03  0.38642369102E+03  0.79514109667E+02 0.  0.
         11    1    3    3    0    0 -0.99970763205E+02  0.18767396816E+03  0.59044978841E+02  0.22068525403E+03  0.00000000000E+00 0. -1.
        -11    1    3    3    0    0 -0.22408963521E+03  0.19927405274E+03  0.60874366501E+02  0.30599346594E+03  0.00000000000E+00 0.  1.
          4    1    6    6  502    0  0.66260645215E+01  0.14798949358E+02  0.26198778499E+02  0.30810544104E+02  0.00000000000E+00 0. -1.
          3    1    5    5  503    0  0.29634368120E+02 -0.95358994452E+01 -0.22736601937E+02  0.38549736961E+02  0.00000000000E+00 0. -1.
         -4    1    5    5    0  503  0.21921385817E+03 -0.29498973082E+03 -0.50205117780E+03  0.62219694795E+03  0.00000000000E+00 0.  1.
         -3    1    6    6    0  502  0.68586107610E+02 -0.97221339986E+02  0.33511888511E+03  0.35561314692E+03  0.00000000000E+00 0.  1.
<mgrwt>
<rscale>  0 0.15732464E+04</rscale>
<asrwt>0</asrwt>
<pdfrwt beam="1">  1        2 0.11771526E+00 0.15732464E+04</pdfrwt>
<pdfrwt beam="2">  1       -2 0.12441537E+00 0.15732464E+04</pdfrwt>
<totfact> 0.17029162E+01</totfact>
</mgrwt>
</event>
<event>
12    1  0.2048318E-007  0.3584512E+04  0.7818608E-02  0.8094049E-01
          2   -1    0    0  501    0  0.00000000000E+00  0.00000000000E+00  0.22255880291E+04  0.22255880291E+04  0.00000000000E+00 0. -1.
         -2   -1    0    0    0  501 -0.00000000000E+00 -0.00000000000E+00 -0.14432953355E+04  0.14432953355E+04  0.00000000000E+00 0.  1.
         23    2    1    2    0    0  0.15928412548E+03 -0.15507984386E+04 -0.27895472697E+03  0.15881946279E+04  0.11916042342E+03 0.  0.
        254    2    1    2    0    0 -0.15928412548E+03  0.15507984386E+04  0.10612474205E+04  0.20806887367E+04  0.87901780518E+03 0.  0.
        -24    2    4    4    0    0 -0.91265035771E+02  0.81967278370E+03  0.10556957485E+04  0.13420711400E+04  0.80427933347E+02 0.  0.
         24    2    4    4    0    0 -0.68019089710E+02  0.73112565489E+03  0.55516720428E+01  0.73861759670E+03  0.79710810366E+02 0.  0.
         11    1    3    3    0    0  0.62548060056E+02 -0.10385398813E+04 -0.15009818760E+03  0.10511930416E+04  0.00000000000E+00 0.  1.
        -11    1    3    3    0    0  0.96736065425E+02 -0.51225855733E+03 -0.12885653938E+03  0.53700158626E+03  0.00000000000E+00 0. -1.
          4    1    6    6  502    0 -0.29034819129E+02  0.29637939282E+03  0.41378099988E+02  0.30065912986E+03  0.00000000000E+00 0. -1.
          1    1    5    5  503    0  0.10308973565E+02  0.14230453712E+03  0.20816407952E+03  0.25236707436E+03  0.00000000000E+00 0. -1.
         -2    1    5    5    0  503 -0.10157400934E+03  0.67736824658E+03  0.84753166894E+03  0.10897040657E+04  0.00000000000E+00 0.  1.
         -3    1    6    6    0  502 -0.38984270581E+02  0.43474626207E+03 -0.35826427945E+02  0.43795846684E+03  0.00000000000E+00 0.  1.
<mgrwt>
<rscale>  0 0.35845116E+04</rscale>
<asrwt>0</asrwt>
<pdfrwt beam="1">  1        2 0.34239816E+00 0.35845116E+04</pdfrwt>
<pdfrwt beam="2">  1       -2 0.22204544E+00 0.35845116E+04</pdfrwt>
<totfact> 0.39107137E-01</totfact>
</mgrwt>
</event>
<event>
12    1  0.2048318E-007  0.2595646E+04  0.7818608E-02  0.8369681E-01
          1   -1    0    0  501    0  0.00000000000E+00  0.00000000000E+00  0.16851246521E+04  0.16851246521E+04  0.00000000000E+00 0. -1.
         -1   -1    0    0    0  501 -0.00000000000E+00 -0.00000000000E+00 -0.99953743273E+03  0.99953743273E+03  0.00000000000E+00 0.  1.
         23    2    1    2    0    0  0.93139050164E+03  0.63984543926E+03  0.15752612058E+03  0.11448042280E+04  0.94190175321E+02 0.  0.
        254    2    1    2    0    0 -0.93139050164E+03 -0.63984543926E+03  0.52806109882E+03  0.15398578568E+04  0.90300788618E+03 0.  0.
        -24    2    4    4    0    0  0.21833021697E+02 -0.46636311192E+03  0.19469585615E+03  0.51183542016E+03  0.78088334193E+02 0.  0.
         24    2    4    4    0    0 -0.95322352333E+03 -0.17348232734E+03  0.33336524267E+03  0.10280224367E+04  0.83465813060E+02 0.  0.
         13    1    3    3    0    0  0.70222786629E+03  0.52833953061E+03  0.13264517103E+03  0.88874145689E+03  0.00000000000E+00 0.  1.
        -13    1    3    3    0    0  0.22916263535E+03  0.11150590865E+03  0.24880949550E+02  0.25606277112E+03  0.00000000000E+00 0. -1.
          2    1    6    6  502    0 -0.86615440509E+03 -0.13426550472E+03  0.31007762930E+03  0.92973050687E+03  0.00000000000E+00 0. -1.
          3    1    5    5  503    0  0.35909078706E+02 -0.43264047585E+03  0.16386623336E+03  0.46402519944E+03  0.00000000000E+00 0. -1.
         -2    1    5    5    0  503 -0.14076057010E+02 -0.33722636069E+02  0.30829622795E+02  0.47810220729E+02  0.00000000000E+00 0.  1.
         -1    1    6    6    0  502 -0.87069118244E+02 -0.39216822614E+02  0.23287613361E+02  0.98291929800E+02  0.00000000000E+00 0.  1.
<mgrwt>
<rscale>  0 0.25956465E+04</rscale>
<asrwt>0</asrwt>
<pdfrwt beam="1">  1        1 0.25924995E+00 0.25956465E+04</pdfrwt>
<pdfrwt beam="2">  1       -1 0.15377499E+00 0.25956465E+04</pdfrwt>
<totfact> 0.14019107E+00</totfact>
</mgrwt>
</event>
<event>
12    1  0.2048318E-007  0.1467358E+04  0.7818608E-02  0.8906454E-01
          2   -1    0    0  501    0  0.00000000000E+00  0.00000000000E+00  0.71009811382E+03  0.71009811382E+03  0.00000000000E+00 0. -1.
         -2   -1    0    0    0  501 -0.00000000000E+00 -0.00000000000E+00 -0.75804291125E+03  0.75804291125E+03  0.00000000000E+00 0.  1.
         23    2    1    2    0    0 -0.28508406687E+03  0.34784474470E+03  0.16054051661E+02  0.45961680310E+03  0.93386195530E+02 0.  0.
        254    2    1    2    0    0  0.28508406687E+03 -0.34784474470E+03 -0.63998849086E+02  0.10085242220E+04  0.90042010307E+03 0.  0.
        -24    2    4    4    0    0  0.45282171293E+03 -0.19360569579E+03  0.29250607262E+03  0.57825661078E+03  0.79311009636E+02 0.  0.
         24    2    4    4    0    0 -0.16773764605E+03 -0.15423904891E+03 -0.35650492171E+03  0.43026761119E+03  0.78159170455E+02 0.  0.
         11    1    3    3    0    0 -0.23785036124E+02  0.19928507820E+02  0.25582292872E+02  0.40216005221E+02  0.00000000000E+00 0. -1.
        -11    1    3    3    0    0 -0.26129903075E+03  0.32791623688E+03 -0.95282412108E+01  0.41940079788E+03  0.00000000000E+00 0.  1.
          4    1    6    6  502    0 -0.90688134921E+02 -0.77444373245E+02 -0.11629410340E+03  0.16657216829E+03  0.00000000000E+00 0. -1.
          1    1    5    5  503    0  0.19450782024E+03 -0.70930853981E+02  0.79904440747E+02  0.22192160289E+03  0.00000000000E+00 0. -1.
         -2    1    5    5    0  503  0.25831389269E+03 -0.12267484181E+03  0.21260163187E+03  0.35633500789E+03  0.00000000000E+00 0.  1.
         -3    1    6    6    0  502 -0.77049511134E+02 -0.76794675668E+02 -0.24021081830E+03  0.26369544290E+03  0.00000000000E+00 0.  1.
<mgrwt>
<rscale>  0 0.14673580E+04</rscale>
<asrwt>0</asrwt>
<pdfrwt beam="1">  1        2 0.10924586E+00 0.14673580E+04</pdfrwt>
<pdfrwt beam="2">  1       -2 0.11662199E+00 0.14673580E+04</pdfrwt>
<totfact> 0.22201677E+01</totfact>
</mgrwt>
</event>
<event>
12    1  0.2048318E-007  0.1999942E+04  0.7818608E-02  0.8606648E-01
         -1   -1    0    0    0  501 -0.00000000000E+00  0.00000000000E+00  0.16592747531E+04  0.16592747531E+04  0.00000000000E+00 0.  1.
          1   -1    0    0  501    0  0.00000000000E+00 -0.00000000000E+00 -0.60263784060E+03  0.60263784060E+03  0.00000000000E+00 0. -1.
         23    2    1    2    0    0 -0.61786692862E+03  0.45883974026E+03  0.63708670886E+03  0.10042790141E+04  0.10199713198E+03 0.  0.
        254    2    1    2    0    0  0.61786692862E+03 -0.45883974026E+03  0.41955020369E+03  0.12576335796E+04  0.90184610571E+03 0.  0.
        -24    2    4    4    0    0  0.23495139603E+03  0.23599072110E+03 -0.27111381674E+02  0.34349374558E+03  0.79744261829E+02 0.  0.
         24    2    4    4    0    0  0.38291553259E+03 -0.69483046136E+03  0.44666158536E+03  0.91413983401E+03  0.82045043447E+02 0.  0.
         13    1    3    3    0    0 -0.47853807863E+03  0.30297354503E+03  0.48631995466E+03  0.74652445371E+03  0.00000000000E+00 0.  1.
        -13    1    3    3    0    0 -0.13932884999E+03  0.15586619523E+03  0.15076675420E+03  0.25775456044E+03  0.00000000000E+00 0. -1.
          4    1    6    6  502    0  0.29904318242E+03 -0.60311991574E+03  0.37123643935E+03  0.76876326110E+03  0.00000000000E+00 0. -1.
          3    1    5    5  503    0  0.14783020129E+03  0.17682300885E+03 -0.49721917575E+02  0.23578043591E+03  0.00000000000E+00 0. -1.
         -4    1    5    5    0  503  0.87121194738E+02  0.59167712254E+02  0.22610535901E+02  0.10771330967E+03  0.00000000000E+00 0.  1.
         -3    1    6    6    0  502  0.83872350164E+02 -0.91710545622E+02  0.75425146015E+02  0.14537657291E+03  0.00000000000E+00 0.  1.
<mgrwt>
<rscale>  0 0.19999418E+04</rscale>
<asrwt>0</asrwt>
<pdfrwt beam="1">  1        1 0.92713514E-01 0.19999418E+04</pdfrwt>
<pdfrwt beam="2">  1       -1 0.25527304E+00 0.19999418E+04</pdfrwt>
<totfact> 0.20333776E+00</totfact>
</mgrwt>
</event>
<event>
12    1  0.2048318E-007  0.2172268E+04  0.7818608E-02  0.8530060E-01
         -1   -1    0    0    0  501 -0.00000000000E+00  0.00000000000E+00  0.44547950416E+03  0.44547950416E+03  0.00000000000E+00 0.  1.
          1   -1    0    0  501    0  0.00000000000E+00 -0.00000000000E+00 -0.26481288340E+04  0.26481288340E+04  0.00000000000E+00 0. -1.
         23    2    1    2    0    0 -0.55108483824E+01 -0.74832708738E+03 -0.20813518231E+03  0.78209114354E+03  0.91227756362E+02 0.  0.
        254    2    1    2    0    0  0.55108483824E+01  0.74832708738E+03 -0.19945141475E+04  0.23115171946E+04  0.89721862284E+03 0.  0.
        -24    2    4    4    0    0  0.16139778131E+03  0.51356186137E+03 -0.19371735275E+04  0.20122940393E+04  0.83012019884E+02 0.  0.
         24    2    4    4    0    0 -0.15588693293E+03  0.23476522601E+03 -0.57340620014E+02  0.29922315536E+03  0.82650485804E+02 0.  0.
         13    1    3    3    0    0  0.93034544353E+01 -0.45592119908E+03 -0.17073857369E+03  0.48693157074E+03  0.00000000000E+00 0. -1.
        -13    1    3    3    0    0 -0.14814302818E+02 -0.29240588830E+03 -0.37396608619E+02  0.29515957280E+03  0.00000000000E+00 0.  1.
          4    1    6    6  502    0 -0.99861238355E+02  0.20167802963E+03 -0.24612212829E+02  0.22638916843E+03  0.00000000000E+00 0. -1.
          3    1    5    5  503    0  0.12952549012E+03  0.45859204863E+03 -0.16115504135E+04  0.16805291592E+04  0.00000000000E+00 0. -1.
         -4    1    5    5    0  503  0.31872291187E+02  0.54969812737E+02 -0.32562311402E+03  0.33176488006E+03  0.00000000000E+00 0.  1.
         -3    1    6    6    0  502 -0.56025694571E+02  0.33087196378E+02 -0.32728407185E+02  0.72833986937E+02  0.00000000000E+00 0.  1.
<mgrwt>
<rscale>  0 0.21722680E+04</rscale>
<asrwt>0</asrwt>
<pdfrwt beam="1">  1        1 0.40740444E+00 0.21722680E+04</pdfrwt>
<pdfrwt beam="2">  1       -1 0.68535307E-01 0.21722680E+04</pdfrwt>
<totfact> 0.21028858E+00</totfact>
</mgrwt>
</event>
<event>
12    1  0.2048318E-007  0.1868910E+04  0.7818608E-02  0.8670489E-01
          1   -1    0    0  501    0  0.00000000000E+00  0.00000000000E+00  0.16679292010E+04  0.16679292010E+04  0.00000000000E+00 0. -1.
         -1   -1    0    0    0  501 -0.00000000000E+00 -0.00000000000E+00 -0.52352692279E+03  0.52352692279E+03  0.00000000000E+00 0.  1.
         23    2    1    2    0    0 -0.19295743707E+03  0.68113297691E+03  0.33420043346E+03  0.78853670361E+03  0.94474856253E+02 0.  0.
        254    2    1    2    0    0  0.19295743707E+03 -0.68113297691E+03  0.81020184474E+03  0.14029194202E+04  0.90032281183E+03 0.  0.
        -24    2    4    4    0    0  0.80279347306E+02 -0.54642322900E+03 -0.12395110199E+02  0.55804575093E+03  0.78982925855E+02 0.  0.
         24    2    4    4    0    0  0.11267808977E+03 -0.13470974790E+03  0.82259695494E+03  0.84487366923E+03  0.79389537088E+02 0.  0.
         13    1    3    3    0    0 -0.79163056164E+02  0.43259175015E+03  0.18485653737E+03  0.47704753554E+03  0.00000000000E+00 0.  1.
        -13    1    3    3    0    0 -0.11379438091E+03  0.24854122676E+03  0.14934389609E+03  0.31148916807E+03  0.00000000000E+00 0. -1.
          2    1    6    6  502    0  0.43091454605E+02 -0.63188960854E+01  0.26052024751E+03  0.26413557366E+03  0.00000000000E+00 0. -1.
          3    1    5    5  503    0  0.69085728203E+02 -0.45322694261E+03  0.19588132334E+02  0.45888037033E+03  0.00000000000E+00 0. -1.
         -4    1    5    5    0  503  0.11193619103E+02 -0.93196286397E+02 -0.31983242533E+02  0.99165380602E+02  0.00000000000E+00 0.  1.
         -1    1    6    6    0  502  0.69586635162E+02 -0.12839085182E+03  0.56207670743E+03  0.58073809558E+03  0.00000000000E+00 0.  1.
<mgrwt>
<rscale>  0 0.18689097E+04</rscale>
<asrwt>0</asrwt>
<pdfrwt beam="1">  1        1 0.25660449E+00 0.18689097E+04</pdfrwt>
<pdfrwt beam="2">  1       -1 0.80542604E-01 0.18689097E+04</pdfrwt>
<totfact> 0.72294721E+00</totfact>
</mgrwt>
</event>
<event>
12    1  0.2048318E-007  0.2231560E+04  0.7818608E-02  0.8505406E-01
          2   -1    0    0  501    0  0.00000000000E+00  0.00000000000E+00  0.64804659512E+03  0.64804659512E+03  0.00000000000E+00 0. -1.
         -2   -1    0    0    0  501 -0.00000000000E+00 -0.00000000000E+00 -0.19211040704E+04  0.19211040704E+04  0.00000000000E+00 0.  1.
         23    2    1    2    0    0 -0.86002622101E+03  0.25576489997E+03 -0.82648588224E+03  0.12233628162E+04  0.92069982261E+02 0.  0.
        254    2    1    2    0    0  0.86002622101E+03 -0.25576489997E+03 -0.44657159301E+03  0.13457878493E+04  0.89814139349E+03 0.  0.
        -24    2    4    4    0    0  0.60594391328E+03 -0.24785505851E+03  0.16401598734E+03  0.67961305348E+03  0.79827954281E+02 0.  0.
         24    2    4    4    0    0  0.25408230773E+03 -0.79098414566E+01 -0.61058758035E+03  0.66617479580E+03  0.79694921954E+02 0.  0.
         11    1    3    3    0    0 -0.40848299394E+03  0.11612674568E+03 -0.32941638056E+03  0.53745597884E+03  0.00000000000E+00 0. -1.
        -11    1    3    3    0    0 -0.45154322707E+03  0.13963815429E+03 -0.49706950168E+03  0.68590683736E+03  0.00000000000E+00 0.  1.
          2    1    6    6  502    0  0.20152751999E+03 -0.82430319383E+01 -0.38599655491E+03  0.43551650863E+03  0.00000000000E+00 0. -1.
          3    1    5    5  503    0  0.11230723790E+03 -0.29236469103E+02  0.56735090084E+02  0.12917645783E+03  0.00000000000E+00 0. -1.
         -4    1    5    5    0  503  0.49363667538E+03 -0.21861858941E+03  0.10728089726E+03  0.55043659565E+03  0.00000000000E+00 0.  1.
         -1    1    6    6    0  502  0.52554787745E+02  0.33319048170E+00 -0.22459102544E+03  0.23065828717E+03  0.00000000000E+00 0.  1.
<mgrwt>
<rscale>  0 0.22315599E+04</rscale>
<asrwt>0</asrwt>
<pdfrwt beam="1">  1        2 0.99699479E-01 0.22315599E+04</pdfrwt>
<pdfrwt beam="2">  1       -2 0.29555446E+00 0.22315599E+04</pdfrwt>
<totfact> 0.13928425E+00</totfact>
</mgrwt>
</event>
<event>
12    1  0.2048318E-007  0.1700165E+04  0.7818608E-02  0.8761270E-01
          1   -1    0    0  501    0  0.00000000000E+00  0.00000000000E+00  0.19518075323E+04  0.19518075323E+04  0.00000000000E+00 0. -1.
         -1   -1    0    0    0  501 -0.00000000000E+00 -0.00000000000E+00 -0.37024155671E+03  0.37024155671E+03  0.00000000000E+00 0.  1.
         23    2    1    2    0    0  0.73574086232E+02 -0.23327573473E+03  0.13448367737E+04  0.13702669408E+04  0.95993887514E+02 0.  0.
        254    2    1    2    0    0 -0.73574086232E+02  0.23327573473E+03  0.23672920189E+03  0.95178214825E+03  0.88882947078E+03 0.  0.
        -24    2    4    4    0    0 -0.97733156701E+02  0.71196077631E+02  0.56080912763E+03  0.57988385738E+03  0.84485259291E+02 0.  0.
         24    2    4    4    0    0  0.24159070469E+02  0.16207965710E+03 -0.32407992574E+03  0.37189829087E+03  0.80168975009E+02 0.  0.
         13    1    3    3    0    0  0.42769150853E+02 -0.22742065636E+03  0.11828915423E+04  0.12053139658E+04  0.00000000000E+00 0. -1.
        -13    1    3    3    0    0  0.30804935380E+02 -0.58550783768E+01  0.16194523143E+03  0.16495297502E+03  0.00000000000E+00 0.  1.
          2    1    6    6  502    0 -0.12126037805E+02  0.50645135259E+02 -0.17314933819E+03  0.18081112752E+03  0.00000000000E+00 0. -1.
          1    1    5    5  503    0 -0.54535335792E+01  0.48466810286E+02  0.13340913880E+03  0.14204496135E+03  0.00000000000E+00 0. -1.
         -2    1    5    5    0  503 -0.92279623122E+02  0.22729267345E+02  0.42739998882E+03  0.43783889604E+03  0.00000000000E+00 0.  1.
         -1    1    6    6    0  502  0.36285108273E+02  0.11143452184E+03 -0.15093058754E+03  0.19108716335E+03  0.00000000000E+00 0.  1.
<mgrwt>
<rscale>  0 0.17001650E+04</rscale>
<asrwt>0</asrwt>
<pdfrwt beam="1">  1        1 0.30027808E+00 0.17001650E+04</pdfrwt>
<pdfrwt beam="2">  1       -1 0.56960240E-01 0.17001650E+04</pdfrwt>
<totfact> 0.95429903E+00</totfact>
</mgrwt>
</event>
<event>
12    1  0.2048318E-007  0.1449465E+04  0.7818608E-02  0.8918771E-01
          1   -1    0    0  501    0  0.00000000000E+00  0.00000000000E+00  0.32619735159E+03  0.32619735159E+03  0.00000000000E+00 0. -1.
         -1   -1    0    0    0  501 -0.00000000000E+00 -0.00000000000E+00 -0.16101829178E+04  0.16101829178E+04  0.00000000000E+00 0.  1.
         23    2    1    2    0    0 -0.15180346232E+03  0.35212538326E+02 -0.94439255988E+03  0.96159761346E+03  0.92241254488E+02 0.  0.
        254    2    1    2    0    0  0.15180346232E+03 -0.35212538326E+02 -0.33959300635E+03  0.97478265595E+03  0.90032971868E+03 0.  0.
        -24    2    4    4    0    0 -0.25369220003E+03  0.23782604201E+02 -0.46760432446E+03  0.53823533960E+03  0.78218488332E+02 0.  0.
         24    2    4    4    0    0  0.40549566235E+03 -0.58995142527E+02  0.12801131812E+03  0.43654731635E+03  0.79243314035E+02 0.  0.
         13    1    3    3    0    0 -0.60580849454E+02 -0.12569222400E+02 -0.56841229103E+03  0.57176967152E+03  0.00000000000E+00 0.  1.
        -13    1    3    3    0    0 -0.91222612863E+02  0.47781760726E+02 -0.37598026885E+03  0.38982794194E+03  0.00000000000E+00 0. -1.
          2    1    6    6  502    0  0.25012337866E+03 -0.48974260074E+02  0.11705391901E+03  0.28046711510E+03  0.00000000000E+00 0. -1.
          1    1    5    5  503    0 -0.16718807824E+03  0.33712140113E+02 -0.37012621729E+03  0.40753132226E+03  0.00000000000E+00 0. -1.
         -2    1    5    5    0  503 -0.86504121794E+02 -0.99295359122E+01 -0.97478107167E+02  0.13070401734E+03  0.00000000000E+00 0.  1.
         -1    1    6    6    0  502  0.15537228369E+03 -0.10020882453E+02  0.10957399110E+02  0.15608020124E+03  0.00000000000E+00 0.  1.
<mgrwt>
<rscale>  0 0.14494653E+04</rscale>
<asrwt>0</asrwt>
<pdfrwt beam="1">  1        1 0.50184208E-01 0.14494653E+04</pdfrwt>
<pdfrwt beam="2">  1       -1 0.24772045E+00 0.14494653E+04</pdfrwt>
<totfact> 0.55104625E+00</totfact>
</mgrwt>
</event>
<event>
12    1  0.2048318E-007  0.1592263E+04  0.7818608E-02  0.8825315E-01
         -2   -1    0    0    0  501 -0.00000000000E+00  0.00000000000E+00  0.96852738766E+03  0.96852738766E+03  0.00000000000E+00 0.  1.
          2   -1    0    0  501    0  0.00000000000E+00 -0.00000000000E+00 -0.65442144835E+03  0.65442144835E+03  0.00000000000E+00 0. -1.
         23    2    1    2    0    0 -0.38576420860E+03 -0.29215403674E+03 -0.13036995103E+03  0.50897733632E+03  0.88845928092E+02 0.  0.
        254    2    1    2    0    0  0.38576420860E+03  0.29215403674E+03  0.44447589034E+03  0.11139714997E+04  0.89955860243E+03 0.  0.
        -24    2    4    4    0    0  0.45825201296E+03  0.11912448617E+03  0.66092956353E+03  0.81658260432E+03  0.76116431559E+02 0.  0.
         24    2    4    4    0    0 -0.72487804364E+02  0.17302955057E+03 -0.21645367319E+03  0.29738889537E+03  0.79964087565E+02 0.  0.
         11    1    3    3    0    0 -0.30960521635E+03 -0.18709767678E+03 -0.85847174178E+02  0.37179385143E+03  0.00000000000E+00 0.  1.
        -11    1    3    3    0    0 -0.76158992246E+02 -0.10505635996E+03 -0.44522776850E+02  0.13718348489E+03  0.00000000000E+00 0. -1.
          4    1    6    6  502    0 -0.58659857742E+02  0.10896223105E+03 -0.18992038096E+03  0.22667928404E+03  0.00000000000E+00 0. -1.
          3    1    5    5  503    0  0.45545055451E+03  0.12454058342E+03  0.64371397304E+03  0.79831901118E+03  0.00000000000E+00 0. -1.
         -4    1    5    5    0  503  0.28014584515E+01 -0.54160972458E+01  0.17215590485E+02  0.18263593145E+02  0.00000000000E+00 0.  1.
         -3    1    6    6    0  502 -0.13827946622E+02  0.64067319522E+02 -0.26533292221E+02  0.70709611332E+02  0.00000000000E+00 0.  1.
<mgrwt>
<rscale>  0 0.15922627E+04</rscale>
<asrwt>0</asrwt>
<pdfrwt beam="1">  1        2 0.10068022E+00 0.15922627E+04</pdfrwt>
<pdfrwt beam="2">  1       -2 0.14900421E+00 0.15922627E+04</pdfrwt>
<totfact> 0.13037895E+01</totfact>
</mgrwt>
</event>
<event>
12    1  0.2048318E-007  0.2303729E+04  0.7818608E-02  0.8476452E-01
         -2   -1    0    0    0  501 -0.00000000000E+00  0.00000000000E+00  0.66867515042E+03  0.66867515042E+03  0.00000000000E+00 0.  1.
          2   -1    0    0  501    0  0.00000000000E+00 -0.00000000000E+00 -0.19842098904E+04  0.19842098904E+04  0.00000000000E+00 0. -1.
         23    2    1    2    0    0  0.62979918207E+03  0.39911840226E+03  0.16150734418E+03  0.76846721617E+03  0.92275301869E+02 0.  0.
        254    2    1    2    0    0 -0.62979918207E+03 -0.39911840226E+03 -0.14770420841E+04  0.18844178246E+04  0.90190615403E+03 0.  0.
        -24    2    4    4    0    0 -0.58119627593E+03 -0.34919544427E+02 -0.13744711037E+04  0.14947279495E+04  0.77668155022E+02 0.  0.
         24    2    4    4    0    0 -0.48602906145E+02 -0.36419885784E+03 -0.10257098043E+03  0.38968987515E+03  0.79588581024E+02 0.  0.
         11    1    3    3    0    0  0.35243010632E+03  0.19243569100E+03  0.47951173173E+02  0.40439805887E+03  0.00000000000E+00 0.  1.
        -11    1    3    3    0    0  0.27736907575E+03  0.20668271127E+03  0.11355617100E+03  0.36406915729E+03  0.00000000000E+00 0. -1.
          4    1    6    6  502    0 -0.66851549664E+02 -0.33410832622E+03 -0.91623873016E+02  0.35283485861E+03  0.00000000000E+00 0. -1.
          1    1    5    5  503    0 -0.34524898696E+03 -0.43135159174E+02 -0.89590950766E+03  0.96109903281E+03  0.00000000000E+00 0. -1.
         -2    1    5    5    0  503 -0.23594728897E+03  0.82156147475E+01 -0.47856159602E+03  0.53362891665E+03  0.00000000000E+00 0.  1.
         -3    1    6    6    0  502  0.18248643519E+02 -0.30090531615E+02 -0.10947107416E+02  0.36855016537E+02  0.00000000000E+00 0.  1.
<mgrwt>
<rscale>  0 0.23037290E+04</rscale>
<asrwt>0</asrwt>
<pdfrwt beam="1">  1        2 0.30526306E+00 0.23037290E+04</pdfrwt>
<pdfrwt beam="2">  1       -2 0.10287310E+00 0.23037290E+04</pdfrwt>
<totfact> 0.47704147E+00</totfact>
</mgrwt>
</event>
<event>
12    1  0.2048318E-007  0.1865601E+04  0.7818608E-02  0.8672171E-01
          2   -1    0    0  501    0  0.00000000000E+00  0.00000000000E+00  0.24675046604E+04  0.24675046604E+04  0.00000000000E+00 0. -1.
         -2   -1    0    0    0  501 -0.00000000000E+00 -0.00000000000E+00 -0.35263018091E+03  0.35263018091E+03  0.00000000000E+00 0.  1.
         23    2    1    2    0    0  0.28136666078E+03  0.36124722181E+03 -0.88252464355E+01  0.46752451279E+03  0.93992191304E+02 0.  0.
        254    2    1    2    0    0 -0.28136666078E+03 -0.36124722181E+03  0.21236997259E+04  0.23526103285E+04  0.90277797872E+03 0.  0.
        -24    2    4    4    0    0 -0.38823619023E+03  0.19037930283E+03  0.81295093686E+03  0.92423533761E+03  0.79687610046E+02 0.  0.
         24    2    4    4    0    0  0.10686952945E+03 -0.55162652464E+03  0.13107487890E+04  0.14283749909E+04  0.80497252056E+02 0.  0.
         13    1    3    3    0    0  0.13079201251E+03  0.24297289738E+03 -0.26013396426E+01  0.27595134782E+03  0.00000000000E+00 0. -1.
        -13    1    3    3    0    0  0.15057464827E+03  0.11827432442E+03 -0.62239067929E+01  0.19157316497E+03  0.00000000000E+00 0.  1.
          2    1    6    6  502    0  0.88237121519E+02 -0.24909500841E+03  0.63186082884E+03  0.68489577299E+03  0.00000000000E+00 0. -1.
          1    1    5    5  503    0 -0.93700472649E+02  0.20796090984E+02  0.23365592296E+03  0.25260116055E+03  0.00000000000E+00 0. -1.
         -2    1    5    5    0  503 -0.29453571758E+03  0.16958321185E+03  0.57929501390E+03  0.67163417706E+03  0.00000000000E+00 0.  1.
         -1    1    6    6    0  502  0.18632407927E+02 -0.30253151623E+03  0.67888796019E+03  0.74347921789E+03  0.00000000000E+00 0.  1.
<mgrwt>
<rscale>  0 0.18656008E+04</rscale>
<asrwt>0</asrwt>
<pdfrwt beam="1">  1        2 0.37961609E+00 0.18656008E+04</pdfrwt>
<pdfrwt beam="2">  1       -2 0.54250799E-01 0.18656008E+04</pdfrwt>
<totfact> 0.10930069E+01</totfact>
</mgrwt>
</event>
<event>
12    1  0.2048318E-007  0.1751766E+04  0.7818608E-02  0.8732379E-01
          1   -1    0    0  501    0  0.00000000000E+00  0.00000000000E+00  0.29924112985E+04  0.29924112985E+04  0.00000000000E+00 0. -1.
         -1   -1    0    0    0  501 -0.00000000000E+00 -0.00000000000E+00 -0.25637215030E+03  0.25637215030E+03  0.00000000000E+00 0.  1.
         23    2    1    2    0    0 -0.60896293082E+03 -0.44062904794E+02  0.13713559366E+04  0.15037072317E+04  0.87982630142E+02 0.  0.
        254    2    1    2    0    0  0.60896293082E+03  0.44062904794E+02  0.13646832116E+04  0.17450762171E+04  0.90008518747E+03 0.  0.
        -24    2    4    4    0    0 -0.23522516222E+02  0.35470801036E+03  0.33587827026E+03  0.49553775675E+03  0.79827154202E+02 0.  0.
         24    2    4    4    0    0  0.63248544704E+03 -0.31064510557E+03  0.10288049414E+04  0.12495384604E+04  0.79803096263E+02 0.  0.
         13    1    3    3    0    0 -0.32020646637E+03  0.43934081023E+01  0.63241098542E+03  0.70886891427E+03  0.00000000000E+00 0.  1.
        -13    1    3    3    0    0 -0.28875646445E+03 -0.48456312897E+02  0.73894495117E+03  0.79483831744E+03  0.00000000000E+00 0. -1.
          4    1    6    6  502    0  0.39186813784E+03 -0.23226537943E+03  0.63720020264E+03  0.78328279835E+03  0.00000000000E+00 0. -1.
          3    1    5    5  503    0 -0.49299332226E+02  0.19401751578E+03  0.20680572429E+03  0.28782256372E+03  0.00000000000E+00 0. -1.
         -4    1    5    5    0  503  0.25776816004E+02  0.16069049458E+03  0.12907254597E+03  0.20771519303E+03  0.00000000000E+00 0.  1.
         -3    1    6    6    0  502  0.24061730920E+03 -0.78379726135E+02  0.39160473873E+03  0.46625566201E+03  0.00000000000E+00 0.  1.
<mgrwt>
<rscale>  0 0.17517659E+04</rscale>
<asrwt>0</asrwt>
<pdfrwt beam="1">  1        1 0.46037094E+00 0.17517659E+04</pdfrwt>
<pdfrwt beam="2">  1       -1 0.39441871E-01 0.17517659E+04</pdfrwt>
<totfact> 0.35975498E+00</totfact>
</mgrwt>
</event>
<event>
12    1  0.2048318E-007  0.1865357E+04  0.7818608E-02  0.8672295E-01
          2   -1    0    0  501    0  0.00000000000E+00  0.00000000000E+00  0.59560330944E+03  0.59560330944E+03  0.00000000000E+00 0. -1.
         -2   -1    0    0    0  501 -0.00000000000E+00 -0.00000000000E+00 -0.14605180675E+04  0.14605180675E+04  0.00000000000E+00 0.  1.
         23    2    1    2    0    0  0.34197964898E+01  0.66419548870E+03 -0.61433710320E+03  0.90877586070E+03  0.85417483023E+02 0.  0.
        254    2    1    2    0    0 -0.34197964898E+01 -0.66419548870E+03 -0.25057765488E+03  0.11473455163E+04  0.90135743760E+03 0.  0.
        -24    2    4    4    0    0 -0.11427057920E+03  0.18793024810E+03 -0.15252292493E+03  0.27872661007E+03  0.77780055971E+02 0.  0.
         24    2    4    4    0    0  0.11085078271E+03 -0.85212573681E+03 -0.98054729942E+02  0.86861890619E+03  0.80485444425E+02 0.  0.
         13    1    3    3    0    0 -0.17563615794E+02  0.12089676232E+03 -0.15249614222E+03  0.19539595987E+03  0.00000000000E+00 0. -1.
        -13    1    3    3    0    0  0.20983412284E+02  0.54329872638E+03 -0.46184096098E+03  0.71337990084E+03  0.00000000000E+00 0.  1.
          2    1    6    6  502    0  0.73568814420E+02 -0.28040440824E+03 -0.42552404400E+02  0.29300121116E+03  0.00000000000E+00 0. -1.
          3    1    5    5  503    0 -0.18047837111E+02  0.25837272501E+02 -0.62141897489E+02  0.69677144733E+02  0.00000000000E+00 0. -1.
         -4    1    5    5    0  503 -0.96222742090E+02  0.16209297560E+03 -0.90381027445E+02  0.20904946534E+03  0.00000000000E+00 0.  1.
         -1    1    6    6    0  502  0.37281968291E+02 -0.57172132856E+03 -0.55502325542E+02  0.57561769503E+03  0.00000000000E+00 0.  1.
<mgrwt>
<rscale>  0 0.18653572E+04</rscale>
<asrwt>0</asrwt>
<pdfrwt beam="1">  1        2 0.91631279E-01 0.18653572E+04</pdfrwt>
<pdfrwt beam="2">  1       -2 0.22469509E+00 0.18653572E+04</pdfrwt>
<totfact> 0.43356281E+00</totfact>
</mgrwt>
</event>
<event>
12    1  0.2048318E-007  0.2710913E+04  0.7818608E-02  0.8331473E-01
         -1   -1    0    0    0  501 -0.00000000000E+00  0.00000000000E+00  0.87083682326E+03  0.87083682326E+03  0.00000000000E+00 0.  1.
          1   -1    0    0  501    0  0.00000000000E+00 -0.00000000000E+00 -0.21097666826E+04  0.21097666826E+04  0.00000000000E+00 0. -1.
         23    2    1    2    0    0 -0.73929069701E+03  0.74771938549E+03 -0.11983870151E+04  0.15968870123E+04  0.91003725041E+02 0.  0.
        254    2    1    2    0    0  0.73929069701E+03 -0.74771938549E+03 -0.40542844236E+02  0.13837164935E+04  0.89855027582E+03 0.  0.
        -24    2    4    4    0    0  0.32659179761E+03 -0.70689358061E+02 -0.38331829791E+03  0.51561297705E+03  0.85232839820E+02 0.  0.
         24    2    4    4    0    0  0.41269889940E+03 -0.67703002743E+03  0.34277545367E+03  0.86810351650E+03  0.86131667251E+02 0.  0.
         13    1    3    3    0    0 -0.47401155512E+03  0.53970121102E+03 -0.81760786963E+03  0.10883230127E+04  0.00000000000E+00 0.  1.
        -13    1    3    3    0    0 -0.26527914189E+03  0.20801817448E+03 -0.38077914542E+03  0.50856399954E+03  0.00000000000E+00 0. -1.
          2    1    6    6  502    0  0.30440622516E+03 -0.45310337230E+03  0.26969444769E+03  0.60885212575E+03  0.00000000000E+00 0. -1.
          1    1    5    5  503    0  0.28044382899E+03 -0.67449845486E+02 -0.36649606922E+03  0.46638781248E+03  0.00000000000E+00 0. -1.
         -2    1    5    5    0  503  0.46147968616E+02 -0.32395125750E+01 -0.16822228691E+02  0.49225164573E+02  0.00000000000E+00 0.  1.
         -1    1    6    6    0  502  0.10829267424E+03 -0.22392665513E+03  0.73081005978E+02  0.25925139075E+03  0.00000000000E+00 0.  1.
<mgrwt>
<rscale>  0 0.27109131E+04</rscale>
<asrwt>0</asrwt>
<pdfrwt beam="1">  1        1 0.32457949E+00 0.27109131E+04</pdfrwt>
<pdfrwt beam="2">  1       -1 0.13397490E+00 0.27109131E+04</pdfrwt>
<totfact> 0.10282135E+00</totfact>
</mgrwt>
</event>
<event>
12    1  0.2048318E-007  0.2504157E+04  0.7818608E-02  0.8401506E-01
          1   -1    0    0  501    0  0.00000000000E+00  0.00000000000E+00  0.15936526246E+04  0.15936526246E+04  0.00000000000E+00 0.  1.
         -1   -1    0    0    0  501 -0.00000000000E+00 -0.00000000000E+00 -0.98371520156E+03  0.98371520156E+03  0.00000000000E+00 0. -1.
         23    2    1    2    0    0 -0.52624308194E+01  0.72160255290E+03  0.11034616137E+04  0.13215324277E+04  0.89902653747E+02 0.  0.
        254    2    1    2    0    0  0.52624308194E+01 -0.72160255290E+03 -0.49352419067E+03  0.12558353984E+04  0.90156446447E+03 0.  0.
        -24    2    4    4    0    0  0.18303298542E+03 -0.22375753768E+02  0.17685788112E+03  0.26749632047E+03  0.79207469593E+02 0.  0.
         24    2    4    4    0    0 -0.17777055460E+03 -0.69922679913E+03 -0.67038207179E+03  0.98833907794E+03  0.82954952285E+02 0.  0.
         11    1    3    3    0    0  0.29894518965E+02  0.24503004943E+03  0.32529166462E+03  0.40834798207E+03  0.00000000000E+00 0. -1.
        -11    1    3    3    0    0 -0.35156949784E+02  0.47657250347E+03  0.77816994906E+03  0.91318444566E+03  0.00000000000E+00 0.  1.
          4    1    6    6  502    0 -0.17484223184E+03 -0.70030058260E+03 -0.66203740511E+03  0.97943056813E+03  0.00000000000E+00 0. -1.
          1    1    5    5  503    0  0.17456632363E+03 -0.20595661075E+02  0.18529956019E+03  0.25540851515E+03  0.00000000000E+00 0. -1.
         -2    1    5    5    0  503  0.84666617885E+01 -0.17800926929E+01 -0.84416790734E+01  0.12087805318E+02  0.00000000000E+00 0.  1.
         -3    1    6    6    0  502 -0.29283227665E+01  0.10737834672E+01 -0.83446666750E+01  0.89085098123E+01  0.00000000000E+00 0.  1.
<mgrwt>
<rscale>  0 0.25041568E+04</rscale>
<asrwt>0</asrwt>
<pdfrwt beam="1">  1        1 0.24517733E+00 0.25041568E+04</pdfrwt>
<pdfrwt beam="2">  1       -1 0.15134080E+00 0.25041568E+04</pdfrwt>
<totfact> 0.17049707E+00</totfact>
</mgrwt>
</event>
<event>
12    1  0.2048318E-007  0.1682966E+04  0.7818608E-02  0.8771139E-01
         -2   -1    0    0    0  501 -0.00000000000E+00  0.00000000000E+00  0.79060178173E+03  0.79060178173E+03  0.00000000000E+00 0. -1.
          2   -1    0    0  501    0  0.00000000000E+00 -0.00000000000E+00 -0.89563930648E+03  0.89563930648E+03  0.00000000000E+00 0.  1.
         23    2    1    2    0    0 -0.61068265250E+02  0.47923977660E+03 -0.41052037993E+03  0.64058593054E+03  0.91778295719E+02 0.  0.
        254    2    1    2    0    0  0.61068265250E+02 -0.47923977660E+03  0.30548285518E+03  0.10456551577E+04  0.87559970161E+03 0.  0.
        -24    2    4    4    0    0 -0.21094379700E+03 -0.29940721553E+03  0.52468340956E+03  0.64475067827E+03  0.79175694835E+02 0.  0.
         24    2    4    4    0    0  0.27201206225E+03 -0.17983256108E+03 -0.21920055439E+03  0.40090447940E+03  0.79656804659E+02 0.  0.
         13    1    3    3    0    0 -0.53592996137E+02  0.12626524150E+03 -0.92720986925E+02  0.16556660853E+03  0.00000000000E+00 0. -1.
        -13    1    3    3    0    0 -0.74752691125E+01  0.35297453511E+03 -0.31779939300E+03  0.47501932200E+03  0.00000000000E+00 0.  1.
          4    1    6    6  502    0  0.26176789038E+03 -0.18437454656E+03 -0.22167243960E+03  0.38942916215E+03  0.00000000000E+00 0. -1.
          3    1    5    5  503    0 -0.21296040510E+03 -0.27461005736E+03  0.46857763224E+03  0.58337622096E+03  0.00000000000E+00 0. -1.
         -4    1    5    5    0  503  0.20166080909E+01 -0.24797158164E+02  0.56105777320E+02  0.61374457308E+02  0.00000000000E+00 0.  1.
         -3    1    6    6    0  502  0.10244171874E+02  0.45419854856E+01  0.24718852176E+01  0.11475317253E+02  0.00000000000E+00 0.  1.
<mgrwt>
<rscale>  0 0.16829665E+04</rscale>
<asrwt>0</asrwt>
<pdfrwt beam="1">  1        2 0.13779066E+00 0.16829665E+04</pdfrwt>
<pdfrwt beam="2">  1       -2 0.12163104E+00 0.16829665E+04</pdfrwt>
<totfact> 0.14442195E+01</totfact>
</mgrwt>
</event>
<event>
12    1  0.2048318E-007  0.2422099E+04  0.7818608E-02  0.8431276E-01
          1   -1    0    0  501    0  0.00000000000E+00  0.00000000000E+00  0.21848139862E+04  0.21848139862E+04  0.00000000000E+00 0. -1.
         -1   -1    0    0    0  501 -0.00000000000E+00 -0.00000000000E+00 -0.67128874024E+03  0.67128874024E+03  0.00000000000E+00 0.  1.
         23    2    1    2    0    0 -0.35349313054E+03 -0.97189032217E+03  0.49028725536E+03  0.11471893578E+04  0.78317547999E+02 0.  0.
        254    2    1    2    0    0  0.35349313054E+03  0.97189032217E+03  0.10232379906E+04  0.17089133686E+04  0.89657165041E+03 0.  0.
        -24    2    4    4    0    0  0.35974408697E+03  0.67025145620E+03  0.11426587203E+04  0.13751121970E+04  0.81312856711E+02 0.  0.
         24    2    4    4    0    0 -0.62509564340E+01  0.30163886597E+03 -0.11942072963E+03  0.33380117163E+03  0.78337932064E+02 0.  0.
         11    1    3    3    0    0 -0.19515789439E+03 -0.51177338322E+03  0.30176201466E+03  0.62534703406E+03  0.00000000000E+00 0. -1.
        -11    1    3    3    0    0 -0.15833523615E+03 -0.46011693896E+03  0.18852524070E+03  0.52184232379E+03  0.00000000000E+00 0.  1.
          4    1    6    6  502    0 -0.20934627161E+02  0.31759128281E+02  0.66923632705E+00  0.38044036600E+02  0.00000000000E+00 0. -1.
          1    1    5    5  503    0  0.11273538237E+03  0.25226083076E+03  0.35530880326E+03  0.45009903227E+03  0.00000000000E+00 0. -1.
         -2    1    5    5    0  503  0.24700870460E+03  0.41799062544E+03  0.78734991699E+03  0.92501316471E+03  0.00000000000E+00 0.  1.
         -1    1    6    6    0  502  0.14683670727E+02  0.26987973769E+03 -0.12008996596E+03  0.29575713503E+03  0.00000000000E+00 0.  1.
<mgrwt>
<rscale>  0 0.24220991E+04</rscale>
<asrwt>0</asrwt>
<pdfrwt beam="1">  1        1 0.33612523E+00 0.24220991E+04</pdfrwt>
<pdfrwt beam="2">  1       -1 0.10327519E+00 0.24220991E+04</pdfrwt>
<totfact> 0.17652308E+00</totfact>
</mgrwt>
</event>
<event>
12    1  0.2048318E-007  0.1456967E+04  0.7818608E-02  0.8913585E-01
         -2   -1    0    0    0  501 -0.00000000000E+00  0.00000000000E+00  0.13549875945E+03  0.13549875945E+03  0.00000000000E+00 0.  1.
          2   -1    0    0  501    0  0.00000000000E+00 -0.00000000000E+00 -0.39165547953E+04  0.39165547953E+04  0.00000000000E+00 0. -1.
         23    2    1    2    0    0 -0.35555968557E+03  0.12351085228E+03 -0.51788590301E+03  0.64662474932E+03  0.90775201831E+02 0.  0.
        254    2    1    2    0    0  0.35555968557E+03 -0.12351085228E+03 -0.32631701328E+04  0.34054288054E+04  0.89832533767E+03 0.  0.
        -24    2    4    4    0    0  0.35925032560E+03  0.23100557369E+03 -0.27045914750E+04  0.27391220974E+04  0.74501319018E+02 0.  0.
         24    2    4    4    0    0 -0.36906400370E+01 -0.35451642597E+03 -0.55857865784E+03  0.66630670798E+03  0.79113810374E+02 0.  0.
         13    1    3    3    0    0 -0.25978404580E+03  0.66311771388E+02 -0.30360450379E+03  0.40504406698E+03  0.00000000000E+00 0. -1.
        -13    1    3    3    0    0 -0.95775639771E+02  0.57199080896E+02 -0.21428139922E+03  0.24158068234E+03  0.00000000000E+00 0.  1.
          4    1    6    6  502    0  0.27647682121E+02 -0.14017782678E+03 -0.17636916467E+03  0.22698083552E+03  0.00000000000E+00 0. -1.
          3    1    5    5  503    0  0.20443714728E+03  0.16526227736E+03 -0.17888475522E+04  0.18080602126E+04  0.00000000000E+00 0. -1.
         -4    1    5    5    0  503  0.15481317833E+03  0.65743296333E+02 -0.91574392283E+03  0.93106188484E+03  0.00000000000E+00 0.  1.
         -3    1    6    6    0  502 -0.31338322158E+02 -0.21433859920E+03 -0.38220949317E+03  0.43932587246E+03  0.00000000000E+00 0.  1.
<mgrwt>
<rscale>  0 0.14569671E+04</rscale>
<asrwt>0</asrwt>
<pdfrwt beam="1">  1        2 0.60254701E+00 0.14569671E+04</pdfrwt>
<pdfrwt beam="2">  1       -2 0.20845959E-01 0.14569671E+04</pdfrwt>
<totfact> 0.78668136E+00</totfact>
</mgrwt>
</event>
<event>
12    1  0.2048318E-007  0.2637987E+04  0.7818608E-02  0.8355411E-01
         -1   -1    0    0    0  501 -0.00000000000E+00  0.00000000000E+00  0.16924168058E+04  0.16924168058E+04  0.00000000000E+00 0.  1.
          1   -1    0    0  501    0  0.00000000000E+00 -0.00000000000E+00 -0.10279644541E+04  0.10279644541E+04  0.00000000000E+00 0. -1.
         23    2    1    2    0    0 -0.50175632039E+03 -0.56812380103E+03  0.12041228555E+04  0.14252154302E+04  0.82480984145E+02 0.  0.
        254    2    1    2    0    0  0.50175632039E+03  0.56812380103E+03 -0.53967050387E+03  0.12951658297E+04  0.90093629923E+03 0.  0.
        -24    2    4    4    0    0  0.26447482322E+03 -0.21790439938E+03 -0.18167066061E+03  0.39585891277E+03  0.79188323067E+02 0.  0.
         24    2    4    4    0    0  0.23728149717E+03  0.78602820041E+03 -0.35799984325E+03  0.89930691691E+03  0.80288245017E+02 0.  0.
         13    1    3    3    0    0 -0.21840023524E+03 -0.24228478139E+03  0.59523924381E+03  0.67875646252E+03  0.00000000000E+00 0.  1.
        -13    1    3    3    0    0 -0.28335608515E+03 -0.32583901964E+03  0.60888361174E+03  0.74645896763E+03  0.00000000000E+00 0. -1.
          2    1    6    6  502    0  0.92974160585E+02  0.44538106065E+03 -0.19285265669E+03  0.49416660239E+03  0.00000000000E+00 0. -1.
          3    1    5    5  503    0  0.17688622204E+03 -0.13225168526E+03 -0.74490630056E+02  0.23308388569E+03  0.00000000000E+00 0. -1.
         -2    1    5    5    0  503  0.87588601173E+02 -0.85652714121E+02 -0.10718003056E+03  0.16277502708E+03  0.00000000000E+00 0.  1.
         -1    1    6    6    0  502  0.14430733659E+03  0.34064713976E+03 -0.16514718657E+03  0.40514031452E+03  0.00000000000E+00 0.  1.
<mgrwt>
<rscale>  0 0.26379874E+04</rscale>
<asrwt>0</asrwt>
<pdfrwt beam="1">  1        1 0.15814838E+00 0.26379874E+04</pdfrwt>
<pdfrwt beam="2">  1       -1 0.26037182E+00 0.26379874E+04</pdfrwt>
<totfact> 0.75376953E-01</totfact>
</mgrwt>
</event>
<event>
12    1  0.2048318E-007  0.1984603E+04  0.7818608E-02  0.8613853E-01
          4   -1    0    0  501    0  0.00000000000E+00  0.00000000000E+00  0.10153151671E+04  0.10153151671E+04  0.00000000000E+00 0. -1.
         -4   -1    0    0    0  501 -0.00000000000E+00 -0.00000000000E+00 -0.96980921630E+03  0.96980921630E+03  0.00000000000E+00 0.  1.
         23    2    1    2    0    0 -0.60607560781E+03 -0.10066920873E+03  0.50794853966E+03  0.80238754540E+03  0.91389945285E+02 0.  0.
        254    2    1    2    0    0  0.60607560781E+03  0.10066920873E+03 -0.46244258890E+03  0.11827368379E+04  0.89863860803E+03 0.  0.
        -24    2    4    4    0    0  0.64910733284E+02  0.36028376207E+03  0.64789650862E+02  0.37980052573E+03  0.77672054061E+02 0.  0.
         24    2    4    4    0    0  0.54116487453E+03 -0.25961455333E+03 -0.52723223977E+03  0.80293631222E+03  0.80459611652E+02 0.  0.
         13    1    3    3    0    0 -0.21711503189E+03 -0.15081038068E+02  0.13100808756E+03  0.25402656119E+03  0.00000000000E+00 0.  1.
        -13    1    3    3    0    0 -0.38896057592E+03 -0.85588170664E+02  0.37694045210E+03  0.54836098422E+03  0.00000000000E+00 0. -1.
          4    1    6    6  502    0  0.15841761719E+03 -0.11464111415E+03 -0.15194883960E+03  0.24764324410E+03  0.00000000000E+00 0. -1.
          1    1    5    5  503    0  0.62048383696E+01  0.21865327785E+03  0.17887149522E+02  0.21947142423E+03  0.00000000000E+00 0. -1.
         -2    1    5    5    0  503  0.58705894915E+02  0.14163048421E+03  0.46902501340E+02  0.16032910150E+03  0.00000000000E+00 0.  1.
         -3    1    6    6    0  502  0.38274725734E+03 -0.14497343918E+03 -0.37528340017E+03  0.55529306812E+03  0.00000000000E+00 0.  1.
<mgrwt>
<rscale>  0 0.19846027E+04</rscale>
<asrwt>0</asrwt>
<pdfrwt beam="1">  1        4 0.15620233E+00 0.19846027E+04</pdfrwt>
<pdfrwt beam="2">  1       -4 0.14920142E+00 0.19846027E+04</pdfrwt>
<totfact> 0.15020195E-01</totfact>
</mgrwt>
</event>
<event>
12    1  0.2048318E-007  0.1881185E+04  0.7818608E-02  0.8664279E-01
          2   -1    0    0  501    0  0.00000000000E+00  0.00000000000E+00  0.19377671703E+04  0.19377671703E+04  0.00000000000E+00 0. -1.
         -2   -1    0    0    0  501 -0.00000000000E+00 -0.00000000000E+00 -0.45656398101E+03  0.45656398101E+03  0.00000000000E+00 0.  1.
         23    2    1    2    0    0 -0.37112849678E+03 -0.12109827012E+03  0.13440006035E+04  0.14023782541E+04  0.89028048048E+02 0.  0.
        254    2    1    2    0    0  0.37112849678E+03  0.12109827012E+03  0.13720258585E+03  0.99195289723E+03  0.90152362621E+03 0.  0.
        -24    2    4    4    0    0  0.11831701508E+03 -0.33542901389E+03  0.26130257445E+03  0.44857643594E+03  0.80188802549E+02 0.  0.
         24    2    4    4    0    0  0.25281148170E+03  0.45652728400E+03 -0.12409998860E+03  0.54337646129E+03  0.86754626338E+02 0.  0.
         13    1    3    3    0    0 -0.23660932786E+03 -0.75061953100E+02  0.69537377335E+03  0.73835151215E+03  0.00000000000E+00 0.  1.
        -13    1    3    3    0    0 -0.13451916892E+03 -0.46036317016E+02  0.64862683011E+03  0.66402674196E+03  0.00000000000E+00 0. -1.
          2    1    6    6  502    0  0.36648635749E+02  0.14209880319E+03 -0.47080475727E+02  0.15411607172E+03  0.00000000000E+00 0. -1.
          3    1    5    5  503    0  0.11291401261E+03 -0.21178948502E+03  0.18667747212E+03  0.30406058411E+03  0.00000000000E+00 0. -1.
         -4    1    5    5    0  503  0.54030024630E+01 -0.12363952887E+03  0.74625102328E+02  0.14451585183E+03  0.00000000000E+00 0.  1.
         -3    1    6    6    0  502  0.21616284595E+03  0.31442848082E+03 -0.77019512877E+02  0.38926038956E+03  0.00000000000E+00 0.  1.
<mgrwt>
<rscale>  0 0.18811855E+04</rscale>
<asrwt>0</asrwt>
<pdfrwt beam="1">  1        2 0.29811802E+00 0.18811855E+04</pdfrwt>
<pdfrwt beam="2">  1       -2 0.70240613E-01 0.18811855E+04</pdfrwt>
<totfact> 0.12520360E+01</totfact>
</mgrwt>
</event>
<event>
12    1  0.2048318E-007  0.1288155E+04  0.7818608E-02  0.9039011E-01
          1   -1    0    0  501    0  0.00000000000E+00  0.00000000000E+00  0.13098336822E+04  0.13098336822E+04  0.00000000000E+00 0. -1.
         -1   -1    0    0    0  501 -0.00000000000E+00 -0.00000000000E+00 -0.31670885133E+03  0.31670885133E+03  0.00000000000E+00 0.  1.
         23    2    1    2    0    0  0.25826656646E+03  0.30283097215E+02  0.49463198693E+03  0.56627294617E+03  0.91572712855E+02 0.  0.
        254    2    1    2    0    0 -0.25826656646E+03 -0.30283097215E+02  0.49849284396E+03  0.10602695874E+04  0.89892035082E+03 0.  0.
        -24    2    4    4    0    0 -0.43956363150E+03  0.27556807187E+03  0.45315099265E+03  0.69361683033E+03  0.81268301371E+02 0.  0.
         24    2    4    4    0    0  0.18129706504E+03 -0.30585116909E+03  0.45341851301E+02  0.36665275705E+03  0.77232100503E+02 0.  0.
         11    1    3    3    0    0  0.20037090194E+03  0.54585639454E+02  0.42150561635E+03  0.46988836439E+03  0.00000000000E+00 0. -1.
        -11    1    3    3    0    0  0.57895664521E+02 -0.24302542240E+02  0.73126370583E+02  0.96384581777E+02  0.00000000000E+00 0.  1.
          2    1    6    6  502    0 -0.29982818204E+01 -0.44134705864E+01 -0.77137501525E+01  0.93792514577E+01  0.00000000000E+00 0. -1.
          3    1    5    5  503    0 -0.23186258547E+02  0.30638890607E+02  0.14393213499E+02  0.41030583689E+02  0.00000000000E+00 0. -1.
         -4    1    5    5    0  503 -0.41637737295E+03  0.24492918127E+03  0.43875777915E+03  0.65258624665E+03  0.00000000000E+00 0.  1.
         -1    1    6    6    0  502  0.18429534686E+03 -0.30143769850E+03  0.53055601454E+02  0.35727350559E+03  0.00000000000E+00 0.  1.
<mgrwt>
<rscale>  0 0.12881551E+04</rscale>
<asrwt>0</asrwt>
<pdfrwt beam="1">  1        1 0.20151287E+00 0.12881551E+04</pdfrwt>
<pdfrwt beam="2">  1       -1 0.48724439E-01 0.12881551E+04</pdfrwt>
<totfact> 0.36893175E+01</totfact>
</mgrwt>
</event>
<event>
12    1  0.2048318E-007  0.4814956E+04  0.7818608E-02  0.7857704E-01
          2   -1    0    0  501    0  0.00000000000E+00  0.00000000000E+00  0.22335269873E+04  0.22335269873E+04  0.00000000000E+00 0. -1.
         -2   -1    0    0    0  501 -0.00000000000E+00 -0.00000000000E+00 -0.25949770776E+04  0.25949770776E+04  0.00000000000E+00 0.  1.
         23    2    1    2    0    0  0.15624250283E+04  0.15199168784E+04  0.62942197760E+03  0.22707392144E+04  0.93623007676E+02 0.  0.
        254    2    1    2    0    0 -0.15624250283E+04 -0.15199168784E+04 -0.99087206793E+03  0.25577648506E+04  0.89945221636E+03 0.  0.
        -24    2    4    4    0    0 -0.70343048712E+03 -0.10930341824E+04 -0.91601720367E+03  0.15922584280E+04  0.81616235556E+02 0.  0.
         24    2    4    4    0    0 -0.85899454118E+03 -0.42688269594E+03 -0.74854864256E+02  0.96550642256E+03  0.80616024670E+02 0.  0.
         11    1    3    3    0    0  0.87210126618E+03  0.89818362003E+03  0.39194224686E+03  0.13118357971E+04  0.00000000000E+00 0. -1.
        -11    1    3    3    0    0  0.69032376212E+03  0.62173325836E+03  0.23747973074E+03  0.95890341725E+03  0.00000000000E+00 0.  1.
          2    1    6    6  502    0 -0.42124609778E+03 -0.21664522130E+03  0.29253151374E+01  0.47370031061E+03  0.00000000000E+00 0. -1.
          1    1    5    5  503    0 -0.65969219640E+03 -0.10473721822E+04 -0.85506088230E+03  0.15044305881E+04  0.00000000000E+00 0. -1.
         -2    1    5    5    0  503 -0.43738290717E+02 -0.45662000220E+02 -0.60956321370E+02  0.87827839857E+02  0.00000000000E+00 0.  1.
         -1    1    6    6    0  502 -0.43774844340E+03 -0.21023747464E+03 -0.77780179394E+02  0.49180611195E+03  0.00000000000E+00 0.  1.
<mgrwt>
<rscale>  0 0.48149564E+04</rscale>
<asrwt>0</asrwt>
<pdfrwt beam="1">  1        2 0.34361954E+00 0.48149564E+04</pdfrwt>
<pdfrwt beam="2">  1       -2 0.39922724E+00 0.48149564E+04</pdfrwt>
<totfact> 0.27441434E-02</totfact>
</mgrwt>
</event>
<event>
12    1  0.2048318E-007  0.2191858E+04  0.7818608E-02  0.8521825E-01
          1   -1    0    0  501    0  0.00000000000E+00  0.00000000000E+00  0.12497520524E+04  0.12497520524E+04  0.00000000000E+00 0. -1.
         -1   -1    0    0    0  501 -0.00000000000E+00 -0.00000000000E+00 -0.96103918056E+03  0.96103918056E+03  0.00000000000E+00 0.  1.
         23    2    1    2    0    0  0.90599243653E+03 -0.86711221930E+02  0.12159240198E+03  0.92272932132E+03  0.91123856057E+02 0.  0.
        254    2    1    2    0    0 -0.90599243653E+03  0.86711221930E+02  0.16712046984E+03  0.12880619116E+04  0.89600954552E+03 0.  0.
        -24    2    4    4    0    0 -0.70208264954E+03 -0.12414037923E+03  0.47099291216E+03  0.85805334655E+03  0.78040641217E+02 0.  0.
         24    2    4    4    0    0 -0.20390978699E+03  0.21085160116E+03 -0.30387244232E+03  0.43000856507E+03  0.80816495138E+02 0.  0.
         11    1    3    3    0    0  0.47540956916E+03 -0.20647718288E+02  0.10200457415E+03  0.48666777155E+03  0.00000000000E+00 0. -1.
        -11    1    3    3    0    0  0.43058286738E+03 -0.66063503642E+02  0.19587827834E+02  0.43606154977E+03  0.00000000000E+00 0.  1.
          4    1    6    6  502    0 -0.11550883780E+03  0.83968756263E+02 -0.19134392687E+03  0.23875833386E+03  0.00000000000E+00 0. -1.
          1    1    5    5  503    0 -0.45863616146E+03 -0.48075645527E+02  0.32508015499E+03  0.56421228581E+03  0.00000000000E+00 0. -1.
         -2    1    5    5    0  503 -0.24344648808E+03 -0.76064733702E+02  0.14591275717E+03  0.29384106074E+03  0.00000000000E+00 0.  1.
         -3    1    6    6    0  502 -0.88400949193E+02  0.12688284490E+03 -0.11252851546E+03  0.19125023121E+03  0.00000000000E+00 0.  1.
<mgrwt>
<rscale>  0 0.21918583E+04</rscale>
<asrwt>0</asrwt>
<pdfrwt beam="1">  1        1 0.19226955E+00 0.21918583E+04</pdfrwt>
<pdfrwt beam="2">  1       -1 0.14785218E+00 0.21918583E+04</pdfrwt>
<totfact> 0.32535431E+00</totfact>
</mgrwt>
</event>
<event>
12    1  0.2801545E-007  0.2482279E+04  0.7818608E-02  0.8409326E-01
          1   -1    0    0  501    0  0.00000000000E+00  0.00000000000E+00  0.23087663422E+04  0.23087663422E+04  0.00000000000E+00 0. -1.
         -1   -1    0    0    0  501 -0.00000000000E+00 -0.00000000000E+00 -0.66720782189E+03  0.66720782189E+03  0.00000000000E+00 0.  1.
         23    2    1    2    0    0 -0.67985192499E+03 -0.51504507605E+03 -0.72396981653E+02  0.86062577551E+03  0.89248710029E+02 0.  0.
        254    2    1    2    0    0  0.67985192499E+03  0.51504507605E+03  0.17139555020E+04  0.21153483886E+04  0.89976956613E+03 0.  0.
        -24    2    4    4    0    0  0.84526786579E+03  0.34240406348E+03  0.98908313770E+03  0.13477628165E+04  0.80379403524E+02 0.  0.
         24    2    4    4    0    0 -0.16541594080E+03  0.17264101257E+03  0.72487236429E+03  0.76758557216E+03  0.81119130825E+02 0.  0.
         11    1    3    3    0    0 -0.54019112730E+03 -0.43095949977E+03 -0.27713298969E+02  0.69159277858E+03  0.00000000000E+00 0. -1.
        -11    1    3    3    0    0 -0.13966079769E+03 -0.84085576281E+02 -0.44683682684E+02  0.16903299692E+03  0.00000000000E+00 0.  1.
          4    1    6    6  502    0 -0.14619406961E+03  0.17646836414E+03  0.62218291202E+03  0.66304250659E+03  0.00000000000E+00 0. -1.
          1    1    5    5  503    0  0.73785038234E+03  0.27124615580E+03  0.83320205927E+03  0.11455231710E+04  0.00000000000E+00 0. -1.
         -2    1    5    5    0  503  0.10741748345E+03  0.71157907682E+02  0.15588107842E+03  0.20223964544E+03  0.00000000000E+00 0.  1.
         -3    1    6    6    0  502 -0.19221871194E+02 -0.38273515706E+01  0.10268945227E+03  0.10454306557E+03  0.00000000000E+00 0.  1.
<mgrwt>
<rscale>  0 0.24822788E+04</rscale>
<asrwt>0</asrwt>
<pdfrwt beam="1">  1        1 0.35519482E+00 0.24822788E+04</pdfrwt>
<pdfrwt beam="2">  1       -1 0.10264736E+00 0.24822788E+04</pdfrwt>
<totfact> 0.14652406E+00</totfact>
</mgrwt>
</event>
<event>
12    1  0.3487933E-007  0.2483270E+04  0.7818608E-02  0.8408970E-01
         -2   -1    0    0    0  501 -0.00000000000E+00  0.00000000000E+00  0.79956925205E+03  0.79956925205E+03  0.00000000000E+00 0.  1.
          2   -1    0    0  501    0  0.00000000000E+00 -0.00000000000E+00 -0.19281093654E+04  0.19281093654E+04  0.00000000000E+00 0. -1.
         23    2    1    2    0    0 -0.54591701071E+03  0.82673912509E+03 -0.95285585109E+03  0.13776329300E+04  0.91734689573E+02 0.  0.
        254    2    1    2    0    0  0.54591701071E+03 -0.82673912509E+03 -0.17568426226E+03  0.13500456875E+04  0.90013078754E+03 0.  0.
        -24    2    4    4    0    0 -0.11342895121E+03 -0.60359985733E+03 -0.19455768781E+03  0.64930613336E+03  0.80912583704E+02 0.  0.
         24    2    4    4    0    0  0.65934596192E+03 -0.22313926777E+03  0.18873425546E+02  0.70073955410E+03  0.78431410602E+02 0.  0.
         13    1    3    3    0    0 -0.29427882081E+03  0.39653596804E+03 -0.42296475784E+03  0.65018457741E+03  0.00000000000E+00 0.  1.
        -13    1    3    3    0    0 -0.25163818990E+03  0.43020315705E+03 -0.52989109325E+03  0.72744835257E+03  0.00000000000E+00 0. -1.
          4    1    6    6  502    0  0.10080114075E+02 -0.53476075546E+01  0.11035364941E+02  0.15874031804E+02  0.00000000000E+00 0. -1.
          1    1    5    5  503    0  0.62763891035E+01 -0.38117747122E+02 -0.28201850195E+02  0.47829907592E+02  0.00000000000E+00 0. -1.
         -2    1    5    5    0  503 -0.11970534031E+03 -0.56548211021E+03 -0.16635583761E+03  0.60147622577E+03  0.00000000000E+00 0.  1.
         -3    1    6    6    0  502  0.64926584784E+03 -0.21779166021E+03  0.78380606045E+01  0.68486552229E+03  0.00000000000E+00 0.  1.
<mgrwt>
<rscale>  0 0.24832696E+04</rscale>
<asrwt>0</asrwt>
<pdfrwt beam="1">  1        2 0.29663221E+00 0.24832696E+04</pdfrwt>
<pdfrwt beam="2">  1       -2 0.12301065E+00 0.24832696E+04</pdfrwt>
<totfact> 0.32658095E+00</totfact>
</mgrwt>
</event>
<event>
12    1  0.2048318E-007  0.2183945E+04  0.7818608E-02  0.8525140E-01
         -1   -1    0    0    0  501 -0.00000000000E+00  0.00000000000E+00  0.55867289435E+03  0.55867289435E+03  0.00000000000E+00 0.  1.
          1   -1    0    0  501    0  0.00000000000E+00 -0.00000000000E+00 -0.21343508433E+04  0.21343508433E+04  0.00000000000E+00 0. -1.
         23    2    1    2    0    0  0.73103128238E+03  0.19104106713E+03 -0.12676671732E+04  0.14785160242E+04  0.90145142147E+02 0.  0.
        254    2    1    2    0    0 -0.73103128238E+03 -0.19104106713E+03 -0.30801077582E+03  0.12145077135E+04  0.89958597311E+03 0.  0.
        -24    2    4    4    0    0 -0.71691700516E+03  0.13436005136E+03  0.35547660835E+02  0.73476543376E+03  0.81203391339E+02 0.  0.
         24    2    4    4    0    0 -0.14114277212E+02 -0.32540111849E+03 -0.34355843665E+03  0.47974227975E+03  0.77686259076E+02 0.  0.
         11    1    3    3    0    0  0.29489171466E+03  0.11270218921E+03 -0.58243657939E+03  0.66249171756E+03  0.00000000000E+00 0. -1.
        -11    1    3    3    0    0  0.43613956772E+03  0.78338877925E+02 -0.68523059376E+03  0.81602430660E+03  0.00000000000E+00 0.  1.
          2    1    6    6  502    0  0.12214352758E+02 -0.14884607858E+03 -0.20570231009E+03  0.25420028697E+03  0.00000000000E+00 0. -1.
          1    1    5    5  503    0 -0.39881307532E+02  0.14880476269E+02 -0.15677612693E+02  0.45362261895E+02  0.00000000000E+00 0. -1.
         -2    1    5    5    0  503 -0.67703569763E+03  0.11947957509E+03  0.51225273528E+02  0.68940317187E+03  0.00000000000E+00 0.  1.
         -1    1    6    6    0  502 -0.26328629970E+02 -0.17655503992E+03 -0.13785612656E+03  0.22554199278E+03  0.00000000000E+00 0.  1.
<mgrwt>
<rscale>  0 0.21839450E+04</rscale>
<asrwt>0</asrwt>
<pdfrwt beam="1">  1        1 0.32836167E+00 0.21839450E+04</pdfrwt>
<pdfrwt beam="2">  1       -1 0.85949676E-01 0.21839450E+04</pdfrwt>
<totfact> 0.29460584E+00</totfact>
</mgrwt>
</event>
<event>
12    1  0.2048318E-007  0.1423542E+04  0.7818608E-02  0.8936952E-01
         -1   -1    0    0    0  501 -0.00000000000E+00  0.00000000000E+00  0.15543395810E+04  0.15543395810E+04  0.00000000000E+00 0.  1.
          1   -1    0    0  501    0  0.00000000000E+00 -0.00000000000E+00 -0.32593785892E+03  0.32593785892E+03  0.00000000000E+00 0. -1.
         23    2    1    2    0    0 -0.16527586292E+02 -0.40364884409E+03  0.22446283819E+03  0.47083182635E+03  0.89963840133E+02 0.  0.
        254    2    1    2    0    0  0.16527586292E+02  0.40364884409E+03  0.10039388839E+04  0.14094456136E+04  0.90301611536E+03 0.  0.
        -24    2    4    4    0    0 -0.42132465053E+03  0.29559445513E+03  0.63517683877E+03  0.82133209500E+03  0.79033225434E+02 0.  0.
         24    2    4    4    0    0  0.43785223682E+03  0.10805438896E+03  0.36876204513E+03  0.58811351859E+03  0.80633321617E+02 0.  0.
         13    1    3    3    0    0 -0.29617120941E+01 -0.78176767357E+02  0.87727213932E+02  0.11754336543E+03  0.00000000000E+00 0.  1.
        -13    1    3    3    0    0 -0.13565874198E+02 -0.32547207674E+03  0.13673562426E+03  0.35328846092E+03  0.00000000000E+00 0. -1.
          4    1    6    6  502    0  0.35930894781E+02  0.23825981762E+02  0.13672372527E+02  0.45228756087E+02  0.00000000000E+00 0. -1.
          3    1    5    5  503    0 -0.16407013225E+03  0.93263231225E+02  0.18080114309E+03  0.26135434173E+03  0.00000000000E+00 0. -1.
         -4    1    5    5    0  503 -0.25725451828E+03  0.20233122390E+03  0.45437569568E+03  0.55997775328E+03  0.00000000000E+00 0.  1.
         -3    1    6    6    0  502  0.40192134204E+03  0.84228407202E+02  0.35508967261E+03  0.54288476250E+03  0.00000000000E+00 0.  1.
<mgrwt>
<rscale>  0 0.14235422E+04</rscale>
<asrwt>0</asrwt>
<pdfrwt beam="1">  1        1 0.50144287E-01 0.14235422E+04</pdfrwt>
<pdfrwt beam="2">  1       -1 0.23912916E+00 0.14235422E+04</pdfrwt>
<totfact> 0.62922462E+00</totfact>
</mgrwt>
</event>
<event>
12    1  0.2048318E-007  0.1755601E+04  0.7818608E-02  0.8730273E-01
         -1   -1    0    0    0  501 -0.00000000000E+00  0.00000000000E+00  0.68536011406E+03  0.68536011406E+03  0.00000000000E+00 0.  1.
          1   -1    0    0  501    0  0.00000000000E+00 -0.00000000000E+00 -0.11242754218E+04  0.11242754218E+04  0.00000000000E+00 0. -1.
         23    2    1    2    0    0  0.30057514856E+03 -0.31547758048E+03  0.31219937128E+03  0.54880258633E+03  0.11766183585E+03 0.  0.
        254    2    1    2    0    0 -0.30057514856E+03  0.31547758048E+03 -0.75111467906E+03  0.12608329496E+04  0.91414164212E+03 0.  0.
        -24    2    4    4    0    0  0.20361979976E+03 -0.18662362897E+03 -0.14233239803E+03  0.32087960739E+03  0.80098746366E+02 0.  0.
         24    2    4    4    0    0 -0.50419494832E+03  0.50210120945E+03 -0.60878228103E+03  0.93995334216E+03  0.81106407261E+02 0.  0.
         13    1    3    3    0    0  0.58568993430E+02 -0.11800771872E+03  0.49724345378E+02  0.14081427198E+03  0.00000000000E+00 0.  1.
        -13    1    3    3    0    0  0.24200615513E+03 -0.19746986176E+03  0.26247502591E+03  0.40798831435E+03  0.00000000000E+00 0. -1.
          2    1    6    6  502    0 -0.20652562363E+03  0.18887342307E+03 -0.19045637604E+03  0.33852567751E+03  0.00000000000E+00 0. -1.
          1    1    5    5  503    0  0.19722423908E+03 -0.18308839910E+03 -0.15176144464E+03  0.30895031711E+03  0.00000000000E+00 0. -1.
         -2    1    5    5    0  503  0.63955606828E+01 -0.35352298687E+01  0.94290466103E+01  0.11929290283E+02  0.00000000000E+00 0.  1.
         -1    1    6    6    0  502 -0.29766932469E+03  0.31322778638E+03 -0.41832590500E+03  0.60142766465E+03  0.00000000000E+00 0.  1.
<mgrwt>
<rscale>  0 0.17556008E+04</rscale>
<asrwt>0</asrwt>
<pdfrwt beam="1">  1        1 0.17296545E+00 0.17556008E+04</pdfrwt>
<pdfrwt beam="2">  1       -1 0.10544002E+00 0.17556008E+04</pdfrwt>
<totfact> 0.97097344E+00</totfact>
</mgrwt>
</event>
<event>
12    1  0.2062231E-007  0.2901207E+04  0.7818608E-02  0.8272519E-01
         -2   -1    0    0    0  501 -0.00000000000E+00  0.00000000000E+00  0.10608489929E+04  0.10608489929E+04  0.00000000000E+00 0.  1.
          2   -1    0    0  501    0  0.00000000000E+00 -0.00000000000E+00 -0.19835528734E+04  0.19835528734E+04  0.00000000000E+00 0. -1.
         23    2    1    2    0    0 -0.77096266720E+03 -0.10530668182E+04 -0.51691530297E+03  0.14066459372E+04  0.90101078466E+02 0.  0.
        254    2    1    2    0    0  0.77096266720E+03  0.10530668182E+04 -0.40578857750E+03  0.16377559291E+04  0.90235633529E+03 0.  0.
        -24    2    4    4    0    0  0.74433925127E+03  0.28758736101E+03 -0.94306348768E+02  0.80738999066E+03  0.78977834923E+02 0.  0.
         24    2    4    4    0    0  0.26623415927E+02  0.76547945724E+03 -0.31148222873E+03  0.83036593846E+03  0.76281106510E+02 0.  0.
         13    1    3    3    0    0 -0.24240678234E+03 -0.40419136838E+03 -0.18894601621E+03  0.50777190493E+03  0.00000000000E+00 0.  1.
        -13    1    3    3    0    0 -0.52855588486E+03 -0.64887544987E+03 -0.32796928676E+03  0.89887403229E+03  0.00000000000E+00 0. -1.
          4    1    6    6  502    0  0.43254745752E+02  0.71503325179E+03 -0.28426278639E+03  0.77068077433E+03  0.00000000000E+00 0. -1.
          3    1    5    5  503    0  0.68103808033E+03  0.23794130353E+03 -0.85960182930E+02  0.72651089726E+03  0.00000000000E+00 0. -1.
         -4    1    5    5    0  503  0.63301170942E+02  0.49646057480E+02 -0.83461658379E+01  0.80879093406E+02  0.00000000000E+00 0.  1.
         -3    1    6    6    0  502 -0.16631329826E+02  0.50446205443E+02 -0.27219442338E+02  0.59685164124E+02  0.00000000000E+00 0.  1.
<mgrwt>
<rscale>  0 0.29012067E+04</rscale>
<asrwt>0</asrwt>
<pdfrwt beam="1">  1        2 0.30516197E+00 0.29012067E+04</pdfrwt>
<pdfrwt beam="2">  1       -2 0.16320754E+00 0.29012067E+04</pdfrwt>
<totfact> 0.14050074E+00</totfact>
</mgrwt>
</event>
<event>
12    1  0.2048318E-007  0.2260256E+04  0.7818608E-02  0.8493759E-01
         -2   -1    0    0    0  501 -0.00000000000E+00  0.00000000000E+00  0.47592363828E+04  0.47592363828E+04  0.00000000000E+00 0.  1.
          2   -1    0    0  501    0  0.00000000000E+00 -0.00000000000E+00 -0.26836001831E+03  0.26836001831E+03  0.00000000000E+00 0. -1.
         23    2    1    2    0    0 -0.82262200957E+03 -0.73343901399E+01  0.29422344922E+04  0.30564511195E+04  0.91590803043E+02 0.  0.
        254    2    1    2    0    0  0.82262200957E+03  0.73343901399E+01  0.15486418724E+04  0.19711452816E+04  0.90020070459E+03 0.  0.
        -24    2    4    4    0    0  0.85943435741E+03 -0.26265309809E+03  0.95788034793E+03  0.13157989005E+04  0.78599751150E+02 0.  0.
         24    2    4    4    0    0 -0.36812347840E+02  0.26998748823E+03  0.59076152446E+03  0.65534638119E+03  0.78938633116E+02 0.  0.
         11    1    3    3    0    0 -0.38920540618E+03  0.40143852572E+02  0.13408839883E+04  0.13968042981E+04  0.00000000000E+00 0.  1.
        -11    1    3    3    0    0 -0.43341660338E+03 -0.47478242712E+02  0.16013505038E+04  0.16596468214E+04  0.00000000000E+00 0. -1.
          4    1    6    6  502    0 -0.57759762969E+02  0.22521093981E+03  0.45700687799E+03  0.51274890947E+03  0.00000000000E+00 0. -1.
          1    1    5    5  503    0  0.59677705981E+03 -0.15608266358E+03  0.69418790477E+03  0.92865575113E+03  0.00000000000E+00 0. -1.
         -2    1    5    5    0  503  0.26265729760E+03 -0.10657043451E+03  0.26369244316E+03  0.38714314933E+03  0.00000000000E+00 0.  1.
         -3    1    6    6    0  502  0.20947415129E+02  0.44776548422E+02  0.13375464647E+03  0.14259747172E+03  0.00000000000E+00 0.  1.
<mgrwt>
<rscale>  0 0.22602555E+04</rscale>
<asrwt>0</asrwt>
<pdfrwt beam="1">  1        2 0.41286160E-01 0.22602555E+04</pdfrwt>
<pdfrwt beam="2">  1       -2 0.73219015E+00 0.22602555E+04</pdfrwt>
<totfact> 0.19324453E-02</totfact>
</mgrwt>
</event>
<event>
12    1  0.2048318E-007  0.2524624E+04  0.7818608E-02  0.8394265E-01
          1   -1    0    0  501    0  0.00000000000E+00  0.00000000000E+00  0.16504164715E+04  0.16504164715E+04  0.00000000000E+00 0. -1.
         -1   -1    0    0    0  501 -0.00000000000E+00 -0.00000000000E+00 -0.96547268222E+03  0.96547268222E+03  0.00000000000E+00 0.  1.
         23    2    1    2    0    0 -0.10830941244E+04  0.19263117006E+03  0.31270059602E+03  0.11473863935E+04  0.92272548985E+02 0.  0.
        254    2    1    2    0    0  0.10830941244E+04 -0.19263117006E+03  0.37224319321E+03  0.14685027601E+04  0.89874118169E+03 0.  0.
        -24    2    4    4    0    0  0.10619283221E+04 -0.44014992706E+03  0.35919023250E+03  0.12071562610E+04  0.82370478921E+02 0.  0.
         24    2    4    4    0    0  0.21165802268E+02  0.24751875700E+03  0.13052960716E+02  0.26134649910E+03  0.80112961216E+02 0.  0.
         11    1    3    3    0    0 -0.47121847317E+03  0.43751700228E+02  0.15814190721E+03  0.49896886030E+03  0.00000000000E+00 0. -1.
        -11    1    3    3    0    0 -0.61187565125E+03  0.14887946983E+03  0.15455868881E+03  0.64841753324E+03  0.00000000000E+00 0.  1.
          2    1    6    6  502    0  0.17323108379E+01  0.92218827101E+02  0.43375319172E+02  0.10192512588E+03  0.00000000000E+00 0. -1.
          3    1    5    5  503    0  0.10052103715E+04 -0.39967945270E+03  0.34948372600E+03  0.11368071211E+04  0.00000000000E+00 0. -1.
         -4    1    5    5    0  503  0.56717950635E+02 -0.40470474364E+02  0.97065064965E+01  0.70349139922E+02  0.00000000000E+00 0.  1.
         -1    1    6    6    0  502  0.19433491430E+02  0.15529992990E+03 -0.30322358456E+02  0.15942137322E+03  0.00000000000E+00 0.  1.
<mgrwt>
<rscale>  0 0.25246243E+04</rscale>
<asrwt>0</asrwt>
<pdfrwt beam="1">  1        1 0.25391023E+00 0.25246243E+04</pdfrwt>
<pdfrwt beam="2">  1       -1 0.14853426E+00 0.25246243E+04</pdfrwt>
<totfact> 0.16365662E+00</totfact>
</mgrwt>
</event>
<event>
12    1  0.2048318E-007  0.1270516E+04  0.7818608E-02  0.9053279E-01
          2   -1    0    0  501    0  0.00000000000E+00  0.00000000000E+00  0.43983548260E+03  0.43983548260E+03  0.00000000000E+00 0. -1.
         -2   -1    0    0    0  501 -0.00000000000E+00 -0.00000000000E+00 -0.91750784724E+03  0.91750784724E+03  0.00000000000E+00 0.  1.
         23    2    1    2    0    0 -0.14406210891E+03 -0.13135377315E+03 -0.35734301416E+03  0.42464867800E+03  0.12093289469E+03 0.  0.
        254    2    1    2    0    0  0.14406210891E+03  0.13135377315E+03 -0.12032935048E+03  0.93269465183E+03  0.90411971333E+03 0.  0.
        -24    2    4    4    0    0  0.45806533296E+03 -0.15461961464E+03 -0.10008237689E+03  0.50010911700E+03  0.79759464990E+02 0.  0.
         24    2    4    4    0    0 -0.31400322405E+03  0.28597338779E+03 -0.20246973590E+02  0.43258553483E+03  0.79633546729E+02 0.  0.
         11    1    3    3    0    0 -0.49628042721E+02 -0.11932058900E+03 -0.16104271299E+03  0.20648268932E+03  0.00000000000E+00 0.  1.
        -11    1    3    3    0    0 -0.94434066184E+02 -0.12033184153E+02 -0.19630030117E+03  0.21816598868E+03  0.00000000000E+00 0. -1.
          4    1    6    6  502    0 -0.11181715495E+03  0.15472667445E+03 -0.30986537440E+01  0.19092674402E+03  0.00000000000E+00 0. -1.
          1    1    5    5  503    0  0.88025071523E+02 -0.47908249146E+02 -0.49197796184E+02  0.11164245027E+03  0.00000000000E+00 0. -1.
         -2    1    5    5    0  503  0.37004026144E+03 -0.10671136549E+03 -0.50884580704E+02  0.38846666673E+03  0.00000000000E+00 0.  1.
         -3    1    6    6    0  502 -0.20218606910E+03  0.13124671334E+03 -0.17148319846E+02  0.24165879081E+03  0.00000000000E+00 0.  1.
<mgrwt>
<rscale>  0 0.12705157E+04</rscale>
<asrwt>0</asrwt>
<pdfrwt beam="1">  1        2 0.67666997E-01 0.12705157E+04</pdfrwt>
<pdfrwt beam="2">  1       -2 0.14115505E+00 0.12705157E+04</pdfrwt>
<totfact> 0.24628660E+01</totfact>
</mgrwt>
</event>
<event>
12    1  0.2048318E-007  0.1683164E+04  0.7818608E-02  0.8771025E-01
         -2   -1    0    0    0  501 -0.00000000000E+00  0.00000000000E+00  0.81549112148E+03  0.81549112148E+03  0.00000000000E+00 0. -1.
          2   -1    0    0  501    0  0.00000000000E+00 -0.00000000000E+00 -0.86850781566E+03  0.86850781566E+03  0.00000000000E+00 0.  1.
         23    2    1    2    0    0 -0.28648595639E+02 -0.58155583791E+03  0.92683976129E+02  0.59680224718E+03  0.92491449151E+02 0.  0.
        254    2    1    2    0    0  0.28648595639E+02  0.58155583791E+03 -0.14570067031E+03  0.10871966900E+04  0.90649877149E+03 0.  0.
        -24    2    4    4    0    0  0.40074994915E+03  0.54438919291E+03 -0.17700265136E+03  0.70335532811E+03  0.80116564348E+02 0.  0.
         24    2    4    4    0    0 -0.37210135351E+03  0.37166644997E+02  0.31301981048E+02  0.38384136186E+03  0.80706878691E+02 0.  0.
         11    1    3    3    0    0 -0.57209378285E+02 -0.32721588546E+03  0.31627186963E+02  0.33368162613E+03  0.00000000000E+00 0. -1.
        -11    1    3    3    0    0  0.28560782646E+02 -0.25433995245E+03  0.61056789166E+02  0.26312062105E+03  0.00000000000E+00 0.  1.
          4    1    6    6  502    0 -0.91326429309E+02  0.22353795393E+02  0.40851888574E+02  0.10251383155E+03  0.00000000000E+00 0. -1.
          1    1    5    5  503    0  0.19744044813E+03  0.23603806846E+03 -0.11673787558E+03  0.32912677180E+03  0.00000000000E+00 0. -1.
         -2    1    5    5    0  503  0.20330950102E+03  0.30835112445E+03 -0.60264775782E+02  0.37422855631E+03  0.00000000000E+00 0.  1.
         -3    1    6    6    0  502 -0.28077492421E+03  0.14812849604E+02 -0.95499075266E+01  0.28132753031E+03  0.00000000000E+00 0.  1.
<mgrwt>
<rscale>  0 0.16831642E+04</rscale>
<asrwt>0</asrwt>
<pdfrwt beam="1">  1        2 0.13361659E+00 0.16831642E+04</pdfrwt>
<pdfrwt beam="2">  1       -2 0.12546017E+00 0.16831642E+04</pdfrwt>
<totfact> 0.13946416E+01</totfact>
</mgrwt>
</event>
<event>
12    1  0.2048318E-007  0.2206590E+04  0.7818608E-02  0.8515690E-01
         -2   -1    0    0    0  501 -0.00000000000E+00  0.00000000000E+00  0.13758113757E+04  0.13758113757E+04  0.00000000000E+00 0.  1.
          2   -1    0    0  501    0  0.00000000000E+00 -0.00000000000E+00 -0.88475751609E+03  0.88475751609E+03  0.00000000000E+00 0. -1.
         23    2    1    2    0    0 -0.14248246678E+03  0.69067560744E+03 -0.40107713970E+03  0.81672866872E+03  0.94068051209E+02 0.  0.
        254    2    1    2    0    0  0.14248246678E+03 -0.69067560744E+03  0.89213099927E+03  0.14438402230E+04  0.88963072212E+03 0.  0.
        -24    2    4    4    0    0  0.16787217248E+03  0.18040493410E+03  0.18262507616E+03  0.31707304449E+03  0.80351668063E+02 0.  0.
         24    2    4    4    0    0 -0.25389705695E+02 -0.87108054154E+03  0.70950592311E+03  0.11267671785E+04  0.82338767927E+02 0.  0.
         11    1    3    3    0    0 -0.88568868672E+02  0.57939893683E+03 -0.30923294998E+03  0.66270098072E+03  0.00000000000E+00 0.  1.
        -11    1    3    3    0    0 -0.53913598111E+02  0.11127667061E+03 -0.91844189713E+02  0.15402768799E+03  0.00000000000E+00 0. -1.
          4    1    6    6  502    0  0.17890163100E+02 -0.53803875912E+02  0.40042753646E+02  0.69414242908E+02  0.00000000000E+00 0. -1.
          1    1    5    5  503    0  0.11385015552E+02  0.29566549533E+02  0.59147744643E+02  0.67098845942E+02  0.00000000000E+00 0. -1.
         -2    1    5    5    0  503  0.15648715693E+03  0.15083838457E+03  0.12347733151E+03  0.24997419855E+03  0.00000000000E+00 0.  1.
         -3    1    6    6    0  502 -0.43279868796E+02 -0.81727666563E+03  0.66946316946E+03  0.10573529356E+04  0.00000000000E+00 0.  1.
<mgrwt>
<rscale>  0 0.22065896E+04</rscale>
<asrwt>0</asrwt>
<pdfrwt beam="1">  1        2 0.13611654E+00 0.22065896E+04</pdfrwt>
<pdfrwt beam="2">  1       -2 0.21166329E+00 0.22065896E+04</pdfrwt>
<totfact> 0.30639118E+00</totfact>
</mgrwt>
</event>
<event>
12    1  0.2048318E-007  0.2864008E+04  0.7818608E-02  0.8283667E-01
          1   -1    0    0  501    0  0.00000000000E+00  0.00000000000E+00  0.15451202735E+04  0.15451202735E+04  0.00000000000E+00 0. -1.
         -1   -1    0    0    0  501 -0.00000000000E+00 -0.00000000000E+00 -0.13271688612E+04  0.13271688612E+04  0.00000000000E+00 0.  1.
         23    2    1    2    0    0 -0.46278866536E+03 -0.81479615540E+03  0.98644009245E+03  0.13635047425E+04  0.89526549503E+02 0.  0.
        254    2    1    2    0    0  0.46278866536E+03  0.81479615540E+03 -0.76848868017E+03  0.15087843923E+04  0.89877103160E+03 0.  0.
        -24    2    4    4    0    0  0.64370107542E+03  0.86799038871E+03 -0.57325800581E+03  0.12260531688E+04  0.82602918706E+02 0.  0.
         24    2    4    4    0    0 -0.18091241006E+03 -0.53194233308E+02 -0.19523067436E+03  0.28273122347E+03  0.79139130285E+02 0.  0.
         13    1    3    3    0    0 -0.31815210779E+03 -0.56399891129E+03  0.73987089304E+03  0.98322147759E+03  0.00000000000E+00 0. -1.
        -13    1    3    3    0    0 -0.14463655757E+03 -0.25079724411E+03  0.24656919941E+03  0.38028326487E+03  0.00000000000E+00 0.  1.
          2    1    6    6  502    0 -0.11139995375E+03  0.14338570900E+01 -0.13823898924E+03  0.17754442765E+03  0.00000000000E+00 0. -1.
          3    1    5    5  503    0  0.47527747888E+03  0.63864143519E+03 -0.38035935280E+03  0.88228385565E+03  0.00000000000E+00 0. -1.
         -4    1    5    5    0  503  0.16842359653E+03  0.22934895352E+03 -0.19289865301E+03  0.34376931318E+03  0.00000000000E+00 0.  1.
         -1    1    6    6    0  502 -0.69512456310E+02 -0.54628090398E+02 -0.56991685115E+02  0.10518679582E+03  0.00000000000E+00 0.  1.
<mgrwt>
<rscale>  0 0.28640080E+04</rscale>
<asrwt>0</asrwt>
<pdfrwt beam="1">  1        1 0.23771081E+00 0.28640080E+04</pdfrwt>
<pdfrwt beam="2">  1       -1 0.20417982E+00 0.28640080E+04</pdfrwt>
<totfact> 0.73837424E-01</totfact>
</mgrwt>
</event>
<event>
12    1  0.2048318E-007  0.1608371E+04  0.7818608E-02  0.8815422E-01
          2   -1    0    0  501    0  0.00000000000E+00  0.00000000000E+00  0.61377255779E+03  0.61377255779E+03  0.00000000000E+00 0. -1.
         -2   -1    0    0    0  501 -0.00000000000E+00 -0.00000000000E+00 -0.10536704874E+04  0.10536704874E+04  0.00000000000E+00 0.  1.
         23    2    1    2    0    0  0.47556166199E+03  0.84128501218E+02  0.10117970879E+03  0.50188558370E+03  0.91734980163E+02 0.  0.
        254    2    1    2    0    0 -0.47556166199E+03 -0.84128501218E+02 -0.54107763842E+03  0.11655574615E+04  0.91242681143E+03 0.  0.
        -24    2    4    4    0    0 -0.25189149320E+03 -0.38974911877E+03  0.33945601089E+02  0.47220549930E+03  0.80448926721E+02 0.  0.
         24    2    4    4    0    0 -0.22367016880E+03  0.30562061755E+03 -0.57502323951E+03  0.69335196220E+03  0.81565380130E+02 0.  0.
         13    1    3    3    0    0  0.97653664216E+00  0.20890765735E+01  0.11819024884E+02  0.12041894118E+02  0.00000000000E+00 0. -1.
        -13    1    3    3    0    0  0.47458512535E+03  0.82039424645E+02  0.89360683907E+02  0.48984368959E+03  0.00000000000E+00 0.  1.
          4    1    6    6  502    0 -0.18444947156E+02  0.38435974605E+01 -0.54293190136E+02  0.57469468521E+02  0.00000000000E+00 0. -1.
          1    1    5    5  503    0 -0.94203757479E+02 -0.19326830804E+03  0.46440816475E+02  0.21996303383E+03  0.00000000000E+00 0. -1.
         -2    1    5    5    0  503 -0.15768773572E+03 -0.19648081073E+03 -0.12495215386E+02  0.25224246547E+03  0.00000000000E+00 0.  1.
         -3    1    6    6    0  502 -0.20522522164E+03  0.30177702009E+03 -0.52073004937E+03  0.63588249368E+03  0.00000000000E+00 0.  1.
<mgrwt>
<rscale>  0 0.16083706E+04</rscale>
<asrwt>0</asrwt>
<pdfrwt beam="1">  1        2 0.94426548E-01 0.16083706E+04</pdfrwt>
<pdfrwt beam="2">  1       -2 0.16210315E+00 0.16083706E+04</pdfrwt>
<totfact> 0.11228925E+01</totfact>
</mgrwt>
</event>
<event>
12    1  0.2674147E-007  0.3561232E+04  0.7818608E-02  0.8099430E-01
          1   -1    0    0  501    0  0.00000000000E+00  0.00000000000E+00  0.16341984206E+04  0.16341984206E+04  0.00000000000E+00 0. -1.
         -1   -1    0    0    0  501 -0.00000000000E+00 -0.00000000000E+00 -0.19401520410E+04  0.19401520410E+04  0.00000000000E+00 0.  1.
         23    2    1    2    0    0  0.15576471050E+04  0.43161508159E+03 -0.54723106657E+03  0.17088698523E+04  0.90654561464E+02 0.  0.
        254    2    1    2    0    0 -0.15576471050E+04 -0.43161508159E+03  0.24127744621E+03  0.18654806093E+04  0.89958157794E+03 0.  0.
        -24    2    4    4    0    0 -0.11856990576E+04 -0.40895813451E+03 -0.21135295948E+03  0.12739628093E+04  0.71987186061E+02 0.  0.
         24    2    4    4    0    0 -0.37194804739E+03 -0.22656947080E+02  0.45263040570E+03  0.59151780005E+03  0.78487810556E+02 0.  0.
         13    1    3    3    0    0  0.60185841408E+03  0.15794575386E+03 -0.25653686882E+03  0.67304648935E+03  0.00000000000E+00 0.  1.
        -13    1    3    3    0    0  0.95578869093E+03  0.27366932774E+03 -0.29069419775E+03  0.10358233630E+04  0.00000000000E+00 0. -1.
          4    1    6    6  502    0 -0.17458911773E+03 -0.41605169117E+02  0.17781078880E+03  0.25264407125E+03  0.00000000000E+00 0. -1.
          3    1    5    5  503    0 -0.34612388890E+03 -0.10468931681E+03 -0.90959357244E+02  0.37287424716E+03  0.00000000000E+00 0. -1.
         -4    1    5    5    0  503 -0.83957516871E+03 -0.30426881770E+03 -0.12039360224E+03  0.90108856213E+03  0.00000000000E+00 0.  1.
         -3    1    6    6    0  502 -0.19735892966E+03  0.18948222038E+02  0.27481961690E+03  0.33887372880E+03  0.00000000000E+00 0.  1.
<mgrwt>
<rscale>  0 0.35612320E+04</rscale>
<asrwt>0</asrwt>
<pdfrwt beam="1">  1        1 0.25141514E+00 0.35612320E+04</pdfrwt>
<pdfrwt beam="2">  1       -1 0.29848493E+00 0.35612320E+04</pdfrwt>
<totfact> 0.14493429E-01</totfact>
</mgrwt>
</event>
<event>
12    1  0.2048318E-007  0.2220651E+04  0.7818608E-02  0.8509882E-01
          2   -1    0    0  501    0  0.00000000000E+00  0.00000000000E+00  0.18938358855E+04  0.18938358855E+04  0.00000000000E+00 0. -1.
         -2   -1    0    0    0  501 -0.00000000000E+00 -0.00000000000E+00 -0.65096569097E+03  0.65096569097E+03  0.00000000000E+00 0.  1.
         23    2    1    2    0    0  0.36785996373E+03 -0.83309774765E+03  0.70661080916E+03  0.11565498888E+04  0.94530416927E+02 0.  0.
        254    2    1    2    0    0 -0.36785996373E+03  0.83309774765E+03  0.53625938540E+03  0.13882516876E+04  0.90016432376E+03 0.  0.
        -24    2    4    4    0    0 -0.45968510086E+03  0.97982716682E+03  0.49841107065E+03  0.11941386921E+04  0.78625388995E+02 0.  0.
         24    2    4    4    0    0  0.91825137136E+02 -0.14672941917E+03  0.37848314749E+02  0.19411299556E+03  0.79284184131E+02 0.  0.
         11    1    3    3    0    0  0.20610532381E+03 -0.48425309862E+03  0.34941906187E+03  0.63172315837E+03  0.00000000000E+00 0.  1.
        -11    1    3    3    0    0  0.16175463992E+03 -0.34884464903E+03  0.35719174729E+03  0.52482673048E+03  0.00000000000E+00 0. -1.
          4    1    6    6  502    0  0.49846802456E+02 -0.17341921631E+02 -0.51515986454E+00  0.52779838486E+02  0.00000000000E+00 0. -1.
          3    1    5    5  503    0 -0.73523343477E+02  0.20894413886E+03  0.77336095658E+02  0.23461501847E+03  0.00000000000E+00 0. -1.
         -4    1    5    5    0  503 -0.38616175739E+03  0.77088302796E+03  0.42107497499E+03  0.95952367362E+03  0.00000000000E+00 0.  1.
         -3    1    6    6    0  502  0.41978334681E+02 -0.12938749754E+03  0.38363474614E+02  0.14133315707E+03  0.00000000000E+00 0.  1.
<mgrwt>
<rscale>  0 0.22206505E+04</rscale>
<asrwt>0</asrwt>
<pdfrwt beam="1">  1        2 0.29135936E+00 0.22206505E+04</pdfrwt>
<pdfrwt beam="2">  1       -2 0.10014857E+00 0.22206505E+04</pdfrwt>
<totfact> 0.57482327E+00</totfact>
</mgrwt>
</event>
<event>
12    1  0.2048318E-007  0.1457877E+04  0.7818608E-02  0.8912958E-01
         -2   -1    0    0    0  501 -0.00000000000E+00  0.00000000000E+00  0.31100155097E+03  0.31100155097E+03  0.00000000000E+00 0.  1.
          2   -1    0    0  501    0  0.00000000000E+00 -0.00000000000E+00 -0.17085168647E+04  0.17085168647E+04  0.00000000000E+00 0. -1.
         23    2    1    2    0    0 -0.33876802498E+03  0.12487921736E+03 -0.79490698344E+03  0.87765941123E+03  0.89723665345E+02 0.  0.
        254    2    1    2    0    0  0.33876802498E+03 -0.12487921736E+03 -0.60260833029E+03  0.11418590044E+04  0.90019253086E+03 0.  0.
        -24    2    4    4    0    0  0.30671812652E+03  0.35856799483E+03 -0.27417532331E+03  0.55149209308E+03  0.79526126283E+02 0.  0.
         24    2    4    4    0    0  0.32049898458E+02 -0.48344721218E+03 -0.32843300698E+03  0.59036691137E+03  0.76918443867E+02 0.  0.
         13    1    3    3    0    0 -0.40783675685E+02  0.25089951693E+02 -0.50253059030E+02  0.69413138671E+02  0.00000000000E+00 0.  1.
        -13    1    3    3    0    0 -0.29798434930E+03  0.99789265663E+02 -0.74465392441E+03  0.80824627256E+03  0.00000000000E+00 0. -1.
          2    1    6    6  502    0  0.43005642693E+02 -0.38290668146E+03 -0.22740134092E+03  0.44741298804E+03  0.00000000000E+00 0. -1.
          1    1    5    5  503    0  0.28911544561E+03  0.30158613770E+03 -0.22713001033E+03  0.47553126178E+03  0.00000000000E+00 0. -1.
         -2    1    5    5    0  503  0.17602680914E+02  0.56981857127E+02 -0.47045312981E+02  0.75960831292E+02  0.00000000000E+00 0.  1.
         -1    1    6    6    0  502 -0.10955744235E+02 -0.10054053072E+03 -0.10103166606E+03  0.14295392333E+03  0.00000000000E+00 0.  1.
<mgrwt>
<rscale>  0 0.14578771E+04</rscale>
<asrwt>0</asrwt>
<pdfrwt beam="1">  1        2 0.26284875E+00 0.14578771E+04</pdfrwt>
<pdfrwt beam="2">  1       -2 0.47846392E-01 0.14578771E+04</pdfrwt>
<totfact> 0.38908598E+01</totfact>
</mgrwt>
</event>
<event>
12    1  0.2051312E-007  0.2833181E+04  0.7818608E-02  0.8293040E-01
          2   -1    0    0  501    0  0.00000000000E+00  0.00000000000E+00  0.35214304213E+04  0.35214304213E+04  0.00000000000E+00 0. -1.
         -2   -1    0    0    0  501 -0.00000000000E+00 -0.00000000000E+00 -0.56986190057E+03  0.56986190057E+03  0.00000000000E+00 0.  1.
         23    2    1    2    0    0  0.83288003090E+03  0.76926710492E+03  0.49679670472E+03  0.12411639763E+04  0.90664357046E+02 0.  0.
        254    2    1    2    0    0 -0.83288003090E+03 -0.76926710492E+03  0.24547718160E+04  0.28501283456E+04  0.90103601095E+03 0.  0.
        -24    2    4    4    0    0  0.17526823715E+03 -0.22792008398E+03  0.42927118590E+03  0.52237274222E+03  0.77026041858E+02 0.  0.
         24    2    4    4    0    0 -0.10081482681E+04 -0.54134702094E+03  0.20255006301E+04  0.23277556034E+04  0.79836200945E+02 0.  0.
         11    1    3    3    0    0  0.44711601754E+03  0.35126563397E+03  0.24918522769E+03  0.62080073812E+03  0.00000000000E+00 0.  1.
        -11    1    3    3    0    0  0.38576401336E+03  0.41800147095E+03  0.24761147703E+03  0.62036323818E+03  0.00000000000E+00 0. -1.
          4    1    6    6  502    0 -0.52027309880E+03 -0.29627454749E+03  0.98415896976E+03  0.11519685684E+04  0.00000000000E+00 0. -1.
          3    1    5    5  503    0  0.13553282650E+03 -0.13232545375E+03  0.31992428457E+03  0.37179392225E+03  0.00000000000E+00 0. -1.
         -4    1    5    5    0  503  0.39735410655E+02 -0.95594630231E+02  0.10934690134E+03  0.15057881996E+03  0.00000000000E+00 0.  1.
         -3    1    6    6    0  502 -0.48787516925E+03 -0.24507247345E+03  0.10413416604E+04  0.11757870350E+04  0.00000000000E+00 0.  1.
<mgrwt>
<rscale>  0 0.28331813E+04</rscale>
<asrwt>0</asrwt>
<pdfrwt beam="1">  1        2 0.54175851E+00 0.28331813E+04</pdfrwt>
<pdfrwt beam="2">  1       -2 0.87671064E-01 0.28331813E+04</pdfrwt>
<totfact> 0.76478882E-01</totfact>
</mgrwt>
</event>
<event>
12    1  0.4043828E-007  0.2952304E+04  0.7818608E-02  0.8257483E-01
          2   -1    0    0  501    0  0.00000000000E+00  0.00000000000E+00  0.27168756664E+04  0.27168756664E+04  0.00000000000E+00 0. -1.
         -2   -1    0    0    0  501 -0.00000000000E+00 -0.00000000000E+00 -0.80203318691E+03  0.80203318691E+03  0.00000000000E+00 0.  1.
         23    2    1    2    0    0  0.10509384353E+04 -0.70928208754E+03  0.36250790223E+03  0.13217715216E+04  0.90084969013E+02 0.  0.
        254    2    1    2    0    0 -0.10509384353E+04  0.70928208754E+03  0.15523345773E+04  0.21971373318E+04  0.90006507561E+03 0.  0.
        -24    2    4    4    0    0 -0.62200651806E+03 -0.81201275021E+02  0.81419502985E+03  0.10309518508E+04  0.80389156751E+02 0.  0.
         24    2    4    4    0    0 -0.42893191720E+03  0.79048336256E+03  0.73813954745E+03  0.11661854809E+04  0.79322432883E+02 0.  0.
         13    1    3    3    0    0  0.66385351050E+03 -0.48864218186E+03  0.26302237883E+03  0.86524761604E+03  0.00000000000E+00 0. -1.
        -13    1    3    3    0    0  0.38708492476E+03 -0.22063990568E+03  0.99485523402E+02  0.45652390553E+03  0.00000000000E+00 0.  1.
          2    1    6    6  502    0 -0.39586141960E+03  0.72437417342E+03  0.64691853758E+03  0.10487744280E+04  0.00000000000E+00 0. -1.
          1    1    5    5  503    0 -0.61654481505E+03 -0.87878101613E+02  0.80876106937E+03  0.10207568452E+04  0.00000000000E+00 0. -1.
         -2    1    5    5    0  503 -0.54617030119E+01  0.66768265922E+01  0.54339604710E+01  0.10195005617E+02  0.00000000000E+00 0.  1.
         -1    1    6    6    0  502 -0.33070497602E+02  0.66109189139E+02  0.91221009875E+02  0.11741105290E+03  0.00000000000E+00 0.  1.
<mgrwt>
<rscale>  0 0.29523038E+04</rscale>
<asrwt>0</asrwt>
<pdfrwt beam="1">  1        2 0.41798087E+00 0.29523038E+04</pdfrwt>
<pdfrwt beam="2">  1       -2 0.12338972E+00 0.29523038E+04</pdfrwt>
<totfact> 0.11040491E+00</totfact>
</mgrwt>
</event>
<event>
12    1  0.2048318E-007  0.1384984E+04  0.7818608E-02  0.8964760E-01
          1   -1    0    0  501    0  0.00000000000E+00  0.00000000000E+00  0.12063018837E+04  0.12063018837E+04  0.00000000000E+00 0. -1.
         -1   -1    0    0    0  501 -0.00000000000E+00 -0.00000000000E+00 -0.39753322874E+03  0.39753322874E+03  0.00000000000E+00 0.  1.
         23    2    1    2    0    0 -0.30532724437E+03 -0.24294900440E+03  0.18831766145E+03  0.44304307255E+03  0.92599555192E+02 0.  0.
        254    2    1    2    0    0  0.30532724437E+03  0.24294900440E+03  0.62045099354E+03  0.11607920399E+04  0.90012764632E+03 0.  0.
        -24    2    4    4    0    0 -0.14238402117E+03  0.89351134985E+02  0.65228170821E+03  0.67919028263E+03  0.87012518286E+02 0.  0.
         24    2    4    4    0    0  0.44771126554E+03  0.15359786942E+03 -0.31830714679E+02  0.48160175729E+03  0.83002261688E+02 0.  0.
         11    1    3    3    0    0 -0.27756420064E+03 -0.19063173534E+03  0.18385702605E+03  0.38364795064E+03  0.00000000000E+00 0. -1.
        -11    1    3    3    0    0 -0.27763043726E+02 -0.52317269056E+02  0.44606354034E+01  0.59395121909E+02  0.00000000000E+00 0.  1.
          4    1    6    6  502    0  0.33383983177E+03  0.74932381096E+02 -0.22168320533E+02  0.34286342682E+03  0.00000000000E+00 0. -1.
          3    1    5    5  503    0 -0.98831979937E+01  0.49935819360E+02  0.16421095668E+03  0.17192004523E+03  0.00000000000E+00 0. -1.
         -4    1    5    5    0  503 -0.13250082318E+03  0.39415315626E+02  0.48807075154E+03  0.50727023740E+03  0.00000000000E+00 0.  1.
         -3    1    6    6    0  502  0.11387143377E+03  0.78665488319E+02 -0.96623941467E+01  0.13873833047E+03  0.00000000000E+00 0.  1.
<mgrwt>
<rscale>  0 0.13849839E+04</rscale>
<asrwt>0</asrwt>
<pdfrwt beam="1">  1        1 0.18558490E+00 0.13849839E+04</pdfrwt>
<pdfrwt beam="2">  1       -1 0.61158959E-01 0.13849839E+04</pdfrwt>
<totfact> 0.27984741E+01</totfact>
</mgrwt>
</event>
<event>
12    1  0.2048318E-007  0.1742567E+04  0.7818608E-02  0.8737453E-01
          2   -1    0    0  501    0  0.00000000000E+00  0.00000000000E+00  0.12493489788E+04  0.12493489788E+04  0.00000000000E+00 0. -1.
         -2   -1    0    0    0  501 -0.00000000000E+00 -0.00000000000E+00 -0.60762417391E+03  0.60762417391E+03  0.00000000000E+00 0.  1.
         23    2    1    2    0    0 -0.55403045851E+02 -0.58462630366E+03  0.50146126994E+03  0.77785756607E+03  0.93496392523E+02 0.  0.
        254    2    1    2    0    0  0.55403045851E+02  0.58462630366E+03  0.14026353494E+03  0.10791155866E+04  0.89440437034E+03 0.  0.
        -24    2    4    4    0    0  0.85860670413E+02  0.48714744652E+02  0.44068863911E+03  0.45870786012E+03  0.80381858764E+02 0.  0.
         24    2    4    4    0    0 -0.30457624563E+02  0.53591155900E+03 -0.30042510417E+03  0.62040772652E+03  0.80756658815E+02 0.  0.
         13    1    3    3    0    0 -0.90610643836E+00 -0.29735173787E+03  0.20302490078E+03  0.36005275638E+03  0.00000000000E+00 0.  1.
        -13    1    3    3    0    0 -0.54496939412E+02 -0.28727456579E+03  0.29843636917E+03  0.41780480968E+03  0.00000000000E+00 0. -1.
          4    1    6    6  502    0 -0.56069542561E+02  0.27650756302E+03 -0.15858957461E+03  0.32365240488E+03  0.00000000000E+00 0. -1.
          1    1    5    5  503    0  0.72359098278E+02  0.23853432909E+02  0.40979568911E+03  0.41681810443E+03  0.00000000000E+00 0. -1.
         -2    1    5    5    0  503  0.13501572136E+02  0.24861311742E+02  0.30892950000E+02  0.41889755686E+02  0.00000000000E+00 0.  1.
         -3    1    6    6    0  502  0.25611917998E+02  0.25940399598E+03 -0.14183552956E+03  0.29675532164E+03  0.00000000000E+00 0.  1.
<mgrwt>
<rscale>  0 0.17425667E+04</rscale>
<asrwt>0</asrwt>
<pdfrwt beam="1">  1        2 0.19220753E+00 0.17425667E+04</pdfrwt>
<pdfrwt beam="2">  1       -2 0.93480642E-01 0.17425667E+04</pdfrwt>
<totfact> 0.16250592E+01</totfact>
</mgrwt>
</event>
<event>
12    1  0.2048318E-007  0.2106886E+04  0.7818608E-02  0.8558216E-01
         -2   -1    0    0    0  501 -0.00000000000E+00  0.00000000000E+00  0.10356139424E+04  0.10356139424E+04  0.00000000000E+00 0.  1.
          2   -1    0    0  501    0  0.00000000000E+00 -0.00000000000E+00 -0.10715791742E+04  0.10715791742E+04  0.00000000000E+00 0. -1.
         23    2    1    2    0    0 -0.59071622140E+03 -0.55690231896E+03  0.26228441973E+03  0.85858344468E+03  0.96366838527E+02 0.  0.
        254    2    1    2    0    0  0.59071622140E+03  0.55690231896E+03 -0.29824965154E+03  0.12486096719E+04  0.90054839456E+03 0.  0.
        -24    2    4    4    0    0  0.76620902224E+03  0.32032442616E+03 -0.40097423579E+03  0.92559471353E+03  0.79127948207E+02 0.  0.
         24    2    4    4    0    0 -0.17549280084E+03  0.23657789280E+03  0.10272458425E+03  0.32301495834E+03  0.83782459914E+02 0.  0.
         11    1    3    3    0    0 -0.15136580905E+03 -0.18215471521E+03  0.42013233552E+02  0.24053494594E+03  0.00000000000E+00 0.  1.
        -11    1    3    3    0    0 -0.43935041235E+03 -0.37474760375E+03  0.22027118618E+03  0.61804849875E+03  0.00000000000E+00 0. -1.
          2    1    6    6  502    0 -0.99216757842E+01  0.55940358578E+02  0.41750708507E+02  0.70504503608E+02  0.00000000000E+00 0. -1.
          3    1    5    5  503    0  0.47583105181E+02  0.68116217123E+01 -0.39623161787E+02  0.62294020893E+02  0.00000000000E+00 0. -1.
         -4    1    5    5    0  503  0.71862591706E+03  0.31351280444E+03 -0.36135107400E+03  0.86330069264E+03  0.00000000000E+00 0.  1.
         -1    1    6    6    0  502 -0.16557112506E+03  0.18063753422E+03  0.60973875745E+02  0.25251045473E+03  0.00000000000E+00 0.  1.
<mgrwt>
<rscale>  0 0.21068862E+04</rscale>
<asrwt>0</asrwt>
<pdfrwt beam="1">  1        2 0.16485833E+00 0.21068862E+04</pdfrwt>
<pdfrwt beam="2">  1       -2 0.15932522E+00 0.21068862E+04</pdfrwt>
<totfact> 0.53247269E+00</totfact>
</mgrwt>
</event>
<event>
12    1  0.2048318E-007  0.1343258E+04  0.7818608E-02  0.8995948E-01
         -2   -1    0    0    0  501 -0.00000000000E+00  0.00000000000E+00  0.73311868564E+03  0.73311868564E+03  0.00000000000E+00 0.  1.
          2   -1    0    0  501    0  0.00000000000E+00 -0.00000000000E+00 -0.61529634096E+03  0.61529634096E+03  0.00000000000E+00 0. -1.
         23    2    1    2    0    0  0.26432297087E+03 -0.17665519901E+03 -0.13904343805E+03  0.35882513988E+03  0.91371281485E+02 0.  0.
        254    2    1    2    0    0 -0.26432297087E+03  0.17665519901E+03  0.25686578273E+03  0.98958988672E+03  0.90124049027E+03 0.  0.
        -24    2    4    4    0    0 -0.43267441274E+03  0.30908171829E+03  0.44150602453E+03  0.69580165095E+03  0.80459379495E+02 0.  0.
         24    2    4    4    0    0  0.16835144187E+03 -0.13242651928E+03 -0.18464024180E+03  0.29378823577E+03  0.79627367134E+02 0.  0.
         11    1    3    3    0    0  0.50664526188E+02 -0.96564221397E+01  0.49023220874E+01  0.51809009489E+02  0.00000000000E+00 0. -1.
        -11    1    3    3    0    0  0.21365844468E+03 -0.16699877687E+03 -0.14394576014E+03  0.30701613039E+03  0.00000000000E+00 0.  1.
          4    1    6    6  502    0  0.11700897894E+03 -0.12048350893E+03 -0.17024262170E+03  0.23914415594E+03  0.00000000000E+00 0. -1.
          1    1    5    5  503    0 -0.40279842542E+03  0.25718490175E+03  0.39209657285E+03  0.61816694158E+03  0.00000000000E+00 0. -1.
         -2    1    5    5    0  503 -0.29875987315E+02  0.51896816536E+02  0.49409451675E+02  0.77634709374E+02  0.00000000000E+00 0.  1.
         -3    1    6    6    0  502  0.51342462933E+02 -0.11943010349E+02 -0.14397620101E+02  0.54644079833E+02  0.00000000000E+00 0.  1.
<mgrwt>
<rscale>  0 0.13432576E+04</rscale>
<asrwt>0</asrwt>
<pdfrwt beam="1">  1        2 0.94660976E-01 0.13432576E+04</pdfrwt>
<pdfrwt beam="2">  1       -2 0.11278749E+00 0.13432576E+04</pdfrwt>
<totfact> 0.29061243E+01</totfact>
</mgrwt>
</event>
<event>
12    1  0.2048318E-007  0.1441334E+04  0.7818608E-02  0.8924431E-01
         -2   -1    0    0    0  501 -0.00000000000E+00  0.00000000000E+00  0.10380598837E+04  0.10380598837E+04  0.00000000000E+00 0.  1.
          2   -1    0    0  501    0  0.00000000000E+00 -0.00000000000E+00 -0.50031889971E+03  0.50031889971E+03  0.00000000000E+00 0. -1.
         23    2    1    2    0    0  0.38327732816E+03  0.21432503452E+03  0.17635912893E+03  0.48165676352E+03  0.89743884422E+02 0.  0.
        254    2    1    2    0    0 -0.38327732816E+03 -0.21432503452E+03  0.36138185502E+03  0.10567220199E+04  0.89063339900E+03 0.  0.
        -24    2    4    4    0    0  0.26967276398E+03 -0.17629431949E+03  0.14282508552E+03  0.36226435574E+03  0.83865199408E+02 0.  0.
         24    2    4    4    0    0 -0.65295009213E+03 -0.38030715032E+02  0.21855676950E+03  0.69445766411E+03  0.81940390834E+02 0.  0.
         13    1    3    3    0    0  0.25390589878E+03  0.15290736669E+03  0.73601373799E+02  0.30539487627E+03  0.00000000000E+00 0. -1.
        -13    1    3    3    0    0  0.12937142937E+03  0.61417667829E+02  0.10275775513E+03  0.17626188726E+03  0.00000000000E+00 0.  1.
          2    1    6    6  502    0 -0.18914008117E+03  0.51198678414E+00  0.26539060577E+02  0.19099359720E+03  0.00000000000E+00 0. -1.
          1    1    5    5  503    0  0.14049036399E+02 -0.16201782930E+01  0.29243610682E+02  0.32483675395E+02  0.00000000000E+00 0. -1.
         -2    1    5    5    0  503  0.25562372758E+03 -0.17467414119E+03  0.11358147484E+03  0.32978068035E+03  0.00000000000E+00 0.  1.
         -1    1    6    6    0  502 -0.46381001096E+03 -0.38542701816E+02  0.19201770892E+03  0.50346406691E+03  0.00000000000E+00 0.  1.
<mgrwt>
<rscale>  0 0.14413341E+04</rscale>
<asrwt>0</asrwt>
<pdfrwt beam="1">  1        2 0.76972139E-01 0.14413341E+04</pdfrwt>
<pdfrwt beam="2">  1       -2 0.15970152E+00 0.14413341E+04</pdfrwt>
<totfact> 0.15102613E+01</totfact>
</mgrwt>
</event>
<event>
12    1  0.2048318E-007  0.1036086E+04  0.7818608E-02  0.9269829E-01
          1   -1    0    0  501    0  0.00000000000E+00  0.00000000000E+00  0.24592947367E+03  0.24592947367E+03  0.00000000000E+00 0. -1.
         -1   -1    0    0    0  501 -0.00000000000E+00 -0.00000000000E+00 -0.10912416391E+04  0.10912416391E+04  0.00000000000E+00 0.  1.
         23    2    1    2    0    0  0.52371734232E+02 -0.64653293094E+01  0.78777977629E+00  0.10172464884E+03  0.86963696770E+02 0.  0.
        254    2    1    2    0    0 -0.52371734232E+02  0.64653293094E+01 -0.84609994521E+03  0.12354464639E+04  0.89869808551E+03 0.  0.
        -24    2    4    4    0    0  0.22297419235E+03 -0.22586304169E+03 -0.79887669897E+03  0.86334730582E+03  0.80205899105E+02 0.  0.
         24    2    4    4    0    0 -0.27534592658E+03  0.23232837100E+03 -0.47223246239E+02  0.37209915810E+03  0.80224043902E+02 0.  0.
         11    1    3    3    0    0 -0.22024890748E+02 -0.77487097442E+01  0.12367243320E+02  0.26421336501E+02  0.00000000000E+00 0. -1.
        -11    1    3    3    0    0  0.74396624980E+02  0.12833804348E+01 -0.11579463544E+02  0.75303312343E+02  0.00000000000E+00 0.  1.
          2    1    6    6  502    0 -0.23600150547E+03  0.22022835212E+03 -0.61360233040E+02  0.32857619491E+03  0.00000000000E+00 0. -1.
          3    1    5    5  503    0  0.89659780666E+02 -0.14729046731E+03 -0.40670769466E+03  0.44175163489E+03  0.00000000000E+00 0. -1.
         -4    1    5    5    0  503  0.13331441168E+03 -0.78572574383E+02 -0.39216900431E+03  0.42159567093E+03  0.00000000000E+00 0.  1.
         -1    1    6    6    0  502 -0.39344421107E+02  0.12100018875E+02  0.14136986801E+02  0.43522963189E+02  0.00000000000E+00 0.  1.
<mgrwt>
<rscale>  0 0.10360859E+04</rscale>
<asrwt>0</asrwt>
<pdfrwt beam="1">  1        1 0.37835303E-01 0.10360859E+04</pdfrwt>
<pdfrwt beam="2">  1       -1 0.16788333E+00 0.10360859E+04</pdfrwt>
<totfact> 0.29005990E+01</totfact>
</mgrwt>
</event>
<event>
12    1  0.2048318E-007  0.1671280E+04  0.7818608E-02  0.8777916E-01
         -2   -1    0    0    0  501 -0.00000000000E+00  0.00000000000E+00  0.50149416715E+03  0.50149416715E+03  0.00000000000E+00 0.  1.
          2   -1    0    0  501    0  0.00000000000E+00 -0.00000000000E+00 -0.13924272695E+04  0.13924272695E+04  0.00000000000E+00 0. -1.
         23    2    1    2    0    0  0.50472807229E+03  0.28445858426E+02  0.22211524454E+02  0.51454360363E+03  0.93285445848E+02 0.  0.
        254    2    1    2    0    0 -0.50472807229E+03 -0.28445858426E+02 -0.91314462677E+03  0.13793778330E+04  0.90182620436E+03 0.  0.
        -24    2    4    4    0    0  0.23301398111E+03 -0.12423678190E+03 -0.17006788559E+03  0.32475174033E+03  0.82524625223E+02 0.  0.
         24    2    4    4    0    0 -0.73774205340E+03  0.95790923473E+02 -0.74307674118E+03  0.10546260926E+04  0.81448840569E+02 0.  0.
         11    1    3    3    0    0  0.57695601216E+01  0.12707123371E+02 -0.43868002268E+01  0.14628835380E+02  0.00000000000E+00 0. -1.
        -11    1    3    3    0    0  0.49895851216E+03  0.15738735055E+02  0.26598324681E+02  0.49991476825E+03  0.00000000000E+00 0.  1.
          4    1    6    6  502    0 -0.20624551113E+03  0.18206069711E+02 -0.25867593155E+03  0.33133353196E+03  0.00000000000E+00 0. -1.
          3    1    5    5  503    0  0.29166721975E+01 -0.20527409554E+02 -0.59380324823E+00  0.20742085768E+02  0.00000000000E+00 0. -1.
         -4    1    5    5    0  503  0.23009730891E+03 -0.10370937235E+03 -0.16947408234E+03  0.30400965456E+03  0.00000000000E+00 0.  1.
         -1    1    6    6    0  502 -0.53149654226E+03  0.77584853762E+02 -0.48440080963E+03  0.72329256068E+03  0.00000000000E+00 0.  1.
<mgrwt>
<rscale>  0 0.16712799E+04</rscale>
<asrwt>0</asrwt>
<pdfrwt beam="1">  1        2 0.21421957E+00 0.16712799E+04</pdfrwt>
<pdfrwt beam="2">  1       -2 0.77152951E-01 0.16712799E+04</pdfrwt>
<totfact> 0.20899176E+01</totfact>
</mgrwt>
</event>
<event>
12    1  0.2048318E-007  0.2004381E+04  0.7818608E-02  0.8604575E-01
          1   -1    0    0  501    0  0.00000000000E+00  0.00000000000E+00  0.12722625489E+04  0.12722625489E+04  0.00000000000E+00 0. -1.
         -1   -1    0    0    0  501 -0.00000000000E+00 -0.00000000000E+00 -0.78944862878E+03  0.78944862878E+03  0.00000000000E+00 0.  1.
         23    2    1    2    0    0 -0.64891112203E+03 -0.40375006055E+03  0.43164211960E+03  0.88326281406E+03  0.98683958215E+02 0.  0.
        254    2    1    2    0    0  0.64891112203E+03  0.40375006055E+03  0.51171800479E+02  0.11784483636E+04  0.89555694223E+03 0.  0.
        -24    2    4    4    0    0  0.58475929660E+03  0.66226478969E+03 -0.28781324884E+02  0.88772005246E+03  0.81733960290E+02 0.  0.
         24    2    4    4    0    0  0.64151825428E+02 -0.25851472914E+03  0.79953125363E+02  0.29072831112E+03  0.84765126923E+02 0.  0.
         13    1    3    3    0    0 -0.53655558849E+03 -0.29800571305E+03  0.31519955855E+03  0.68996381519E+03  0.00000000000E+00 0. -1.
        -13    1    3    3    0    0 -0.11235553353E+03 -0.10574434750E+03  0.11644256104E+03  0.19329899888E+03  0.00000000000E+00 0.  1.
          4    1    6    6  502    0  0.56483487965E+02 -0.15495883836E+03  0.87332743461E+02  0.18662699183E+03  0.00000000000E+00 0. -1.
          3    1    5    5  503    0  0.34513661497E+03  0.45015870236E+03 -0.18324915017E+02  0.56753673256E+03  0.00000000000E+00 0. -1.
         -4    1    5    5    0  503  0.23962268163E+03  0.21210608733E+03 -0.10456409867E+02  0.32018331990E+03  0.00000000000E+00 0.  1.
         -3    1    6    6    0  502  0.76683374628E+01 -0.10355589078E+03 -0.73796180979E+01  0.10410131929E+03  0.00000000000E+00 0.  1.
<mgrwt>
<rscale>  0 0.20043811E+04</rscale>
<asrwt>0</asrwt>
<pdfrwt beam="1">  1        1 0.19573270E+00 0.20043811E+04</pdfrwt>
<pdfrwt beam="2">  1       -1 0.12145363E+00 0.20043811E+04</pdfrwt>
<totfact> 0.52781854E+00</totfact>
</mgrwt>
</event>
<event>
12    1  0.2048318E-007  0.1731212E+04  0.7818608E-02  0.8743761E-01
          2   -1    0    0  501    0  0.00000000000E+00  0.00000000000E+00  0.22762270203E+04  0.22762270203E+04  0.00000000000E+00 0. -1.
         -2   -1    0    0    0  501 -0.00000000000E+00 -0.00000000000E+00 -0.32917344096E+03  0.32917344096E+03  0.00000000000E+00 0.  1.
         23    2    1    2    0    0  0.59448863734E+03 -0.17768701977E+03  0.84545360680E+03  0.10527836209E+04  0.92585821618E+02 0.  0.
        254    2    1    2    0    0 -0.59448863734E+03  0.17768701977E+03  0.11015999725E+04  0.15526168403E+04  0.90116987100E+03 0.  0.
        -24    2    4    4    0    0 -0.13086658027E+03 -0.12095832631E+03  0.95744335464E+03  0.97709786012E+03  0.79154736789E+02 0.  0.
         24    2    4    4    0    0 -0.46362205707E+03  0.29864534608E+03  0.14415661789E+03  0.57551898019E+03  0.79413547571E+02 0.  0.
         11    1    3    3    0    0  0.43933601384E+03 -0.87834505242E+02  0.59980882818E+03  0.74866659050E+03  0.00000000000E+00 0.  1.
        -11    1    3    3    0    0  0.15515262350E+03 -0.89852514524E+02  0.24564477861E+03  0.30411703044E+03  0.00000000000E+00 0. -1.
          2    1    6    6  502    0 -0.41452509910E+03  0.28804507073E+03  0.11599335312E+03  0.51793385535E+03  0.00000000000E+00 0. -1.
          1    1    5    5  503    0 -0.13548467832E+03 -0.11386240555E+03  0.79617245714E+03  0.81560488410E+03  0.00000000000E+00 0. -1.
         -2    1    5    5    0  503  0.46180980529E+01 -0.70959207582E+01  0.16127089750E+03  0.16149297601E+03  0.00000000000E+00 0.  1.
         -1    1    6    6    0  502 -0.49096957977E+02  0.10600275348E+02  0.28163264766E+02  0.57585124836E+02  0.00000000000E+00 0.  1.
<mgrwt>
<rscale>  0 0.17312117E+04</rscale>
<asrwt>0</asrwt>
<pdfrwt beam="1">  1        2 0.35018876E+00 0.17312117E+04</pdfrwt>
<pdfrwt beam="2">  1       -2 0.50642069E-01 0.17312117E+04</pdfrwt>
<totfact> 0.16376556E+01</totfact>
</mgrwt>
</event>
<event>
12    1  0.2048318E-007  0.1335760E+04  0.7818608E-02  0.9001678E-01
         -1   -1    0    0    0  501 -0.00000000000E+00  0.00000000000E+00  0.21265550463E+03  0.21265550463E+03  0.00000000000E+00 0. -1.
          1   -1    0    0  501    0  0.00000000000E+00 -0.00000000000E+00 -0.20975873557E+04  0.20975873557E+04  0.00000000000E+00 0.  1.
         23    2    1    2    0    0  0.23702791329E+03 -0.13914228543E+03 -0.12837703528E+03  0.31694105426E+03  0.91805018453E+02 0.  0.
        254    2    1    2    0    0 -0.23702791329E+03  0.13914228543E+03 -0.17565548158E+04  0.19933018061E+04  0.90123496492E+03 0.  0.
        -24    2    4    4    0    0 -0.54287174078E+03  0.12040268975E+03 -0.74354010852E+03  0.93195511098E+03  0.80510255721E+02 0.  0.
         24    2    4    4    0    0  0.30584382749E+03  0.18739595683E+02 -0.10130147073E+04  0.10613466951E+04  0.79789665978E+02 0.  0.
         11    1    3    3    0    0  0.17299948333E+03 -0.11048655986E+03 -0.49055519767E+02  0.21105104871E+03  0.00000000000E+00 0. -1.
        -11    1    3    3    0    0  0.64028429957E+02 -0.28655725571E+02 -0.79321515517E+02  0.10589000555E+03  0.00000000000E+00 0.  1.
          4    1    6    6  502    0  0.16712984286E+02  0.13295500736E+02 -0.31045382973E+02  0.37681693002E+02  0.00000000000E+00 0. -1.
          3    1    5    5  503    0 -0.19101204425E+03  0.40317864451E+01 -0.26487301300E+03  0.32658776671E+03  0.00000000000E+00 0. -1.
         -4    1    5    5    0  503 -0.35185969653E+03  0.11637090330E+03 -0.47866709552E+03  0.60536734427E+03  0.00000000000E+00 0.  1.
         -3    1    6    6    0  502  0.28913084320E+03  0.54440949470E+01 -0.98196932433E+03  0.10236650021E+04  0.00000000000E+00 0.  1.
<mgrwt>
<rscale>  0 0.13357597E+04</rscale>
<asrwt>0</asrwt>
<pdfrwt beam="1">  1        1 0.32270575E+00 0.13357597E+04</pdfrwt>
<pdfrwt beam="2">  1       -1 0.32716232E-01 0.13357597E+04</pdfrwt>
<totfact> 0.21978589E+01</totfact>
</mgrwt>
</event>
<event>
12    1  0.2048318E-007  0.1917310E+04  0.7818608E-02  0.8646288E-01
         -1   -1    0    0    0  501 -0.00000000000E+00  0.00000000000E+00  0.12255924381E+04  0.12255924381E+04  0.00000000000E+00 0.  1.
          1   -1    0    0  501    0  0.00000000000E+00 -0.00000000000E+00 -0.74985738175E+03  0.74985738175E+03  0.00000000000E+00 0. -1.
         23    2    1    2    0    0  0.64984407519E+03  0.17283043606E+02 -0.18780666777E+03  0.68218174862E+03  0.86628909977E+02 0.  0.
        254    2    1    2    0    0 -0.64984407519E+03 -0.17283043606E+02  0.66354172410E+03  0.12932680712E+04  0.89981034598E+03 0.  0.
        -24    2    4    4    0    0 -0.82450884692E+03  0.18560810586E+02  0.30115105717E+03  0.88146022329E+03  0.78235693006E+02 0.  0.
         24    2    4    4    0    0  0.17466477174E+03 -0.35843854192E+02  0.36239066694E+03  0.41180784792E+03  0.80412335848E+02 0.  0.
         11    1    3    3    0    0  0.44972464744E+03 -0.19839278165E+02 -0.15452490263E+03  0.47594516597E+03  0.00000000000E+00 0. -1.
        -11    1    3    3    0    0  0.20011942775E+03  0.37122321771E+02 -0.33281765141E+02  0.20623658266E+03  0.00000000000E+00 0.  1.
          4    1    6    6  502    0  0.43380118437E+02 -0.46594005842E+02  0.12720681440E+03  0.14224770538E+03  0.00000000000E+00 0. -1.
          3    1    5    5  503    0 -0.20428037779E+03  0.59873452136E+01  0.39338109467E+02  0.20811969611E+03  0.00000000000E+00 0. -1.
         -4    1    5    5    0  503 -0.62022846913E+03  0.12573465373E+02  0.26181294770E+03  0.67334052717E+03  0.00000000000E+00 0.  1.
         -3    1    6    6    0  502  0.13128465330E+03  0.10750151650E+02  0.23518385254E+03  0.26956014255E+03  0.00000000000E+00 0.  1.
<mgrwt>
<rscale>  0 0.19173101E+04</rscale>
<asrwt>0</asrwt>
<pdfrwt beam="1">  1        1 0.11536267E+00 0.19173101E+04</pdfrwt>
<pdfrwt beam="2">  1       -1 0.18855268E+00 0.19173101E+04</pdfrwt>
<totfact> 0.41399409E+00</totfact>
</mgrwt>
</event>
<event>
12    1  0.2048318E-007  0.1291433E+04  0.7818608E-02  0.9036386E-01
         -1   -1    0    0    0  501 -0.00000000000E+00  0.00000000000E+00  0.69324853587E+03  0.69324853587E+03  0.00000000000E+00 0.  1.
          1   -1    0    0  501    0  0.00000000000E+00 -0.00000000000E+00 -0.60144383057E+03  0.60144383057E+03  0.00000000000E+00 0. -1.
         23    2    1    2    0    0  0.74229751972E+02 -0.31512984668E+03  0.38166239616E+02  0.33593814803E+03  0.81122753331E+02 0.  0.
        254    2    1    2    0    0 -0.74229751972E+02  0.31512984668E+03  0.53638465687E+02  0.95875421840E+03  0.90084165643E+03 0.  0.
        -24    2    4    4    0    0  0.24679401834E+03 -0.87663562956E+02 -0.23631796309E+03  0.36244432677E+03  0.83231740136E+02 0.  0.
         24    2    4    4    0    0 -0.32102377031E+03  0.40279340964E+03  0.28995642878E+03  0.59630989163E+03  0.78816015584E+02 0.  0.
         11    1    3    3    0    0  0.31443129793E+02 -0.26184599828E+03  0.43922855977E+02  0.26735970994E+03  0.00000000000E+00 0. -1.
        -11    1    3    3    0    0  0.42786622179E+02 -0.53283848408E+02 -0.57566163605E+01  0.68578438088E+02  0.00000000000E+00 0.  1.
          2    1    6    6  502    0 -0.72566653630E+02  0.11513046647E+03  0.11364867204E+03  0.17730472127E+03  0.00000000000E+00 0. -1.
          1    1    5    5  503    0  0.18482875107E+02  0.13614333905E+02 -0.87928575835E+01  0.24582129777E+02  0.00000000000E+00 0. -1.
         -2    1    5    5    0  503  0.22831114324E+03 -0.10127789686E+03 -0.22752510551E+03  0.33786219699E+03  0.00000000000E+00 0.  1.
         -1    1    6    6    0  502 -0.24845711668E+03  0.28766294317E+03  0.17630775675E+03  0.41900517037E+03  0.00000000000E+00 0.  1.
<mgrwt>
<rscale>  0 0.12914334E+04</rscale>
<asrwt>0</asrwt>
<pdfrwt beam="1">  1        1 0.92529820E-01 0.12914334E+04</pdfrwt>
<pdfrwt beam="2">  1       -1 0.10665362E+00 0.12914334E+04</pdfrwt>
<totfact> 0.27555498E+01</totfact>
</mgrwt>
</event>
<event>
12    1  0.2048318E-007  0.3819782E+04  0.7818608E-02  0.8041923E-01
          1   -1    0    0  501    0  0.00000000000E+00  0.00000000000E+00  0.16601697987E+04  0.16601697987E+04  0.00000000000E+00 0. -1.
         -1   -1    0    0    0  501 -0.00000000000E+00 -0.00000000000E+00 -0.21971753115E+04  0.21971753115E+04  0.00000000000E+00 0.  1.
         23    2    1    2    0    0  0.14731596158E+04  0.63076710127E+03 -0.10863805182E+04  0.19382286812E+04  0.91877095297E+02 0.  0.
        254    2    1    2    0    0 -0.14731596158E+04 -0.63076710127E+03  0.54937500537E+03  0.19191164290E+04  0.90173642605E+03 0.  0.
        -24    2    4    4    0    0 -0.62512381855E+03 -0.41059298278E+03 -0.18334347562E+03  0.77425083693E+03  0.80517963298E+02 0.  0.
         24    2    4    4    0    0 -0.84803579723E+03 -0.22017411849E+03  0.73271848099E+03  0.11448655921E+04  0.78736876737E+02 0.  0.
         13    1    3    3    0    0  0.74350384567E+03  0.33191764558E+03 -0.49850911994E+03  0.95471390198E+03  0.00000000000E+00 0. -1.
        -13    1    3    3    0    0  0.72965577011E+03  0.29884945569E+03 -0.58787139828E+03  0.98351477921E+03  0.00000000000E+00 0.  1.
          2    1    6    6  502    0 -0.64749046686E+01 -0.48418169580E+01  0.18807574011E+02  0.20471746923E+02  0.00000000000E+00 0. -1.
          1    1    5    5  503    0 -0.20481142699E+03 -0.17948310956E+03 -0.75856798967E+02  0.28269446615E+03  0.00000000000E+00 0. -1.
         -2    1    5    5    0  503 -0.42031239156E+03 -0.23110987322E+03 -0.10748667666E+03  0.49155637079E+03  0.00000000000E+00 0.  1.
         -1    1    6    6    0  502 -0.84156089256E+03 -0.21533230153E+03  0.71391090698E+03  0.11243938452E+04  0.00000000000E+00 0.  1.
<mgrwt>
<rscale>  0 0.38197822E+04</rscale>
<asrwt>0</asrwt>
<pdfrwt beam="1">  1        1 0.25541074E+00 0.38197822E+04</pdfrwt>
<pdfrwt beam="2">  1       -1 0.33802697E+00 0.38197822E+04</pdfrwt>
<totfact> 0.75126456E-02</totfact>
</mgrwt>
</event>
<event>
12    1  0.2048318E-007  0.1646641E+04  0.7818608E-02  0.8792396E-01
         -1   -1    0    0    0  501 -0.00000000000E+00  0.00000000000E+00  0.15754908288E+04  0.15754908288E+04  0.00000000000E+00 0.  1.
          1   -1    0    0  501    0  0.00000000000E+00 -0.00000000000E+00 -0.43025109996E+03  0.43025109996E+03  0.00000000000E+00 0. -1.
         23    2    1    2    0    0 -0.73416181836E+02  0.14074127242E+03  0.10712702774E+04  0.10870015399E+04  0.93564409888E+02 0.  0.
        254    2    1    2    0    0  0.73416181836E+02 -0.14074127242E+03  0.73969451361E+02  0.91874038888E+03  0.90189488351E+03 0.  0.
        -24    2    4    4    0    0  0.37500086821E+01 -0.48360154727E+03 -0.12654386043E+03  0.50767637142E+03  0.88529262918E+02 0.  0.
         24    2    4    4    0    0  0.69666173154E+02  0.34286027485E+03  0.20051331180E+03  0.41106401746E+03  0.79758977505E+02 0.  0.
         13    1    3    3    0    0 -0.71403760610E+01  0.80049040256E+02  0.30239628213E+03  0.31289350466E+03  0.00000000000E+00 0. -1.
        -13    1    3    3    0    0 -0.66275805775E+02  0.60692232166E+02  0.76887399532E+03  0.77410803520E+03  0.00000000000E+00 0.  1.
          2    1    6    6  502    0 -0.12779100535E+02  0.97505392002E+02  0.73322818260E+02  0.12266557201E+03  0.00000000000E+00 0. -1.
          3    1    5    5  503    0  0.36035049246E+02 -0.30415440313E+03 -0.10640955976E+03  0.32423975716E+03  0.00000000000E+00 0. -1.
         -4    1    5    5    0  503 -0.32285040564E+02 -0.17944714414E+03 -0.20134300673E+02  0.18343661425E+03  0.00000000000E+00 0.  1.
         -1    1    6    6    0  502  0.82445273689E+02  0.24535488285E+03  0.12719049354E+03  0.28839844545E+03  0.00000000000E+00 0.  1.
<mgrwt>
<rscale>  0 0.16466410E+04</rscale>
<asrwt>0</asrwt>
<pdfrwt beam="1">  1        1 0.66192478E-01 0.16466410E+04</pdfrwt>
<pdfrwt beam="2">  1       -1 0.24238320E+00 0.16466410E+04</pdfrwt>
<totfact> 0.40677431E+00</totfact>
</mgrwt>
</event>
<event>
12    1  0.2048318E-007  0.2314414E+04  0.7818608E-02  0.8472259E-01
          1   -1    0    0  501    0  0.00000000000E+00  0.00000000000E+00  0.25913865510E+04  0.25913865510E+04  0.00000000000E+00 0. -1.
         -1   -1    0    0    0  501 -0.00000000000E+00 -0.00000000000E+00 -0.51676118844E+03  0.51676118844E+03  0.00000000000E+00 0.  1.
         23    2    1    2    0    0 -0.83819506261E+03  0.48155220633E+03  0.10851316803E+04  0.14558754328E+04  0.87172368946E+02 0.  0.
        254    2    1    2    0    0  0.83819506261E+03 -0.48155220633E+03  0.98949368225E+03  0.16522723066E+04  0.90357209870E+03 0.  0.
        -24    2    4    4    0    0  0.83525800780E+03 -0.61165435544E+03  0.10622527218E+04  0.14855031381E+04  0.81004556806E+02 0.  0.
         24    2    4    4    0    0  0.29370548032E+01  0.13010214911E+03 -0.72759039562E+02  0.16676916849E+03  0.74718687274E+02 0.  0.
         11    1    3    3    0    0 -0.60878385309E+03  0.34913517728E+03  0.84418559175E+03  0.10977989183E+04  0.00000000000E+00 0. -1.
        -11    1    3    3    0    0 -0.22941120952E+03  0.13241702905E+03  0.24094608855E+03  0.35807651448E+03  0.00000000000E+00 0.  1.
          2    1    6    6  502    0  0.24677758476E+02  0.14745601284E+02 -0.30740862448E+02  0.42088301756E+02  0.00000000000E+00 0. -1.
          1    1    5    5  503    0  0.15759063122E+03 -0.14016779294E+03  0.25424723716E+03  0.33033842469E+03  0.00000000000E+00 0. -1.
         -2    1    5    5    0  503  0.67766737659E+03 -0.47148656249E+03  0.80800548465E+03  0.11551647134E+04  0.00000000000E+00 0.  1.
         -1    1    6    6    0  502 -0.21740703673E+02  0.11535654782E+03 -0.42018177114E+02  0.12468086673E+03  0.00000000000E+00 0.  1.
<mgrwt>
<rscale>  0 0.23144140E+04</rscale>
<asrwt>0</asrwt>
<pdfrwt beam="1">  1        1 0.39867485E+00 0.23144140E+04</pdfrwt>
<pdfrwt beam="2">  1       -1 0.79501723E-01 0.23144140E+04</pdfrwt>
<totfact> 0.16695541E+00</totfact>
</mgrwt>
</event>
<event>
12    1  0.2048318E-007  0.3651324E+04  0.7818608E-02  0.8078835E-01
          2   -1    0    0  501    0  0.00000000000E+00  0.00000000000E+00  0.33908118382E+04  0.33908118382E+04  0.00000000000E+00 0. -1.
         -2   -1    0    0    0  501 -0.00000000000E+00 -0.00000000000E+00 -0.98296261890E+03  0.98296261890E+03  0.00000000000E+00 0.  1.
         23    2    1    2    0    0  0.99793983654E+03  0.55266197083E+03  0.26627657456E+04  0.28982639510E+04  0.91067790111E+02 0.  0.
        254    2    1    2    0    0 -0.99793983654E+03 -0.55266197083E+03 -0.25491652638E+03  0.14755105060E+04  0.90046079680E+03 0.  0.
        -24    2    4    4    0    0 -0.86061933114E+03 -0.76038131437E+03 -0.33924286813E+03  0.12000857720E+04  0.79213384622E+02 0.  0.
         24    2    4    4    0    0 -0.13732050540E+03  0.20771934353E+03  0.84326341755E+02  0.27542473397E+03  0.82119457441E+02 0.  0.
         13    1    3    3    0    0  0.12830859970E+03  0.51725982253E+02  0.38891820716E+03  0.41279055931E+03  0.00000000000E+00 0. -1.
        -13    1    3    3    0    0  0.86963123684E+03  0.50093598858E+03  0.22738475385E+04  0.24854733917E+04  0.00000000000E+00 0.  1.
          4    1    6    6  502    0 -0.11444992963E+03  0.20645109242E+03  0.63446524332E+02  0.24443056561E+03  0.00000000000E+00 0. -1.
          3    1    5    5  503    0 -0.60990562911E+03 -0.51497216599E+03 -0.20228416155E+03  0.82346832979E+03  0.00000000000E+00 0. -1.
         -4    1    5    5    0  503 -0.25071370203E+03 -0.24540914838E+03 -0.13695870659E+03  0.37661744225E+03  0.00000000000E+00 0.  1.
         -3    1    6    6    0  502 -0.22870575769E+02  0.12682511080E+01  0.20879817422E+02  0.30994168362E+02  0.00000000000E+00 0.  1.
<mgrwt>
<rscale>  0 0.36513238E+04</rscale>
<asrwt>0</asrwt>
<pdfrwt beam="1">  1        2 0.52166335E+00 0.36513238E+04</pdfrwt>
<pdfrwt beam="2">  1       -2 0.15122502E+00 0.36513238E+04</pdfrwt>
<totfact> 0.22985493E-01</totfact>
</mgrwt>
</event>
<event>
12    1  0.2048318E-007  0.2597729E+04  0.7818608E-02  0.8368973E-01
         -2   -1    0    0    0  501 -0.00000000000E+00  0.00000000000E+00  0.12129883692E+04  0.12129883692E+04  0.00000000000E+00 0.  1.
          2   -1    0    0  501    0  0.00000000000E+00 -0.00000000000E+00 -0.13908207624E+04  0.13908207624E+04  0.00000000000E+00 0. -1.
         23    2    1    2    0    0  0.94228219630E+03  0.20360962217E+03  0.53230579402E+03  0.11047032517E+04  0.87562550619E+02 0.  0.
        254    2    1    2    0    0 -0.94228219630E+03 -0.20360962217E+03 -0.71013818719E+03  0.14991058799E+04  0.90203635102E+03 0.  0.
        -24    2    4    4    0    0 -0.98145154526E+03  0.87498056718E+02 -0.66507208206E+03  0.11915013418E+04  0.80321400949E+02 0.  0.
         24    2    4    4    0    0  0.39169348965E+02 -0.29110767889E+03 -0.45066105130E+02  0.30760453815E+03  0.79446078884E+02 0.  0.
         11    1    3    3    0    0  0.27853997357E+03  0.74880901684E+02  0.20268289322E+03  0.35252237024E+03  0.00000000000E+00 0.  1.
        -11    1    3    3    0    0  0.66374222272E+03  0.12872872049E+03  0.32962290081E+03  0.75218088146E+03  0.00000000000E+00 0. -1.
          2    1    6    6  502    0  0.27733798147E+02 -0.67340220983E+02 -0.40857138178E+02  0.83505536713E+02  0.00000000000E+00 0. -1.
          1    1    5    5  503    0 -0.48125166718E+03  0.43105846715E+01 -0.30990690718E+03  0.57241946108E+03  0.00000000000E+00 0. -1.
         -2    1    5    5    0  503 -0.50019987808E+03  0.83187472047E+02 -0.35516517487E+03  0.61908188067E+03  0.00000000000E+00 0.  1.
         -1    1    6    6    0  502  0.11435550818E+02 -0.22376745791E+03 -0.42089669519E+01  0.22409900144E+03  0.00000000000E+00 0.  1.
<mgrwt>
<rscale>  0 0.25977293E+04</rscale>
<asrwt>0</asrwt>
<pdfrwt beam="1">  1        2 0.21397242E+00 0.25977293E+04</pdfrwt>
<pdfrwt beam="2">  1       -2 0.18661360E+00 0.25977293E+04</pdfrwt>
<totfact> 0.21173290E+00</totfact>
</mgrwt>
</event>
<event>
12    1  0.2048318E-007  0.2461927E+04  0.7818608E-02  0.8416676E-01
          2   -1    0    0  501    0  0.00000000000E+00  0.00000000000E+00  0.14933845685E+04  0.14933845685E+04  0.00000000000E+00 0. -1.
         -2   -1    0    0    0  501 -0.00000000000E+00 -0.00000000000E+00 -0.10146560510E+04  0.10146560510E+04  0.00000000000E+00 0.  1.
         23    2    1    2    0    0  0.96728612749E+03 -0.10885063315E+03 -0.23338967755E+03  0.10047563155E+04  0.87026428074E+02 0.  0.
        254    2    1    2    0    0 -0.96728612749E+03  0.10885063315E+03  0.71211819510E+03  0.15032843040E+04  0.89736306028E+03 0.  0.
        -24    2    4    4    0    0 -0.10330548437E+04  0.31004894697E+03  0.67531173728E+03  0.12746556645E+04  0.73269782056E+02 0.  0.
         24    2    4    4    0    0  0.65768716196E+02 -0.20119831381E+03  0.36806457813E+02  0.22862863945E+03  0.78166833940E+02 0.  0.
         11    1    3    3    0    0  0.32722435651E+03 -0.58544907804E+02 -0.11599093043E+03  0.35207553403E+03  0.00000000000E+00 0. -1.
        -11    1    3    3    0    0  0.64006177099E+03 -0.50305725347E+02 -0.11739874712E+03  0.65268078148E+03  0.00000000000E+00 0.  1.
          4    1    6    6  502    0  0.47745227761E+02 -0.19744248616E+03  0.45656974975E+02  0.20820110825E+03  0.00000000000E+00 0. -1.
          3    1    5    5  503    0 -0.52767328656E+03  0.13752784039E+03  0.30495793776E+03  0.62478184035E+03  0.00000000000E+00 0. -1.
         -4    1    5    5    0  503 -0.50538155713E+03  0.17252110658E+03  0.37035379952E+03  0.64987382416E+03  0.00000000000E+00 0.  1.
         -3    1    6    6    0  502  0.18023488435E+02 -0.37558276570E+01 -0.88505171622E+01  0.20427531197E+02  0.00000000000E+00 0.  1.
<mgrwt>
<rscale>  0 0.24619274E+04</rscale>
<asrwt>0</asrwt>
<pdfrwt beam="1">  1        2 0.22975147E+00 0.24619274E+04</pdfrwt>
<pdfrwt beam="2">  1       -2 0.15610093E+00 0.24619274E+04</pdfrwt>
<totfact> 0.30857429E+00</totfact>
</mgrwt>
</event>
<event>
12    1  0.2048318E-007  0.2562205E+04  0.7818608E-02  0.8381154E-01
         -2   -1    0    0    0  501 -0.00000000000E+00  0.00000000000E+00  0.13253434929E+04  0.13253434929E+04  0.00000000000E+00 0.  1.
          2   -1    0    0  501    0  0.00000000000E+00 -0.00000000000E+00 -0.12383383837E+04  0.12383383837E+04  0.00000000000E+00 0. -1.
         23    2    1    2    0    0 -0.55715925799E+03  0.61128649132E+03 -0.72265435545E+03  0.11020925805E+04  0.91000688662E+02 0.  0.
        254    2    1    2    0    0  0.55715925799E+03 -0.61128649132E+03  0.80965946467E+03  0.14615892961E+04  0.89252294569E+03 0.  0.
        -24    2    4    4    0    0  0.81750262095E+02  0.20763162214E+03  0.50003995575E+02  0.24459206265E+03  0.86780652652E+02 0.  0.
         24    2    4    4    0    0  0.47540899590E+03 -0.81891811346E+03  0.75965546910E+03  0.12169972335E+04  0.85821003357E+02 0.  0.
         11    1    3    3    0    0 -0.21826681893E+03  0.22150528028E+03 -0.21642028552E+03  0.37887033853E+03  0.00000000000E+00 0.  1.
        -11    1    3    3    0    0 -0.33889243906E+03  0.38978121104E+03 -0.50623406993E+03  0.72322224198E+03  0.00000000000E+00 0. -1.
          2    1    6    6  502    0  0.40012488244E+03 -0.70756462940E+03  0.68647348732E+03  0.10639518199E+04  0.00000000000E+00 0. -1.
          1    1    5    5  503    0  0.45980763860E+02  0.17196816510E+03  0.68236310854E+01  0.17813995170E+03  0.00000000000E+00 0. -1.
         -2    1    5    5    0  503  0.35769498235E+02  0.35663457043E+02  0.43180364489E+02  0.66452110950E+02  0.00000000000E+00 0.  1.
         -1    1    6    6    0  502  0.75284113453E+02 -0.11135348406E+03  0.73181981773E+02  0.15304541355E+03  0.00000000000E+00 0.  1.
<mgrwt>
<rscale>  0 0.25622051E+04</rscale>
<asrwt>0</asrwt>
<pdfrwt beam="1">  1        2 0.19051360E+00 0.25622051E+04</pdfrwt>
<pdfrwt beam="2">  1       -2 0.20389900E+00 0.25622051E+04</pdfrwt>
<totfact> 0.19998107E+00</totfact>
</mgrwt>
</event>
<event>
12    1  0.2048318E-007  0.1777932E+04  0.7818608E-02  0.8718124E-01
          3   -1    0    0  501    0  0.00000000000E+00  0.00000000000E+00  0.13002648058E+04  0.13002648058E+04  0.00000000000E+00 0. -1.
         -3   -1    0    0    0  501 -0.00000000000E+00 -0.00000000000E+00 -0.60776917547E+03  0.60776917547E+03  0.00000000000E+00 0.  1.
         23    2    1    2    0    0 -0.10553795023E+03  0.55643932013E+03  0.62350269257E+03  0.84731528977E+03  0.91785710859E+02 0.  0.
        254    2    1    2    0    0  0.10553795023E+03 -0.55643932013E+03  0.68992937725E+02  0.10607186915E+04  0.89420419427E+03 0.  0.
        -24    2    4    4    0    0 -0.30016050987E+03 -0.96332734568E+02 -0.20550473888E+03  0.38496469738E+03  0.81174460797E+02 0.  0.
         24    2    4    4    0    0  0.40569846011E+03 -0.46010658556E+03  0.27449767661E+03  0.67575399409E+03  0.70747264667E+02 0.  0.
         13    1    3    3    0    0 -0.19465887498E+01  0.14637018220E+03  0.20858729003E+03  0.25482675882E+03  0.00000000000E+00 0. -1.
        -13    1    3    3    0    0 -0.10359136148E+03  0.41006913792E+03  0.41491540254E+03  0.59248853096E+03  0.00000000000E+00 0.  1.
          4    1    6    6  502    0  0.10087402855E+03 -0.14087623703E+03  0.10704265588E+03  0.20366593719E+03  0.00000000000E+00 0. -1.
          1    1    5    5  503    0 -0.20630534526E+03 -0.38183943132E+02 -0.16657461683E+03  0.26789365795E+03  0.00000000000E+00 0. -1.
         -2    1    5    5    0  503 -0.93855164614E+02 -0.58148791436E+02 -0.38930122053E+02  0.11707103943E+03  0.00000000000E+00 0.  1.
         -3    1    6    6    0  502  0.30482443156E+03 -0.31923034853E+03  0.16745502073E+03  0.47208805690E+03  0.00000000000E+00 0.  1.
<mgrwt>
<rscale>  0 0.17779324E+04</rscale>
<asrwt>0</asrwt>
<pdfrwt beam="1">  1        3 0.20004074E+00 0.17779324E+04</pdfrwt>
<pdfrwt beam="2">  1       -3 0.93502950E-01 0.17779324E+04</pdfrwt>
<totfact> 0.37199161E-01</totfact>
</mgrwt>
</event>
<event>
12    1  0.2048318E-007  0.3453455E+04  0.7818608E-02  0.8124910E-01
          2   -1    0    0  501    0  0.00000000000E+00  0.00000000000E+00  0.34297424079E+04  0.34297424079E+04  0.00000000000E+00 0. -1.
         -2   -1    0    0    0  501 -0.00000000000E+00 -0.00000000000E+00 -0.86933307505E+03  0.86933307505E+03  0.00000000000E+00 0.  1.
         23    2    1    2    0    0  0.32989848305E+03  0.11224378409E+04  0.25659908043E+04  0.28215845691E+04  0.91274076031E+02 0.  0.
        254    2    1    2    0    0 -0.32989848305E+03 -0.11224378409E+04 -0.55814714228E+01  0.14774909139E+04  0.90235720858E+03 0.  0.
        -24    2    4    4    0    0 -0.38732828027E+03 -0.12377555904E+04  0.83947592605E+02  0.13021625672E+04  0.80734472014E+02 0.  0.
         24    2    4    4    0    0  0.57429797218E+02  0.11531774946E+03 -0.89529064028E+02  0.17532834663E+03  0.78282890073E+02 0.  0.
         11    1    3    3    0    0  0.29800972581E+03  0.88418675479E+03  0.20492823547E+04  0.22517002872E+04  0.00000000000E+00 0. -1.
        -11    1    3    3    0    0  0.31888757244E+02  0.23825108613E+03  0.51670844956E+03  0.56988428188E+03  0.00000000000E+00 0.  1.
          2    1    6    6  502    0  0.64884657476E+02  0.42971866876E+02 -0.41836626151E+02  0.88356682862E+02  0.00000000000E+00 0. -1.
          3    1    5    5  503    0 -0.15730547853E+03 -0.42743014876E+03 -0.18726829631E+01  0.45546136234E+03  0.00000000000E+00 0. -1.
         -4    1    5    5    0  503 -0.23002280174E+03 -0.81032544163E+03  0.85820275569E+02  0.84670120490E+03  0.00000000000E+00 0.  1.
         -1    1    6    6    0  502 -0.74548602582E+01  0.72345882586E+02 -0.47692437877E+02  0.86971663772E+02  0.00000000000E+00 0.  1.
<mgrwt>
<rscale>  0 0.34534554E+04</rscale>
<asrwt>0</asrwt>
<pdfrwt beam="1">  1        2 0.52765267E+00 0.34534554E+04</pdfrwt>
<pdfrwt beam="2">  1       -2 0.13374355E+00 0.34534554E+04</pdfrwt>
<totfact> 0.30272757E-01</totfact>
</mgrwt>
</event>
<event>
12    1  0.2048318E-007  0.2368165E+04  0.7818608E-02  0.8451519E-01
          2   -1    0    0  501    0  0.00000000000E+00  0.00000000000E+00  0.15981733808E+04  0.15981733808E+04  0.00000000000E+00 0. -1.
         -2   -1    0    0    0  501 -0.00000000000E+00 -0.00000000000E+00 -0.87728338066E+03  0.87728338066E+03  0.00000000000E+00 0.  1.
         23    2    1    2    0    0  0.74460345615E+03 -0.65418569557E+03  0.99679118250E+02  0.10000609583E+04  0.88276625051E+02 0.  0.
        254    2    1    2    0    0 -0.74460345615E+03  0.65418569557E+03  0.62121088185E+03  0.14753958031E+04  0.89916438147E+03 0.  0.
        -24    2    4    4    0    0 -0.21397315479E+03  0.35228841801E+03 -0.18633908975E+03  0.45993636250E+03  0.83231969508E+02 0.  0.
         24    2    4    4    0    0 -0.53063030136E+03  0.30189727756E+03  0.80754997160E+03  0.10154594406E+04  0.79438252560E+02 0.  0.
         13    1    3    3    0    0  0.14591654535E+03 -0.11292540579E+03  0.51382973368E+02  0.19153066447E+03  0.00000000000E+00 0.  1.
        -13    1    3    3    0    0  0.59868691080E+03 -0.54126028977E+03  0.48296144882E+02  0.80853029384E+03  0.00000000000E+00 0. -1.
          4    1    6    6  502    0 -0.38632777830E+03  0.20196821182E+03  0.51984906966E+03  0.67844186641E+03  0.00000000000E+00 0. -1.
          1    1    5    5  503    0  0.15266535265E+01  0.45422251611E+02 -0.22864335091E+02  0.50875233970E+02  0.00000000000E+00 0. -1.
         -2    1    5    5    0  503 -0.21549980832E+03  0.30686616640E+03 -0.16347475466E+03  0.40906112853E+03  0.00000000000E+00 0.  1.
         -3    1    6    6    0  502 -0.14430252306E+03  0.99929065735E+02  0.28770090194E+03  0.33701757420E+03  0.00000000000E+00 0.  1.
<mgrwt>
<rscale>  0 0.23681646E+04</rscale>
<asrwt>0</asrwt>
<pdfrwt beam="1">  1        2 0.24587283E+00 0.23681646E+04</pdfrwt>
<pdfrwt beam="2">  1       -2 0.13496667E+00 0.23681646E+04</pdfrwt>
<totfact> 0.39790898E+00</totfact>
</mgrwt>
</event>
<event>
12    1  0.2048318E-007  0.2550633E+04  0.7818608E-02  0.8385166E-01
          2   -1    0    0  501    0  0.00000000000E+00  0.00000000000E+00  0.15227683615E+04  0.15227683615E+04  0.00000000000E+00 0. -1.
         -2   -1    0    0    0  501 -0.00000000000E+00 -0.00000000000E+00 -0.10680759926E+04  0.10680759926E+04  0.00000000000E+00 0.  1.
         23    2    1    2    0    0  0.30465874826E+03  0.10169033180E+04 -0.14535581756E+03  0.10756229557E+04  0.94483427101E+02 0.  0.
        254    2    1    2    0    0 -0.30465874826E+03 -0.10169033180E+04  0.60004818650E+03  0.15152213984E+04  0.89940466366E+03 0.  0.
        -24    2    4    4    0    0 -0.36707099609E+03 -0.76498354099E+03 -0.52422294386E+01  0.85263579565E+03  0.83781769510E+02 0.  0.
         24    2    4    4    0    0  0.62412247835E+02 -0.25191977705E+03  0.60529041594E+03  0.66258560278E+03  0.72693401620E+02 0.  0.
         13    1    3    3    0    0  0.15332880489E+03  0.38881075832E+03 -0.27149395481E+02  0.41883244606E+03  0.00000000000E+00 0.  1.
        -13    1    3    3    0    0  0.15132994336E+03  0.62809255971E+03 -0.11820642207E+03  0.65679050963E+03  0.00000000000E+00 0. -1.
          2    1    6    6  502    0  0.16820272743E+01 -0.11505688051E+03  0.20316909085E+03  0.23349217213E+03  0.00000000000E+00 0. -1.
          3    1    5    5  503    0 -0.28057837032E+02 -0.12169169352E+03 -0.11902830042E+02  0.12545034019E+03  0.00000000000E+00 0. -1.
         -4    1    5    5    0  503 -0.33901315906E+03 -0.64329184747E+03  0.66606006038E+01  0.72718545546E+03  0.00000000000E+00 0.  1.
         -1    1    6    6    0  502  0.60730220561E+02 -0.13686289653E+03  0.40212132509E+03  0.42909343065E+03  0.00000000000E+00 0.  1.
<mgrwt>
<rscale>  0 0.25506331E+04</rscale>
<asrwt>0</asrwt>
<pdfrwt beam="1">  1        2 0.23427205E+00 0.25506331E+04</pdfrwt>
<pdfrwt beam="2">  1       -2 0.16431938E+00 0.25506331E+04</pdfrwt>
<totfact> 0.25634950E+00</totfact>
</mgrwt>
</event>
<event>
12    1  0.2048318E-007  0.1875861E+04  0.7818608E-02  0.8666966E-01
          1   -1    0    0  501    0  0.00000000000E+00  0.00000000000E+00  0.14722935991E+04  0.14722935991E+04  0.00000000000E+00 0. -1.
         -1   -1    0    0    0  501 -0.00000000000E+00 -0.00000000000E+00 -0.59751213887E+03  0.59751213887E+03  0.00000000000E+00 0.  1.
         23    2    1    2    0    0 -0.46671211421E+03 -0.42670743652E+03 -0.38873361910E+02  0.64029135619E+03  0.92533499941E+02 0.  0.
        254    2    1    2    0    0  0.46671211421E+03  0.42670743652E+03  0.91365482213E+03  0.14295143818E+04  0.89935910499E+03 0.  0.
        -24    2    4    4    0    0 -0.17778145488E+03  0.40424871182E+03  0.34221187675E+03  0.56418475510E+03  0.78563366741E+02 0.  0.
         24    2    4    4    0    0  0.64449356909E+03  0.22458724700E+02  0.57144294538E+03  0.86532962667E+03  0.79824608041E+02 0.  0.
         11    1    3    3    0    0 -0.72961935209E+02 -0.63741330498E+02  0.27402145110E+02  0.10068405415E+03  0.00000000000E+00 0. -1.
        -11    1    3    3    0    0 -0.39375017900E+03 -0.36296610602E+03 -0.66275507020E+02  0.53960730204E+03  0.00000000000E+00 0.  1.
          2    1    6    6  502    0  0.48131740008E+03  0.14655259314E+02  0.47082582421E+03  0.67346727685E+03  0.00000000000E+00 0. -1.
          3    1    5    5  503    0 -0.10958983824E+03  0.20924384699E+03  0.13730086876E+03  0.27321136271E+03  0.00000000000E+00 0. -1.
         -4    1    5    5    0  503 -0.68191616638E+02  0.19500486482E+03  0.20491100799E+03  0.29097339239E+03  0.00000000000E+00 0.  1.
         -1    1    6    6    0  502  0.16317616900E+03  0.78034653860E+01  0.10061712117E+03  0.19186234981E+03  0.00000000000E+00 0.  1.
<mgrwt>
<rscale>  0 0.18758607E+04</rscale>
<asrwt>0</asrwt>
<pdfrwt beam="1">  1        1 0.22650671E+00 0.18758607E+04</pdfrwt>
<pdfrwt beam="2">  1       -1 0.91924945E-01 0.18758607E+04</pdfrwt>
<totfact> 0.73889692E+00</totfact>
</mgrwt>
</event>
<event>
12    1  0.2048318E-007  0.3865550E+04  0.7818608E-02  0.8032232E-01
          2   -1    0    0  501    0  0.00000000000E+00  0.00000000000E+00  0.34031354574E+04  0.34031354574E+04  0.00000000000E+00 0. -1.
         -2   -1    0    0    0  501 -0.00000000000E+00 -0.00000000000E+00 -0.10976993484E+04  0.10976993484E+04  0.00000000000E+00 0.  1.
         23    2    1    2    0    0 -0.24789867083E+03 -0.16685466264E+04  0.27601810326E+03  0.17117617217E+04  0.91872755105E+02 0.  0.
        254    2    1    2    0    0  0.24789867083E+03  0.16685466264E+04  0.20294180057E+04  0.27890730841E+04  0.90271237453E+03 0.  0.
        -24    2    4    4    0    0 -0.15314733332E+03  0.10717544285E+04  0.16419650906E+04  0.19683717923E+04  0.79539257685E+02 0.  0.
         24    2    4    4    0    0  0.40104600416E+03  0.59679219788E+03  0.38745291512E+03  0.82070129174E+03  0.80199899841E+02 0.  0.
         11    1    3    3    0    0 -0.48113991218E+02 -0.60613774281E+03  0.84236013241E+02  0.61385146846E+03  0.00000000000E+00 0. -1.
        -11    1    3    3    0    0 -0.19978467962E+03 -0.10624088836E+04  0.19178209002E+03  0.10979102532E+04  0.00000000000E+00 0.  1.
          2    1    6    6  502    0  0.24415765622E+03  0.29303936668E+03  0.19508770296E+03  0.42842063835E+03  0.00000000000E+00 0. -1.
          3    1    5    5  503    0 -0.11476483464E+03  0.73002085429E+03  0.10545588717E+04  0.12877095282E+04  0.00000000000E+00 0. -1.
         -4    1    5    5    0  503 -0.38382498684E+02  0.34173357421E+03  0.58740621883E+03  0.68066226417E+03  0.00000000000E+00 0.  1.
         -1    1    6    6    0  502  0.15688834794E+03  0.30375283120E+03  0.19236521216E+03  0.39228065340E+03  0.00000000000E+00 0.  1.
<mgrwt>
<rscale>  0 0.38655502E+04</rscale>
<asrwt>0</asrwt>
<pdfrwt beam="1">  1        2 0.52355930E+00 0.38655502E+04</pdfrwt>
<pdfrwt beam="2">  1       -2 0.16887682E+00 0.38655502E+04</pdfrwt>
<totfact> 0.16401142E-01</totfact>
</mgrwt>
</event>
<event>
12    1  0.2048318E-007  0.1897299E+04  0.7818608E-02  0.8656202E-01
         -1   -1    0    0    0  501 -0.00000000000E+00  0.00000000000E+00  0.11276374791E+04  0.11276374791E+04  0.00000000000E+00 0.  1.
          1   -1    0    0  501    0  0.00000000000E+00 -0.00000000000E+00 -0.79807239763E+03  0.79807239763E+03  0.00000000000E+00 0. -1.
         23    2    1    2    0    0  0.13199612890E+03 -0.57322196155E+03 -0.31444076800E+03  0.67296490564E+03  0.89455980244E+02 0.  0.
        254    2    1    2    0    0 -0.13199612890E+03  0.57322196155E+03  0.64400584950E+03  0.12527449711E+04  0.89923302500E+03 0.  0.
        -24    2    4    4    0    0  0.31965415385E+03  0.34816871248E+03  0.71180793128E+02  0.48505191597E+03  0.82513183534E+02 0.  0.
         24    2    4    4    0    0 -0.45165028275E+03  0.22505324907E+03  0.57282505637E+03  0.76769305515E+03  0.81161190821E+02 0.  0.
         13    1    3    3    0    0  0.50583936622E+02 -0.34488962578E+03 -0.22338791272E+03  0.41401660373E+03  0.00000000000E+00 0.  1.
        -13    1    3    3    0    0  0.81412192279E+02 -0.22833233576E+03 -0.91052855278E+02  0.25894830191E+03  0.00000000000E+00 0. -1.
          2    1    6    6  502    0 -0.25044305672E+03  0.10898308425E+03  0.36596423065E+03  0.45664959809E+03  0.00000000000E+00 0. -1.
          1    1    5    5  503    0  0.92734244582E+02  0.10538060071E+03 -0.16544303406E+02  0.14134505686E+03  0.00000000000E+00 0. -1.
         -2    1    5    5    0  503  0.22691990927E+03  0.24278811177E+03  0.87725096534E+02  0.34370685911E+03  0.00000000000E+00 0.  1.
         -1    1    6    6    0  502 -0.20120722603E+03  0.11607016482E+03  0.20686082572E+03  0.31104345707E+03  0.00000000000E+00 0.  1.
<mgrwt>
<rscale>  0 0.18972995E+04</rscale>
<asrwt>0</asrwt>
<pdfrwt beam="1">  1        1 0.12278037E+00 0.18972995E+04</pdfrwt>
<pdfrwt beam="2">  1       -1 0.17348269E+00 0.18972995E+04</pdfrwt>
<totfact> 0.48192905E+00</totfact>
</mgrwt>
</event>
<event>
12    1  0.2048318E-007  0.1489833E+04  0.7818608E-02  0.8891242E-01
         -1   -1    0    0    0  501 -0.00000000000E+00  0.00000000000E+00  0.79622472486E+03  0.79622472486E+03  0.00000000000E+00 0.  1.
          1   -1    0    0  501    0  0.00000000000E+00 -0.00000000000E+00 -0.69691408688E+03  0.69691408688E+03  0.00000000000E+00 0. -1.
         23    2    1    2    0    0  0.35711345912E+03  0.18088047907E+03  0.27463212269E+03  0.49387564762E+03  0.90788667294E+02 0.  0.
        254    2    1    2    0    0 -0.35711345912E+03 -0.18088047907E+03 -0.17532148471E+03  0.99926316412E+03  0.89863311634E+03 0.  0.
        -24    2    4    4    0    0  0.11392280564E+03 -0.30831617324E+03  0.18593396768E+03  0.38682397242E+03  0.83809766571E+02 0.  0.
         24    2    4    4    0    0 -0.47103626476E+03  0.12743569418E+03 -0.36125545239E+03  0.61243919170E+03  0.80381856057E+02 0.  0.
         11    1    3    3    0    0  0.90166725499E+02  0.43721274712E+01  0.54456932208E+02  0.10542633139E+03  0.00000000000E+00 0. -1.
        -11    1    3    3    0    0  0.26694673362E+03  0.17650835159E+03  0.22017519048E+03  0.38844931622E+03  0.00000000000E+00 0.  1.
          2    1    6    6  502    0 -0.81660358055E+02 -0.14806049412E+01 -0.37374757333E+02  0.89819144698E+02  0.00000000000E+00 0. -1.
          1    1    5    5  503    0 -0.46083581500E+01 -0.61539622108E+01  0.21777385211E+02  0.23094647050E+02  0.00000000000E+00 0. -1.
         -2    1    5    5    0  503  0.11853116379E+03 -0.30216221103E+03  0.16415658247E+03  0.36372932537E+03  0.00000000000E+00 0.  1.
         -1    1    6    6    0  502 -0.38937590670E+03  0.12891629912E+03 -0.32388069506E+03  0.52262004701E+03  0.00000000000E+00 0.  1.
<mgrwt>
<rscale>  0 0.14898325E+04</rscale>
<asrwt>0</asrwt>
<pdfrwt beam="1">  1        1 0.10721755E+00 0.14898325E+04</pdfrwt>
<pdfrwt beam="2">  1       -1 0.12249611E+00 0.14898325E+04</pdfrwt>
<totfact> 0.15630942E+01</totfact>
</mgrwt>
</event>
<event>
12    1  0.2048318E-007  0.3061133E+04  0.7818608E-02  0.8226486E-01
         -2   -1    0    0    0  501 -0.00000000000E+00  0.00000000000E+00  0.70920703686E+03  0.70920703686E+03  0.00000000000E+00 0.  1.
          2   -1    0    0  501    0  0.00000000000E+00 -0.00000000000E+00 -0.33031723705E+04  0.33031723705E+04  0.00000000000E+00 0. -1.
         23    2    1    2    0    0 -0.25008648788E+03  0.12854385632E+04 -0.18214030924E+04  0.22451534824E+04  0.91155818401E+02 0.  0.
        254    2    1    2    0    0  0.25008648788E+03 -0.12854385632E+04 -0.77256224121E+03  0.17672259250E+04  0.90074386048E+03 0.  0.
        -24    2    4    4    0    0  0.39725431459E+03 -0.61733193361E+03 -0.78593851236E+03  0.10782443921E+04  0.77472041457E+02 0.  0.
         24    2    4    4    0    0 -0.14716782671E+03 -0.66810662959E+03  0.13376271147E+02  0.68898153286E+03  0.80571646856E+02 0.  0.
         11    1    3    3    0    0 -0.15790750365E+03  0.70740170859E+03 -0.10769054127E+04  0.12981052441E+04  0.00000000000E+00 0. -1.
        -11    1    3    3    0    0 -0.92178984221E+02  0.57803685461E+03 -0.74449767978E+03  0.94704823827E+03  0.00000000000E+00 0.  1.
          4    1    6    6  502    0 -0.13761971859E+03 -0.56801063309E+03 -0.14548873820E+02  0.58462546642E+03  0.00000000000E+00 0. -1.
          1    1    5    5  503    0  0.38999303023E+03 -0.58028441403E+03 -0.73043132985E+03  0.10111154694E+04  0.00000000000E+00 0. -1.
         -2    1    5    5    0  503  0.72612843599E+01 -0.37047519579E+02 -0.55507182515E+02  0.67128922741E+02  0.00000000000E+00 0.  1.
         -3    1    6    6    0  502 -0.95481081241E+01 -0.10009599649E+03  0.27925144966E+02  0.10435606645E+03  0.00000000000E+00 0.  1.
<mgrwt>
<rscale>  0 0.30611325E+04</rscale>
<asrwt>0</asrwt>
<pdfrwt beam="1">  1        2 0.50818035E+00 0.30611325E+04</pdfrwt>
<pdfrwt beam="2">  1       -2 0.10910878E+00 0.30611325E+04</pdfrwt>
<totfact> 0.63207484E-01</totfact>
</mgrwt>
</event>
<event>
12    1  0.2048318E-007  0.2149075E+04  0.7818608E-02  0.8539928E-01
          1   -1    0    0  501    0  0.00000000000E+00  0.00000000000E+00  0.15605352312E+04  0.15605352312E+04  0.00000000000E+00 0. -1.
         -1   -1    0    0    0  501 -0.00000000000E+00 -0.00000000000E+00 -0.73989424869E+03  0.73989424869E+03  0.00000000000E+00 0.  1.
         23    2    1    2    0    0 -0.36032333975E+03  0.76326336144E+03  0.61672008264E+03  0.10493222685E+04  0.91267161842E+02 0.  0.
        254    2    1    2    0    0  0.36032333975E+03 -0.76326336144E+03  0.20392089989E+03  0.12511072114E+04  0.90071174794E+03 0.  0.
        -24    2    4    4    0    0 -0.15451605524E+03  0.84519813626E+02  0.16642982849E+03  0.25522487119E+03  0.80137611919E+02 0.  0.
         24    2    4    4    0    0  0.51483939498E+03 -0.84778317507E+03  0.37491071403E+02  0.99588234019E+03  0.81118065236E+02 0.  0.
         13    1    3    3    0    0 -0.20809177275E+03  0.36485786444E+03  0.26632178084E+03  0.49734368206E+03  0.00000000000E+00 0.  1.
        -13    1    3    3    0    0 -0.15223156700E+03  0.39840549700E+03  0.35039830180E+03  0.55197858648E+03  0.00000000000E+00 0. -1.
          4    1    6    6  502    0  0.49191733403E+03 -0.78553820807E+03  0.50747131604E+02  0.92823930709E+03  0.00000000000E+00 0. -1.
          3    1    5    5  503    0 -0.12629900533E+02  0.39224181650E+02  0.18050736830E+02  0.44987552875E+02  0.00000000000E+00 0. -1.
         -4    1    5    5    0  503 -0.14188615470E+03  0.45295631976E+02  0.14837909166E+03  0.21023731832E+03  0.00000000000E+00 0.  1.
         -3    1    6    6    0  502  0.22922060953E+02 -0.62244966994E+02 -0.13256060201E+02  0.67643033096E+02  0.00000000000E+00 0.  1.
<mgrwt>
<rscale>  0 0.21490752E+04</rscale>
<asrwt>0</asrwt>
<pdfrwt beam="1">  1        1 0.24008234E+00 0.21490752E+04</pdfrwt>
<pdfrwt beam="2">  1       -1 0.11382988E+00 0.21490752E+04</pdfrwt>
<totfact> 0.38266417E+00</totfact>
</mgrwt>
</event>
<event>
12    1  0.2048318E-007  0.2934266E+04  0.7818608E-02  0.8262755E-01
          2   -1    0    0  501    0  0.00000000000E+00  0.00000000000E+00  0.18509834566E+04  0.18509834566E+04  0.00000000000E+00 0. -1.
         -2   -1    0    0    0  501 -0.00000000000E+00 -0.00000000000E+00 -0.11628841209E+04  0.11628841209E+04  0.00000000000E+00 0.  1.
         23    2    1    2    0    0  0.42074846725E+03 -0.88036223255E+03 -0.61031732771E+03  0.11554005487E+04  0.10196202399E+03 0.  0.
        254    2    1    2    0    0 -0.42074846725E+03  0.88036223255E+03  0.12984166634E+04  0.18584670287E+04  0.90329780903E+03 0.  0.
        -24    2    4    4    0    0 -0.27676429520E+03  0.56398214937E+03  0.13565775794E+04  0.14971322157E+04  0.80173577640E+02 0.  0.
         24    2    4    4    0    0 -0.14398417205E+03  0.31638008318E+03 -0.58160915946E+02  0.36133481302E+03  0.79701669499E+02 0.  0.
         11    1    3    3    0    0  0.18116606906E+03 -0.28210373229E+03 -0.23773980772E+03  0.41100349941E+03  0.00000000000E+00 0.  1.
        -11    1    3    3    0    0  0.23958239818E+03 -0.59825850026E+03 -0.37257752000E+03  0.74439704933E+03  0.00000000000E+00 0. -1.
          2    1    6    6  502    0 -0.63199206852E+02  0.16533557555E+03  0.92786713453E+01  0.17724583502E+03  0.00000000000E+00 0. -1.
          3    1    5    5  503    0 -0.18494370238E+03  0.37368006533E+03  0.98633106440E+03  0.10708360906E+04  0.00000000000E+00 0. -1.
         -4    1    5    5    0  503 -0.91820592823E+02  0.19030208403E+03  0.37024651496E+03  0.42629612512E+03  0.00000000000E+00 0.  1.
         -1    1    6    6    0  502 -0.80784965196E+02  0.15104450763E+03 -0.67439587291E+02  0.18408897800E+03  0.00000000000E+00 0.  1.
<mgrwt>
<rscale>  0 0.29342660E+04</rscale>
<asrwt>0</asrwt>
<pdfrwt beam="1">  1        2 0.28476669E+00 0.29342660E+04</pdfrwt>
<pdfrwt beam="2">  1       -2 0.17890525E+00 0.29342660E+04</pdfrwt>
<totfact> 0.12840257E+00</totfact>
</mgrwt>
</event>
<event>
12    1  0.2048318E-007  0.4046108E+04  0.7818608E-02  0.7995309E-01
         -1   -1    0    0    0  501 -0.00000000000E+00  0.00000000000E+00  0.86997716883E+03  0.86997716883E+03  0.00000000000E+00 0.  1.
          1   -1    0    0  501    0  0.00000000000E+00 -0.00000000000E+00 -0.47044312673E+04  0.47044312673E+04  0.00000000000E+00 0. -1.
         23    2    1    2    0    0  0.17048240447E+04 -0.21821053290E+03 -0.30087449098E+04  0.34663162044E+04  0.93601476654E+02 0.  0.
        254    2    1    2    0    0 -0.17048240447E+04  0.21821053290E+03 -0.82570918870E+03  0.21080922318E+04  0.89900852803E+03 0.  0.
        -24    2    4    4    0    0 -0.13180257086E+04  0.27541084286E+03 -0.19666076461E+03  0.13630011977E+04  0.77806861076E+02 0.  0.
         24    2    4    4    0    0 -0.38679833610E+03 -0.57200309952E+02 -0.62904842409E+03  0.74509103415E+03  0.81079596969E+02 0.  0.
         13    1    3    3    0    0  0.13898618186E+04 -0.21261679563E+03 -0.24800108777E+04  0.28508552629E+04  0.00000000000E+00 0. -1.
        -13    1    3    3    0    0  0.31496222605E+03 -0.55937372790E+01 -0.52873403208E+03  0.61546094142E+03  0.00000000000E+00 0.  1.
          2    1    6    6  502    0 -0.38580755620E+03 -0.61325694287E+02 -0.62945896755E+03  0.74082852471E+03  0.00000000000E+00 0. -1.
          3    1    5    5  503    0 -0.13182014904E+04  0.27660072023E+03 -0.19500083932E+03  0.13609513051E+04  0.00000000000E+00 0. -1.
         -4    1    5    5    0  503  0.17578177424E+00 -0.11898773689E+01 -0.16599252925E+01  0.20498925244E+01  0.00000000000E+00 0.  1.
         -1    1    6    6    0  502 -0.99077990156E+00  0.41253843349E+01  0.41054345980E+00  0.42625094319E+01  0.00000000000E+00 0.  1.
<mgrwt>
<rscale>  0 0.40461082E+04</rscale>
<asrwt>0</asrwt>
<pdfrwt beam="1">  1        1 0.72375866E+00 0.40461082E+04</pdfrwt>
<pdfrwt beam="2">  1       -1 0.13384264E+00 0.40461082E+04</pdfrwt>
<totfact> 0.70962843E-03</totfact>
</mgrwt>
</event>
<event>
12    1  0.2048318E-007  0.1575600E+04  0.7818608E-02  0.8835680E-01
         -2   -1    0    0    0  501 -0.00000000000E+00  0.00000000000E+00  0.50468009912E+03  0.50468009912E+03  0.00000000000E+00 0. -1.
          2   -1    0    0  501    0  0.00000000000E+00 -0.00000000000E+00 -0.12297464156E+04  0.12297464156E+04  0.00000000000E+00 0.  1.
         23    2    1    2    0    0 -0.18767938845E+03  0.46480218946E+03 -0.72102300716E+02  0.51474516628E+03  0.92191194114E+02 0.  0.
        254    2    1    2    0    0  0.18767938845E+03 -0.46480218946E+03 -0.65296401571E+03  0.12196813484E+04  0.89999775423E+03 0.  0.
        -24    2    4    4    0    0  0.46098226248E+03 -0.75944484580E+02 -0.97166190771E+02  0.48388654102E+03  0.80204145092E+02 0.  0.
         24    2    4    4    0    0 -0.27330287403E+03 -0.38885770488E+03 -0.55579782494E+03  0.73579480737E+03  0.81104874983E+02 0.  0.
         13    1    3    3    0    0 -0.11484472057E+03  0.26236985012E+03 -0.86347989812E+02  0.29913746579E+03  0.00000000000E+00 0.  1.
        -13    1    3    3    0    0 -0.72834667875E+02  0.20243233934E+03  0.14245689096E+02  0.21560770050E+03  0.00000000000E+00 0. -1.
          4    1    6    6  502    0 -0.71505710440E+02 -0.16074220481E+03 -0.23352000629E+03  0.29237427446E+03  0.00000000000E+00 0. -1.
          1    1    5    5  503    0  0.28345664360E+02  0.14432045250E+02 -0.26538345117E+01  0.31918700721E+02  0.00000000000E+00 0. -1.
         -2    1    5    5    0  503  0.43263659812E+03 -0.90376529830E+02 -0.94512356259E+02  0.45196784030E+03  0.00000000000E+00 0.  1.
         -3    1    6    6    0  502 -0.20179716359E+03 -0.22811550007E+03 -0.32227781866E+03  0.44342053291E+03  0.00000000000E+00 0.  1.
<mgrwt>
<rscale>  0 0.15755996E+04</rscale>
<asrwt>0</asrwt>
<pdfrwt beam="1">  1        2 0.18919176E+00 0.15755996E+04</pdfrwt>
<pdfrwt beam="2">  1       -2 0.77643092E-01 0.15755996E+04</pdfrwt>
<totfact> 0.25825448E+01</totfact>
</mgrwt>
</event>
<event>
12    1  0.2048318E-007  0.1780179E+04  0.7818608E-02  0.8716912E-01
          2   -1    0    0  501    0  0.00000000000E+00  0.00000000000E+00  0.85276370162E+03  0.85276370162E+03  0.00000000000E+00 0. -1.
         -2   -1    0    0    0  501 -0.00000000000E+00 -0.00000000000E+00 -0.92904893534E+03  0.92904893534E+03  0.00000000000E+00 0.  1.
         23    2    1    2    0    0  0.32246913776E+03 -0.17201338370E+01 -0.60304630695E+03  0.68969778602E+03  0.89604040321E+02 0.  0.
        254    2    1    2    0    0 -0.32246913776E+03  0.17201338370E+01  0.52676107324E+03  0.10921148509E+04  0.90069324173E+03 0.  0.
        -24    2    4    4    0    0  0.24549588131E+03  0.22380719073E+03  0.19339639352E+03  0.39236323687E+03  0.78669296772E+02 0.  0.
         24    2    4    4    0    0 -0.56796501907E+03 -0.22208705690E+03  0.33336467971E+03  0.69975161407E+03  0.81322739675E+02 0.  0.
         11    1    3    3    0    0  0.20815223760E+03 -0.36096078998E+02 -0.43478378506E+03  0.48339137424E+03  0.00000000000E+00 0.  1.
        -11    1    3    3    0    0  0.11431690016E+03  0.34375945161E+02 -0.16826252189E+03  0.20630641178E+03  0.00000000000E+00 0. -1.
          2    1    6    6  502    0 -0.20183244130E+02  0.41313909592E+01  0.18679006216E+01  0.20686246339E+02  0.00000000000E+00 0. -1.
          1    1    5    5  503    0 -0.64877488599E+00  0.20221307101E+02  0.21878004301E+02  0.29798812760E+02  0.00000000000E+00 0. -1.
         -2    1    5    5    0  503  0.24614465620E+03  0.20358588363E+03  0.17151838922E+03  0.36256442411E+03  0.00000000000E+00 0.  1.
         -1    1    6    6    0  502 -0.54778177494E+03 -0.22621844785E+03  0.33149677909E+03  0.67906536773E+03  0.00000000000E+00 0.  1.
<mgrwt>
<rscale>  0 0.17801789E+04</rscale>
<asrwt>0</asrwt>
<pdfrwt beam="1">  1        2 0.13119442E+00 0.17801789E+04</pdfrwt>
<pdfrwt beam="2">  1       -2 0.14293060E+00 0.17801789E+04</pdfrwt>
<totfact> 0.10163741E+01</totfact>
</mgrwt>
</event>
<event>
12    1  0.2048318E-007  0.1708278E+04  0.7818608E-02  0.8756657E-01
          2   -1    0    0  501    0  0.00000000000E+00  0.00000000000E+00  0.53126752226E+03  0.53126752226E+03  0.00000000000E+00 0. -1.
         -2   -1    0    0    0  501 -0.00000000000E+00 -0.00000000000E+00 -0.13732310230E+04  0.13732310230E+04  0.00000000000E+00 0.  1.
         23    2    1    2    0    0 -0.43076398901E+03  0.42038207835E+03 -0.18634090630E+03  0.63671757782E+03  0.91693154128E+02 0.  0.
        254    2    1    2    0    0  0.43076398901E+03 -0.42038207835E+03 -0.65562259446E+03  0.12677809675E+04  0.90285596253E+03 0.  0.
        -24    2    4    4    0    0 -0.13586072886E+03 -0.76728176614E+02 -0.56801876114E+03  0.59448439500E+03  0.80131343164E+02 0.  0.
         24    2    4    4    0    0  0.56662471787E+03 -0.34365390174E+03 -0.87603833320E+02  0.67329657247E+03  0.80574610129E+02 0.  0.
         11    1    3    3    0    0 -0.38445375807E+03  0.37006168206E+03 -0.13288472864E+03  0.54991698622E+03  0.00000000000E+00 0. -1.
        -11    1    3    3    0    0 -0.46310230936E+02  0.50320396298E+02 -0.53456177654E+02  0.86800591601E+02  0.00000000000E+00 0.  1.
          2    1    6    6  502    0  0.23176260782E+03 -0.13686007688E+03  0.40948952538E+01  0.26918646919E+03  0.00000000000E+00 0. -1.
          3    1    5    5  503    0 -0.12339757904E+03 -0.35461795833E+02 -0.36453009775E+03  0.38647987482E+03  0.00000000000E+00 0. -1.
         -4    1    5    5    0  503 -0.12463149824E+02 -0.41266380782E+02 -0.20348866339E+03  0.20800452018E+03  0.00000000000E+00 0.  1.
         -1    1    6    6    0  502  0.33486211005E+03 -0.20679382486E+03 -0.91698728574E+02  0.40411010328E+03  0.00000000000E+00 0.  1.
<mgrwt>
<rscale>  0 0.17082775E+04</rscale>
<asrwt>0</asrwt>
<pdfrwt beam="1">  1        2 0.81733464E-01 0.17082775E+04</pdfrwt>
<pdfrwt beam="2">  1       -2 0.21126631E+00 0.17082775E+04</pdfrwt>
<totfact> 0.61242383E+00</totfact>
</mgrwt>
</event>
<event>
12    1  0.2048318E-007  0.2412621E+04  0.7818608E-02  0.8434794E-01
         -2   -1    0    0    0  501 -0.00000000000E+00  0.00000000000E+00  0.19167339703E+04  0.19167339703E+04  0.00000000000E+00 0.  1.
          2   -1    0    0  501    0  0.00000000000E+00 -0.00000000000E+00 -0.75920033243E+03  0.75920033243E+03  0.00000000000E+00 0. -1.
         23    2    1    2    0    0 -0.57101672417E+03 -0.86355363747E+03  0.46626788665E+03  0.11393311530E+04  0.94258951481E+02 0.  0.
        254    2    1    2    0    0  0.57101672417E+03  0.86355363747E+03  0.69126575119E+03  0.15366031497E+04  0.90084178240E+03 0.  0.
        -24    2    4    4    0    0  0.77627506252E+03  0.78086940672E+03  0.68902371863E+03  0.13013394625E+04  0.79816720564E+02 0.  0.
         24    2    4    4    0    0 -0.20525833835E+03  0.82684230756E+02  0.22420325606E+01  0.23526368719E+03  0.79851789720E+02 0.  0.
         13    1    3    3    0    0 -0.33690587190E+03 -0.42997111098E+03  0.26381473440E+03  0.60661267451E+03  0.00000000000E+00 0.  1.
        -13    1    3    3    0    0 -0.23411085227E+03 -0.43358252649E+03  0.20245315225E+03  0.53271847846E+03  0.00000000000E+00 0. -1.
          4    1    6    6  502    0 -0.36065760461E+02  0.39749856230E+02 -0.23914658486E+02  0.58759688890E+02  0.00000000000E+00 0. -1.
          3    1    5    5  503    0  0.59875655581E+03  0.56250048010E+03  0.53714861247E+03  0.98155225796E+03  0.00000000000E+00 0. -1.
         -4    1    5    5    0  503  0.17751850671E+03  0.21836892662E+03  0.15187510617E+03  0.31978720458E+03  0.00000000000E+00 0.  1.
         -3    1    6    6    0  502 -0.16919257789E+03  0.42934374526E+02  0.26156691046E+02  0.17650399830E+03  0.00000000000E+00 0.  1.
<mgrwt>
<rscale>  0 0.24126210E+04</rscale>
<asrwt>0</asrwt>
<pdfrwt beam="1">  1        2 0.11680005E+00 0.24126210E+04</pdfrwt>
<pdfrwt beam="2">  1       -2 0.29488215E+00 0.24126210E+04</pdfrwt>
<totfact> 0.11328308E+00</totfact>
</mgrwt>
</event>
<event>
12    1  0.2048318E-007  0.1635469E+04  0.7818608E-02  0.8799050E-01
          2   -1    0    0  501    0  0.00000000000E+00  0.00000000000E+00  0.94339625326E+03  0.94339625326E+03  0.00000000000E+00 0. -1.
         -2   -1    0    0    0  501 -0.00000000000E+00 -0.00000000000E+00 -0.70881103584E+03  0.70881103584E+03  0.00000000000E+00 0.  1.
         23    2    1    2    0    0  0.45368160027E+03 -0.30008602616E+03 -0.68094352357E+02  0.55548720917E+03  0.89725031128E+02 0.  0.
        254    2    1    2    0    0 -0.45368160027E+03  0.30008602616E+03  0.30267956978E+03  0.10967200799E+04  0.90294041566E+03 0.  0.
        -24    2    4    4    0    0 -0.25184163339E+03  0.21676362015E+02  0.58655765645E+03  0.64367655845E+03  0.79847069922E+02 0.  0.
         24    2    4    4    0    0 -0.20183996688E+03  0.27840966414E+03 -0.28387808667E+03  0.45304352148E+03  0.80064667296E+02 0.  0.
         11    1    3    3    0    0  0.16825882978E+03 -0.66408019168E+02 -0.30351381482E+01  0.18091509300E+03  0.00000000000E+00 0. -1.
        -11    1    3    3    0    0  0.28542277049E+03 -0.23367800699E+03 -0.65059214209E+02  0.37457211618E+03  0.00000000000E+00 0.  1.
          2    1    6    6  502    0  0.46567565342E+01  0.27613748335E+02 -0.18512508617E+02  0.33569591207E+02  0.00000000000E+00 0. -1.
          1    1    5    5  503    0 -0.97092869467E+01  0.17231908459E+02  0.23293833157E+02  0.30558330866E+02  0.00000000000E+00 0. -1.
         -2    1    5    5    0  503 -0.24213234645E+03  0.44444535555E+01  0.56326382329E+03  0.61311822758E+03  0.00000000000E+00 0.  1.
         -1    1    6    6    0  502 -0.20649672341E+03  0.25079591581E+03 -0.26536557805E+03  0.41947393028E+03  0.00000000000E+00 0.  1.
<mgrwt>
<rscale>  0 0.16354690E+04</rscale>
<asrwt>0</asrwt>
<pdfrwt beam="1">  1        2 0.14513788E+00 0.16354690E+04</pdfrwt>
<pdfrwt beam="2">  1       -2 0.10904785E+00 0.16354690E+04</pdfrwt>
<totfact> 0.17600110E+01</totfact>
</mgrwt>
</event>
<event>
12    1  0.2048318E-007  0.1710838E+04  0.7818608E-02  0.8755207E-01
         -1   -1    0    0    0  501 -0.00000000000E+00  0.00000000000E+00  0.28966327554E+03  0.28966327554E+03  0.00000000000E+00 0.  1.
          1   -1    0    0  501    0  0.00000000000E+00 -0.00000000000E+00 -0.25261804496E+04  0.25261804496E+04  0.00000000000E+00 0. -1.
         23    2    1    2    0    0  0.16106902760E+03 -0.57508129478E+03 -0.57231511645E+03  0.83242476232E+03  0.93405915996E+02 0.  0.
        254    2    1    2    0    0 -0.16106902760E+03  0.57508129478E+03 -0.16642020576E+04  0.19834189628E+04  0.89873275575E+03 0.  0.
        -24    2    4    4    0    0 -0.10678149237E+03 -0.18399275434E+03 -0.78593987529E+03  0.81864038550E+03  0.84940993897E+02 0.  0.
         24    2    4    4    0    0 -0.54287535227E+02  0.75907404912E+03 -0.87826218227E+03  0.11647785773E+04  0.78893122279E+02 0.  0.
         13    1    3    3    0    0  0.64766799171E+02 -0.10813494884E+03 -0.14561599897E+03  0.19259263898E+03  0.00000000000E+00 0. -1.
        -13    1    3    3    0    0  0.96302228425E+02 -0.46694634595E+03 -0.42669911748E+03  0.63983212334E+03  0.00000000000E+00 0.  1.
          2    1    6    6  502    0 -0.18698832790E+02  0.49187868561E+03 -0.51467639058E+03  0.71216997601E+03  0.00000000000E+00 0. -1.
          3    1    5    5  503    0 -0.87315722216E+02 -0.11275787935E+03 -0.63218381244E+03  0.64807001737E+03  0.00000000000E+00 0. -1.
         -4    1    5    5    0  503 -0.19465770152E+02 -0.71234874986E+02 -0.15375606284E+03  0.17057036813E+03  0.00000000000E+00 0.  1.
         -3    1    6    6    0  502 -0.35588702437E+02  0.26719536351E+03 -0.36358579169E+03  0.45260860127E+03  0.00000000000E+00 0.  1.
<mgrwt>
<rscale>  0 0.17108380E+04</rscale>
<asrwt>0</asrwt>
<pdfrwt beam="1">  1        1 0.38864315E+00 0.17108380E+04</pdfrwt>
<pdfrwt beam="2">  1       -1 0.44563581E-01 0.17108380E+04</pdfrwt>
<totfact> 0.61700469E+00</totfact>
</mgrwt>
</event>
<event>
12    1  0.2048318E-007  0.1523556E+04  0.7818608E-02  0.8868938E-01
          2   -1    0    0  501    0  0.00000000000E+00  0.00000000000E+00  0.41442394232E+03  0.41442394232E+03  0.00000000000E+00 0. -1.
         -2   -1    0    0    0  501 -0.00000000000E+00 -0.00000000000E+00 -0.14002705910E+04  0.14002705910E+04  0.00000000000E+00 0.  1.
         23    2    1    2    0    0  0.71645516968E+02  0.43454048307E+03 -0.59095457374E+03  0.74267651999E+03  0.91556504899E+02 0.  0.
        254    2    1    2    0    0 -0.71645516968E+02 -0.43454048307E+03 -0.39489207497E+03  0.10720180134E+04  0.89404941619E+03 0.  0.
        -24    2    4    4    0    0 -0.28325534487E+03  0.14551563877E+03 -0.29419948375E+03  0.44130495307E+03  0.82391345683E+02 0.  0.
         24    2    4    4    0    0  0.21160982790E+03 -0.58005612184E+03 -0.10069259122E+03  0.63071306030E+03  0.80100828691E+02 0.  0.
         13    1    3    3    0    0 -0.15119872441E+02  0.59478924219E+02 -0.11661276861E+03  0.13177591120E+03  0.00000000000E+00 0.  1.
        -13    1    3    3    0    0  0.86765389409E+02  0.37506155885E+03 -0.47434180513E+03  0.61090060879E+03  0.00000000000E+00 0. -1.
          4    1    6    6  502    0  0.85171603853E+02 -0.28816149066E+03 -0.84765833289E+02  0.31221225679E+03  0.00000000000E+00 0. -1.
          3    1    5    5  503    0 -0.85482837449E+02  0.11641525983E+02 -0.49898131363E+02  0.99662752014E+02  0.00000000000E+00 0. -1.
         -4    1    5    5    0  503 -0.19777250742E+03  0.13387411278E+03 -0.24430135239E+03  0.34164220106E+03  0.00000000000E+00 0.  1.
         -3    1    6    6    0  502  0.12643822405E+03 -0.29189463118E+03 -0.15926757933E+02  0.31850080350E+03  0.00000000000E+00 0.  1.
<mgrwt>
<rscale>  0 0.15235559E+04</rscale>
<asrwt>0</asrwt>
<pdfrwt beam="1">  1        2 0.63757530E-01 0.15235559E+04</pdfrwt>
<pdfrwt beam="2">  1       -2 0.21542624E+00 0.15235559E+04</pdfrwt>
<totfact> 0.77811659E+00</totfact>
</mgrwt>
</event>
<event>
12    1  0.2048318E-007  0.1448282E+04  0.7818608E-02  0.8919592E-01
          1   -1    0    0  501    0  0.00000000000E+00  0.00000000000E+00  0.12939888663E+04  0.12939888663E+04  0.00000000000E+00 0. -1.
         -1   -1    0    0    0  501 -0.00000000000E+00 -0.00000000000E+00 -0.40524314229E+03  0.40524314229E+03  0.00000000000E+00 0.  1.
         23    2    1    2    0    0 -0.14646072612E+03  0.33470821017E+03 -0.10214017667E+02  0.37675470218E+03  0.91430023542E+02 0.  0.
        254    2    1    2    0    0  0.14646072612E+03 -0.33470821017E+03  0.89895974172E+03  0.13224773064E+04  0.89851949260E+03 0.  0.
        -24    2    4    4    0    0  0.26587479784E+03 -0.31942518540E+03  0.12137101708E+02  0.42418397065E+03  0.84040909804E+02 0.  0.
         24    2    4    4    0    0 -0.11941407172E+03 -0.15283024766E+02  0.88682264001E+03  0.89829333579E+03  0.77351347317E+02 0.  0.
         11    1    3    3    0    0 -0.66714293683E+02  0.12201041569E+03  0.38801342240E+02  0.14437064341E+03  0.00000000000E+00 0. -1.
        -11    1    3    3    0    0 -0.79746432437E+02  0.21269779448E+03 -0.49015359907E+02  0.23238405877E+03  0.00000000000E+00 0.  1.
          4    1    6    6  502    0 -0.11735236146E+03  0.77664242473E+01  0.79217246245E+03  0.80085523308E+03  0.00000000000E+00 0. -1.
          3    1    5    5  503    0  0.21521502456E+03 -0.29103818202E+03  0.30573296213E+02  0.36325673653E+03  0.00000000000E+00 0. -1.
         -4    1    5    5    0  503  0.50659773279E+02 -0.28387003379E+02 -0.18436194506E+02  0.60927234119E+02  0.00000000000E+00 0.  1.
         -3    1    6    6    0  502 -0.20617102559E+01 -0.23049449013E+02  0.94650177560E+02  0.97438102717E+02  0.00000000000E+00 0.  1.
<mgrwt>
<rscale>  0 0.14482819E+04</rscale>
<asrwt>0</asrwt>
<pdfrwt beam="1">  1        1 0.19907521E+00 0.14482819E+04</pdfrwt>
<pdfrwt beam="2">  1       -1 0.62345099E-01 0.14482819E+04</pdfrwt>
<totfact> 0.23156209E+01</totfact>
</mgrwt>
</event>
<event>
12    1  0.2048318E-007  0.2042291E+04  0.7818608E-02  0.8587100E-01
          2   -1    0    0  501    0  0.00000000000E+00  0.00000000000E+00  0.15429074365E+04  0.15429074365E+04  0.00000000000E+00 0. -1.
         -2   -1    0    0    0  501 -0.00000000000E+00 -0.00000000000E+00 -0.67582673469E+03  0.67582673469E+03  0.00000000000E+00 0.  1.
         23    2    1    2    0    0  0.80651004718E+03  0.13315809415E+03  0.37264977509E+03  0.90370104693E+03  0.98072387063E+02 0.  0.
        254    2    1    2    0    0 -0.80651004718E+03 -0.13315809415E+03  0.49443092669E+03  0.13150331242E+04  0.90369278095E+03 0.  0.
        -24    2    4    4    0    0 -0.60880500548E+03  0.14686443043E+03 -0.85278601949E+02  0.63684528913E+03  0.78017861581E+02 0.  0.
         24    2    4    4    0    0 -0.19770504171E+03 -0.28002252458E+03  0.57970952864E+03  0.67818783511E+03  0.79848007484E+02 0.  0.
         11    1    3    3    0    0  0.42326420279E+03  0.10286691926E+03  0.15773066785E+03  0.46326358806E+03  0.00000000000E+00 0.  1.
        -11    1    3    3    0    0  0.38324584440E+03  0.30291174893E+02  0.21491910724E+03  0.44043745887E+03  0.00000000000E+00 0. -1.
          2    1    6    6  502    0 -0.15150645140E+03 -0.26143284353E+03  0.49751231575E+03  0.58208233165E+03  0.00000000000E+00 0. -1.
          1    1    5    5  503    0 -0.41093078005E+03  0.12794066545E+03 -0.34997877532E+02  0.43180756281E+03  0.00000000000E+00 0. -1.
         -2    1    5    5    0  503 -0.19787422543E+03  0.18923764981E+02 -0.50280724417E+02  0.20503772633E+03  0.00000000000E+00 0.  1.
         -1    1    6    6    0  502 -0.46198590309E+02 -0.18589681049E+02  0.82197212892E+02  0.96105503460E+02  0.00000000000E+00 0.  1.
<mgrwt>
<rscale>  0 0.20422910E+04</rscale>
<asrwt>0</asrwt>
<pdfrwt beam="1">  1        2 0.23737037E+00 0.20422910E+04</pdfrwt>
<pdfrwt beam="2">  1       -2 0.10397334E+00 0.20422910E+04</pdfrwt>
<totfact> 0.83671808E+00</totfact>
</mgrwt>
</event>
<event>
12    1  0.2048318E-007  0.2240069E+04  0.7818608E-02  0.8501933E-01
         -2   -1    0    0    0  501 -0.00000000000E+00  0.00000000000E+00  0.10386939053E+04  0.10386939053E+04  0.00000000000E+00 0.  1.
          2   -1    0    0  501    0  0.00000000000E+00 -0.00000000000E+00 -0.12077445187E+04  0.12077445187E+04  0.00000000000E+00 0. -1.
         23    2    1    2    0    0 -0.23070876810E+03  0.89708164884E+03  0.43749183629E+02  0.93192068704E+03  0.92629128778E+02 0.  0.
        254    2    1    2    0    0  0.23070876810E+03 -0.89708164884E+03 -0.21279979700E+03  0.13145177369E+04  0.90812505017E+03 0.  0.
        -24    2    4    4    0    0  0.39184789379E+03 -0.87538156198E+03 -0.40835851881E+03  0.10461767873E+04  0.88834336782E+02 0.  0.
         24    2    4    4    0    0 -0.16113912569E+03 -0.21700086862E+02  0.19555872181E+03  0.26834094968E+03  0.85597546693E+02 0.  0.
         11    1    3    3    0    0 -0.96150989477E+02  0.21338769132E+03  0.14460143311E+02  0.23449608809E+03  0.00000000000E+00 0. -1.
        -11    1    3    3    0    0 -0.13455777862E+03  0.68369395752E+03  0.29289040318E+02  0.69742459895E+03  0.00000000000E+00 0.  1.
          2    1    6    6  502    0 -0.12671092982E+03 -0.69457030666E-01  0.18841437145E+03  0.22705867067E+03  0.00000000000E+00 0. -1.
          3    1    5    5  503    0  0.24275665725E+03 -0.63446511819E+03 -0.27198817000E+03  0.73174746016E+03  0.00000000000E+00 0. -1.
         -4    1    5    5    0  503  0.14909123654E+03 -0.24091644379E+03 -0.13637034882E+03  0.31442932709E+03  0.00000000000E+00 0.  1.
         -1    1    6    6    0  502 -0.34428195867E+02 -0.21630629831E+02  0.71443503636E+01  0.41282279003E+02  0.00000000000E+00 0.  1.
<mgrwt>
<rscale>  0 0.22400686E+04</rscale>
<asrwt>0</asrwt>
<pdfrwt beam="1">  1        2 0.18580685E+00 0.22400686E+04</pdfrwt>
<pdfrwt beam="2">  1       -2 0.15979906E+00 0.22400686E+04</pdfrwt>
<totfact> 0.43155776E+00</totfact>
</mgrwt>
</event>
<event>
12    1  0.2048318E-007  0.1708336E+04  0.7818608E-02  0.8756625E-01
         -1   -1    0    0    0  501 -0.00000000000E+00  0.00000000000E+00  0.30304115482E+03  0.30304115482E+03  0.00000000000E+00 0.  1.
          1   -1    0    0  501    0  0.00000000000E+00 -0.00000000000E+00 -0.24076023275E+04  0.24076023275E+04  0.00000000000E+00 0. -1.
         23    2    1    2    0    0 -0.35906037437E+03 -0.42302398869E+03 -0.34869562698E+03  0.66089253209E+03  0.85537426003E+02 0.  0.
        254    2    1    2    0    0  0.35906037437E+03  0.42302398869E+03 -0.17558655457E+04  0.20497509502E+04  0.90030078080E+03 0.  0.
        -24    2    4    4    0    0  0.68891892054E+02  0.65886368250E+03 -0.12215627207E+04  0.13919095528E+04  0.79682355867E+02 0.  0.
         24    2    4    4    0    0  0.29016848231E+03 -0.23583969380E+03 -0.53430282503E+03  0.65784139739E+03  0.86357894715E+02 0.  0.
         11    1    3    3    0    0 -0.34599449804E+03 -0.38787034761E+03 -0.34353845372E+03  0.62303632993E+03  0.00000000000E+00 0. -1.
        -11    1    3    3    0    0 -0.13065876324E+02 -0.35153641087E+02 -0.51571732543E+01  0.37856202158E+02  0.00000000000E+00 0.  1.
          4    1    6    6  502    0  0.57000487872E+02 -0.84332232154E+01 -0.92060328837E+02  0.10860607265E+03  0.00000000000E+00 0. -1.
          3    1    5    5  503    0  0.78633297022E+00  0.90053892750E+01 -0.35769702948E+01  0.97216290829E+01  0.00000000000E+00 0. -1.
         -4    1    5    5    0  503  0.68105559084E+02  0.64985829322E+03 -0.12179857504E+04  0.13821879237E+04  0.00000000000E+00 0.  1.
         -3    1    6    6    0  502  0.23316799444E+03 -0.22740647059E+03 -0.44224249619E+03  0.54923532473E+03  0.00000000000E+00 0.  1.
<mgrwt>
<rscale>  0 0.17083356E+04</rscale>
<asrwt>0</asrwt>
<pdfrwt beam="1">  1        1 0.37040036E+00 0.17083356E+04</pdfrwt>
<pdfrwt beam="2">  1       -1 0.46621716E-01 0.17083356E+04</pdfrwt>
<totfact> 0.68483919E+00</totfact>
</mgrwt>
</event>
<event>
12    1  0.2048318E-007  0.1596536E+04  0.7818608E-02  0.8822679E-01
         -1   -1    0    0    0  501 -0.00000000000E+00  0.00000000000E+00  0.64449818010E+03  0.64449818010E+03  0.00000000000E+00 0.  1.
          1   -1    0    0  501    0  0.00000000000E+00 -0.00000000000E+00 -0.98872495096E+03  0.98872495096E+03  0.00000000000E+00 0. -1.
         23    2    1    2    0    0  0.44303542455E+03  0.30461812110E+03 -0.67445563992E+02  0.54978696907E+03  0.92974298302E+02 0.  0.
        254    2    1    2    0    0 -0.44303542455E+03 -0.30461812110E+03 -0.27678120687E+03  0.10834361620E+04  0.89897357778E+03 0.  0.
        -24    2    4    4    0    0 -0.51378951994E+02 -0.55703671791E+02 -0.53548617438E+03  0.54659085442E+03  0.79204945703E+02 0.  0.
         24    2    4    4    0    0 -0.39165647255E+03 -0.24891444931E+03  0.25870496751E+03  0.53684530758E+03  0.76950818596E+02 0.  0.
         11    1    3    3    0    0  0.14831584197E+03  0.79277507007E+02 -0.60501837015E+02  0.17872600364E+03  0.00000000000E+00 0. -1.
        -11    1    3    3    0    0  0.29471958258E+03  0.22534061409E+03 -0.69437269768E+01  0.37106096542E+03  0.00000000000E+00 0.  1.
          2    1    6    6  502    0 -0.21060938432E+03 -0.14430620425E+03  0.99375876516E+02  0.27396378991E+03  0.00000000000E+00 0. -1.
          3    1    5    5  503    0 -0.53462288802E+02 -0.15006380667E+02 -0.42891158631E+03  0.43249110587E+03  0.00000000000E+00 0. -1.
         -4    1    5    5    0  503  0.20833368079E+01 -0.40697291123E+02 -0.10657458807E+03  0.11409974855E+03  0.00000000000E+00 0.  1.
         -1    1    6    6    0  502 -0.18104708823E+03 -0.10460824506E+03  0.15932909100E+03  0.26288151766E+03  0.00000000000E+00 0.  1.
<mgrwt>
<rscale>  0 0.15965355E+04</rscale>
<asrwt>0</asrwt>
<pdfrwt beam="1">  1        1 0.15211153E+00 0.15965355E+04</pdfrwt>
<pdfrwt beam="2">  1       -1 0.99153566E-01 0.15965355E+04</pdfrwt>
<totfact> 0.14407620E+01</totfact>
</mgrwt>
</event>
<event>
12    1  0.2048318E-007  0.2121680E+04  0.7818608E-02  0.8551753E-01
          2   -1    0    0  501    0  0.00000000000E+00  0.00000000000E+00  0.21929639053E+04  0.21929639053E+04  0.00000000000E+00 0. -1.
         -2   -1    0    0    0  501 -0.00000000000E+00 -0.00000000000E+00 -0.51317818539E+03  0.51317818539E+03  0.00000000000E+00 0.  1.
         23    2    1    2    0    0  0.79915125229E+03  0.22718510316E+03  0.10223753131E+04  0.13214283693E+04  0.10327564662E+03 0.  0.
        254    2    1    2    0    0 -0.79915125229E+03 -0.22718510316E+03  0.65741040674E+03  0.13847137213E+04  0.89162091274E+03 0.  0.
        -24    2    4    4    0    0  0.11232789254E+03 -0.26300807363E+03  0.22369707765E+03  0.37113947584E+03  0.76898151763E+02 0.  0.
         24    2    4    4    0    0 -0.91147914483E+03  0.35822970471E+02  0.43371332910E+03  0.10135742455E+04  0.84545742802E+02 0.  0.
         13    1    3    3    0    0  0.29175829834E+03  0.39990344014E+02  0.40365462490E+03  0.49965907224E+03  0.00000000000E+00 0. -1.
        -13    1    3    3    0    0  0.50739295395E+03  0.18719475915E+03  0.61872068822E+03  0.82176929707E+03  0.00000000000E+00 0.  1.
          4    1    6    6  502    0 -0.68175751484E+02  0.20185865592E+02  0.18524771081E+02  0.73474957664E+02  0.00000000000E+00 0. -1.
          3    1    5    5  503    0  0.75203664610E+01 -0.64840432163E+02  0.20077583718E+02  0.68293095718E+02  0.00000000000E+00 0. -1.
         -4    1    5    5    0  503  0.10480752608E+03 -0.19816764147E+03  0.20361949393E+03  0.30284638012E+03  0.00000000000E+00 0.  1.
         -3    1    6    6    0  502 -0.84330339334E+03  0.15637104880E+02  0.41518855802E+03  0.94009928783E+03  0.00000000000E+00 0.  1.
<mgrwt>
<rscale>  0 0.21216797E+04</rscale>
<asrwt>0</asrwt>
<pdfrwt beam="1">  1        2 0.33737906E+00 0.21216797E+04</pdfrwt>
<pdfrwt beam="2">  1       -2 0.78950491E-01 0.21216797E+04</pdfrwt>
<totfact> 0.68256230E+00</totfact>
</mgrwt>
</event>
<event>
12    1  0.2048318E-007  0.1251692E+04  0.7818608E-02  0.9068776E-01
          2   -1    0    0  501    0  0.00000000000E+00  0.00000000000E+00  0.20135939252E+04  0.20135939252E+04  0.00000000000E+00 0. -1.
         -2   -1    0    0    0  501 -0.00000000000E+00 -0.00000000000E+00 -0.19451960670E+03  0.19451960670E+03  0.00000000000E+00 0.  1.
         23    2    1    2    0    0  0.25375982447E+03 -0.14465256324E+03  0.44435671438E+03  0.53969647226E+03  0.92200759127E+02 0.  0.
        254    2    1    2    0    0 -0.25375982447E+03  0.14465256324E+03  0.13747176041E+04  0.16684170596E+04  0.89913768760E+03 0.  0.
        -24    2    4    4    0    0  0.99560598007E+02 -0.31499006537E+03  0.34856374555E+03  0.48687185344E+03  0.80102827663E+02 0.  0.
         24    2    4    4    0    0 -0.35332042248E+03  0.45964262861E+03  0.10261538585E+04  0.11815452062E+04  0.83370653525E+02 0.  0.
         11    1    3    3    0    0  0.10925577048E+03 -0.65044122951E+02  0.27650223923E+03  0.30433706579E+03  0.00000000000E+00 0. -1.
        -11    1    3    3    0    0  0.14450405399E+03 -0.79608440292E+02  0.16785447515E+03  0.23535940647E+03  0.00000000000E+00 0.  1.
          4    1    6    6  502    0 -0.33951786768E+03  0.40591277593E+03  0.94810168634E+03  0.10857874432E+04  0.00000000000E+00 0. -1.
          1    1    5    5  503    0  0.10816288226E+03 -0.31289366223E+03  0.33896698589E+03  0.47381459506E+03  0.00000000000E+00 0. -1.
         -2    1    5    5    0  503 -0.86022842530E+01 -0.20964031389E+01  0.95967596595E+01  0.13057258382E+02  0.00000000000E+00 0.  1.
         -3    1    6    6    0  502 -0.13802554801E+02  0.53729852688E+02  0.78052172191E+02  0.95757762989E+02  0.00000000000E+00 0.  1.
<mgrwt>
<rscale>  0 0.12516925E+04</rscale>
<asrwt>0</asrwt>
<pdfrwt beam="1">  1        2 0.30978367E+00 0.12516925E+04</pdfrwt>
<pdfrwt beam="2">  1       -2 0.29926095E-01 0.12516925E+04</pdfrwt>
<totfact> 0.66593076E+01</totfact>
</mgrwt>
</event>
<event>
12    1  0.2048318E-007  0.2246550E+04  0.7818608E-02  0.8499299E-01
         -2   -1    0    0    0  501 -0.00000000000E+00  0.00000000000E+00  0.42124730566E+03  0.42124730566E+03  0.00000000000E+00 0.  1.
          2   -1    0    0  501    0  0.00000000000E+00 -0.00000000000E+00 -0.29952625525E+04  0.29952625525E+04  0.00000000000E+00 0. -1.
         23    2    1    2    0    0  0.40828417874E+03 -0.48132995182E+03 -0.22602178015E+02  0.63855538550E+03  0.94168087849E+02 0.  0.
        254    2    1    2    0    0 -0.40828417874E+03  0.48132995182E+03 -0.25514130689E+04  0.27779544727E+04  0.89941531633E+03 0.  0.
        -24    2    4    4    0    0 -0.81782639513E+02  0.16377608256E+03 -0.15139017247E+02  0.19980391623E+03  0.78621941913E+02 0.  0.
         24    2    4    4    0    0 -0.32650153923E+03  0.31755386926E+03 -0.25362740516E+04  0.25781505565E+04  0.82039697149E+02 0.  0.
         11    1    3    3    0    0  0.92182815832E+02 -0.17558959222E+03 -0.11383082578E+02  0.19864277233E+03  0.00000000000E+00 0. -1.
        -11    1    3    3    0    0  0.31610136291E+03 -0.30574035960E+03 -0.11219095437E+02  0.43991261317E+03  0.00000000000E+00 0.  1.
          4    1    6    6  502    0 -0.22112378704E+03  0.26440390165E+03 -0.18675035510E+04  0.18990457250E+04  0.00000000000E+00 0. -1.
          3    1    5    5  503    0 -0.60387133086E+00  0.65257156929E+01  0.18535987136E+02  0.19660428403E+02  0.00000000000E+00 0. -1.
         -4    1    5    5    0  503 -0.81178768182E+02  0.15725036687E+03 -0.33675004383E+02  0.18014348782E+03  0.00000000000E+00 0.  1.
         -3    1    6    6    0  502 -0.10537775219E+03  0.53149967609E+02 -0.66877050056E+03  0.67910483148E+03  0.00000000000E+00 0.  1.
<mgrwt>
<rscale>  0 0.22465496E+04</rscale>
<asrwt>0</asrwt>
<pdfrwt beam="1">  1        2 0.46080963E+00 0.22465496E+04</pdfrwt>
<pdfrwt beam="2">  1       -2 0.64807277E-01 0.22465496E+04</pdfrwt>
<totfact> 0.35108746E+00</totfact>
</mgrwt>
</event>
<event>
12    1  0.2048318E-007  0.2286497E+04  0.7818608E-02  0.8483264E-01
         -1   -1    0    0    0  501 -0.00000000000E+00  0.00000000000E+00  0.10919501577E+04  0.10919501577E+04  0.00000000000E+00 0.  1.
          1   -1    0    0  501    0  0.00000000000E+00 -0.00000000000E+00 -0.11969562972E+04  0.11969562972E+04  0.00000000000E+00 0. -1.
         23    2    1    2    0    0  0.73976110507E+03  0.37730360392E+03  0.44641310551E+03  0.94697724833E+03  0.88751033613E+02 0.  0.
        254    2    1    2    0    0 -0.73976110507E+03 -0.37730360392E+03 -0.55141924500E+03  0.13419292066E+04  0.89839095595E+03 0.  0.
        -24    2    4    4    0    0 -0.78995370423E+03 -0.13641876140E+03 -0.67899799657E+03  0.10535358797E+04  0.79136825965E+02 0.  0.
         24    2    4    4    0    0  0.50192599163E+02 -0.24088484252E+03  0.12757875157E+03  0.28839332691E+03  0.79684181522E+02 0.  0.
         11    1    3    3    0    0  0.64125210868E+03  0.30955470874E+03  0.35021217307E+03  0.79352186533E+03  0.00000000000E+00 0. -1.
        -11    1    3    3    0    0  0.98508996391E+02  0.67748895184E+02  0.96200932437E+02  0.15345538300E+03  0.00000000000E+00 0.  1.
          4    1    6    6  502    0  0.49047468499E+02 -0.59128841973E+02  0.35166812372E+02  0.84490110733E+02  0.00000000000E+00 0. -1.
          3    1    5    5  503    0 -0.74176411950E+03 -0.12446304238E+03 -0.65905690398E+03  0.10000305298E+04  0.00000000000E+00 0. -1.
         -4    1    5    5    0  503 -0.48189584735E+02 -0.11955719023E+02 -0.19941092589E+02  0.53505349900E+02  0.00000000000E+00 0.  1.
         -3    1    6    6    0  502  0.11451306636E+01 -0.18175600055E+03  0.92411939196E+02  0.20390321617E+03  0.00000000000E+00 0.  1.
<mgrwt>
<rscale>  0 0.22864965E+04</rscale>
<asrwt>0</asrwt>
<pdfrwt beam="1">  1        1 0.18414712E+00 0.22864965E+04</pdfrwt>
<pdfrwt beam="2">  1       -1 0.16799233E+00 0.22864965E+04</pdfrwt>
<totfact> 0.24748235E+00</totfact>
</mgrwt>
</event>
<event>
12    1  0.2048318E-007  0.2495909E+04  0.7818608E-02  0.8404445E-01
         -2   -1    0    0    0  501 -0.00000000000E+00  0.00000000000E+00  0.71635069679E+03  0.71635069679E+03  0.00000000000E+00 0. -1.
          2   -1    0    0  501    0  0.00000000000E+00 -0.00000000000E+00 -0.21740610019E+04  0.21740610019E+04  0.00000000000E+00 0.  1.
         23    2    1    2    0    0  0.18335554444E+03  0.10636199815E+04 -0.52651026597E+03  0.12042446328E+04  0.89918600905E+02 0.  0.
        254    2    1    2    0    0 -0.18335554444E+03 -0.10636199815E+04 -0.93120003916E+03  0.16861670659E+04  0.90062153016E+03 0.  0.
        -24    2    4    4    0    0  0.13660275815E+03 -0.68029869679E+03 -0.89165397407E+02  0.70402174197E+03  0.78927274645E+02 0.  0.
         24    2    4    4    0    0 -0.31995830259E+03 -0.38332128468E+03 -0.84203464175E+03  0.98214532395E+03  0.79237470659E+02 0.  0.
         11    1    3    3    0    0  0.52378961550E+02  0.30918729164E+03 -0.19915174760E+03  0.37148587523E+03  0.00000000000E+00 0.  1.
        -11    1    3    3    0    0  0.13097658289E+03  0.75443268983E+03 -0.32735851836E+03  0.83275875756E+03  0.00000000000E+00 0. -1.
          4    1    6    6  502    0 -0.76220175785E+02 -0.14549065525E+03 -0.24914100710E+03  0.29840959666E+03  0.00000000000E+00 0. -1.
          3    1    5    5  503    0  0.16356483022E+02 -0.17634520712E+03  0.62311989516E+01  0.17721172211E+03  0.00000000000E+00 0. -1.
         -4    1    5    5    0  503  0.12024627513E+03 -0.50395348966E+03 -0.95396596359E+02  0.52681001986E+03  0.00000000000E+00 0.  1.
         -3    1    6    6    0  502 -0.24373812681E+03 -0.23783062943E+03 -0.59289363465E+03  0.68373572728E+03  0.00000000000E+00 0.  1.
<mgrwt>
<rscale>  0 0.24959087E+04</rscale>
<asrwt>0</asrwt>
<pdfrwt beam="1">  1        2 0.33447092E+00 0.24959087E+04</pdfrwt>
<pdfrwt beam="2">  1       -2 0.11020780E+00 0.24959087E+04</pdfrwt>
<totfact> 0.31157017E+00</totfact>
</mgrwt>
</event>
<event>
12    1  0.2048318E-007  0.1673298E+04  0.7818608E-02  0.8776742E-01
          1   -1    0    0  501    0  0.00000000000E+00  0.00000000000E+00  0.10951921286E+04  0.10951921286E+04  0.00000000000E+00 0. -1.
         -1   -1    0    0    0  501 -0.00000000000E+00 -0.00000000000E+00 -0.63914015407E+03  0.63914015407E+03  0.00000000000E+00 0.  1.
         23    2    1    2    0    0 -0.24745874289E+03 -0.22269725629E+03 -0.34197473565E+03  0.48578271514E+03  0.90599277683E+02 0.  0.
        254    2    1    2    0    0  0.24745874289E+03  0.22269725629E+03  0.79802671023E+03  0.12485495676E+04  0.90066613962E+03 0.  0.
        -24    2    4    4    0    0 -0.13593430431E+03 -0.12915050921E+03 -0.84671414853E+02  0.22081947951E+03  0.80212249187E+02 0.  0.
         24    2    4    4    0    0  0.38339304720E+03  0.35184776551E+03  0.88269812508E+03  0.10277300881E+04  0.79284772494E+02 0.  0.
         11    1    3    3    0    0 -0.51283450186E+02 -0.52516737908E+02 -0.28590861352E+02  0.78774598548E+02  0.00000000000E+00 0. -1.
        -11    1    3    3    0    0 -0.19617529270E+03 -0.17018051838E+03 -0.31338387430E+03  0.40700811659E+03  0.00000000000E+00 0.  1.
          4    1    6    6  502    0  0.23884426579E+03  0.24656750057E+03  0.51606198471E+03  0.61980810555E+03  0.00000000000E+00 0. -1.
          3    1    5    5  503    0 -0.46578730217E+02 -0.81999487436E+02 -0.72710448017E+02  0.11908107868E+03  0.00000000000E+00 0. -1.
         -4    1    5    5    0  503 -0.89355574094E+02 -0.47151021778E+02 -0.11960966836E+02  0.10173840083E+03  0.00000000000E+00 0.  1.
         -3    1    6    6    0  502  0.14454878140E+03  0.10528026494E+03  0.36663614037E+03  0.40792198251E+03  0.00000000000E+00 0.  1.
<mgrwt>
<rscale>  0 0.16732977E+04</rscale>
<asrwt>0</asrwt>
<pdfrwt beam="1">  1        1 0.16849110E+00 0.16732977E+04</pdfrwt>
<pdfrwt beam="2">  1       -1 0.98329255E-01 0.16732977E+04</pdfrwt>
<totfact> 0.12079740E+01</totfact>
</mgrwt>
</event>
<event>
12    1  0.2048318E-007  0.2107260E+04  0.7818608E-02  0.8558052E-01
          4   -1    0    0  501    0  0.00000000000E+00  0.00000000000E+00  0.22266866222E+04  0.22266866222E+04  0.00000000000E+00 0.  1.
         -4   -1    0    0    0  501 -0.00000000000E+00 -0.00000000000E+00 -0.49855974449E+03  0.49855974449E+03  0.00000000000E+00 0. -1.
         23    2    1    2    0    0 -0.45007548566E+03  0.16379017054E+03 -0.21355987644E+03  0.53244809451E+03  0.92184541892E+02 0.  0.
        254    2    1    2    0    0  0.45007548566E+03 -0.16379017054E+03  0.19416867542E+04  0.21927982722E+04  0.89934512202E+03 0.  0.
        -24    2    4    4    0    0 -0.21551252701E+03 -0.20161024495E+03  0.92307132295E+03  0.97263055973E+03  0.82808201868E+02 0.  0.
         24    2    4    4    0    0  0.66558801267E+03  0.37820074411E+02  0.10186154312E+04  0.12201677125E+04  0.82426265286E+02 0.  0.
         11    1    3    3    0    0 -0.19765896334E+03  0.62394574588E+02 -0.14175253552E+03  0.25110939857E+03  0.00000000000E+00 0. -1.
        -11    1    3    3    0    0 -0.25241652233E+03  0.10139559596E+03 -0.71807340917E+02  0.28133869594E+03  0.00000000000E+00 0.  1.
          2    1    6    6  502    0  0.85692663594E+02  0.16409629575E+02  0.18407356920E+03  0.20370465732E+03  0.00000000000E+00 0. -1.
          1    1    5    5  503    0 -0.37679349282E+02 -0.87794862349E+00  0.94394062117E+02  0.10164026328E+03  0.00000000000E+00 0. -1.
         -2    1    5    5    0  503 -0.17783317773E+03 -0.20073229633E+03  0.82867726083E+03  0.87099029645E+03  0.00000000000E+00 0.  1.
         -1    1    6    6    0  502  0.57989534908E+03  0.21410444836E+02  0.83454186204E+03  0.10164630552E+04  0.00000000000E+00 0.  1.
<mgrwt>
<rscale>  0 0.21072601E+04</rscale>
<asrwt>0</asrwt>
<pdfrwt beam="1">  1        4 0.34256717E+00 0.21072601E+04</pdfrwt>
<pdfrwt beam="2">  1       -4 0.76701500E-01 0.21072601E+04</pdfrwt>
<totfact> 0.46697829E-02</totfact>
</mgrwt>
</event>
<event>
12    1  0.2048318E-007  0.2056978E+04  0.7818608E-02  0.8580435E-01
         -2   -1    0    0    0  501 -0.00000000000E+00  0.00000000000E+00  0.57409259263E+03  0.57409259263E+03  0.00000000000E+00 0.  1.
          2   -1    0    0  501    0  0.00000000000E+00 -0.00000000000E+00 -0.18425418769E+04  0.18425418769E+04  0.00000000000E+00 0. -1.
         23    2    1    2    0    0 -0.58618780706E+03  0.50016412821E+03 -0.88280346863E+03  0.11754041796E+04  0.91938680250E+02 0.  0.
        254    2    1    2    0    0  0.58618780706E+03 -0.50016412821E+03 -0.38564581561E+03  0.12412302899E+04  0.89339220790E+03 0.  0.
        -24    2    4    4    0    0 -0.18975678102E+03  0.50355797040E+02 -0.39891685748E+00  0.21158563123E+03  0.78898529558E+02 0.  0.
         24    2    4    4    0    0  0.77594458808E+03 -0.55051992526E+03 -0.38524689875E+03  0.10296446587E+04  0.81183484927E+02 0.  0.
         11    1    3    3    0    0 -0.50872995367E+03  0.43093705425E+03 -0.71149688471E+03  0.97505934560E+03  0.00000000000E+00 0.  1.
        -11    1    3    3    0    0 -0.77457853385E+02  0.69227073966E+02 -0.17130658392E+03  0.20034483401E+03  0.00000000000E+00 0. -1.
          2    1    6    6  502    0  0.26679466140E+03 -0.23734389418E+03 -0.14672069047E+03  0.38605501741E+03  0.00000000000E+00 0. -1.
          1    1    5    5  503    0 -0.98068513252E+02  0.66310958225E+02 -0.39877954552E+01  0.11845032286E+03  0.00000000000E+00 0. -1.
         -2    1    5    5    0  503 -0.91688267772E+02 -0.15955161185E+02  0.35888785977E+01  0.93135308369E+02  0.00000000000E+00 0.  1.
         -1    1    6    6    0  502  0.50914992669E+03 -0.31317603107E+03 -0.23852620828E+03  0.64358964125E+03  0.00000000000E+00 0.  1.
<mgrwt>
<rscale>  0 0.20569780E+04</rscale>
<asrwt>0</asrwt>
<pdfrwt beam="1">  1        2 0.28346798E+00 0.20569780E+04</pdfrwt>
<pdfrwt beam="2">  1       -2 0.88321936E-01 0.20569780E+04</pdfrwt>
<totfact> 0.83403537E+00</totfact>
</mgrwt>
</event>
<event>
12    1  0.2048318E-007  0.2739924E+04  0.7818608E-02  0.8322166E-01
          2   -1    0    0  501    0  0.00000000000E+00  0.00000000000E+00  0.30610016616E+04  0.30610016616E+04  0.00000000000E+00 0. -1.
         -2   -1    0    0    0  501 -0.00000000000E+00 -0.00000000000E+00 -0.61313136071E+03  0.61313136071E+03  0.00000000000E+00 0.  1.
         23    2    1    2    0    0 -0.81610723774E+03 -0.87126387263E+03  0.14285407165E+04  0.18641200749E+04  0.95306431383E+02 0.  0.
        254    2    1    2    0    0  0.81610723774E+03  0.87126387263E+03  0.10193295844E+04  0.18100129474E+04  0.90110060969E+03 0.  0.
        -24    2    4    4    0    0  0.65989881906E+03  0.46463850450E+03  0.13619312389E+03  0.82214829738E+03  0.77613559554E+02 0.  0.
         24    2    4    4    0    0  0.15620841868E+03  0.40662536813E+03  0.88313646052E+03  0.98786465000E+03  0.78748325341E+02 0.  0.
         11    1    3    3    0    0 -0.30722246936E+03 -0.29528132562E+03  0.44853881227E+03  0.61867905496E+03  0.00000000000E+00 0.  1.
        -11    1    3    3    0    0 -0.50888476839E+03 -0.57598254701E+03  0.98000190423E+03  0.12454410200E+04  0.00000000000E+00 0. -1.
          2    1    6    6  502    0 -0.35283757665E+01  0.48845428407E+02  0.12967029748E+03  0.13860992519E+03  0.00000000000E+00 0. -1.
          3    1    5    5  503    0  0.39271741769E+01  0.26459975523E+01 -0.56532978559E+01  0.73745356946E+01  0.00000000000E+00 0. -1.
         -4    1    5    5    0  503  0.65597164488E+03  0.46199250695E+03  0.14184642175E+03  0.81477376169E+03  0.00000000000E+00 0.  1.
         -1    1    6    6    0  502  0.15973679445E+03  0.35777993972E+03  0.75346616304E+03  0.84925472481E+03  0.00000000000E+00 0.  1.
<mgrwt>
<rscale>  0 0.27399242E+04</rscale>
<asrwt>0</asrwt>
<pdfrwt beam="1">  1        2 0.47092332E+00 0.27399242E+04</pdfrwt>
<pdfrwt beam="2">  1       -2 0.94327904E-01 0.27399242E+04</pdfrwt>
<totfact> 0.13199592E+00</totfact>
</mgrwt>
</event>
<event>
12    1  0.2048318E-007  0.1862116E+04  0.7818608E-02  0.8673947E-01
          2   -1    0    0  501    0  0.00000000000E+00  0.00000000000E+00  0.90919679194E+03  0.90919679194E+03  0.00000000000E+00 0. -1.
         -2   -1    0    0    0  501 -0.00000000000E+00 -0.00000000000E+00 -0.95344505414E+03  0.95344505414E+03  0.00000000000E+00 0.  1.
         23    2    1    2    0    0  0.18246289984E+03  0.22609177854E+03 -0.66287185709E+03  0.73264414387E+03  0.11383382835E+03 0.  0.
        254    2    1    2    0    0 -0.18246289984E+03 -0.22609177854E+03  0.61862359489E+03  0.11299977022E+04  0.89988302169E+03 0.  0.
        -24    2    4    4    0    0  0.50791472632E+02 -0.29049699014E+03 -0.13547543657E+03  0.33411437962E+03  0.79438968927E+02 0.  0.
         24    2    4    4    0    0 -0.23325437247E+03  0.64405211596E+02  0.75409903146E+03  0.79588332260E+03  0.78798987185E+02 0.  0.
         13    1    3    3    0    0  0.91403164915E+02  0.17675856152E+03 -0.51503919021E+03  0.55214445128E+03  0.00000000000E+00 0.  1.
        -13    1    3    3    0    0  0.91059734928E+02  0.49333217018E+02 -0.14783266688E+03  0.18049969258E+03  0.00000000000E+00 0. -1.
          2    1    6    6  502    0 -0.15803307253E+02  0.29018944062E+02  0.75411238300E+02  0.82332851867E+02  0.00000000000E+00 0. -1.
          3    1    5    5  503    0  0.35787844528E+02 -0.11339199390E+03 -0.16060058931E+02  0.11998516404E+03  0.00000000000E+00 0. -1.
         -4    1    5    5    0  503  0.15003628104E+02 -0.17710499623E+03 -0.11941537764E+03  0.21412921558E+03  0.00000000000E+00 0.  1.
         -1    1    6    6    0  502 -0.21745106522E+03  0.35386267534E+02  0.67868779316E+03  0.71355047073E+03  0.00000000000E+00 0.  1.
<mgrwt>
<rscale>  0 0.18621162E+04</rscale>
<asrwt>0</asrwt>
<pdfrwt beam="1">  1        2 0.13987643E+00 0.18621162E+04</pdfrwt>
<pdfrwt beam="2">  1       -2 0.14668385E+00 0.18621162E+04</pdfrwt>
<totfact> 0.86294451E+00</totfact>
</mgrwt>
</event>
<event>
12    1  0.2048318E-007  0.2898251E+04  0.7818608E-02  0.8273398E-01
         -1   -1    0    0    0  501 -0.00000000000E+00  0.00000000000E+00  0.17657261921E+04  0.17657261921E+04  0.00000000000E+00 0.  1.
          1   -1    0    0  501    0  0.00000000000E+00 -0.00000000000E+00 -0.11892920668E+04  0.11892920668E+04  0.00000000000E+00 0. -1.
         23    2    1    2    0    0 -0.11077631661E+03  0.68454193717E+03 -0.87057834030E+03  0.11162852398E+04  0.85539663069E+02 0.  0.
        254    2    1    2    0    0  0.11077631661E+03 -0.68454193717E+03  0.14470124656E+04  0.18387330191E+04  0.89790031955E+03 0.  0.
        -24    2    4    4    0    0 -0.14503506545E+03  0.16917904064E+03  0.35669023310E+03  0.42805847326E+03  0.79683223672E+02 0.  0.
         24    2    4    4    0    0  0.25581138206E+03 -0.85372097780E+03  0.10903222325E+04  0.14106745458E+04  0.83193343863E+02 0.  0.
         11    1    3    3    0    0 -0.52992259176E+02  0.12072240670E+03 -0.15738376924E+03  0.20530886448E+03  0.00000000000E+00 0. -1.
        -11    1    3    3    0    0 -0.57784057432E+02  0.56381953047E+03 -0.71319457106E+03  0.91097637533E+03  0.00000000000E+00 0.  1.
          2    1    6    6  502    0  0.25934347945E+03 -0.84002982466E+03  0.10824487752E+04  0.13944907664E+04  0.00000000000E+00 0. -1.
          1    1    5    5  503    0 -0.13251415089E+03  0.11807658438E+03  0.22735431855E+03  0.28843034883E+03  0.00000000000E+00 0. -1.
         -2    1    5    5    0  503 -0.12520914563E+02  0.51102456260E+02  0.12933591455E+03  0.13962812443E+03  0.00000000000E+00 0.  1.
         -1    1    6    6    0  502 -0.35320973974E+01 -0.13691153147E+02  0.78734572459E+01  0.16183779395E+02  0.00000000000E+00 0.  1.
<mgrwt>
<rscale>  0 0.28982506E+04</rscale>
<asrwt>0</asrwt>
<pdfrwt beam="1">  1        1 0.18296801E+00 0.28982506E+04</pdfrwt>
<pdfrwt beam="2">  1       -1 0.27165018E+00 0.28982506E+04</pdfrwt>
<totfact> 0.47085378E-01</totfact>
</mgrwt>
</event>
<event>
12    1  0.2048318E-007  0.2061833E+04  0.7818608E-02  0.8578245E-01
          1   -1    0    0  501    0  0.00000000000E+00  0.00000000000E+00  0.26621991865E+04  0.26621991865E+04  0.00000000000E+00 0. -1.
         -1   -1    0    0    0  501 -0.00000000000E+00 -0.00000000000E+00 -0.39921478778E+03  0.39921478778E+03  0.00000000000E+00 0.  1.
         23    2    1    2    0    0 -0.80520373352E+03  0.15748911733E+03  0.76107134197E+03  0.11247088471E+04  0.11218078578E+03 0.  0.
        254    2    1    2    0    0  0.80520373352E+03 -0.15748911733E+03  0.15019130568E+04  0.19367051272E+04  0.90660247348E+03 0.  0.
        -24    2    4    4    0    0  0.68129236866E+03  0.28406644238E+03  0.77242077305E+03  0.10714473851E+04  0.80700762625E+02 0.  0.
         24    2    4    4    0    0  0.12391136486E+03 -0.44155555971E+03  0.72949228372E+03  0.86525774207E+03  0.78655130550E+02 0.  0.
         11    1    3    3    0    0 -0.70766624454E+03  0.15809676338E+03  0.70902999312E+03  0.10141546388E+04  0.00000000000E+00 0. -1.
        -11    1    3    3    0    0 -0.97537488979E+02 -0.60764604929E+00  0.52041348846E+02  0.11055420833E+03  0.00000000000E+00 0.  1.
          2    1    6    6  502    0  0.31766847254E+02 -0.25628283741E+03  0.41561038964E+03  0.48930769594E+03  0.00000000000E+00 0. -1.
          3    1    5    5  503    0  0.37696219929E+03  0.11362999034E+03  0.41332152941E+03  0.57083006322E+03  0.00000000000E+00 0. -1.
         -4    1    5    5    0  503  0.30433016937E+03  0.17043645204E+03  0.35909924364E+03  0.50061732187E+03  0.00000000000E+00 0.  1.
         -1    1    6    6    0  502  0.92144517605E+02 -0.18527272230E+03  0.31388189408E+03  0.37595004613E+03  0.00000000000E+00 0.  1.
<mgrwt>
<rscale>  0 0.20618334E+04</rscale>
<asrwt>0</asrwt>
<pdfrwt beam="1">  1        1 0.40956909E+00 0.20618334E+04</pdfrwt>
<pdfrwt beam="2">  1       -1 0.61417661E-01 0.20618334E+04</pdfrwt>
<totfact> 0.25905408E+00</totfact>
</mgrwt>
</event>
<event>
12    1  0.2048318E-007  0.2139127E+04  0.7818608E-02  0.8544201E-01
         -2   -1    0    0    0  501 -0.00000000000E+00  0.00000000000E+00  0.61167909936E+03  0.61167909936E+03  0.00000000000E+00 0.  1.
          2   -1    0    0  501    0  0.00000000000E+00 -0.00000000000E+00 -0.18702063862E+04  0.18702063862E+04  0.00000000000E+00 0. -1.
         23    2    1    2    0    0 -0.65506454298E+03 -0.35050207089E+03  0.22678165763E+02  0.74901172684E+03  0.92428407857E+02 0.  0.
        254    2    1    2    0    0  0.65506454298E+03  0.35050207089E+03 -0.12812054526E+04  0.17328737587E+04  0.89966815810E+03 0.  0.
        -24    2    4    4    0    0 -0.14505505605E+03  0.97515915502E+02  0.88641631150E+01  0.19177956450E+03  0.78425154827E+02 0.  0.
         24    2    4    4    0    0  0.80011959903E+03  0.25298615539E+03 -0.12900696157E+04  0.15410941942E+04  0.80612247635E+02 0.  0.
         11    1    3    3    0    0 -0.51944399709E+03 -0.23576719993E+03  0.47396744230E+01  0.57046533917E+03  0.00000000000E+00 0.  1.
        -11    1    3    3    0    0 -0.13562054589E+03 -0.11473487095E+03  0.17938491340E+02  0.17854638768E+03  0.00000000000E+00 0. -1.
          2    1    6    6  502    0  0.41332913344E+03  0.10188172037E+03 -0.70692216135E+03  0.82520288397E+03  0.00000000000E+00 0. -1.
          1    1    5    5  503    0 -0.14841253675E+03  0.72153058799E+02  0.14244243798E+02  0.16563587607E+03  0.00000000000E+00 0. -1.
         -2    1    5    5    0  503  0.33574806983E+01  0.25362856702E+02 -0.53800806834E+01  0.26143688433E+02  0.00000000000E+00 0.  1.
         -1    1    6    6    0  502  0.38679046559E+03  0.15110443501E+03 -0.58314745436E+03  0.71589131024E+03  0.00000000000E+00 0.  1.
<mgrwt>
<rscale>  0 0.21391271E+04</rscale>
<asrwt>0</asrwt>
<pdfrwt beam="1">  1        2 0.28772405E+00 0.21391271E+04</pdfrwt>
<pdfrwt beam="2">  1       -2 0.94104478E-01 0.21391271E+04</pdfrwt>
<totfact> 0.69043603E+00</totfact>
</mgrwt>
</event>
<event>
12    1  0.2048318E-007  0.2406022E+04  0.7818608E-02  0.8437253E-01
         -1   -1    0    0    0  501 -0.00000000000E+00  0.00000000000E+00  0.45643316325E+03  0.45643316325E+03  0.00000000000E+00 0.  1.
          1   -1    0    0  501    0  0.00000000000E+00 -0.00000000000E+00 -0.31707490858E+04  0.31707490858E+04  0.00000000000E+00 0. -1.
         23    2    1    2    0    0  0.35512039237E+02  0.52705982621E+03  0.16984562781E+03  0.56039977614E+03  0.78404122762E+02 0.  0.
        254    2    1    2    0    0 -0.35512039237E+02 -0.52705982621E+03 -0.28841615504E+04  0.30667824729E+04  0.89872894814E+03 0.  0.
        -24    2    4    4    0    0 -0.29010072555E+02 -0.74177910566E+03 -0.16397260479E+04  0.18014081839E+04  0.72746868549E+02 0.  0.
         24    2    4    4    0    0 -0.65019666822E+01  0.21471927945E+03 -0.12444355025E+04  0.12653742890E+04  0.80035785873E+02 0.  0.
         11    1    3    3    0    0  0.18531039785E+02  0.36987645975E+03  0.81170819049E+02  0.37913150328E+03  0.00000000000E+00 0. -1.
        -11    1    3    3    0    0  0.16980999453E+02  0.15718336646E+03  0.88674808765E+02  0.18126827286E+03  0.00000000000E+00 0.  1.
          4    1    6    6  502    0 -0.22023110900E+02  0.17662392786E+03 -0.11263970940E+04  0.11403733786E+04  0.00000000000E+00 0. -1.
          1    1    5    5  503    0  0.13160988663E+02 -0.47819231564E+03 -0.10177370848E+04  0.11245576358E+04  0.00000000000E+00 0. -1.
         -2    1    5    5    0  503 -0.42171061219E+02 -0.26358679002E+03 -0.62198896310E+03  0.67685054812E+03  0.00000000000E+00 0.  1.
         -1    1    6    6    0  502  0.15521144218E+02  0.38095351585E+02 -0.11803840845E+03  0.12500091040E+03  0.00000000000E+00 0.  1.
<mgrwt>
<rscale>  0 0.24060216E+04</rscale>
<asrwt>0</asrwt>
<pdfrwt beam="1">  1        1 0.48780758E+00 0.24060216E+04</pdfrwt>
<pdfrwt beam="2">  1       -1 0.70220483E-01 0.24060216E+04</pdfrwt>
<totfact> 0.82129278E-01</totfact>
</mgrwt>
</event>
<event>
12    1  0.2048318E-007  0.1424548E+04  0.7818608E-02  0.8936239E-01
         -1   -1    0    0    0  501 -0.00000000000E+00  0.00000000000E+00  0.18158620736E+03  0.18158620736E+03  0.00000000000E+00 0.  1.
          1   -1    0    0  501    0  0.00000000000E+00 -0.00000000000E+00 -0.27939029644E+04  0.27939029644E+04  0.00000000000E+00 0. -1.
         23    2    1    2    0    0  0.75922155643E+02  0.24181461675E+03 -0.87161382177E+02  0.28266578907E+03  0.89801777133E+02 0.  0.
        254    2    1    2    0    0 -0.75922155643E+02 -0.24181461675E+03 -0.25251553749E+04  0.26928233827E+04  0.90036082800E+03 0.  0.
        -24    2    4    4    0    0 -0.21126887744E+03 -0.53615132306E+03 -0.13186701399E+04  0.14412627679E+04  0.79086335982E+02 0.  0.
         24    2    4    4    0    0  0.13534672180E+03  0.29433670632E+03 -0.12064852350E+04  0.12515606148E+04  0.76449450466E+02 0.  0.
         11    1    3    3    0    0  0.15999783773E+02  0.38346109640E+02  0.18750050997E+02  0.45584883654E+02  0.00000000000E+00 0.  1.
        -11    1    3    3    0    0  0.59922371870E+02  0.20346850711E+03 -0.10591143317E+03  0.23708090541E+03  0.00000000000E+00 0. -1.
          4    1    6    6  502    0  0.13157655768E+03  0.26501250693E+03 -0.99630648054E+03  0.10393125721E+04  0.00000000000E+00 0. -1.
          3    1    5    5  503    0 -0.17816941028E+03 -0.37359984549E+03 -0.99192143431E+03  0.10748159448E+04  0.00000000000E+00 0. -1.
         -4    1    5    5    0  503 -0.33099467167E+02 -0.16255147757E+03 -0.32674870561E+03  0.36644682316E+03  0.00000000000E+00 0.  1.
         -3    1    6    6    0  502  0.37701641236E+01  0.29324199388E+02 -0.21017875442E+03  0.21224804267E+03  0.00000000000E+00 0.  1.
<mgrwt>
<rscale>  0 0.14245480E+04</rscale>
<asrwt>0</asrwt>
<pdfrwt beam="1">  1        1 0.42983122E+00 0.14245480E+04</pdfrwt>
<pdfrwt beam="2">  1       -1 0.27936340E-01 0.14245480E+04</pdfrwt>
<totfact> 0.95218730E+00</totfact>
</mgrwt>
</event>
<event>
12    1  0.2048318E-007  0.1606215E+04  0.7818608E-02  0.8816739E-01
         -2   -1    0    0    0  501 -0.00000000000E+00  0.00000000000E+00  0.24377297303E+03  0.24377297303E+03  0.00000000000E+00 0.  1.
          2   -1    0    0  501    0  0.00000000000E+00 -0.00000000000E+00 -0.26458304768E+04  0.26458304768E+04  0.00000000000E+00 0. -1.
         23    2    1    2    0    0  0.44661000188E+03  0.29604293221E+03 -0.99189282016E+03  0.11311672504E+04  0.92661049698E+02 0.  0.
        254    2    1    2    0    0 -0.44661000188E+03 -0.29604293221E+03 -0.14101646836E+04  0.17584361995E+04  0.90356600267E+03 0.  0.
        -24    2    4    4    0    0 -0.13360865193E+03 -0.59158973893E+03 -0.80398818054E+03  0.10102188350E+04  0.79469547431E+02 0.  0.
         24    2    4    4    0    0 -0.31300134996E+03  0.29554680673E+03 -0.60617650306E+03  0.74821736450E+03  0.84032800949E+02 0.  0.
         13    1    3    3    0    0  0.94445611933E+02  0.49881103722E+02 -0.13113970541E+03  0.16913225729E+03  0.00000000000E+00 0.  1.
        -13    1    3    3    0    0  0.35216438995E+03  0.24616182848E+03 -0.86075311475E+03  0.96203499308E+03  0.00000000000E+00 0. -1.
          2    1    6    6  502    0 -0.11853892094E+03  0.71619466469E+02 -0.23895665773E+03  0.27619034746E+03  0.00000000000E+00 0. -1.
          3    1    5    5  503    0  0.20384090621E+01 -0.76972076412E+02 -0.73698757155E+02  0.10658500112E+03  0.00000000000E+00 0. -1.
         -4    1    5    5    0  503 -0.13564706099E+03 -0.51461766252E+03 -0.73028942338E+03  0.90363383383E+03  0.00000000000E+00 0.  1.
         -1    1    6    6    0  502 -0.19446242902E+03  0.22392734026E+03 -0.36721984533E+03  0.47202701704E+03  0.00000000000E+00 0.  1.
<mgrwt>
<rscale>  0 0.16062154E+04</rscale>
<asrwt>0</asrwt>
<pdfrwt beam="1">  1        2 0.40705083E+00 0.16062154E+04</pdfrwt>
<pdfrwt beam="2">  1       -2 0.37503535E-01 0.16062154E+04</pdfrwt>
<totfact> 0.18436004E+01</totfact>
</mgrwt>
</event>
<event>
12    1  0.2048318E-007  0.1656932E+04  0.7818608E-02  0.8786316E-01
          2   -1    0    0  501    0  0.00000000000E+00  0.00000000000E+00  0.52842435485E+03  0.52842435485E+03  0.00000000000E+00 0. -1.
         -2   -1    0    0    0  501 -0.00000000000E+00 -0.00000000000E+00 -0.12988729855E+04  0.12988729855E+04  0.00000000000E+00 0.  1.
         23    2    1    2    0    0 -0.53545380828E+03  0.22023060299E+03 -0.29489436008E+03  0.65605421321E+03  0.90731184143E+02 0.  0.
        254    2    1    2    0    0  0.53545380828E+03 -0.22023060299E+03 -0.47555427053E+03  0.11712431271E+04  0.90024790989E+03 0.  0.
        -24    2    4    4    0    0  0.42948998112E+02  0.30725901246E+03 -0.37222945750E+02  0.32301442752E+03  0.81853866831E+02 0.  0.
         24    2    4    4    0    0  0.49250481017E+03 -0.52748961546E+03 -0.43833132478E+03  0.84822869958E+03  0.80940064644E+02 0.  0.
         13    1    3    3    0    0 -0.56830354774E+02  0.49981893403E+02 -0.58958903850E+02  0.95937642430E+02  0.00000000000E+00 0. -1.
        -13    1    3    3    0    0 -0.47862345350E+03  0.17024870959E+03 -0.23593545623E+03  0.56011657078E+03  0.00000000000E+00 0.  1.
          4    1    6    6  502    0  0.23190882567E+03 -0.29688417996E+03 -0.20069038585E+03  0.42684722174E+03  0.00000000000E+00 0. -1.
          3    1    5    5  503    0  0.58174000267E+02  0.12438976790E+03 -0.13418670986E+02  0.13797495931E+03  0.00000000000E+00 0. -1.
         -4    1    5    5    0  503 -0.15225002154E+02  0.18286924456E+03 -0.23804274764E+02  0.18503946821E+03  0.00000000000E+00 0.  1.
         -3    1    6    6    0  502  0.26059598449E+03 -0.23060543550E+03 -0.23764093893E+03  0.42138147784E+03  0.00000000000E+00 0.  1.
<mgrwt>
<rscale>  0 0.16569322E+04</rscale>
<asrwt>0</asrwt>
<pdfrwt beam="1">  1        2 0.81296055E-01 0.16569322E+04</pdfrwt>
<pdfrwt beam="2">  1       -2 0.19982661E+00 0.16569322E+04</pdfrwt>
<totfact> 0.73414630E+00</totfact>
</mgrwt>
</event>
<event>
12    1  0.2048318E-007  0.1550045E+04  0.7818608E-02  0.8851839E-01
          1   -1    0    0  501    0  0.00000000000E+00  0.00000000000E+00  0.42512095470E+03  0.42512095470E+03  0.00000000000E+00 0. -1.
         -1   -1    0    0    0  501 -0.00000000000E+00 -0.00000000000E+00 -0.14129149278E+04  0.14129149278E+04  0.00000000000E+00 0.  1.
         23    2    1    2    0    0 -0.42626662473E+03 -0.22242240185E+03 -0.52255995810E+03  0.71601845854E+03  0.91861651162E+02 0.  0.
        254    2    1    2    0    0  0.42626662473E+03  0.22242240185E+03 -0.46523401503E+03  0.11220174240E+04  0.90072495847E+03 0.  0.
        -24    2    4    4    0    0  0.65997841719E+03  0.28817582507E+03 -0.47486995378E+03  0.86625043371E+03  0.79192951645E+02 0.  0.
         24    2    4    4    0    0 -0.23371179246E+03 -0.65753423221E+02  0.96359387464E+01  0.25576699029E+03  0.79869815376E+02 0.  0.
         13    1    3    3    0    0 -0.17176171433E+03 -0.11936160354E+03 -0.17250560632E+03  0.27112259795E+03  0.00000000000E+00 0. -1.
        -13    1    3    3    0    0 -0.25450491040E+03 -0.10306079831E+03 -0.35005435177E+03  0.44489586058E+03  0.00000000000E+00 0.  1.
          2    1    6    6  502    0 -0.16720429794E+03 -0.53632560818E+02  0.42401352686E+02  0.18064219756E+03  0.00000000000E+00 0. -1.
          3    1    5    5  503    0  0.59212251888E+03  0.24846126291E+03 -0.39357719387E+03  0.75315674602E+03  0.00000000000E+00 0. -1.
         -2    1    5    5    0  503  0.67855898306E+02  0.39714562161E+02 -0.81292759909E+02  0.11309368769E+03  0.00000000000E+00 0.  1.
         -1    1    6    6    0  502 -0.66507494515E+02 -0.12120862403E+02 -0.32765413939E+02  0.75124792730E+02  0.00000000000E+00 0.  1.
<mgrwt>
<rscale>  0 0.15500448E+04</rscale>
<asrwt>0</asrwt>
<pdfrwt beam="1">  1        1 0.65403225E-01 0.15500448E+04</pdfrwt>
<pdfrwt beam="2">  1       -1 0.21737152E+00 0.15500448E+04</pdfrwt>
<totfact> 0.61054786E+00</totfact>
</mgrwt>
</event>
<event>
12    1  0.2048318E-007  0.1843375E+04  0.7818608E-02  0.8683567E-01
          2   -1    0    0  501    0  0.00000000000E+00  0.00000000000E+00  0.27433201133E+04  0.27433201133E+04  0.00000000000E+00 0.  1.
         -2   -1    0    0    0  501 -0.00000000000E+00 -0.00000000000E+00 -0.30966401552E+03  0.30966401552E+03  0.00000000000E+00 0. -1.
         23    2    1    2    0    0  0.56356878494E+03 -0.26714079229E+03  0.14548775933E+04  0.15855839913E+04  0.91835743016E+02 0.  0.
        254    2    1    2    0    0 -0.56356878494E+03  0.26714079229E+03  0.97877850442E+03  0.14674001375E+04  0.89793197095E+03 0.  0.
        -24    2    4    4    0    0 -0.41829546766E+03 -0.28019552902E+03  0.35741462336E+03  0.62285977984E+03  0.82027188161E+02 0.  0.
         24    2    4    4    0    0 -0.14527331728E+03  0.54733632131E+03  0.62136388106E+03  0.84454035763E+03  0.80460907501E+02 0.  0.
         11    1    3    3    0    0  0.13148602153E+03 -0.10550518700E+03  0.41771488721E+03  0.45045049155E+03  0.00000000000E+00 0. -1.
        -11    1    3    3    0    0  0.43208276341E+03 -0.16163560529E+03  0.10371627061E+04  0.11351334998E+04  0.00000000000E+00 0.  1.
          4    1    6    6  502    0 -0.10861201531E+03  0.26083344510E+03  0.28804690124E+03  0.40348689355E+03  0.00000000000E+00 0. -1.
          3    1    5    5  503    0 -0.19201650567E+01 -0.15191421288E+02  0.19122780205E+02  0.24497898632E+02  0.00000000000E+00 0. -1.
         -4    1    5    5    0  503 -0.41637530260E+03 -0.26500410773E+03  0.33829184316E+03  0.59836188120E+03  0.00000000000E+00 0.  1.
         -3    1    6    6    0  502 -0.36661301973E+02  0.28650287621E+03  0.33331697981E+03  0.44105346408E+03  0.00000000000E+00 0.  1.
<mgrwt>
<rscale>  0 0.18433746E+04</rscale>
<asrwt>0</asrwt>
<pdfrwt beam="1">  1        2 0.42204923E+00 0.18433746E+04</pdfrwt>
<pdfrwt beam="2">  1       -2 0.47640620E-01 0.18433746E+04</pdfrwt>
<totfact> 0.98465518E+00</totfact>
</mgrwt>
</event>
<event>
12    1  0.2048318E-007  0.1974097E+04  0.7818608E-02  0.8618828E-01
         -2   -1    0    0    0  501 -0.00000000000E+00  0.00000000000E+00  0.76743669134E+03  0.76743669134E+03  0.00000000000E+00 0.  1.
          2   -1    0    0  501    0  0.00000000000E+00 -0.00000000000E+00 -0.12695054703E+04  0.12695054703E+04  0.00000000000E+00 0. -1.
         23    2    1    2    0    0 -0.73510964546E+03 -0.19816307232E+03 -0.28022239655E+02  0.76862386103E+03  0.10169857296E+03 0.  0.
        254    2    1    2    0    0  0.73510964546E+03  0.19816307232E+03 -0.47404653930E+03  0.12683183006E+04  0.89680343227E+03 0.  0.
        -24    2    4    4    0    0  0.52595074214E+03 -0.20823737286E+03 -0.55659819569E+03  0.79731670586E+03  0.76976563938E+02 0.  0.
         24    2    4    4    0    0  0.20915890333E+03  0.40640044518E+03  0.82551656386E+02  0.47100159474E+03  0.78223766155E+02 0.  0.
         11    1    3    3    0    0 -0.39628285866E+03 -0.12402981874E+03 -0.63126149662E+02  0.42001001271E+03  0.00000000000E+00 0. -1.
        -11    1    3    3    0    0 -0.33882678681E+03 -0.74133253574E+02  0.35103910007E+02  0.34861384832E+03  0.00000000000E+00 0.  1.
          2    1    6    6  502    0  0.14646039732E+03  0.21296901279E+03  0.25004894185E+02  0.25967613122E+03  0.00000000000E+00 0. -1.
          3    1    5    5  503    0  0.17188003571E+03 -0.10327144133E+03 -0.21944424544E+03  0.29726001098E+03  0.00000000000E+00 0. -1.
         -4    1    5    5    0  503  0.35407070642E+03 -0.10496593152E+03 -0.33715395025E+03  0.50005669488E+03  0.00000000000E+00 0.  1.
         -1    1    6    6    0  502  0.62698506005E+02  0.19343143239E+03  0.57546762201E+02  0.21132546351E+03  0.00000000000E+00 0.  1.
<mgrwt>
<rscale>  0 0.19740973E+04</rscale>
<asrwt>0</asrwt>
<pdfrwt beam="1">  1        2 0.19530853E+00 0.19740973E+04</pdfrwt>
<pdfrwt beam="2">  1       -2 0.11806718E+00 0.19740973E+04</pdfrwt>
<totfact> 0.88672323E+00</totfact>
</mgrwt>
</event>
<event>
12    1  0.2048318E-007  0.1494331E+04  0.7818608E-02  0.8888232E-01
         -1   -1    0    0    0  501 -0.00000000000E+00  0.00000000000E+00  0.14629448444E+04  0.14629448444E+04  0.00000000000E+00 0.  1.
          1   -1    0    0  501    0  0.00000000000E+00 -0.00000000000E+00 -0.38159753846E+03  0.38159753846E+03  0.00000000000E+00 0. -1.
         23    2    1    2    0    0  0.11152380061E+02  0.45741757151E+03  0.41667522880E+03  0.62538042462E+03  0.90151089229E+02 0.  0.
        254    2    1    2    0    0 -0.11152380061E+02 -0.45741757151E+03  0.66467207716E+03  0.12191619583E+04  0.91389917387E+03 0.  0.
        -24    2    4    4    0    0 -0.34187929752E+03 -0.13870351606E+03 -0.34546624328E+02  0.37882193504E+03  0.78692247230E+02 0.  0.
         24    2    4    4    0    0  0.33072691746E+03 -0.31871405546E+03  0.69921870149E+03  0.84034002322E+03  0.79407928073E+02 0.  0.
         13    1    3    3    0    0 -0.10322049943E+02  0.40049068612E+03  0.38945695652E+03  0.55872717435E+03  0.00000000000E+00 0.  1.
        -13    1    3    3    0    0  0.21474430003E+02  0.56926885397E+02  0.27218272289E+02  0.66653250269E+02  0.00000000000E+00 0. -1.
          2    1    6    6  502    0  0.24380692284E+03 -0.27400487350E+03  0.52227850214E+03  0.63819692895E+03  0.00000000000E+00 0. -1.
          3    1    5    5  503    0 -0.29013539776E+03 -0.86165187479E+02 -0.37789264399E+02  0.30500986389E+03  0.00000000000E+00 0. -1.
         -4    1    5    5    0  503 -0.51743899753E+02 -0.52538328579E+02  0.32426400711E+01  0.73812071141E+02  0.00000000000E+00 0.  1.
         -1    1    6    6    0  502  0.86919994620E+02 -0.44709181960E+02  0.17694019936E+03  0.20214309428E+03  0.00000000000E+00 0.  1.
<mgrwt>
<rscale>  0 0.14943308E+04</rscale>
<asrwt>0</asrwt>
<pdfrwt beam="1">  1        1 0.58707314E-01 0.14943308E+04</pdfrwt>
<pdfrwt beam="2">  1       -1 0.22506844E+00 0.14943308E+04</pdfrwt>
<totfact> 0.62936533E+00</totfact>
</mgrwt>
</event>
<event>
12    1  0.2048318E-007  0.1562739E+04  0.7818608E-02  0.8843771E-01
          1   -1    0    0  501    0  0.00000000000E+00  0.00000000000E+00  0.24530197873E+04  0.24530197873E+04  0.00000000000E+00 0. -1.
         -1   -1    0    0    0  501 -0.00000000000E+00 -0.00000000000E+00 -0.24889259257E+03  0.24889259257E+03  0.00000000000E+00 0.  1.
         23    2    1    2    0    0  0.14008455644E+02  0.50590709266E+03  0.93099011198E+03  0.10633865595E+04  0.88939098184E+02 0.  0.
        254    2    1    2    0    0 -0.14008455644E+02 -0.50590709266E+03  0.12731370828E+04  0.16385258203E+04  0.89874946964E+03 0.  0.
        -24    2    4    4    0    0 -0.43321590092E+03 -0.28918662746E+03  0.84669890664E+03  0.99738897103E+03  0.81122122345E+02 0.  0.
         24    2    4    4    0    0  0.41920744527E+03 -0.21672046520E+03  0.42643817612E+03  0.64113684930E+03  0.80649236022E+02 0.  0.
         13    1    3    3    0    0  0.47851827505E+02  0.27635816266E+03  0.54768465410E+03  0.61532277042E+03  0.00000000000E+00 0. -1.
        -13    1    3    3    0    0 -0.33843371862E+02  0.22954893000E+03  0.38330545789E+03  0.44806378913E+03  0.00000000000E+00 0.  1.
          2    1    6    6  502    0  0.29082443637E+03 -0.16164573788E+03  0.25050619300E+03  0.41648715478E+03  0.00000000000E+00 0. -1.
          3    1    5    5  503    0 -0.25791951320E+03 -0.12359153029E+03  0.46076145463E+03  0.54230845440E+03  0.00000000000E+00 0. -1.
         -4    1    5    5    0  503 -0.17529638772E+03 -0.16559509716E+03  0.38593745201E+03  0.45508051663E+03  0.00000000000E+00 0.  1.
         -1    1    6    6    0  502  0.12838300890E+03 -0.55074727320E+02  0.17593198312E+03  0.22464969452E+03  0.00000000000E+00 0.  1.
<mgrwt>
<rscale>  0 0.15627392E+04</rscale>
<asrwt>0</asrwt>
<pdfrwt beam="1">  1        1 0.37738764E+00 0.15627392E+04</pdfrwt>
<pdfrwt beam="2">  1       -1 0.38291170E-01 0.15627392E+04</pdfrwt>
<totfact> 0.92893188E+00</totfact>
</mgrwt>
</event>
<event>
12    1  0.2048318E-007  0.1479019E+04  0.7818608E-02  0.8898526E-01
         -1   -1    0    0    0  501 -0.00000000000E+00  0.00000000000E+00  0.20647056277E+03  0.20647056277E+03  0.00000000000E+00 0.  1.
          1   -1    0    0  501    0  0.00000000000E+00 -0.00000000000E+00 -0.26486807640E+04  0.26486807640E+04  0.00000000000E+00 0. -1.
         23    2    1    2    0    0  0.87805531797E+02 -0.24579395929E+03 -0.15151358957E+04  0.15401625671E+04  0.91320691604E+02 0.  0.
        254    2    1    2    0    0 -0.87805531797E+02  0.24579395929E+03 -0.92707430552E+03  0.13149887597E+04  0.89532351042E+03 0.  0.
        -24    2    4    4    0    0  0.11998370151E+02  0.57343140089E+03 -0.53237457001E+03  0.78655058867E+03  0.79193518213E+02 0.  0.
         24    2    4    4    0    0 -0.99803901947E+02 -0.32763744160E+03 -0.39469973551E+03  0.52843817102E+03  0.78434095907E+02 0.  0.
         11    1    3    3    0    0  0.52537065279E+02 -0.46142579329E+02 -0.51115742405E+03  0.51591781614E+03  0.00000000000E+00 0. -1.
        -11    1    3    3    0    0  0.35268466518E+02 -0.19965137996E+03 -0.10039784717E+04  0.10242447510E+04  0.00000000000E+00 0.  1.
          2    1    6    6  502    0  0.53151012963E+01 -0.23999980440E+01 -0.21896923481E+02  0.22660219556E+02  0.00000000000E+00 0. -1.
          1    1    5    5  503    0 -0.25903834503E+02  0.12157902224E+03 -0.93940784799E+02  0.15581186842E+03  0.00000000000E+00 0. -1.
         -2    1    5    5    0  503  0.37902204654E+02  0.45185237865E+03 -0.43843378521E+03  0.63073872025E+03  0.00000000000E+00 0.  1.
         -1    1    6    6    0  502 -0.10511900324E+03 -0.32523744355E+03 -0.37280281203E+03  0.50577795147E+03  0.00000000000E+00 0.  1.
<mgrwt>
<rscale>  0 0.14790194E+04</rscale>
<asrwt>0</asrwt>
<pdfrwt beam="1">  1        1 0.40748933E+00 0.14790194E+04</pdfrwt>
<pdfrwt beam="2">  1       -1 0.31764704E-01 0.14790194E+04</pdfrwt>
<totfact> 0.95698758E+00</totfact>
</mgrwt>
</event>
<event>
12    1  0.2048318E-007  0.4677610E+04  0.7818608E-02  0.7880259E-01
          2   -1    0    0  501    0  0.00000000000E+00  0.00000000000E+00  0.27634467026E+04  0.27634467026E+04  0.00000000000E+00 0.  1.
         -2   -1    0    0    0  501 -0.00000000000E+00 -0.00000000000E+00 -0.19794155092E+04  0.19794155092E+04  0.00000000000E+00 0. -1.
         23    2    1    2    0    0  0.59867599065E+03 -0.77524375157E+03 -0.16810356909E+04  0.19476498170E+04  0.89682773026E+02 0.  0.
        254    2    1    2    0    0 -0.59867599065E+03  0.77524375157E+03  0.24650668843E+04  0.27952123947E+04  0.88161316424E+03 0.  0.
        -24    2    4    4    0    0 -0.70983719140E+02  0.15951557642E+03 -0.78460221866E+01  0.19159510562E+03  0.78506158545E+02 0.  0.
         24    2    4    4    0    0 -0.52769227151E+03  0.61572817515E+03  0.24729129065E+04  0.26036172891E+04  0.77100103259E+02 0.  0.
         13    1    3    3    0    0  0.52334732700E+03 -0.62515072559E+03 -0.14134613093E+04  0.16317410111E+04  0.00000000000E+00 0. -1.
        -13    1    3    3    0    0  0.75328663654E+02 -0.15009302599E+03 -0.26757438153E+03  0.31590880593E+03  0.00000000000E+00 0.  1.
          2    1    6    6  502    0 -0.50095866181E+03  0.60139413699E+03  0.24068961593E+04  0.25309649564E+04  0.00000000000E+00 0. -1.
          3    1    5    5  503    0 -0.72405617519E+02  0.89916810824E+02 -0.28635732482E+02  0.11894373246E+03  0.00000000000E+00 0. -1.
         -4    1    5    5    0  503  0.14218983791E+01  0.69598765597E+02  0.20789710296E+02  0.72651373159E+02  0.00000000000E+00 0.  1.
         -1    1    6    6    0  502 -0.26733609702E+02  0.14334038163E+02  0.66016747182E+02  0.72652332697E+02  0.00000000000E+00 0.  1.
<mgrwt>
<rscale>  0 0.46776102E+04</rscale>
<asrwt>0</asrwt>
<pdfrwt beam="1">  1        2 0.42514565E+00 0.46776102E+04</pdfrwt>
<pdfrwt beam="2">  1       -2 0.30452546E+00 0.46776102E+04</pdfrwt>
<totfact> 0.54176024E-02</totfact>
</mgrwt>
</event>
<event>
12    1  0.2048318E-007  0.1262842E+04  0.7818608E-02  0.9059562E-01
          2   -1    0    0  501    0  0.00000000000E+00  0.00000000000E+00  0.12677842152E+04  0.12677842152E+04  0.00000000000E+00 0.  1.
         -2   -1    0    0    0  501 -0.00000000000E+00 -0.00000000000E+00 -0.31448000716E+03  0.31448000716E+03  0.00000000000E+00 0. -1.
         23    2    1    2    0    0  0.29580001860E+03 -0.37034843987E+02  0.23446095415E+03  0.38990682217E+03  0.90477402052E+02 0.  0.
        254    2    1    2    0    0 -0.29580001860E+03  0.37034843987E+02  0.71884325386E+03  0.11923574002E+04  0.90338879527E+03 0.  0.
        -24    2    4    4    0    0  0.11862067549E+03  0.38070616162E+03  0.32076247950E+03  0.51814652540E+03  0.81112313388E+02 0.  0.
         24    2    4    4    0    0 -0.41442069410E+03 -0.34367131763E+03  0.39808077435E+03  0.67421087475E+03  0.78977936572E+02 0.  0.
         11    1    3    3    0    0  0.13018637120E+03 -0.40094862705E+02  0.15449436909E+03  0.20597232664E+03  0.00000000000E+00 0.  1.
        -11    1    3    3    0    0  0.16561364740E+03  0.30600187177E+01  0.79966585059E+02  0.18393449553E+03  0.00000000000E+00 0. -1.
          2    1    6    6  502    0 -0.45848805851E+02 -0.49610907794E+02  0.21852908707E+02  0.70999329497E+02  0.00000000000E+00 0. -1.
          3    1    5    5  503    0  0.99895427314E+02  0.23072678304E+03  0.23612355839E+03  0.34491778678E+03  0.00000000000E+00 0. -1.
         -2    1    5    5    0  503  0.18725248179E+02  0.14997937858E+03  0.84638921113E+02  0.17322873863E+03  0.00000000000E+00 0.  1.
         -1    1    6    6    0  502 -0.36857188825E+03 -0.29406040984E+03  0.37622786565E+03  0.60321154525E+03  0.00000000000E+00 0.  1.
<mgrwt>
<rscale>  0 0.12628425E+04</rscale>
<asrwt>0</asrwt>
<pdfrwt beam="1">  1        2 0.19504372E+00 0.12628425E+04</pdfrwt>
<pdfrwt beam="2">  1       -2 0.48381540E-01 0.12628425E+04</pdfrwt>
<totfact> 0.68632953E+01</totfact>
</mgrwt>
</event>
<event>
12    1  0.2048318E-007  0.1025522E+04  0.7818608E-02  0.9280987E-01
          1   -1    0    0  501    0  0.00000000000E+00  0.00000000000E+00  0.87136340538E+03  0.87136340538E+03  0.00000000000E+00 0. -1.
         -1   -1    0    0    0  501 -0.00000000000E+00 -0.00000000000E+00 -0.30173872730E+03  0.30173872730E+03  0.00000000000E+00 0.  1.
         23    2    1    2    0    0  0.63782176666E+02  0.72453037644E+02  0.70991334124E+02  0.14989143963E+03  0.90055901698E+02 0.  0.
        254    2    1    2    0    0 -0.63782176666E+02 -0.72453037644E+02  0.49863334396E+03  0.10232106930E+04  0.88826082989E+03 0.  0.
        -24    2    4    4    0    0  0.39546042819E+03 -0.62650537118E+02  0.12772401057E+03  0.42748239123E+03  0.78190356605E+02 0.  0.
         24    2    4    4    0    0 -0.45924260486E+03 -0.98025005259E+01  0.37090933339E+03  0.59572830182E+03  0.79489728022E+02 0.  0.
         13    1    3    3    0    0  0.12938816710E+02 -0.17043700094E+02 -0.49677068585E+01  0.21967676304E+02  0.00000000000E+00 0.  1.
        -13    1    3    3    0    0  0.50843359956E+02  0.89496737738E+02  0.75959040983E+02  0.12792376333E+03  0.00000000000E+00 0. -1.
          4    1    6    6  502    0 -0.73192619086E+02  0.11770367485E+02  0.29055485634E+02  0.79623628935E+02  0.00000000000E+00 0. -1.
          1    1    5    5  503    0  0.81588325671E+02 -0.45318576162E+02  0.35889676078E+02  0.99992485119E+02  0.00000000000E+00 0. -1.
         -2    1    5    5    0  503  0.31387210252E+03 -0.17331960956E+02  0.91834334496E+02  0.32748990611E+03  0.00000000000E+00 0.  1.
         -3    1    6    6    0  502 -0.38604998577E+03 -0.21572868011E+02  0.34185384775E+03  0.51610467288E+03  0.00000000000E+00 0.  1.
<mgrwt>
<rscale>  0 0.10255225E+04</rscale>
<asrwt>0</asrwt>
<pdfrwt beam="1">  1        1 0.13405591E+00 0.10255225E+04</pdfrwt>
<pdfrwt beam="2">  1       -1 0.46421343E-01 0.10255225E+04</pdfrwt>
<totfact> 0.88833734E+01</totfact>
</mgrwt>
</event>
<event>
12    1  0.2048318E-007  0.1816586E+04  0.7818608E-02  0.8697529E-01
          2   -1    0    0  501    0  0.00000000000E+00  0.00000000000E+00  0.12472949470E+04  0.12472949470E+04  0.00000000000E+00 0. -1.
         -2   -1    0    0    0  501 -0.00000000000E+00 -0.00000000000E+00 -0.66142836801E+03  0.66142836801E+03  0.00000000000E+00 0.  1.
         23    2    1    2    0    0  0.52043420778E+03  0.36651280505E+03  0.51694830771E+03  0.82502851637E+03  0.90846568917E+02 0.  0.
        254    2    1    2    0    0 -0.52043420778E+03 -0.36651280505E+03  0.68918271304E+02  0.10836947987E+04  0.87433476863E+03 0.  0.
        -24    2    4    4    0    0 -0.21869866729E+03  0.17766030953E+03 -0.24527887705E+03  0.38224083503E+03  0.80956999614E+02 0.  0.
         24    2    4    4    0    0 -0.30173554049E+03 -0.54417311458E+03  0.31419714835E+03  0.70145396363E+03  0.78416197517E+02 0.  0.
         11    1    3    3    0    0  0.12679799054E+03  0.82789241803E+02  0.76271326662E+02  0.16955560809E+03  0.00000000000E+00 0.  1.
        -11    1    3    3    0    0  0.39363621724E+03  0.28372356325E+03  0.44067698105E+03  0.65547290828E+03  0.00000000000E+00 0. -1.
          2    1    6    6  502    0 -0.25530646233E+03 -0.47624537935E+03  0.24234629361E+03  0.59221852140E+03  0.00000000000E+00 0. -1.
          1    1    5    5  503    0 -0.20744691416E+03  0.18442445975E+03 -0.22165764798E+03  0.35521643607E+03  0.00000000000E+00 0. -1.
         -2    1    5    5    0  503 -0.11251753131E+02 -0.67641502186E+01 -0.23621229067E+02  0.27024398964E+02  0.00000000000E+00 0.  1.
         -1    1    6    6    0  502 -0.46429078156E+02 -0.67927735227E+02  0.71850854745E+02  0.10923544223E+03  0.00000000000E+00 0.  1.
<mgrwt>
<rscale>  0 0.18165861E+04</rscale>
<asrwt>0</asrwt>
<pdfrwt beam="1">  1        2 0.19189153E+00 0.18165861E+04</pdfrwt>
<pdfrwt beam="2">  1       -2 0.10175821E+00 0.18165861E+04</pdfrwt>
<totfact> 0.13265660E+01</totfact>
</mgrwt>
</event>
<event>
12    1  0.2048318E-007  0.2623371E+04  0.7818608E-02  0.8360306E-01
         -2   -1    0    0    0  501 -0.00000000000E+00  0.00000000000E+00  0.82396306923E+03  0.82396306923E+03  0.00000000000E+00 0.  1.
          2   -1    0    0  501    0  0.00000000000E+00 -0.00000000000E+00 -0.20881018104E+04  0.20881018104E+04  0.00000000000E+00 0. -1.
         23    2    1    2    0    0 -0.41766626120E+03 -0.86257930446E+03 -0.12741675055E+04  0.15969241935E+04  0.90420604002E+02 0.  0.
        254    2    1    2    0    0  0.41766626120E+03  0.86257930446E+03  0.10028764331E+02  0.13151406861E+04  0.90055887417E+03 0.  0.
        -24    2    4    4    0    0 -0.15867692089E+03  0.59601922298E+03 -0.17985964636E+03  0.64744078846E+03  0.80079977420E+02 0.  0.
         24    2    4    4    0    0  0.57634318209E+03  0.26656008148E+03  0.18988841069E+03  0.66769989762E+03  0.80869055830E+02 0.  0.
         13    1    3    3    0    0 -0.31820130820E+03 -0.73447078514E+03 -0.10619968724E+04  0.13298634380E+04  0.00000000000E+00 0.  1.
        -13    1    3    3    0    0 -0.99464952999E+02 -0.12810851932E+03 -0.21217063311E+03  0.26706075555E+03  0.00000000000E+00 0. -1.
          4    1    6    6  502    0  0.30256689929E+03  0.15379936821E+03  0.14130419786E+03  0.36765180611E+03  0.00000000000E+00 0. -1.
          3    1    5    5  503    0 -0.12579619172E+03  0.36702576035E+03 -0.14125973236E+03  0.41290059651E+03  0.00000000000E+00 0. -1.
         -4    1    5    5    0  503 -0.32880729167E+02  0.22899346263E+03 -0.38599914009E+02  0.23454019195E+03  0.00000000000E+00 0.  1.
         -3    1    6    6    0  502  0.27377628280E+03  0.11276071327E+03  0.48584212838E+02  0.30004809151E+03  0.00000000000E+00 0.  1.
<mgrwt>
<rscale>  0 0.26233709E+04</rscale>
<asrwt>0</asrwt>
<pdfrwt beam="1">  1        2 0.32124643E+00 0.26233709E+04</pdfrwt>
<pdfrwt beam="2">  1       -2 0.12676355E+00 0.26233709E+04</pdfrwt>
<totfact> 0.24381865E+00</totfact>
</mgrwt>
</event>
<event>
12    1  0.2048318E-007  0.3003536E+04  0.7818608E-02  0.8242722E-01
          2   -1    0    0  501    0  0.00000000000E+00  0.00000000000E+00  0.15397305478E+04  0.15397305478E+04  0.00000000000E+00 0. -1.
         -2   -1    0    0    0  501 -0.00000000000E+00 -0.00000000000E+00 -0.14647411093E+04  0.14647411093E+04  0.00000000000E+00 0.  1.
         23    2    1    2    0    0  0.13095195480E+03  0.52304578984E+02  0.13930230222E+04  0.14032283238E+04  0.93018303019E+02 0.  0.
        254    2    1    2    0    0 -0.13095195480E+03 -0.52304578984E+02 -0.13180335837E+04  0.16012433333E+04  0.89826694326E+03 0.  0.
        -24    2    4    4    0    0 -0.47294311965E+03  0.24418737474E+02 -0.43765663839E+03  0.65032157411E+03  0.84281358907E+02 0.  0.
         24    2    4    4    0    0  0.34199116485E+03 -0.76723316458E+02 -0.88037694531E+03  0.95092175923E+03  0.79650500467E+02 0.  0.
         11    1    3    3    0    0 -0.21602214757E+01 -0.10774714318E+02  0.31459206652E+03  0.31478394073E+03  0.00000000000E+00 0. -1.
        -11    1    3    3    0    0  0.13311217627E+03  0.63079293301E+02  0.10784309557E+04  0.10884443830E+04  0.00000000000E+00 0.  1.
          2    1    6    6  502    0  0.10572686540E+03 -0.36585355800E+02 -0.19448063980E+03  0.22436438573E+03  0.00000000000E+00 0. -1.
          1    1    5    5  503    0 -0.35003597746E+03  0.23594851391E+02 -0.37055765240E+03  0.51028901250E+03  0.00000000000E+00 0. -1.
         -2    1    5    5    0  503 -0.12290714219E+03  0.82388608324E+00 -0.67098985997E+02  0.14003256161E+03  0.00000000000E+00 0.  1.
         -1    1    6    6    0  502  0.23626429945E+03 -0.40137960658E+02 -0.68589630551E+03  0.72655737350E+03  0.00000000000E+00 0.  1.
<mgrwt>
<rscale>  0 0.30035357E+04</rscale>
<asrwt>0</asrwt>
<pdfrwt beam="1">  1        2 0.23688162E+00 0.30035357E+04</pdfrwt>
<pdfrwt beam="2">  1       -2 0.22534479E+00 0.30035357E+04</pdfrwt>
<totfact> 0.94348130E-01</totfact>
</mgrwt>
</event>
<event>
12    1  0.2048318E-007  0.1232955E+04  0.7818608E-02  0.9084490E-01
          1   -1    0    0  501    0  0.00000000000E+00  0.00000000000E+00  0.30692315332E+04  0.30692315332E+04  0.00000000000E+00 0. -1.
         -1   -1    0    0    0  501 -0.00000000000E+00 -0.00000000000E+00 -0.12382395548E+03  0.12382395548E+03  0.00000000000E+00 0.  1.
         23    2    1    2    0    0  0.20290593014E+03 -0.19343441615E+03  0.70152668445E+03  0.76072893419E+03  0.89337184186E+02 0.  0.
        254    2    1    2    0    0 -0.20290593014E+03  0.19343441615E+03  0.22438808933E+04  0.24323265545E+04  0.89589246825E+03 0.  0.
        -24    2    4    4    0    0  0.11454121672E+03 -0.16084686203E+03  0.99741349751E+02  0.23484628181E+03  0.78822813180E+02 0.  0.
         24    2    4    4    0    0 -0.31744714686E+03  0.35428127817E+03  0.21441395436E+04  0.21974802727E+04  0.72782220531E+02 0.  0.
         11    1    3    3    0    0  0.10115725123E+03 -0.70719405951E+02  0.20550887905E+03  0.23972468213E+03  0.00000000000E+00 0.  1.
        -11    1    3    3    0    0  0.10174867891E+03 -0.12271501020E+03  0.49601780540E+03  0.52100425206E+03  0.00000000000E+00 0. -1.
          2    1    6    6  502    0 -0.25553244718E+03  0.29833547040E+03  0.18748353560E+04  0.19155439167E+04  0.00000000000E+00 0. -1.
          1    1    5    5  503    0  0.82693112225E+02 -0.98663300806E+02  0.22482911492E+02  0.13068312456E+03  0.00000000000E+00 0. -1.
         -2    1    5    5    0  503  0.31848104499E+02 -0.62183561219E+02  0.77258438259E+02  0.10416315725E+03  0.00000000000E+00 0.  1.
         -1    1    6    6    0  502 -0.61914699676E+02  0.55945807770E+02  0.26930418753E+03  0.28193635606E+03  0.00000000000E+00 0.  1.
<mgrwt>
<rscale>  0 0.12329548E+04</rscale>
<asrwt>0</asrwt>
<pdfrwt beam="1">  1        1 0.47218941E+00 0.12329548E+04</pdfrwt>
<pdfrwt beam="2">  1       -1 0.19049842E-01 0.12329548E+04</pdfrwt>
<totfact> 0.11804238E+01</totfact>
</mgrwt>
</event>
<event>
12    1  0.2048318E-007  0.5496110E+04  0.7818608E-02  0.7756225E-01
          2   -1    0    0  501    0  0.00000000000E+00  0.00000000000E+00  0.31260427611E+04  0.31260427611E+04  0.00000000000E+00 0. -1.
         -2   -1    0    0    0  501 -0.00000000000E+00 -0.00000000000E+00 -0.24157721614E+04  0.24157721614E+04  0.00000000000E+00 0.  1.
         23    2    1    2    0    0  0.19801566629E+04  0.17618571181E+04  0.69656512531E+03  0.27417592565E+04  0.82945359233E+02 0.  0.
        254    2    1    2    0    0 -0.19801566629E+04 -0.17618571181E+04  0.13705474315E+02  0.28000556660E+04  0.90275299981E+03 0.  0.
        -24    2    4    4    0    0 -0.19976439532E+04 -0.14654793220E+04 -0.73395894620E+02  0.24799218861E+04  0.80091178803E+02 0.  0.
         24    2    4    4    0    0  0.17487290265E+02 -0.29637779611E+03  0.87101368935E+02  0.32013377996E+03  0.82178983035E+02 0.  0.
         13    1    3    3    0    0  0.17843052609E+04  0.15534314665E+04  0.62461755612E+03  0.24468432064E+04  0.00000000000E+00 0. -1.
        -13    1    3    3    0    0  0.19585140197E+03  0.20842565160E+03  0.71947569198E+02  0.29491605011E+03  0.00000000000E+00 0.  1.
          4    1    6    6  502    0  0.25008612715E+02 -0.28381939560E+03  0.98622797876E+02  0.30150511818E+03  0.00000000000E+00 0. -1.
          3    1    5    5  503    0 -0.47715825979E+03 -0.37437051824E+03 -0.46295044533E+02  0.60825695308E+03  0.00000000000E+00 0. -1.
         -4    1    5    5    0  503 -0.15204856934E+04 -0.10911088037E+04 -0.27100850087E+02  0.18716649330E+04  0.00000000000E+00 0.  1.
         -3    1    6    6    0  502 -0.75213224497E+01 -0.12558400505E+02 -0.11521428940E+02  0.18628661774E+02  0.00000000000E+00 0.  1.
<mgrwt>
<rscale>  0 0.54961103E+04</rscale>
<asrwt>0</asrwt>
<pdfrwt beam="1">  1        2 0.48092966E+00 0.54961103E+04</pdfrwt>
<pdfrwt beam="2">  1       -2 0.37165725E+00 0.54961103E+04</pdfrwt>
<totfact> 0.11480074E-02</totfact>
</mgrwt>
</event>
<event>
12    1  0.2048318E-007  0.1842558E+04  0.7818608E-02  0.8683989E-01
         -1   -1    0    0    0  501 -0.00000000000E+00  0.00000000000E+00  0.47967903160E+03  0.47967903160E+03  0.00000000000E+00 0.  1.
          1   -1    0    0  501    0  0.00000000000E+00 -0.00000000000E+00 -0.17694223689E+04  0.17694223689E+04  0.00000000000E+00 0. -1.
         23    2    1    2    0    0 -0.54182503953E+03  0.20318827742E+03 -0.18407826668E+02  0.58631123850E+03  0.92531998580E+02 0.  0.
        254    2    1    2    0    0  0.54182503953E+03 -0.20318827742E+03 -0.12713355107E+04  0.16627901620E+04  0.90206279866E+03 0.  0.
        -24    2    4    4    0    0 -0.22299855722E+03  0.76556931914E+02 -0.36964534764E+03  0.44504207010E+03  0.76390056807E+02 0.  0.
         24    2    4    4    0    0  0.76482359675E+03 -0.27974520933E+03 -0.90169016302E+03  0.12177480919E+04  0.81564385762E+02 0.  0.
         13    1    3    3    0    0 -0.20095242772E+03  0.39331788622E+02  0.22021427162E+02  0.20594613630E+03  0.00000000000E+00 0.  1.
        -13    1    3    3    0    0 -0.34087261182E+03  0.16385648879E+03 -0.40429253829E+02  0.38036510220E+03  0.00000000000E+00 0. -1.
          4    1    6    6  502    0  0.54833226813E+02 -0.24471533929E+01 -0.79400435252E+02  0.96525128546E+02  0.00000000000E+00 0. -1.
          3    1    5    5  503    0 -0.93155360756E+01 -0.24561761102E+01 -0.59156415611E+02  0.59935744939E+02  0.00000000000E+00 0. -1.
         -4    1    5    5    0  503 -0.21368302114E+03  0.79013108024E+02 -0.31048893203E+03  0.38510632516E+03  0.00000000000E+00 0.  1.
         -3    1    6    6    0  502  0.70999036994E+03 -0.27729805594E+03 -0.82228972777E+03  0.11212229634E+04  0.00000000000E+00 0.  1.
<mgrwt>
<rscale>  0 0.18425578E+04</rscale>
<asrwt>0</asrwt>
<pdfrwt beam="1">  1        1 0.27221883E+00 0.18425578E+04</pdfrwt>
<pdfrwt beam="2">  1       -1 0.73796772E-01 0.18425578E+04</pdfrwt>
<totfact> 0.74308205E+00</totfact>
</mgrwt>
</event>
<event>
12    1  0.2048318E-007  0.1869633E+04  0.7818608E-02  0.8670121E-01
         -2   -1    0    0    0  501 -0.00000000000E+00  0.00000000000E+00  0.31762875972E+03  0.31762875972E+03  0.00000000000E+00 0.  1.
          2   -1    0    0  501    0  0.00000000000E+00 -0.00000000000E+00 -0.27512679405E+04  0.27512679405E+04  0.00000000000E+00 0. -1.
         23    2    1    2    0    0  0.51183530989E+02 -0.45497630815E+02  0.22998113313E+03  0.25665211287E+03  0.91045028370E+02 0.  0.
        254    2    1    2    0    0 -0.51183530989E+02  0.45497630815E+02 -0.26636203139E+04  0.28122445873E+04  0.89953135255E+03 0.  0.
        -24    2    4    4    0    0 -0.32113039983E+03 -0.92356453899E+02 -0.23245004139E+04  0.23497955387E+04  0.81132305948E+02 0.  0.
         24    2    4    4    0    0  0.26994686884E+03  0.13785408471E+03 -0.33911989998E+03  0.46244904866E+03  0.83556899043E+02 0.  0.
         11    1    3    3    0    0  0.51207619854E+02 -0.40190042797E+02  0.66404317956E+02  0.92989210742E+02  0.00000000000E+00 0. -1.
        -11    1    3    3    0    0 -0.24088864969E-01 -0.53075880173E+01  0.16357681517E+03  0.16366290213E+03  0.00000000000E+00 0.  1.
          2    1    6    6  502    0  0.20394337810E+03  0.84560004074E+02 -0.19183140704E+03  0.29247663922E+03  0.00000000000E+00 0. -1.
          3    1    5    5  503    0 -0.24508401607E+03 -0.83729654613E+02 -0.15461586019E+04  0.15676999880E+04  0.00000000000E+00 0. -1.
         -4    1    5    5    0  503 -0.76046383757E+02 -0.86267992863E+01 -0.77834181197E+03  0.78209555069E+03  0.00000000000E+00 0.  1.
         -1    1    6    6    0  502  0.66003490740E+02  0.53294080640E+02 -0.14728849293E+03  0.16997240944E+03  0.00000000000E+00 0.  1.
<mgrwt>
<rscale>  0 0.18696329E+04</rscale>
<asrwt>0</asrwt>
<pdfrwt beam="1">  1        2 0.42327199E+00 0.18696329E+04</pdfrwt>
<pdfrwt beam="2">  1       -2 0.48865963E-01 0.18696329E+04</pdfrwt>
<totfact> 0.92295830E+00</totfact>
</mgrwt>
</event>
<event>
12    1  0.2048318E-007  0.1304889E+04  0.7818608E-02  0.9025697E-01
          1   -1    0    0  501    0  0.00000000000E+00  0.00000000000E+00  0.17909437145E+04  0.17909437145E+04  0.00000000000E+00 0. -1.
         -1   -1    0    0    0  501 -0.00000000000E+00 -0.00000000000E+00 -0.23768693417E+03  0.23768693417E+03  0.00000000000E+00 0.  1.
         23    2    1    2    0    0 -0.22065642646E+03 -0.95020963162E+02  0.49757529383E+02  0.26202138402E+03  0.91984520285E+02 0.  0.
        254    2    1    2    0    0  0.22065642646E+03  0.95020963162E+02  0.15034992510E+04  0.17666092647E+04  0.89592413430E+03 0.  0.
        -24    2    4    4    0    0  0.30032878727E+02  0.37719892282E+03  0.13121579265E+04  0.13681327927E+04  0.82752118837E+02 0.  0.
         24    2    4    4    0    0  0.19062354774E+03 -0.28217795966E+03  0.19134132443E+03  0.39847647196E+03  0.78805192737E+02 0.  0.
         11    1    3    3    0    0 -0.18768019304E+03 -0.75420072075E+02  0.75416214287E+02  0.21586951501E+03  0.00000000000E+00 0. -1.
        -11    1    3    3    0    0 -0.32976233422E+02 -0.19600891087E+02 -0.25658684904E+02  0.46151869010E+02  0.00000000000E+00 0.  1.
          2    1    6    6  502    0  0.29726783967E+02 -0.10459601963E+03  0.44913752337E+02  0.11764885956E+03  0.00000000000E+00 0. -1.
          1    1    5    5  503    0  0.54197355500E+02  0.16964882583E+03  0.63013870064E+03  0.65482276952E+03  0.00000000000E+00 0. -1.
         -2    1    5    5    0  503 -0.24164476774E+02  0.20755009699E+03  0.68201922591E+03  0.71331002321E+03  0.00000000000E+00 0.  1.
         -1    1    6    6    0  502  0.16089676377E+03 -0.17758194003E+03  0.14642757209E+03  0.28082761240E+03  0.00000000000E+00 0.  1.
<mgrwt>
<rscale>  0 0.13048891E+04</rscale>
<asrwt>0</asrwt>
<pdfrwt beam="1">  1        1 0.27552979E+00 0.13048891E+04</pdfrwt>
<pdfrwt beam="2">  1       -1 0.36567222E-01 0.13048891E+04</pdfrwt>
<totfact> 0.29117283E+01</totfact>
</mgrwt>
</event>
<event>
12    1  0.2048318E-007  0.2586963E+04  0.7818608E-02  0.8372643E-01
          1   -1    0    0  501    0  0.00000000000E+00  0.00000000000E+00  0.31117545804E+04  0.31117545804E+04  0.00000000000E+00 0. -1.
         -1   -1    0    0    0  501 -0.00000000000E+00 -0.00000000000E+00 -0.53766920169E+03  0.53766920169E+03  0.00000000000E+00 0.  1.
         23    2    1    2    0    0 -0.58997995422E+03 -0.94580613062E+03  0.14392528417E+04  0.18227063088E+04  0.90465255534E+02 0.  0.
        254    2    1    2    0    0  0.58997995422E+03  0.94580613062E+03  0.11348325370E+04  0.18267174733E+04  0.89801239262E+03 0.  0.
        -24    2    4    4    0    0  0.70986445167E+03  0.53442162740E+03  0.40941572510E+03  0.98087896869E+03  0.70627895902E+02 0.  0.
         24    2    4    4    0    0 -0.11988449745E+03  0.41138450322E+03  0.72541681189E+03  0.84583850465E+03  0.74858017416E+02 0.  0.
         13    1    3    3    0    0 -0.17617325075E+03 -0.31804718005E+03  0.40851415905E+03  0.54687735477E+03  0.00000000000E+00 0.  1.
        -13    1    3    3    0    0 -0.41380670347E+03 -0.62775895057E+03  0.10307386827E+04  0.12758289540E+04  0.00000000000E+00 0. -1.
          2    1    6    6  502    0 -0.84423887532E+02  0.24935866083E+03  0.51027751219E+03  0.57418661946E+03  0.00000000000E+00 0. -1.
          3    1    5    5  503    0  0.62126384142E+03  0.46759240136E+03  0.33151733768E+03  0.84528998554E+03  0.00000000000E+00 0. -1.
         -2    1    5    5    0  503  0.88600610252E+02  0.66829226037E+02  0.77898387419E+02  0.13558898315E+03  0.00000000000E+00 0.  1.
         -1    1    6    6    0  502 -0.35460609914E+02  0.16202584239E+03  0.21513929970E+03  0.27165188520E+03  0.00000000000E+00 0.  1.
<mgrwt>
<rscale>  0 0.25869632E+04</rscale>
<asrwt>0</asrwt>
<pdfrwt beam="1">  1        1 0.47873146E+00 0.25869632E+04</pdfrwt>
<pdfrwt beam="2">  1       -1 0.82718341E-01 0.25869632E+04</pdfrwt>
<totfact> 0.63324178E-01</totfact>
</mgrwt>
</event>
<event>
12    1  0.2048318E-007  0.1870509E+04  0.7818608E-02  0.8669677E-01
          1   -1    0    0  501    0  0.00000000000E+00  0.00000000000E+00  0.25989362989E+04  0.25989362989E+04  0.00000000000E+00 0. -1.
         -1   -1    0    0    0  501 -0.00000000000E+00 -0.00000000000E+00 -0.33656111259E+03  0.33656111259E+03  0.00000000000E+00 0.  1.
         23    2    1    2    0    0  0.68388312157E+03 -0.20307190375E+03  0.91334256027E+03  0.11646028371E+04  0.11476416545E+03 0.  0.
        254    2    1    2    0    0 -0.68388312157E+03  0.20307190375E+03  0.13490326261E+04  0.17708945744E+04  0.89846772089E+03 0.  0.
        -24    2    4    4    0    0  0.62658305370E+02  0.35741587427E+03  0.54691652139E+03  0.66148309099E+03  0.82280179216E+02 0.  0.
         24    2    4    4    0    0 -0.74654142694E+03 -0.15434397052E+03  0.80211610467E+03  0.11094114834E+04  0.79103924110E+02 0.  0.
         13    1    3    3    0    0  0.14269833327E+03 -0.82255515804E+02  0.25864173673E+03  0.30663387318E+03  0.00000000000E+00 0.  1.
        -13    1    3    3    0    0  0.54118478830E+03 -0.12081638794E+03  0.65470082354E+03  0.85796896391E+03  0.00000000000E+00 0. -1.
          4    1    6    6  502    0 -0.74384242460E+03 -0.15440671642E+03  0.78623159897E+03  0.10932991877E+04  0.00000000000E+00 0. -1.
          3    1    5    5  503    0 -0.18689428691E+01  0.11857087613E+03  0.23621370645E+03  0.26430940341E+03  0.00000000000E+00 0. -1.
         -4    1    5    5    0  503  0.64527248239E+02  0.23884499814E+03  0.31070281493E+03  0.39717368758E+03  0.00000000000E+00 0.  1.
         -3    1    6    6    0  502 -0.26990023443E+01  0.62745894454E-01  0.15884505708E+02  0.16112295686E+02  0.00000000000E+00 0.  1.
<mgrwt>
<rscale>  0 0.18705089E+04</rscale>
<asrwt>0</asrwt>
<pdfrwt beam="1">  1        1 0.39983634E+00 0.18705089E+04</pdfrwt>
<pdfrwt beam="2">  1       -1 0.51778634E-01 0.18705089E+04</pdfrwt>
<totfact> 0.40745501E+00</totfact>
</mgrwt>
</event>
<event>
12    1  0.2048318E-007  0.1722759E+04  0.7818608E-02  0.8748490E-01
          2   -1    0    0  501    0  0.00000000000E+00  0.00000000000E+00  0.20745757711E+04  0.20745757711E+04  0.00000000000E+00 0. -1.
         -2   -1    0    0    0  501 -0.00000000000E+00 -0.00000000000E+00 -0.35765119091E+03  0.35765119091E+03  0.00000000000E+00 0.  1.
         23    2    1    2    0    0  0.46234889169E+03  0.15804440202E+03  0.11713510912E+04  0.12720161613E+04  0.84954135328E+02 0.  0.
        254    2    1    2    0    0 -0.46234889169E+03 -0.15804440202E+03  0.54557348895E+03  0.11602108007E+04  0.89983006143E+03 0.  0.
        -24    2    4    4    0    0 -0.46678276605E+03  0.79562082517E+02  0.71254687133E+03  0.85925506270E+03  0.79874547082E+02 0.  0.
         24    2    4    4    0    0  0.44338743623E+01 -0.23760648454E+03 -0.16697338238E+03  0.30095573796E+03  0.78852679412E+02 0.  0.
         11    1    3    3    0    0  0.21266929817E+03  0.30920745114E+02  0.54585661532E+03  0.58663767979E+03  0.00000000000E+00 0. -1.
        -11    1    3    3    0    0  0.24967959352E+03  0.12712365691E+03  0.62549447589E+03  0.68537848152E+03  0.00000000000E+00 0.  1.
          4    1    6    6  502    0  0.60261747949E+01 -0.22722190953E+02  0.69363865557E+01  0.24509716498E+02  0.00000000000E+00 0. -1.
          1    1    5    5  503    0  0.45490676984E+00  0.23934040873E+01 -0.11811629260E+01  0.27074839154E+01  0.00000000000E+00 0. -1.
         -2    1    5    5    0  503 -0.46723767282E+03  0.77168678430E+02  0.71372803426E+03  0.85654757878E+03  0.00000000000E+00 0.  1.
         -3    1    6    6    0  502 -0.15923004326E+01 -0.21488429359E+03 -0.17390976894E+03  0.27644602146E+03  0.00000000000E+00 0.  1.
<mgrwt>
<rscale>  0 0.17227588E+04</rscale>
<asrwt>0</asrwt>
<pdfrwt beam="1">  1        2 0.31916550E+00 0.17227588E+04</pdfrwt>
<pdfrwt beam="2">  1       -2 0.55023261E-01 0.17227588E+04</pdfrwt>
<totfact> 0.17916641E+01</totfact>
</mgrwt>
</event>
<event>
12    1  0.2048318E-007  0.4742448E+04  0.7818608E-02  0.7869514E-01
         -2   -1    0    0    0  501 -0.00000000000E+00  0.00000000000E+00  0.18424903491E+04  0.18424903491E+04  0.00000000000E+00 0.  1.
          2   -1    0    0  501    0  0.00000000000E+00 -0.00000000000E+00 -0.30516869248E+04  0.30516869248E+04  0.00000000000E+00 0. -1.
         23    2    1    2    0    0 -0.26710414891E+03  0.22415928767E+04 -0.94580341307E+03  0.24494769682E+04  0.96488707177E+02 0.  0.
        254    2    1    2    0    0  0.26710414891E+03 -0.22415928767E+04 -0.26339316260E+03  0.24447003057E+04  0.90061111219E+03 0.  0.
        -24    2    4    4    0    0  0.30736917364E+03 -0.31382419789E+03 -0.25699964607E+03  0.51483800819E+03  0.77768377292E+02 0.  0.
         24    2    4    4    0    0 -0.40265024737E+02 -0.19277686788E+04 -0.63935165381E+01  0.19298622975E+04  0.80089070074E+02 0.  0.
         13    1    3    3    0    0 -0.16444111875E+03  0.98821326864E+03 -0.43258066835E+03  0.10912068459E+04  0.00000000000E+00 0. -1.
        -13    1    3    3    0    0 -0.10266303015E+03  0.12533796080E+04 -0.51322274472E+03  0.13582701223E+04  0.00000000000E+00 0.  1.
          2    1    6    6  502    0 -0.64197483048E+02 -0.15212651577E+04 -0.90662477258E+01  0.15226461157E+04  0.00000000000E+00 0. -1.
          1    1    5    5  503    0  0.27383894099E+03 -0.23928473592E+03 -0.22087420808E+03  0.42547663419E+03  0.00000000000E+00 0. -1.
         -2    1    5    5    0  503  0.33530232654E+02 -0.74539461973E+02 -0.36125437991E+02  0.89361374000E+02  0.00000000000E+00 0.  1.
         -1    1    6    6    0  502  0.23932458311E+02 -0.40650352104E+03  0.26727311878E+01  0.40721618174E+03  0.00000000000E+00 0.  1.
<mgrwt>
<rscale>  0 0.47424482E+04</rscale>
<asrwt>0</asrwt>
<pdfrwt beam="1">  1        2 0.46949030E+00 0.47424482E+04</pdfrwt>
<pdfrwt beam="2">  1       -2 0.28346005E+00 0.47424482E+04</pdfrwt>
<totfact> 0.48117883E-02</totfact>
</mgrwt>
</event>
<event>
12    1  0.2048318E-007  0.2744796E+04  0.7818608E-02  0.8320615E-01
          2   -1    0    0  501    0  0.00000000000E+00  0.00000000000E+00  0.13590309216E+04  0.13590309216E+04  0.00000000000E+00 0. -1.
         -2   -1    0    0    0  501 -0.00000000000E+00 -0.00000000000E+00 -0.13858963457E+04  0.13858963457E+04  0.00000000000E+00 0.  1.
         23    2    1    2    0    0 -0.85914323571E+03 -0.53599785928E+03 -0.69734218141E+03  0.12328639124E+04  0.90810263686E+02 0.  0.
        254    2    1    2    0    0  0.85914323571E+03  0.53599785928E+03  0.67047675739E+03  0.15120633549E+04  0.90076395485E+03 0.  0.
        -24    2    4    4    0    0  0.84417064879E+03  0.71625455611E+03  0.70028845538E+03  0.13123526926E+04  0.78873288540E+02 0.  0.
         24    2    4    4    0    0  0.14972586916E+02 -0.18025669684E+03 -0.29811697988E+02  0.19971066226E+03  0.79239864790E+02 0.  0.
         11    1    3    3    0    0 -0.73000845446E+03 -0.43270694041E+03 -0.61571076889E+03  0.10484499944E+04  0.00000000000E+00 0.  1.
        -11    1    3    3    0    0 -0.12913478125E+03 -0.10329091887E+03 -0.81631412523E+02  0.18441391802E+03  0.00000000000E+00 0. -1.
          4    1    6    6  502    0 -0.24693048499E+01 -0.82932101229E+02 -0.52607879836E+02  0.98241640364E+02  0.00000000000E+00 0. -1.
          3    1    5    5  503    0  0.70032490100E+03  0.61962926416E+03  0.56520245052E+03  0.10926340659E+04  0.00000000000E+00 0. -1.
         -4    1    5    5    0  503  0.14384574779E+03  0.96625291953E+02  0.13508600485E+03  0.21971862668E+03  0.00000000000E+00 0.  1.
         -3    1    6    6    0  502  0.17441891766E+02 -0.97324595607E+02  0.22796181848E+02  0.10146902190E+03  0.00000000000E+00 0.  1.
<mgrwt>
<rscale>  0 0.27447958E+04</rscale>
<asrwt>0</asrwt>
<pdfrwt beam="1">  1        2 0.20908168E+00 0.27447958E+04</pdfrwt>
<pdfrwt beam="2">  1       -2 0.21321482E+00 0.27447958E+04</pdfrwt>
<totfact> 0.14581319E+00</totfact>
</mgrwt>
</event>
<event>
12    1  0.2048318E-007  0.2516254E+04  0.7818608E-02  0.8397218E-01
          1   -1    0    0  501    0  0.00000000000E+00  0.00000000000E+00  0.18566406788E+04  0.18566406788E+04  0.00000000000E+00 0. -1.
         -1   -1    0    0    0  501 -0.00000000000E+00 -0.00000000000E+00 -0.85255245992E+03  0.85255245992E+03  0.00000000000E+00 0.  1.
         23    2    1    2    0    0  0.95934882555E+03  0.21975233581E+03 -0.77584450247E+02  0.99185052014E+03  0.95429812974E+02 0.  0.
        254    2    1    2    0    0 -0.95934882555E+03 -0.21975233581E+03  0.10816726691E+04  0.17173426186E+04  0.90033807443E+03 0.  0.
        -24    2    4    4    0    0 -0.26063316177E+03  0.71176313874E+02 -0.11058773971E+03  0.30284677938E+03  0.80565569186E+02 0.  0.
         24    2    4    4    0    0 -0.69871566378E+03 -0.29092864968E+03  0.11922604088E+04  0.14144958392E+04  0.80439658098E+02 0.  0.
         11    1    3    3    0    0  0.57925661647E+03  0.90734559185E+02 -0.69006137993E+02  0.59036669540E+03  0.00000000000E+00 0. -1.
        -11    1    3    3    0    0  0.38009220908E+03  0.12901777662E+03 -0.85783122546E+01  0.40148382474E+03  0.00000000000E+00 0.  1.
          2    1    6    6  502    0 -0.16430727398E+03 -0.83870947106E+02  0.23463302678E+03  0.29846921669E+03  0.00000000000E+00 0. -1.
          1    1    5    5  503    0 -0.18718321706E+03  0.87526062538E+02 -0.83582252565E+02  0.22289989080E+03  0.00000000000E+00 0. -1.
         -2    1    5    5    0  503 -0.73449944703E+02 -0.16349748664E+02 -0.27005487147E+02  0.79946888584E+02  0.00000000000E+00 0.  1.
         -1    1    6    6    0  502 -0.53440838980E+03 -0.20705770258E+03  0.95762738205E+03  0.11160266225E+04  0.00000000000E+00 0.  1.
<mgrwt>
<rscale>  0 0.25162540E+04</rscale>
<asrwt>0</asrwt>
<pdfrwt beam="1">  1        1 0.28563703E+00 0.25162540E+04</pdfrwt>
<pdfrwt beam="2">  1       -1 0.13116192E+00 0.25162540E+04</pdfrwt>
<totfact> 0.16399352E+00</totfact>
</mgrwt>
</event>
<event>
12    1  0.2048318E-007  0.1538524E+04  0.7818608E-02  0.8859231E-01
          2   -1    0    0  501    0  0.00000000000E+00  0.00000000000E+00  0.46379537837E+03  0.46379537837E+03  0.00000000000E+00 0. -1.
         -2   -1    0    0    0  501 -0.00000000000E+00 -0.00000000000E+00 -0.12759163846E+04  0.12759163846E+04  0.00000000000E+00 0.  1.
         23    2    1    2    0    0  0.25615716016E+03  0.17218290766E+03  0.17586155904E+03  0.36681808733E+03  0.91459154023E+02 0.  0.
        254    2    1    2    0    0 -0.25615716016E+03 -0.17218290766E+03 -0.98798256523E+03  0.13728936756E+04  0.90192241958E+03 0.  0.
        -24    2    4    4    0    0 -0.95438599007E+02 -0.41024415647E+03 -0.98530250926E+03  0.10744475700E+04  0.78789286997E+02 0.  0.
         24    2    4    4    0    0 -0.16071856115E+03  0.23806124881E+03 -0.26800559661E+01  0.29844610564E+03  0.80989389345E+02 0.  0.
         11    1    3    3    0    0  0.12740393107E+03  0.12584523303E+03  0.13418907964E+03  0.22377554250E+03  0.00000000000E+00 0.  1.
        -11    1    3    3    0    0  0.12875322909E+03  0.46337674635E+02  0.41672479396E+02  0.14304254483E+03  0.00000000000E+00 0. -1.
          4    1    6    6  502    0 -0.53378809980E+02  0.87522316100E+02 -0.39616400049E+02  0.10990410512E+03  0.00000000000E+00 0. -1.
          3    1    5    5  503    0 -0.80780782978E+01 -0.12269241517E+03 -0.21628585624E+03  0.24879360060E+03  0.00000000000E+00 0. -1.
         -4    1    5    5    0  503 -0.87360520709E+02 -0.28755174130E+03 -0.76901665302E+03  0.82565396937E+03  0.00000000000E+00 0.  1.
         -3    1    6    6    0  502 -0.10733975117E+03  0.15053893271E+03  0.36936344083E+02  0.18854200052E+03  0.00000000000E+00 0.  1.
<mgrwt>
<rscale>  0 0.15385241E+04</rscale>
<asrwt>0</asrwt>
<pdfrwt beam="1">  1        2 0.71353135E-01 0.15385241E+04</pdfrwt>
<pdfrwt beam="2">  1       -2 0.19629483E+00 0.15385241E+04</pdfrwt>
<totfact> 0.90968644E+00</totfact>
</mgrwt>
</event>
<event>
12    1  0.2048318E-007  0.1804476E+04  0.7818608E-02  0.8703923E-01
          4   -1    0    0  501    0  0.00000000000E+00  0.00000000000E+00  0.77288088698E+03  0.77288088698E+03  0.00000000000E+00 0. -1.
         -4   -1    0    0    0  501 -0.00000000000E+00 -0.00000000000E+00 -0.10532455860E+04  0.10532455860E+04  0.00000000000E+00 0.  1.
         23    2    1    2    0    0  0.47107897460E+03  0.40464655123E+03  0.16169393812E+03  0.64815726805E+03  0.91151976253E+02 0.  0.
        254    2    1    2    0    0 -0.47107897460E+03 -0.40464655123E+03 -0.44205863713E+03  0.11779692049E+04  0.89807648748E+03 0.  0.
        -24    2    4    4    0    0 -0.72394611985E+03 -0.38905832208E+03 -0.35233087648E+03  0.89778773947E+03  0.80133739464E+02 0.  0.
         24    2    4    4    0    0  0.25286714525E+03 -0.15588229147E+02 -0.89727760651E+02  0.28018146545E+03  0.79156784387E+02 0.  0.
         11    1    3    3    0    0  0.26971986393E+03  0.25394325309E+03  0.53236173165E+02  0.37425936317E+03  0.00000000000E+00 0. -1.
        -11    1    3    3    0    0  0.20135911067E+03  0.15070329814E+03  0.10845776496E+03  0.27389790489E+03  0.00000000000E+00 0.  1.
          2    1    6    6  502    0  0.23391054960E+03  0.15616923069E+01 -0.61023875800E+02  0.24174469490E+03  0.00000000000E+00 0. -1.
          3    1    5    5  503    0 -0.64787752233E+03 -0.32184035761E+03 -0.29539838563E+03  0.78140047732E+03  0.00000000000E+00 0. -1.
         -4    1    5    5    0  503 -0.76068597516E+02 -0.67217964473E+02 -0.56932490850E+02  0.11638726215E+03  0.00000000000E+00 0.  1.
         -1    1    6    6    0  502  0.18956595656E+02 -0.17149921453E+02 -0.28703884851E+02  0.38436770549E+02  0.00000000000E+00 0.  1.
<mgrwt>
<rscale>  0 0.18044760E+04</rscale>
<asrwt>0</asrwt>
<pdfrwt beam="1">  1        4 0.11890475E+00 0.18044760E+04</pdfrwt>
<pdfrwt beam="2">  1       -4 0.16203778E+00 0.18044760E+04</pdfrwt>
<totfact> 0.24718116E-01</totfact>
</mgrwt>
</event>
<event>
12    1  0.2048318E-007  0.1739618E+04  0.7818608E-02  0.8739086E-01
         -2   -1    0    0    0  501 -0.00000000000E+00  0.00000000000E+00  0.33332079660E+03  0.33332079660E+03  0.00000000000E+00 0.  1.
          2   -1    0    0  501    0  0.00000000000E+00 -0.00000000000E+00 -0.22697884566E+04  0.22697884566E+04  0.00000000000E+00 0. -1.
         23    2    1    2    0    0 -0.51932898499E+03 -0.36006235773E+03 -0.75295732590E+03  0.98728869238E+03  0.91906100818E+02 0.  0.
        254    2    1    2    0    0  0.51932898499E+03  0.36006235773E+03 -0.11835103341E+04  0.16158205609E+04  0.90046203573E+03 0.  0.
        -24    2    4    4    0    0  0.17842916810E+03  0.35182587115E+03 -0.11986841913E+04  0.12645627985E+04  0.81589639152E+02 0.  0.
         24    2    4    4    0    0  0.34089981689E+03  0.82364865841E+01  0.15173857211E+02  0.35125776232E+03  0.82892971868E+02 0.  0.
         11    1    3    3    0    0 -0.68808506197E+02 -0.31004162357E+02 -0.13566359880E+03  0.15524329501E+03  0.00000000000E+00 0. -1.
        -11    1    3    3    0    0 -0.45052047879E+03 -0.32905819537E+03 -0.61729372710E+03  0.83204539736E+03  0.00000000000E+00 0.  1.
          4    1    6    6  502    0  0.20850316768E+03 -0.26302508742E+02  0.34840057934E+02  0.21302399521E+03  0.00000000000E+00 0. -1.
          3    1    5    5  503    0  0.27495186883E+02  0.42294807586E+02 -0.84906465471E+02  0.98762057133E+02  0.00000000000E+00 0. -1.
         -4    1    5    5    0  503  0.15093398122E+03  0.30953106356E+03 -0.11137777259E+04  0.11658007414E+04  0.00000000000E+00 0.  1.
         -3    1    6    6    0  502  0.13239664921E+03  0.34538995326E+02 -0.19666200723E+02  0.13823376712E+03  0.00000000000E+00 0.  1.
<mgrwt>
<rscale>  0 0.17396180E+04</rscale>
<asrwt>0</asrwt>
<pdfrwt beam="1">  1        2 0.34919822E+00 0.17396180E+04</pdfrwt>
<pdfrwt beam="2">  1       -2 0.51280123E-01 0.17396180E+04</pdfrwt>
<totfact> 0.16084675E+01</totfact>
</mgrwt>
</event>
<event>
12    1  0.2048318E-007  0.4001176E+04  0.7818608E-02  0.8004309E-01
          2   -1    0    0  501    0  0.00000000000E+00  0.00000000000E+00  0.17515129424E+04  0.17515129424E+04  0.00000000000E+00 0. -1.
         -2   -1    0    0    0  501 -0.00000000000E+00 -0.00000000000E+00 -0.22850830581E+04  0.22850830581E+04  0.00000000000E+00 0.  1.
         23    2    1    2    0    0 -0.73424379108E+03 -0.16948198168E+04 -0.68568494084E+03  0.19724075755E+04  0.93271912077E+02 0.  0.
        254    2    1    2    0    0  0.73424379108E+03  0.16948198168E+04  0.15211482522E+03  0.20641884250E+04  0.90895917266E+03 0.  0.
        -24    2    4    4    0    0  0.75157001859E+03  0.95326245110E+03 -0.20935627701E+03  0.12344616151E+04  0.80614111463E+02 0.  0.
         24    2    4    4    0    0 -0.17326227510E+02  0.74155736573E+03  0.36147110224E+03  0.82972680987E+03  0.87049965155E+02 0.  0.
         13    1    3    3    0    0 -0.77353743989E+02 -0.17229435354E+03 -0.40712759843E+02  0.19320060762E+03  0.00000000000E+00 0. -1.
        -13    1    3    3    0    0 -0.65689004709E+03 -0.15225254633E+04 -0.64497218099E+03  0.17792069679E+04  0.00000000000E+00 0.  1.
          4    1    6    6  502    0 -0.44909925782E+01  0.37252900386E+03  0.22965730667E+03  0.43765340880E+03  0.00000000000E+00 0. -1.
          3    1    5    5  503    0  0.58258637924E+03  0.78112835604E+03 -0.18670974832E+03  0.99218391843E+03  0.00000000000E+00 0. -1.
         -4    1    5    5    0  503  0.16898363935E+03  0.17213409506E+03 -0.22646528694E+02  0.24227769669E+03  0.00000000000E+00 0.  1.
         -3    1    6    6    0  502 -0.12835234932E+02  0.36902836187E+03  0.13181379557E+03  0.39207340106E+03  0.00000000000E+00 0.  1.
<mgrwt>
<rscale>  0 0.40011761E+04</rscale>
<asrwt>0</asrwt>
<pdfrwt beam="1">  1        2 0.26946353E+00 0.40011761E+04</pdfrwt>
<pdfrwt beam="2">  1       -2 0.35155124E+00 0.40011761E+04</pdfrwt>
<totfact> 0.11013045E-01</totfact>
</mgrwt>
</event>
<event>
12    1  0.2221428E-007  0.3752388E+04  0.7818608E-02  0.8056450E-01
          1   -1    0    0  501    0  0.00000000000E+00  0.00000000000E+00  0.26367445574E+04  0.26367445574E+04  0.00000000000E+00 0. -1.
         -1   -1    0    0    0  501 -0.00000000000E+00 -0.00000000000E+00 -0.13350191344E+04  0.13350191344E+04  0.00000000000E+00 0.  1.
         23    2    1    2    0    0 -0.74299877936E+03 -0.15274508267E+04  0.11286214783E+04  0.20413255096E+04  0.89834185213E+02 0.  0.
        254    2    1    2    0    0  0.74299877936E+03  0.15274508267E+04  0.17310394467E+03  0.19304381822E+04  0.90081817575E+03 0.  0.
        -24    2    4    4    0    0  0.62092015395E+03  0.31713974198E+03  0.10489912344E+03  0.70958136829E+03  0.79890165866E+02 0.  0.
         24    2    4    4    0    0  0.12207862540E+03  0.12103110847E+04  0.68204821229E+02  0.12208568139E+04  0.77995833317E+02 0.  0.
         13    1    3    3    0    0 -0.62640637181E+03 -0.13062394794E+04  0.92445328460E+03  0.17185052795E+04  0.00000000000E+00 0.  1.
        -13    1    3    3    0    0 -0.11659240754E+03 -0.22121134731E+03  0.20416819368E+03  0.32282023013E+03  0.00000000000E+00 0. -1.
          4    1    6    6  502    0  0.12689789777E+03  0.11799133120E+04  0.56940417173E+02  0.11880827881E+04  0.00000000000E+00 0. -1.
          3    1    5    5  503    0  0.61305733106E+03  0.29929755319E+03  0.10363653720E+03  0.69004264242E+03  0.00000000000E+00 0. -1.
         -4    1    5    5    0  503  0.78628228888E+01  0.17842188794E+02  0.12625862387E+01  0.19538725873E+02  0.00000000000E+00 0.  1.
         -3    1    6    6    0  502 -0.48192723695E+01  0.30397772668E+02  0.11264404056E+02  0.32774025814E+02  0.00000000000E+00 0.  1.
<mgrwt>
<rscale>  0 0.37523883E+04</rscale>
<asrwt>0</asrwt>
<pdfrwt beam="1">  1        1 0.40565301E+00 0.37523883E+04</pdfrwt>
<pdfrwt beam="2">  1       -1 0.20538756E+00 0.37523883E+04</pdfrwt>
<totfact> 0.12003185E-01</totfact>
</mgrwt>
</event>
<event>
12    1  0.2048318E-007  0.1420961E+04  0.7818608E-02  0.8938784E-01
          1   -1    0    0  501    0  0.00000000000E+00  0.00000000000E+00  0.13360935174E+04  0.13360935174E+04  0.00000000000E+00 0. -1.
         -1   -1    0    0    0  501 -0.00000000000E+00 -0.00000000000E+00 -0.37780480493E+03  0.37780480493E+03  0.00000000000E+00 0.  1.
         23    2    1    2    0    0  0.57569090895E+02 -0.23195665448E+02 -0.20988235890E+03  0.23725795498E+03  0.91588719291E+02 0.  0.
        254    2    1    2    0    0 -0.57569090895E+02  0.23195665448E+02  0.11681710713E+04  0.14766403673E+04  0.90110536751E+03 0.  0.
        -24    2    4    4    0    0 -0.30702316223E+03 -0.78906944586E+02  0.11493700774E+04  0.11948225241E+04  0.77844468470E+02 0.  0.
         24    2    4    4    0    0  0.24945407134E+03  0.10210261003E+03  0.18800993986E+02  0.28181784324E+03  0.80097083045E+02 0.  0.
         13    1    3    3    0    0  0.61861818231E+02 -0.50026753101E+02 -0.18039758193E+03  0.19716198454E+03  0.00000000000E+00 0.  1.
        -13    1    3    3    0    0 -0.42927273356E+01  0.26831087653E+02 -0.29484776968E+02  0.40095970439E+02  0.00000000000E+00 0. -1.
          2    1    6    6  502    0  0.22125243419E+03  0.92543670550E+02 -0.10479735891E+02  0.24005581738E+03  0.00000000000E+00 0. -1.
          1    1    5    5  503    0 -0.29706087706E+03 -0.81961153838E+02  0.11396307883E+04  0.11805596677E+04  0.00000000000E+00 0. -1.
         -2    1    5    5    0  503 -0.99622851718E+01  0.30542092520E+01  0.97392890538E+01  0.14262856350E+02  0.00000000000E+00 0.  1.
         -1    1    6    6    0  502  0.28201637144E+02  0.95589394847E+01  0.29280729877E+02  0.41762025859E+02  0.00000000000E+00 0.  1.
<mgrwt>
<rscale>  0 0.14209610E+04</rscale>
<asrwt>0</asrwt>
<pdfrwt beam="1">  1        1 0.20555285E+00 0.14209610E+04</pdfrwt>
<pdfrwt beam="2">  1       -1 0.58123817E-01 0.14209610E+04</pdfrwt>
<totfact> 0.24885967E+01</totfact>
</mgrwt>
</event>
<event>
12    1  0.2048318E-007  0.1454678E+04  0.7818608E-02  0.8915164E-01
          1   -1    0    0  501    0  0.00000000000E+00  0.00000000000E+00  0.25846825468E+04  0.25846825468E+04  0.00000000000E+00 0. -1.
         -1   -1    0    0    0  501 -0.00000000000E+00 -0.00000000000E+00 -0.20467588476E+03  0.20467588476E+03  0.00000000000E+00 0.  1.
         23    2    1    2    0    0  0.23037511844E+03  0.98961779898E+02  0.14345635390E+04  0.14591908639E+04  0.91647700047E+02 0.  0.
        254    2    1    2    0    0 -0.23037511844E+03 -0.98961779898E+02  0.94544312303E+03  0.13301675676E+04  0.90145267758E+03 0.  0.
        -24    2    4    4    0    0 -0.29431976807E+03 -0.43672581850E+03  0.34711095725E+03  0.63545354588E+03  0.77211565917E+02 0.  0.
         24    2    4    4    0    0  0.63944649626E+02  0.33776403861E+03  0.59833216578E+03  0.69471402171E+03  0.80328870009E+02 0.  0.
         11    1    3    3    0    0  0.18438181579E+03  0.63891228168E+02  0.12666939324E+04  0.12816365559E+04  0.00000000000E+00 0. -1.
        -11    1    3    3    0    0  0.45993302650E+02  0.35070551730E+02  0.16786960658E+03  0.17755430803E+03  0.00000000000E+00 0.  1.
          4    1    6    6  502    0  0.46727720011E+02  0.10798060943E+03  0.15006888911E+03  0.19069337510E+03  0.00000000000E+00 0. -1.
          1    1    5    5  503    0 -0.20563579333E+03 -0.28121823509E+03  0.26894240094E+03  0.44011338342E+03  0.00000000000E+00 0. -1.
         -2    1    5    5    0  503 -0.88683974738E+02 -0.15550758342E+03  0.78168556309E+02  0.19534016246E+03  0.00000000000E+00 0.  1.
         -3    1    6    6    0  502  0.17216929616E+02  0.22978342918E+03  0.44826327667E+03  0.50402064661E+03  0.00000000000E+00 0.  1.
<mgrwt>
<rscale>  0 0.14546782E+04</rscale>
<asrwt>0</asrwt>
<pdfrwt beam="1">  1        1 0.39764344E+00 0.14546782E+04</pdfrwt>
<pdfrwt beam="2">  1       -1 0.31488600E-01 0.14546782E+04</pdfrwt>
<totfact> 0.10795508E+01</totfact>
</mgrwt>
</event>
<event>
12    1  0.2048318E-007  0.1590377E+04  0.7818608E-02  0.8826482E-01
          2   -1    0    0  501    0  0.00000000000E+00  0.00000000000E+00  0.68074361457E+03  0.68074361457E+03  0.00000000000E+00 0. -1.
         -2   -1    0    0    0  501 -0.00000000000E+00 -0.00000000000E+00 -0.92887341501E+03  0.92887341501E+03  0.00000000000E+00 0.  1.
         23    2    1    2    0    0 -0.44227703607E+03  0.66681133424E+02  0.21683185552E+03  0.50496965041E+03  0.89010921127E+02 0.  0.
        254    2    1    2    0    0  0.44227703607E+03 -0.66681133424E+02 -0.46496165595E+03  0.11046473792E+04  0.89666110690E+03 0.  0.
        -24    2    4    4    0    0 -0.11666274294E+01  0.34757253214E+03 -0.31050705477E+03  0.47350013516E+03  0.83544723464E+02 0.  0.
         24    2    4    4    0    0  0.44344366350E+03 -0.41425366556E+03 -0.15445460119E+03  0.63114724402E+03  0.79007832989E+02 0.  0.
         13    1    3    3    0    0 -0.18824537063E+03  0.59535079750E+02  0.60045031994E+02  0.20636412273E+03  0.00000000000E+00 0.  1.
        -13    1    3    3    0    0 -0.25403166544E+03  0.71460536740E+01  0.15678682352E+03  0.29860552768E+03  0.00000000000E+00 0. -1.
          4    1    6    6  502    0  0.91932534709E+02 -0.10023583327E+03 -0.67532005167E+02  0.15185316899E+03  0.00000000000E+00 0. -1.
          1    1    5    5  503    0 -0.22843179352E+02  0.24122471875E+02 -0.31762499436E+02  0.45962602871E+02  0.00000000000E+00 0. -1.
         -2    1    5    5    0  503  0.21676551923E+02  0.32345006027E+03 -0.27874455533E+03  0.42753753229E+03  0.00000000000E+00 0.  1.
         -3    1    6    6    0  502  0.35151112879E+03 -0.31401783230E+03 -0.86922596018E+02  0.47929407503E+03  0.00000000000E+00 0.  1.
<mgrwt>
<rscale>  0 0.15903769E+04</rscale>
<asrwt>0</asrwt>
<pdfrwt beam="1">  1        2 0.10472979E+00 0.15903769E+04</pdfrwt>
<pdfrwt beam="2">  1       -2 0.14290360E+00 0.15903769E+04</pdfrwt>
<totfact> 0.13858413E+01</totfact>
</mgrwt>
</event>
<event>
12    1  0.2048318E-007  0.2274340E+04  0.7818608E-02  0.8488108E-01
          1   -1    0    0  501    0  0.00000000000E+00  0.00000000000E+00  0.20261802651E+04  0.20261802651E+04  0.00000000000E+00 0. -1.
         -1   -1    0    0    0  501 -0.00000000000E+00 -0.00000000000E+00 -0.63822363232E+03  0.63822363232E+03  0.00000000000E+00 0.  1.
         23    2    1    2    0    0 -0.86651822872E+02 -0.92312958164E+03  0.87471012711E+03  0.12778727280E+04  0.90355628891E+02 0.  0.
        254    2    1    2    0    0  0.86651822872E+02  0.92312958164E+03  0.51324650567E+03  0.13865311694E+04  0.89407491028E+03 0.  0.
        -24    2    4    4    0    0  0.40045694603E+03  0.33321833074E+03  0.47946903033E+03  0.71256881624E+03  0.80396176886E+02 0.  0.
         24    2    4    4    0    0 -0.31380512316E+03  0.58991125090E+03  0.33777475343E+02  0.67396235315E+03  0.81335086914E+02 0.  0.
         13    1    3    3    0    0  0.15724385039E+02 -0.16994001873E+03  0.14037906443E+03  0.22098223453E+03  0.00000000000E+00 0.  1.
        -13    1    3    3    0    0 -0.10237620791E+03 -0.75318956292E+03  0.73433106268E+03  0.10568904935E+04  0.00000000000E+00 0. -1.
          2    1    6    6  502    0 -0.25001157182E+03  0.50712546148E+03  0.52307601802E+02  0.56781872541E+03  0.00000000000E+00 0. -1.
          1    1    5    5  503    0  0.33454697661E+03  0.31071785751E+03  0.42955021770E+03  0.62688169223E+03  0.00000000000E+00 0. -1.
         -2    1    5    5    0  503  0.65909969427E+02  0.22500473236E+02  0.49918812630E+02  0.85687124004E+02  0.00000000000E+00 0.  1.
         -1    1    6    6    0  502 -0.63793551338E+02  0.82785789423E+02 -0.18530126459E+02  0.10614362774E+03  0.00000000000E+00 0.  1.
<mgrwt>
<rscale>  0 0.22743405E+04</rscale>
<asrwt>0</asrwt>
<pdfrwt beam="1">  1        1 0.31172004E+00 0.22743405E+04</pdfrwt>
<pdfrwt beam="2">  1       -1 0.98188252E-01 0.22743405E+04</pdfrwt>
<totfact> 0.25745387E+00</totfact>
</mgrwt>
</event>
<event>
12    1  0.2048318E-007  0.1149869E+04  0.7818608E-02  0.9157904E-01
         -2   -1    0    0    0  501 -0.00000000000E+00  0.00000000000E+00  0.14552885118E+03  0.14552885118E+03  0.00000000000E+00 0.  1.
          2   -1    0    0  501    0  0.00000000000E+00 -0.00000000000E+00 -0.22713691639E+04  0.22713691639E+04  0.00000000000E+00 0. -1.
         23    2    1    2    0    0  0.18125108781E+02  0.19044613642E+03 -0.59280924892E+03  0.62903951594E+03  0.87576575420E+02 0.  0.
        254    2    1    2    0    0 -0.18125108781E+02 -0.19044613642E+03 -0.15330310638E+04  0.17878584992E+04  0.89980860184E+03 0.  0.
        -24    2    4    4    0    0  0.38488928322E+03 -0.10196500362E+03 -0.11456577724E+04  0.12159133148E+04  0.85888505034E+02 0.  0.
         24    2    4    4    0    0 -0.40301439200E+03 -0.88481132797E+02 -0.38737329140E+03  0.57194518436E+03  0.82545236097E+02 0.  0.
         11    1    3    3    0    0 -0.24664054394E+02  0.14768764307E+03 -0.41040252262E+03  0.43686403613E+03  0.00000000000E+00 0. -1.
        -11    1    3    3    0    0  0.42789163176E+02  0.42758493353E+02 -0.18240672631E+03  0.19217547981E+03  0.00000000000E+00 0.  1.
          4    1    6    6  502    0 -0.10053745164E+02  0.10998306642E+02 -0.19542282424E+02  0.24575218069E+02  0.00000000000E+00 0. -1.
          3    1    5    5  503    0  0.14917067984E+03 -0.83323180683E+02 -0.47739988764E+03  0.50705551657E+03  0.00000000000E+00 0. -1.
         -4    1    5    5    0  503  0.23571860339E+03 -0.18641822940E+02 -0.66825788479E+03  0.70885779824E+03  0.00000000000E+00 0.  1.
         -3    1    6    6    0  502 -0.39296064684E+03 -0.99479439439E+02 -0.36783100898E+03  0.54736996629E+03  0.00000000000E+00 0.  1.
<mgrwt>
<rscale>  0 0.11498691E+04</rscale>
<asrwt>0</asrwt>
<pdfrwt beam="1">  1        2 0.34944137E+00 0.11498691E+04</pdfrwt>
<pdfrwt beam="2">  1       -2 0.22389057E-01 0.11498691E+04</pdfrwt>
<totfact> 0.81885116E+01</totfact>
</mgrwt>
</event>
<event>
12    1  0.2048318E-007  0.1672437E+04  0.7818608E-02  0.8777243E-01
          1   -1    0    0  501    0  0.00000000000E+00  0.00000000000E+00  0.38117994598E+04  0.38117994598E+04  0.00000000000E+00 0. -1.
         -1   -1    0    0    0  501 -0.00000000000E+00 -0.00000000000E+00 -0.18344650828E+03  0.18344650828E+03  0.00000000000E+00 0.  1.
         23    2    1    2    0    0 -0.14617911268E+03  0.54029631364E+03  0.17403235433E+04  0.18302493396E+04  0.88307249688E+02 0.  0.
        254    2    1    2    0    0  0.14617911268E+03 -0.54029631364E+03  0.18880294082E+04  0.21649966285E+04  0.89959263857E+03 0.  0.
        -24    2    4    4    0    0  0.15923688048E+03 -0.35488357282E+03  0.19221631689E+04  0.19626963776E+04  0.78530811565E+02 0.  0.
         24    2    4    4    0    0 -0.13057767791E+02 -0.18541274082E+03 -0.34133760649E+02  0.20230025089E+03  0.72193407846E+02 0.  0.
         13    1    3    3    0    0 -0.88904712857E+02  0.45430845271E+03  0.13953315846E+04  0.14701191955E+04  0.00000000000E+00 0. -1.
        -13    1    3    3    0    0 -0.57274399828E+02  0.85987860931E+02  0.34499195870E+03  0.36013014407E+03  0.00000000000E+00 0.  1.
          2    1    6    6  502    0  0.45417118368E+00 -0.96392430142E+01 -0.23827228441E+02  0.25707160336E+02  0.00000000000E+00 0. -1.
          3    1    5    5  503    0  0.60385145720E+02 -0.18689434057E+03  0.80187168934E+03  0.82557499146E+03  0.00000000000E+00 0. -1.
         -4    1    5    5    0  503  0.98851734755E+02 -0.16798923225E+03  0.11202914796E+04  0.11371213861E+04  0.00000000000E+00 0.  1.
         -1    1    6    6    0  502 -0.13511938974E+02 -0.17577349780E+03 -0.10306532207E+02  0.17659309055E+03  0.00000000000E+00 0.  1.
<mgrwt>
<rscale>  0 0.16724369E+04</rscale>
<asrwt>0</asrwt>
<pdfrwt beam="1">  1        1 0.58643063E+00 0.16724369E+04</pdfrwt>
<pdfrwt beam="2">  1       -1 0.28222542E-01 0.16724369E+04</pdfrwt>
<totfact> 0.15270492E+00</totfact>
</mgrwt>
</event>
<event>
12    1  0.2048318E-007  0.1590279E+04  0.7818608E-02  0.8826543E-01
         -2   -1    0    0    0  501 -0.00000000000E+00  0.00000000000E+00  0.55897529131E+03  0.55897529131E+03  0.00000000000E+00 0.  1.
          2   -1    0    0  501    0  0.00000000000E+00 -0.00000000000E+00 -0.11310812556E+04  0.11310812556E+04  0.00000000000E+00 0. -1.
         23    2    1    2    0    0 -0.69461459497E+02  0.51969910099E+03 -0.81894739469E+02  0.53962828424E+03  0.97876896483E+02 0.  0.
        254    2    1    2    0    0  0.69461459497E+02 -0.51969910099E+03 -0.49021122481E+03  0.11504282627E+04  0.89903620210E+03 0.  0.
        -24    2    4    4    0    0 -0.82560260216E+02 -0.18519263881E+03 -0.69116910254E+03  0.72481108774E+03  0.80770505585E+02 0.  0.
         24    2    4    4    0    0  0.15202171971E+03 -0.33450646218E+03  0.20095787773E+03  0.42561717492E+03  0.75899502376E+02 0.  0.
         11    1    3    3    0    0 -0.11887500669E+02  0.11491773806E+03 -0.60012055727E+02  0.13018773378E+03  0.00000000000E+00 0. -1.
        -11    1    3    3    0    0 -0.57573958827E+02  0.40478136293E+03 -0.21882683742E+02  0.40944055046E+03  0.00000000000E+00 0.  1.
          4    1    6    6  502    0  0.98532221737E+02 -0.28120402875E+03  0.14345246379E+03  0.33070064087E+03  0.00000000000E+00 0. -1.
          1    1    5    5  503    0 -0.16478130666E+02 -0.11849077903E+03 -0.45999290442E+03  0.47529471449E+03  0.00000000000E+00 0. -1.
         -2    1    5    5    0  503 -0.66082129550E+02 -0.66701859778E+02 -0.23117619812E+03  0.24951637325E+03  0.00000000000E+00 0.  1.
         -1    1    6    6    0  502  0.53489497976E+02 -0.53302433430E+02  0.57505413943E+02  0.94916534050E+02  0.00000000000E+00 0.  1.
<mgrwt>
<rscale>  0 0.15902786E+04</rscale>
<asrwt>0</asrwt>
<pdfrwt beam="1">  1        2 0.17401250E+00 0.15902786E+04</pdfrwt>
<pdfrwt beam="2">  1       -2 0.85996200E-01 0.15902786E+04</pdfrwt>
<totfact> 0.23478441E+01</totfact>
</mgrwt>
</event>
<event>
12    1  0.2048318E-007  0.4919823E+04  0.7818608E-02  0.7840996E-01
          2   -1    0    0  501    0  0.00000000000E+00  0.00000000000E+00  0.19819879216E+04  0.19819879216E+04  0.00000000000E+00 0. -1.
         -2   -1    0    0    0  501 -0.00000000000E+00 -0.00000000000E+00 -0.30530780431E+04  0.30530780431E+04  0.00000000000E+00 0.  1.
         23    2    1    2    0    0  0.31404136331E+03  0.23295855025E+04 -0.16055426562E+03  0.23587903028E+04  0.11190812713E+03 0.  0.
        254    2    1    2    0    0 -0.31404136331E+03 -0.23295855025E+04 -0.91053585593E+03  0.26762756619E+04  0.89876875889E+03 0.  0.
        -24    2    4    4    0    0  0.19522408380E+03 -0.26967676184E+03 -0.32872549326E+03  0.47462728484E+03  0.79828634094E+02 0.  0.
         24    2    4    4    0    0 -0.50926544712E+03 -0.20599087407E+04 -0.58181036267E+03  0.22016483771E+04  0.78593653785E+02 0.  0.
         13    1    3    3    0    0  0.20083687639E+03  0.18238004486E+04 -0.13778869650E+03  0.18399916446E+04  0.00000000000E+00 0. -1.
        -13    1    3    3    0    0  0.11320448692E+03  0.50578505390E+03 -0.22765569128E+02  0.51879865820E+03  0.00000000000E+00 0.  1.
          2    1    6    6  502    0 -0.34476385463E+03 -0.12748250861E+04 -0.38787684306E+03  0.13764045775E+04  0.00000000000E+00 0. -1.
          3    1    5    5  503    0 -0.62646905049E+01 -0.14204817962E+02 -0.25589487659E+02  0.29930671210E+02  0.00000000000E+00 0. -1.
         -4    1    5    5    0  503  0.20148877431E+03 -0.25547194388E+03 -0.30313600560E+03  0.44469661363E+03  0.00000000000E+00 0.  1.
         -1    1    6    6    0  502 -0.16450159249E+03 -0.78508365457E+03 -0.19393351961E+03  0.82524379951E+03  0.00000000000E+00 0.  1.
<mgrwt>
<rscale>  0 0.49198227E+04</rscale>
<asrwt>0</asrwt>
<pdfrwt beam="1">  1        2 0.30492122E+00 0.49198227E+04</pdfrwt>
<pdfrwt beam="2">  1       -2 0.46970431E+00 0.49198227E+04</pdfrwt>
<totfact> 0.12951076E-02</totfact>
</mgrwt>
</event>
<event>
12    1  0.2048318E-007  0.1819744E+04  0.7818608E-02  0.8695870E-01
          1   -1    0    0  501    0  0.00000000000E+00  0.00000000000E+00  0.76572204722E+03  0.76572204722E+03  0.00000000000E+00 0. -1.
         -1   -1    0    0    0  501 -0.00000000000E+00 -0.00000000000E+00 -0.10811589488E+04  0.10811589488E+04  0.00000000000E+00 0.  1.
         23    2    1    2    0    0 -0.53652085803E+03 -0.41909787976E+03 -0.62526115367E+02  0.68984649086E+03  0.92092355460E+02 0.  0.
        254    2    1    2    0    0  0.53652085803E+03  0.41909787976E+03 -0.25291078625E+03  0.11570345052E+04  0.90070378955E+03 0.  0.
        -24    2    4    4    0    0 -0.22278135372E+03  0.37228504428E+02  0.60104923415E+02  0.24750554511E+03  0.81418056539E+02 0.  0.
         24    2    4    4    0    0  0.75930221175E+03  0.38186937533E+03 -0.31301570966E+03  0.90952896009E+03  0.83066396112E+02 0.  0.
         13    1    3    3    0    0 -0.44877872255E+03 -0.36565593904E+03 -0.21684611230E+02  0.57928993599E+03  0.00000000000E+00 0. -1.
        -13    1    3    3    0    0 -0.87742135475E+02 -0.53441940715E+02 -0.40841504137E+02  0.11055655487E+03  0.00000000000E+00 0.  1.
          2    1    6    6  502    0  0.38955212063E+03  0.23379306886E+03 -0.14127874204E+03  0.47578328752E+03  0.00000000000E+00 0. -1.
          1    1    5    5  503    0 -0.12318270696E+03 -0.20138870730E+02  0.37863810310E+02  0.13043474054E+03  0.00000000000E+00 0. -1.
         -2    1    5    5    0  503 -0.99598646760E+02  0.57367375158E+02  0.22241113105E+02  0.11707080456E+03  0.00000000000E+00 0.  1.
         -1    1    6    6    0  502  0.36975009113E+03  0.14807630647E+03 -0.17173696763E+03  0.43374567257E+03  0.00000000000E+00 0.  1.
<mgrwt>
<rscale>  0 0.18197442E+04</rscale>
<asrwt>0</asrwt>
<pdfrwt beam="1">  1        1 0.11780339E+00 0.18197442E+04</pdfrwt>
<pdfrwt beam="2">  1       -1 0.16633215E+00 0.18197442E+04</pdfrwt>
<totfact> 0.58495839E+00</totfact>
</mgrwt>
</event>
<event>
12    1  0.2048318E-007  0.3267944E+04  0.7818608E-02  0.8171100E-01
          2   -1    0    0  501    0  0.00000000000E+00  0.00000000000E+00  0.48966698051E+04  0.48966698051E+04  0.00000000000E+00 0. -1.
         -2   -1    0    0    0  501 -0.00000000000E+00 -0.00000000000E+00 -0.54524093266E+03  0.54524093266E+03  0.00000000000E+00 0.  1.
         23    2    1    2    0    0 -0.69867077998E+03 -0.12864376718E+04  0.14074221502E+04  0.20328361347E+04  0.92319549751E+02 0.  0.
        254    2    1    2    0    0  0.69867077998E+03  0.12864376718E+04  0.29440067222E+04  0.34090746031E+04  0.90086143608E+03 0.  0.
        -24    2    4    4    0    0  0.91556785737E+02  0.74424190922E+03  0.21137501776E+04  0.22442281230E+04  0.79632848136E+02 0.  0.
         24    2    4    4    0    0  0.60711399424E+03  0.54219576255E+03  0.83025654465E+03  0.11648464801E+04  0.70553138430E+02 0.  0.
         11    1    3    3    0    0 -0.12026378240E+03 -0.26835318613E+03  0.24276712736E+03  0.38133015615E+03  0.00000000000E+00 0. -1.
        -11    1    3    3    0    0 -0.57840699758E+03 -0.10180844856E+04  0.11646550229E+04  0.16515059785E+04  0.00000000000E+00 0.  1.
          2    1    6    6  502    0  0.42196572092E+03  0.39915006978E+03  0.62975127869E+03  0.85671612618E+03  0.00000000000E+00 0. -1.
          3    1    5    5  503    0  0.47815575538E+01  0.33910644668E+03  0.99628116600E+03  0.10524220670E+04  0.00000000000E+00 0. -1.
         -4    1    5    5    0  503  0.86775228184E+02  0.40513546254E+03  0.11174690116E+04  0.11918060560E+04  0.00000000000E+00 0.  1.
         -1    1    6    6    0  502  0.18514827332E+03  0.14304569277E+03  0.20050526596E+03  0.30813035392E+03  0.00000000000E+00 0.  1.
<mgrwt>
<rscale>  0 0.32679442E+04</rscale>
<asrwt>0</asrwt>
<pdfrwt beam="1">  1        2 0.75333379E+00 0.32679442E+04</pdfrwt>
<pdfrwt beam="2">  1       -2 0.83883223E-01 0.32679442E+04</pdfrwt>
<totfact> 0.47592236E-02</totfact>
</mgrwt>
</event>
<event>
12    1  0.2048318E-007  0.1551477E+04  0.7818608E-02  0.8850925E-01
         -1   -1    0    0    0  501 -0.00000000000E+00  0.00000000000E+00  0.63441512521E+03  0.63441512521E+03  0.00000000000E+00 0.  1.
          1   -1    0    0  501    0  0.00000000000E+00 -0.00000000000E+00 -0.94854324867E+03  0.94854324867E+03  0.00000000000E+00 0. -1.
         23    2    1    2    0    0 -0.29122662580E+03  0.39150837143E+03  0.42510842140E+02  0.49812225605E+03  0.90702027558E+02 0.  0.
        254    2    1    2    0    0  0.29122662580E+03 -0.39150837143E+03 -0.35663896560E+03  0.10848361178E+04  0.90088084578E+03 0.  0.
        -24    2    4    4    0    0  0.55447397716E+02 -0.53609049499E+03 -0.52050716706E+03  0.75349047265E+03  0.79704132103E+02 0.  0.
         24    2    4    4    0    0  0.23577922808E+03  0.14458212357E+03  0.16386820146E+03  0.33134564518E+03  0.80257798889E+02 0.  0.
         13    1    3    3    0    0 -0.25539228085E+03  0.31878793376E+03  0.42955531897E+01  0.40849653072E+03  0.00000000000E+00 0. -1.
        -13    1    3    3    0    0 -0.35834344941E+02  0.72720437662E+02  0.38215288950E+02  0.89625725329E+02  0.00000000000E+00 0.  1.
          4    1    6    6  502    0  0.23341855929E+03  0.12433084436E+03  0.13768396200E+03  0.29815978279E+03  0.00000000000E+00 0. -1.
          3    1    5    5  503    0  0.87595579298E+01 -0.39912462014E+03 -0.36263859871E+03  0.53933657907E+03  0.00000000000E+00 0. -1.
         -2    1    5    5    0  503  0.46687839787E+02 -0.13696587486E+03 -0.15786856835E+03  0.21415389357E+03  0.00000000000E+00 0.  1.
         -3    1    6    6    0  502  0.23606687879E+01  0.20251279205E+02  0.26184239462E+02  0.33185862393E+02  0.00000000000E+00 0.  1.
<mgrwt>
<rscale>  0 0.15514770E+04</rscale>
<asrwt>0</asrwt>
<pdfrwt beam="1">  1        1 0.14592973E+00 0.15514770E+04</pdfrwt>
<pdfrwt beam="2">  1       -1 0.97602328E-01 0.15514770E+04</pdfrwt>
<totfact> 0.16131844E+01</totfact>
</mgrwt>
</event>
<event>
12    1  0.2048318E-007  0.1379617E+04  0.7818608E-02  0.8968707E-01
         -2   -1    0    0    0  501 -0.00000000000E+00  0.00000000000E+00  0.65944537526E+03  0.65944537526E+03  0.00000000000E+00 0.  1.
          2   -1    0    0  501    0  0.00000000000E+00 -0.00000000000E+00 -0.72156938246E+03  0.72156938246E+03  0.00000000000E+00 0. -1.
         23    2    1    2    0    0 -0.67316828436E+02  0.26636914606E+03  0.25830269393E+03  0.38774170545E+03  0.90217908901E+02 0.  0.
        254    2    1    2    0    0  0.67316828436E+02 -0.26636914606E+03 -0.32042670112E+03  0.99327305227E+03  0.89912958366E+03 0.  0.
        -24    2    4    4    0    0  0.43222288688E+03 -0.84441001751E+02  0.31751116953E+02  0.44848169533E+03  0.78618006223E+02 0.  0.
         24    2    4    4    0    0 -0.36490605844E+03 -0.18192814431E+03 -0.35217781808E+03  0.54479135694E+03  0.80710134857E+02 0.  0.
         11    1    3    3    0    0 -0.31093180608E+02  0.11746587975E+03  0.17577582718E+03  0.21368706139E+03  0.00000000000E+00 0.  1.
        -11    1    3    3    0    0 -0.36223647828E+02  0.14890326632E+03  0.82526866750E+02  0.17405464406E+03  0.00000000000E+00 0. -1.
          2    1    6    6  502    0 -0.16237120991E+03 -0.37362241839E+02 -0.14962127105E+03  0.22393497198E+03  0.00000000000E+00 0. -1.
          1    1    5    5  503    0  0.26918975891E+03 -0.35568592995E+02 -0.15103976430E+02  0.27194922544E+03  0.00000000000E+00 0. -1.
         -2    1    5    5    0  503  0.16303312797E+03 -0.48872408756E+02  0.46855093384E+02  0.17653246990E+03  0.00000000000E+00 0.  1.
         -1    1    6    6    0  502 -0.20253484853E+03 -0.14456590247E+03 -0.20255654703E+03  0.32085638496E+03  0.00000000000E+00 0.  1.
<mgrwt>
<rscale>  0 0.13796167E+04</rscale>
<asrwt>0</asrwt>
<pdfrwt beam="1">  1        2 0.11101067E+00 0.13796167E+04</pdfrwt>
<pdfrwt beam="2">  1       -2 0.10145313E+00 0.13796167E+04</pdfrwt>
<totfact> 0.30671444E+01</totfact>
</mgrwt>
</event>
<event>
12    1  0.2048318E-007  0.2642157E+04  0.7818608E-02  0.8354021E-01
         -1   -1    0    0    0  501 -0.00000000000E+00  0.00000000000E+00  0.72155857807E+03  0.72155857807E+03  0.00000000000E+00 0. -1.
          1   -1    0    0  501    0  0.00000000000E+00 -0.00000000000E+00 -0.24187199815E+04  0.24187199815E+04  0.00000000000E+00 0.  1.
         23    2    1    2    0    0  0.54517697945E+03 -0.48930316317E+03 -0.18308023865E+04  0.19738796414E+04  0.87908679340E+02 0.  0.
        254    2    1    2    0    0 -0.54517697945E+03  0.48930316317E+03  0.13364098306E+03  0.11663989182E+04  0.89777001486E+03 0.  0.
        -24    2    4    4    0    0  0.21229026898E+03  0.18290358466E+03  0.18220050042E+03  0.34419191977E+03  0.82159452878E+02 0.  0.
         24    2    4    4    0    0 -0.75746724843E+03  0.30639957851E+03 -0.48559517359E+02  0.82220699841E+03  0.77646554041E+02 0.  0.
         11    1    3    3    0    0  0.20341360211E+03 -0.12938058420E+03 -0.62949013733E+03  0.67407289078E+03  0.00000000000E+00 0.  1.
        -11    1    3    3    0    0  0.34176337734E+03 -0.35992257896E+03 -0.12013122491E+04  0.12998067506E+04  0.00000000000E+00 0. -1.
          2    1    6    6  502    0 -0.64835657263E+03  0.24379617163E+03 -0.63238289109E+02  0.69555869615E+03  0.00000000000E+00 0. -1.
          3    1    5    5  503    0  0.68679423239E+02  0.21112510786E+02  0.70748513827E+02  0.10083627074E+03  0.00000000000E+00 0. -1.
         -4    1    5    5    0  503  0.14361084574E+03  0.16179107387E+03  0.11145198659E+03  0.24335564903E+03  0.00000000000E+00 0.  1.
         -1    1    6    6    0  502 -0.10911067579E+03  0.62603406881E+02  0.14678771750E+02  0.12664830226E+03  0.00000000000E+00 0.  1.
<mgrwt>
<rscale>  0 0.26421568E+04</rscale>
<asrwt>0</asrwt>
<pdfrwt beam="1">  1        1 0.37211076E+00 0.26421568E+04</pdfrwt>
<pdfrwt beam="2">  1       -1 0.11100901E+00 0.26421568E+04</pdfrwt>
<totfact> 0.10102757E+00</totfact>
</mgrwt>
</event>
<event>
12    1  0.2048318E-007  0.2430559E+04  0.7818608E-02  0.8428151E-01
         -2   -1    0    0    0  501 -0.00000000000E+00  0.00000000000E+00  0.36420125627E+03  0.36420125627E+03  0.00000000000E+00 0.  1.
          2   -1    0    0  501    0  0.00000000000E+00 -0.00000000000E+00 -0.40551869685E+04  0.40551869685E+04  0.00000000000E+00 0. -1.
         23    2    1    2    0    0  0.63509807255E+03  0.61303106312E+03 -0.57276842129E+03  0.10557888010E+04  0.86427321319E+02 0.  0.
        254    2    1    2    0    0 -0.63509807255E+03 -0.61303106312E+03 -0.31182172910E+04  0.33635994238E+04  0.90075821597E+03 0.  0.
        -24    2    4    4    0    0 -0.39910640815E+03 -0.79074924547E+03 -0.17670665261E+04  0.19782146051E+04  0.78984947852E+02 0.  0.
         24    2    4    4    0    0 -0.23599166440E+03  0.17771818235E+03 -0.13511507649E+04  0.13853848186E+04  0.80043040270E+02 0.  0.
         11    1    3    3    0    0  0.12910454626E+03  0.17110608180E+03 -0.15754421300E+03  0.26601777036E+03  0.00000000000E+00 0.  1.
        -11    1    3    3    0    0  0.50599352630E+03  0.44192498132E+03 -0.41522420828E+03  0.78977103069E+03  0.00000000000E+00 0. -1.
          4    1    6    6  502    0 -0.76682817794E+02  0.18153839157E+02 -0.28795819111E+03  0.29854603706E+03  0.00000000000E+00 0. -1.
          1    1    5    5  503    0 -0.24826038288E+03 -0.54411650743E+03 -0.11262129486E+04  0.12751672820E+04  0.00000000000E+00 0. -1.
         -2    1    5    5    0  503 -0.15084602527E+03 -0.24663273804E+03 -0.64085357747E+03  0.70304732314E+03  0.00000000000E+00 0.  1.
         -3    1    6    6    0  502 -0.15930884661E+03  0.15956434319E+03 -0.10631925738E+04  0.10868387816E+04  0.00000000000E+00 0.  1.
<mgrwt>
<rscale>  0 0.24305589E+04</rscale>
<asrwt>0</asrwt>
<pdfrwt beam="1">  1        2 0.62387494E+00 0.24305589E+04</pdfrwt>
<pdfrwt beam="2">  1       -2 0.56030961E-01 0.24305589E+04</pdfrwt>
<totfact> 0.83100882E-01</totfact>
</mgrwt>
</event>
<event>
12    1  0.2048318E-007  0.1689738E+04  0.7818608E-02  0.8767239E-01
          1   -1    0    0  501    0  0.00000000000E+00  0.00000000000E+00  0.29717050810E+04  0.29717050810E+04  0.00000000000E+00 0. -1.
         -1   -1    0    0    0  501 -0.00000000000E+00 -0.00000000000E+00 -0.24019997812E+03  0.24019997812E+03  0.00000000000E+00 0.  1.
         23    2    1    2    0    0 -0.35558029946E+03 -0.43377927463E+03  0.13964224289E+04  0.15076155844E+04  0.91144621046E+02 0.  0.
        254    2    1    2    0    0  0.35558029946E+03  0.43377927463E+03  0.13350826739E+04  0.17042894747E+04  0.89864067278E+03 0.  0.
        -24    2    4    4    0    0 -0.27556002707E+03 -0.12104093268E+01  0.36163278404E+03  0.46273766401E+03  0.86099254299E+02 0.  0.
         24    2    4    4    0    0  0.63114032653E+03  0.43498968396E+03  0.97344988987E+03  0.12415518106E+04  0.79322591338E+02 0.  0.
         13    1    3    3    0    0 -0.24391322348E+03 -0.33011621071E+03  0.11049332338E+04  0.11787059957E+04  0.00000000000E+00 0. -1.
        -13    1    3    3    0    0 -0.11166707599E+03 -0.10366306392E+03  0.29148919517E+03  0.32890958877E+03  0.00000000000E+00 0.  1.
          2    1    6    6  502    0  0.57814344323E+03  0.41054254980E+03  0.92616315815E+03  0.11664361198E+04  0.00000000000E+00 0. -1.
          1    1    5    5  503    0 -0.22166513854E+03  0.17274477895E+02  0.23304888802E+03  0.32209567746E+03  0.00000000000E+00 0. -1.
         -2    1    5    5    0  503 -0.53894888533E+02 -0.18484887222E+02  0.12858389602E+03  0.14064198655E+03  0.00000000000E+00 0.  1.
         -1    1    6    6    0  502  0.52996883303E+02  0.24447134160E+02  0.47286731715E+02  0.75115690803E+02  0.00000000000E+00 0.  1.
<mgrwt>
<rscale>  0 0.16897378E+04</rscale>
<asrwt>0</asrwt>
<pdfrwt beam="1">  1        1 0.45718537E+00 0.16897378E+04</pdfrwt>
<pdfrwt beam="2">  1       -1 0.36953845E-01 0.16897378E+04</pdfrwt>
<totfact> 0.42170381E+00</totfact>
</mgrwt>
</event>
<event>
12    1  0.2048318E-007  0.1280322E+04  0.7818608E-02  0.9045318E-01
         -1   -1    0    0    0  501 -0.00000000000E+00  0.00000000000E+00  0.18242682214E+03  0.18242682214E+03  0.00000000000E+00 0.  1.
          1   -1    0    0  501    0  0.00000000000E+00 -0.00000000000E+00 -0.22464121194E+04  0.22464121194E+04  0.00000000000E+00 0. -1.
         23    2    1    2    0    0  0.15125121540E+02 -0.30199026228E+03 -0.37741660856E+03  0.49275240353E+03  0.94523790431E+02 0.  0.
        254    2    1    2    0    0 -0.15125121540E+02  0.30199026228E+03 -0.16865686887E+04  0.19360865380E+04  0.90138241226E+03 0.  0.
        -24    2    4    4    0    0 -0.53562429925E+02  0.40779605637E+03 -0.23968766771E+03  0.48258774280E+03  0.79209809738E+02 0.  0.
         24    2    4    4    0    0  0.38437308385E+02 -0.10580579410E+03 -0.14468810210E+04  0.14534987952E+04  0.80757451726E+02 0.  0.
         13    1    3    3    0    0  0.54174135443E+02 -0.20115036500E+03 -0.23741794728E+03  0.31585374460E+03  0.00000000000E+00 0.  1.
        -13    1    3    3    0    0 -0.39049013903E+02 -0.10083989728E+03 -0.13999866128E+03  0.17689865893E+03  0.00000000000E+00 0. -1.
          2    1    6    6  502    0 -0.12787867090E+01 -0.11682161050E+02 -0.64871691109E+03  0.64882334955E+03  0.00000000000E+00 0. -1.
          3    1    5    5  503    0  0.98924659739E+01  0.59102216965E+01 -0.10623585458E+02  0.15673294852E+02  0.00000000000E+00 0. -1.
         -4    1    5    5    0  503 -0.63454895899E+02  0.40188583468E+03 -0.22906408226E+03  0.46691444795E+03  0.00000000000E+00 0.  1.
         -1    1    6    6    0  502  0.39716095094E+02 -0.94123633047E+02 -0.79816410994E+03  0.80467544570E+03  0.00000000000E+00 0.  1.
<mgrwt>
<rscale>  0 0.12803216E+04</rscale>
<asrwt>0</asrwt>
<pdfrwt beam="1">  1        1 0.34560189E+00 0.12803216E+04</pdfrwt>
<pdfrwt beam="2">  1       -1 0.28065663E-01 0.12803216E+04</pdfrwt>
<totfact> 0.22915245E+01</totfact>
</mgrwt>
</event>
<event>
12    1  0.2048318E-007  0.1073350E+04  0.7818608E-02  0.9231563E-01
          2   -1    0    0  501    0  0.00000000000E+00  0.00000000000E+00  0.30526673091E+04  0.30526673091E+04  0.00000000000E+00 0. -1.
         -2   -1    0    0    0  501 -0.00000000000E+00 -0.00000000000E+00 -0.94350355639E+02  0.94350355639E+02  0.00000000000E+00 0.  1.
         23    2    1    2    0    0  0.49465331790E+02 -0.96062195419E+02  0.20537178249E+03  0.24846145130E+03  0.88773640802E+02 0.  0.
        254    2    1    2    0    0 -0.49465331790E+02  0.96062195419E+02  0.27529451710E+04  0.28985562135E+04  0.90069209148E+03 0.  0.
        -24    2    4    4    0    0 -0.59373078251E+02  0.43816431928E+03  0.83320467173E+03  0.94690970517E+03  0.83035122948E+02 0.  0.
         24    2    4    4    0    0  0.99077464611E+01 -0.34210212386E+03  0.19197404993E+04  0.19516465083E+04  0.79927981538E+02 0.  0.
         13    1    3    3    0    0 -0.20724928517E+02 -0.53002108677E+02  0.95250366853E+02  0.11095665177E+03  0.00000000000E+00 0.  1.
        -13    1    3    3    0    0  0.70190260307E+02 -0.43060086742E+02  0.11012141564E+03  0.13750479953E+03  0.00000000000E+00 0. -1.
          4    1    6    6  502    0  0.17494439133E+02 -0.33652296566E+03  0.19013984057E+04  0.19310281352E+04  0.00000000000E+00 0. -1.
          1    1    5    5  503    0 -0.52906652562E+02  0.42479135956E+03  0.82614414595E+03  0.93046276816E+03  0.00000000000E+00 0. -1.
         -2    1    5    5    0  503 -0.64664256897E+01  0.13372959719E+02  0.70605257845E+01  0.16446937015E+02  0.00000000000E+00 0.  1.
         -3    1    6    6    0  502 -0.75866926722E+01 -0.55791581958E+01  0.18342093574E+02  0.20618373083E+02  0.00000000000E+00 0.  1.
<mgrwt>
<rscale>  0 0.10733504E+04</rscale>
<asrwt>0</asrwt>
<pdfrwt beam="1">  1        2 0.46964105E+00 0.10733504E+04</pdfrwt>
<pdfrwt beam="2">  1       -2 0.14515442E-01 0.10733504E+04</pdfrwt>
<totfact> 0.60826100E+01</totfact>
</mgrwt>
</event>
<event>
12    1  0.2048318E-007  0.1498321E+04  0.7818608E-02  0.8885570E-01
         -1   -1    0    0    0  501 -0.00000000000E+00  0.00000000000E+00  0.50313514000E+03  0.50313514000E+03  0.00000000000E+00 0.  1.
          1   -1    0    0  501    0  0.00000000000E+00 -0.00000000000E+00 -0.11154882933E+04  0.11154882933E+04  0.00000000000E+00 0. -1.
         23    2    1    2    0    0 -0.32139981414E+03 -0.45437180677E+02  0.17403264910E+03  0.37925836092E+03  0.90482945664E+02 0.  0.
        254    2    1    2    0    0  0.32139981414E+03  0.45437180677E+02 -0.78638580241E+03  0.12393650724E+04  0.90125511068E+03 0.  0.
        -24    2    4    4    0    0  0.15153529177E+02 -0.17924834427E+03 -0.82665371688E+03  0.84970889424E+03  0.79304722097E+02 0.  0.
         24    2    4    4    0    0  0.30624628497E+03  0.22468552495E+03  0.40267914463E+02  0.38965617816E+03  0.77071785158E+02 0.  0.
         11    1    3    3    0    0 -0.20852411525E+03 -0.24285382955E+02  0.62180607471E+02  0.21894865702E+03  0.00000000000E+00 0. -1.
        -11    1    3    3    0    0 -0.11287569890E+03 -0.21151797722E+02  0.11185204163E+03  0.16030970390E+03  0.00000000000E+00 0.  1.
          4    1    6    6  502    0  0.19319814841E+03  0.18381688003E+03  0.38478665145E+02  0.26943418047E+03  0.00000000000E+00 0. -1.
          3    1    5    5  503    0  0.15429547108E+02 -0.88298405132E+02 -0.24287688067E+03  0.25888966460E+03  0.00000000000E+00 0. -1.
         -4    1    5    5    0  503 -0.27601793175E+00 -0.90949939138E+02 -0.58377683621E+03  0.59081922964E+03  0.00000000000E+00 0.  1.
         -3    1    6    6    0  502  0.11304813655E+03  0.40868644913E+02  0.17892493180E+01  0.12022199769E+03  0.00000000000E+00 0.  1.
<mgrwt>
<rscale>  0 0.14983209E+04</rscale>
<asrwt>0</asrwt>
<pdfrwt beam="1">  1        1 0.17161358E+00 0.14983209E+04</pdfrwt>
<pdfrwt beam="2">  1       -1 0.77405406E-01 0.14983209E+04</pdfrwt>
<totfact> 0.19981317E+01</totfact>
</mgrwt>
</event>
<event>
12    1  0.2048318E-007  0.1554621E+04  0.7818608E-02  0.8848921E-01
         -2   -1    0    0    0  501 -0.00000000000E+00  0.00000000000E+00  0.13626429028E+04  0.13626429028E+04  0.00000000000E+00 0.  1.
          2   -1    0    0  501    0  0.00000000000E+00 -0.00000000000E+00 -0.44341183326E+03  0.44341183326E+03  0.00000000000E+00 0. -1.
         23    2    1    2    0    0  0.29939497837E+03 -0.22288571240E+03 -0.97846852523E+02  0.39682305957E+03  0.92623648139E+02 0.  0.
        254    2    1    2    0    0 -0.29939497837E+03  0.22288571240E+03  0.10170779221E+04  0.14092316765E+04  0.90120531767E+03 0.  0.
        -24    2    4    4    0    0  0.20748340070E+03 -0.20855405421E+03  0.30288664979E+03  0.42969863756E+03  0.79727293993E+02 0.  0.
         24    2    4    4    0    0 -0.50687837907E+03  0.43143976661E+03  0.71419127227E+03  0.97953303893E+03  0.79685868136E+02 0.  0.
         11    1    3    3    0    0  0.44266599213E+02 -0.33682380074E+01  0.55264168212E+01  0.44737211760E+02  0.00000000000E+00 0.  1.
        -11    1    3    3    0    0  0.25512837916E+03 -0.21951747439E+03 -0.10337326934E+03  0.35208584781E+03  0.00000000000E+00 0. -1.
          2    1    6    6  502    0 -0.30849325301E+03  0.27827629032E+03  0.49798859026E+03  0.64853559419E+03  0.00000000000E+00 0. -1.
          3    1    5    5  503    0  0.19684291623E+03 -0.17440459271E+03  0.23374768519E+03  0.35185519174E+03  0.00000000000E+00 0. -1.
         -4    1    5    5    0  503  0.10640484475E+02 -0.34149461497E+02  0.69138964597E+02  0.77843445813E+02  0.00000000000E+00 0.  1.
         -1    1    6    6    0  502 -0.19838512606E+03  0.15316347629E+03  0.21620268201E+03  0.33099744474E+03  0.00000000000E+00 0.  1.
<mgrwt>
<rscale>  0 0.15546215E+04</rscale>
<asrwt>0</asrwt>
<pdfrwt beam="1">  1        2 0.68217206E-01 0.15546215E+04</pdfrwt>
<pdfrwt beam="2">  1       -2 0.20963737E+00 0.15546215E+04</pdfrwt>
<totfact> 0.78288125E+00</totfact>
</mgrwt>
</event>
<event>
12    1  0.2048318E-007  0.2849058E+04  0.7818608E-02  0.8288198E-01
         -4   -1    0    0    0  501 -0.00000000000E+00  0.00000000000E+00  0.21471096661E+04  0.21471096661E+04  0.00000000000E+00 0. -1.
          4   -1    0    0  501    0  0.00000000000E+00 -0.00000000000E+00 -0.94512305322E+03  0.94512305322E+03  0.00000000000E+00 0.  1.
         23    2    1    2    0    0 -0.71154001918E+03 -0.29840845023E+03  0.16504061110E+04  0.18241570891E+04  0.91498372760E+02 0.  0.
        254    2    1    2    0    0  0.71154001918E+03  0.29840845023E+03 -0.44841949819E+03  0.12680756302E+04  0.90088787067E+03 0.  0.
        -24    2    4    4    0    0 -0.19458333009E+03 -0.43672049042E+02 -0.80178511656E+02  0.22886692447E+03  0.78622866706E+02 0.  0.
         24    2    4    4    0    0  0.90612334927E+03  0.34208049928E+03 -0.36824098653E+03  0.10392087057E+04  0.79213116707E+02 0.  0.
         11    1    3    3    0    0 -0.52903746851E+03 -0.21240873913E+03  0.13061196606E+04  0.14251128669E+04  0.00000000000E+00 0. -1.
        -11    1    3    3    0    0 -0.18250255068E+03 -0.85999711104E+02  0.34428645039E+03  0.39904422215E+03  0.00000000000E+00 0.  1.
          4    1    6    6  502    0  0.63822334452E+03  0.25028190831E+03 -0.29751734953E+03  0.74731964004E+03  0.00000000000E+00 0. -1.
          1    1    5    5  503    0 -0.14400974889E+03 -0.28671933334E+02 -0.18958787327E+02  0.14805513552E+03  0.00000000000E+00 0. -1.
         -4    1    5    5    0  503 -0.50573581196E+02 -0.15000115709E+02 -0.61219724329E+02  0.80811788949E+02  0.00000000000E+00 0.  1.
         -3    1    6    6    0  502  0.26790000475E+03  0.91798590966E+02 -0.70723637008E+02  0.29188906571E+03  0.00000000000E+00 0.  1.
<mgrwt>
<rscale>  0 0.28490580E+04</rscale>
<asrwt>0</asrwt>
<pdfrwt beam="1">  1        4 0.14540355E+00 0.28490580E+04</pdfrwt>
<pdfrwt beam="2">  1       -4 0.33032456E+00 0.28490580E+04</pdfrwt>
<totfact> 0.11077938E-02</totfact>
</mgrwt>
</event>
<event>
12    1  0.2048318E-007  0.1626596E+04  0.7818608E-02  0.8804374E-01
         -2   -1    0    0    0  501 -0.00000000000E+00  0.00000000000E+00  0.58159469157E+03  0.58159469157E+03  0.00000000000E+00 0.  1.
          2   -1    0    0  501    0  0.00000000000E+00 -0.00000000000E+00 -0.11373106153E+04  0.11373106153E+04  0.00000000000E+00 0. -1.
         23    2    1    2    0    0 -0.42050596495E+03  0.24670585941E+03  0.95988152622E+02  0.50448885474E+03  0.87213711558E+02 0.  0.
        254    2    1    2    0    0  0.42050596495E+03 -0.24670585941E+03 -0.65170407640E+03  0.12144164522E+04  0.90133238515E+03 0.  0.
        -24    2    4    4    0    0  0.64921933011E+03 -0.13519289026E+03 -0.21430396698E+03  0.70178435180E+03  0.82536234480E+02 0.  0.
         24    2    4    4    0    0 -0.22871336516E+03 -0.11151296915E+03 -0.43740010941E+03  0.51263210038E+03  0.82023587694E+02 0.  0.
         11    1    3    3    0    0 -0.15868407525E+03  0.70619758632E+02 -0.32659289928E+01  0.17371946448E+03  0.00000000000E+00 0. -1.
        -11    1    3    3    0    0 -0.26182188970E+03  0.17608610078E+03  0.99254081614E+02  0.33076939026E+03  0.00000000000E+00 0.  1.
          4    1    6    6  502    0 -0.52366069636E+02 -0.48869410603E+02 -0.69162134701E+02  0.99568194813E+02  0.00000000000E+00 0. -1.
          1    1    5    5  503    0  0.60191568481E+02  0.10415395813E+02 -0.26879235655E+02  0.66738285081E+02  0.00000000000E+00 0. -1.
         -2    1    5    5    0  503  0.58902776163E+03 -0.14560828607E+03 -0.18742473133E+03  0.63504606672E+03  0.00000000000E+00 0.  1.
         -3    1    6    6    0  502 -0.17634729552E+03 -0.62643558547E+02 -0.36823797471E+03  0.41306390557E+03  0.00000000000E+00 0.  1.
<mgrwt>
<rscale>  0 0.16265962E+04</rscale>
<asrwt>0</asrwt>
<pdfrwt beam="1">  1        2 0.17497086E+00 0.16265962E+04</pdfrwt>
<pdfrwt beam="2">  1       -2 0.89476107E-01 0.16265962E+04</pdfrwt>
<totfact> 0.21188662E+01</totfact>
</mgrwt>
</event>
<event>
12    1  0.2048318E-007  0.2717683E+04  0.7818608E-02  0.8329290E-01
          1   -1    0    0  501    0  0.00000000000E+00  0.00000000000E+00  0.12241443984E+04  0.12241443984E+04  0.00000000000E+00 0. -1.
         -1   -1    0    0    0  501 -0.00000000000E+00 -0.00000000000E+00 -0.15083598883E+04  0.15083598883E+04  0.00000000000E+00 0.  1.
         23    2    1    2    0    0 -0.10470087313E+04  0.20889270157E+03 -0.69233778058E+03  0.12777447222E+04  0.11591604111E+03 0.  0.
        254    2    1    2    0    0  0.10470087313E+04 -0.20889270157E+03  0.40812229068E+03  0.14547595644E+04  0.89994341045E+03 0.  0.
        -24    2    4    4    0    0  0.18460617570E+03  0.14025240716E+03  0.45800796430E+03  0.51963438752E+03  0.80612799936E+02 0.  0.
         24    2    4    4    0    0  0.86240255560E+03 -0.34914510873E+03 -0.49885673624E+02  0.93512517692E+03  0.79561556201E+02 0.  0.
         13    1    3    3    0    0 -0.11463789601E+03  0.60908724620E+02 -0.79240070594E+02  0.15208783227E+03  0.00000000000E+00 0. -1.
        -13    1    3    3    0    0 -0.93237083529E+03  0.14798397695E+03 -0.61309770998E+03  0.11256568900E+04  0.00000000000E+00 0.  1.
          4    1    6    6  502    0  0.42939902151E+03 -0.20953606332E+03 -0.34535228829E+01  0.47780833848E+03  0.00000000000E+00 0. -1.
          3    1    5    5  503    0  0.16557997728E+03  0.14312964721E+03  0.37296469535E+03  0.43244131251E+03  0.00000000000E+00 0. -1.
         -4    1    5    5    0  503  0.19026198419E+02 -0.28772400510E+01  0.85043268956E+02  0.87193075020E+02  0.00000000000E+00 0.  1.
         -3    1    6    6    0  502  0.43300353410E+03 -0.13960904540E+03 -0.46432150742E+02  0.45731683844E+03  0.00000000000E+00 0.  1.
<mgrwt>
<rscale>  0 0.27176831E+04</rscale>
<asrwt>0</asrwt>
<pdfrwt beam="1">  1        1 0.18832991E+00 0.27176831E+04</pdfrwt>
<pdfrwt beam="2">  1       -1 0.23205537E+00 0.27176831E+04</pdfrwt>
<totfact> 0.81830102E-01</totfact>
</mgrwt>
</event>
<event>
12    1  0.2048318E-007  0.1351553E+04  0.7818608E-02  0.8989653E-01
         -1   -1    0    0    0  501 -0.00000000000E+00  0.00000000000E+00  0.16121261084E+03  0.16121261084E+03  0.00000000000E+00 0.  1.
          1   -1    0    0  501    0  0.00000000000E+00 -0.00000000000E+00 -0.28327434953E+04  0.28327434953E+04  0.00000000000E+00 0. -1.
         23    2    1    2    0    0 -0.14788219921E+03  0.33881995898E+03 -0.68021047007E+03  0.77727632419E+03  0.69311551040E+02 0.  0.
        254    2    1    2    0    0  0.14788219921E+03 -0.33881995898E+03 -0.19913204144E+04  0.22166797819E+04  0.90091295555E+03 0.  0.
        -24    2    4    4    0    0  0.14266560616E+03 -0.53329283281E+03 -0.19166813938E+04  0.19962002970E+04  0.79958360479E+02 0.  0.
         24    2    4    4    0    0  0.52165930502E+01  0.19447287383E+03 -0.74639020530E+02  0.22047948496E+03  0.72064612709E+02 0.  0.
         11    1    3    3    0    0 -0.85731130059E+02  0.14020451660E+03 -0.24707039504E+03  0.29673374133E+03  0.00000000000E+00 0.  1.
        -11    1    3    3    0    0 -0.62151069149E+02  0.19861544238E+03 -0.43314007503E+03  0.48054258286E+03  0.00000000000E+00 0. -1.
          4    1    6    6  502    0  0.98278035482E+01  0.26270527336E+02  0.12822785892E+02  0.30840722546E+02  0.00000000000E+00 0. -1.
          1    1    5    5  503    0  0.37471647410E+02 -0.13244344406E+03 -0.61172737560E+03  0.62702134916E+03  0.00000000000E+00 0. -1.
         -2    1    5    5    0  503  0.10519395875E+03 -0.40084938875E+03 -0.13049540182E+04  0.13691789478E+04  0.00000000000E+00 0.  1.
         -3    1    6    6    0  502 -0.46112104980E+01  0.16820234650E+03 -0.87461806423E+02  0.18963876242E+03  0.00000000000E+00 0.  1.
<mgrwt>
<rscale>  0 0.13515531E+04</rscale>
<asrwt>0</asrwt>
<pdfrwt beam="1">  1        1 0.43580664E+00 0.13515531E+04</pdfrwt>
<pdfrwt beam="2">  1       -1 0.24801943E-01 0.13515531E+04</pdfrwt>
<totfact> 0.11052046E+01</totfact>
</mgrwt>
</event>
<event>
12    1  0.2048318E-007  0.1723800E+04  0.7818608E-02  0.8747906E-01
         -1   -1    0    0    0  501 -0.00000000000E+00  0.00000000000E+00  0.90013292751E+03  0.90013292751E+03  0.00000000000E+00 0.  1.
          1   -1    0    0  501    0  0.00000000000E+00 -0.00000000000E+00 -0.82529072040E+03  0.82529072040E+03  0.00000000000E+00 0. -1.
         23    2    1    2    0    0 -0.42712187194E+03  0.45644399243E+03  0.21488486222E+02  0.63216389880E+03  0.91625477860E+02 0.  0.
        254    2    1    2    0    0  0.42712187194E+03 -0.45644399243E+03  0.53353720883E+02  0.10932597491E+04  0.89531896427E+03 0.  0.
        -24    2    4    4    0    0  0.31673116183E+02 -0.87908135397E+02  0.41869136299E+03  0.43630361806E+03  0.79544724092E+02 0.  0.
         24    2    4    4    0    0  0.39544875576E+03 -0.36853585703E+03 -0.36533764211E+03  0.65695613105E+03  0.76950432296E+02 0.  0.
         11    1    3    3    0    0 -0.34683190721E+03  0.40689035226E+03  0.39503450151E+02  0.53610880724E+03  0.00000000000E+00 0.  1.
        -11    1    3    3    0    0 -0.80289964728E+02  0.49553640167E+02 -0.18014963929E+02  0.96055091563E+02  0.00000000000E+00 0. -1.
          4    1    6    6  502    0  0.37355248024E+03 -0.31787217325E+03 -0.32146386576E+03  0.58644964917E+03  0.00000000000E+00 0. -1.
          3    1    5    5  503    0  0.53016288648E+02 -0.68949431606E+02  0.23848448946E+03  0.25384956705E+03  0.00000000000E+00 0. -1.
         -4    1    5    5    0  503 -0.21343172465E+02 -0.18958703791E+02  0.18020687353E+03  0.18245405101E+03  0.00000000000E+00 0.  1.
         -3    1    6    6    0  502  0.21896275518E+02 -0.50663683783E+02 -0.43873776348E+02  0.70506481880E+02  0.00000000000E+00 0.  1.
<mgrwt>
<rscale>  0 0.17237997E+04</rscale>
<asrwt>0</asrwt>
<pdfrwt beam="1">  1        1 0.12696780E+00 0.17237997E+04</pdfrwt>
<pdfrwt beam="2">  1       -1 0.13848199E+00 0.17237997E+04</pdfrwt>
<totfact> 0.86116758E+00</totfact>
</mgrwt>
</event>
<event>
12    1  0.2048318E-007  0.1235145E+04  0.7818608E-02  0.9082638E-01
         -2   -1    0    0    0  501 -0.00000000000E+00  0.00000000000E+00  0.38104564515E+03  0.38104564515E+03  0.00000000000E+00 0.  1.
          2   -1    0    0  501    0  0.00000000000E+00 -0.00000000000E+00 -0.10009196812E+04  0.10009196812E+04  0.00000000000E+00 0. -1.
         23    2    1    2    0    0  0.19164165036E+03 -0.27608660383E+02 -0.36968354782E+03  0.42728936429E+03  0.91768812942E+02 0.  0.
        254    2    1    2    0    0 -0.19164165036E+03  0.27608660383E+02 -0.25019048823E+03  0.95467596205E+03  0.90073422930E+03 0.  0.
        -24    2    4    4    0    0 -0.64208616983E+02  0.26010420468E+03 -0.50585126756E+03  0.57789269332E+03  0.79356892046E+02 0.  0.
         24    2    4    4    0    0 -0.12743303338E+03 -0.23249554429E+03  0.25566077933E+03  0.37678326873E+03  0.79434510096E+02 0.  0.
         11    1    3    3    0    0  0.15282176013E+03  0.11214677110E+02 -0.22215412460E+03  0.26987536833E+03  0.00000000000E+00 0.  1.
        -11    1    3    3    0    0  0.38819890234E+02 -0.38823337493E+02 -0.14752942321E+03  0.15741399597E+03  0.00000000000E+00 0. -1.
          4    1    6    6  502    0 -0.46610734762E+02 -0.35389854738E+02  0.27609968985E+02  0.64709449085E+02  0.00000000000E+00 0. -1.
          1    1    5    5  503    0  0.12244396149E+02  0.78406490536E+01 -0.41064725205E+02  0.43562744069E+02  0.00000000000E+00 0. -1.
         -4    1    5    5    0  503 -0.76453013132E+02  0.25226355562E+03 -0.46478654236E+03  0.53432994925E+03  0.00000000000E+00 0.  1.
         -3    1    6    6    0  502 -0.80822298618E+02 -0.19710568955E+03  0.22805081034E+03  0.31207381964E+03  0.00000000000E+00 0.  1.
<mgrwt>
<rscale>  0 0.12351455E+04</rscale>
<asrwt>0</asrwt>
<pdfrwt beam="1">  1        2 0.15398764E+00 0.12351455E+04</pdfrwt>
<pdfrwt beam="2">  1       -2 0.58622407E-01 0.12351455E+04</pdfrwt>
<totfact> 0.67367516E+01</totfact>
</mgrwt>
</event>
<event>
12    1  0.2048318E-007  0.1417205E+04  0.7818608E-02  0.8941458E-01
         -1   -1    0    0    0  501 -0.00000000000E+00  0.00000000000E+00  0.75147829440E+03  0.75147829440E+03  0.00000000000E+00 0.  1.
          1   -1    0    0  501    0  0.00000000000E+00 -0.00000000000E+00 -0.66817311871E+03  0.66817311871E+03  0.00000000000E+00 0. -1.
         23    2    1    2    0    0  0.27576496763E+03  0.30631950674E+03  0.81145920900E+02  0.43003980299E+03  0.92041371680E+02 0.  0.
        254    2    1    2    0    0 -0.27576496763E+03 -0.30631950674E+03  0.21592547907E+01  0.98961161011E+03  0.89969356945E+03 0.  0.
        -24    2    4    4    0    0 -0.46024970410E+03 -0.49916859244E+03 -0.10333282097E+03  0.69124348956E+03  0.78363359857E+02 0.  0.
         24    2    4    4    0    0  0.18448473647E+03  0.19284908570E+03  0.10549207576E+03  0.29836812055E+03  0.81667432099E+02 0.  0.
         13    1    3    3    0    0  0.13489543879E+03  0.83642081471E+02  0.34985368619E+02  0.16253231438E+03  0.00000000000E+00 0.  1.
        -13    1    3    3    0    0  0.14086952883E+03  0.22267742527E+03  0.46160552282E+02  0.26750748862E+03  0.00000000000E+00 0. -1.
          2    1    6    6  502    0  0.16367005197E+03  0.12078915656E+03  0.86163141200E+02  0.22091173160E+03  0.00000000000E+00 0. -1.
          3    1    5    5  503    0 -0.46328179761E+03 -0.49652275425E+03 -0.10091385753E+03  0.68654823292E+03  0.00000000000E+00 0. -1.
         -4    1    5    5    0  503  0.30320935131E+01 -0.26458381937E+01 -0.24189634345E+01  0.46952566402E+01  0.00000000000E+00 0.  1.
         -1    1    6    6    0  502  0.20814684499E+02  0.72059929140E+02  0.19328934556E+02  0.77456388952E+02  0.00000000000E+00 0.  1.
<mgrwt>
<rscale>  0 0.14172051E+04</rscale>
<asrwt>0</asrwt>
<pdfrwt beam="1">  1        1 0.10279586E+00 0.14172051E+04</pdfrwt>
<pdfrwt beam="2">  1       -1 0.11561205E+00 0.14172051E+04</pdfrwt>
<totfact> 0.19295606E+01</totfact>
</mgrwt>
</event>
<event>
12    1  0.2048318E-007  0.1389277E+04  0.7818608E-02  0.8961617E-01
         -1   -1    0    0    0  501 -0.00000000000E+00  0.00000000000E+00  0.28101123475E+03  0.28101123475E+03  0.00000000000E+00 0.  1.
          1   -1    0    0  501    0  0.00000000000E+00 -0.00000000000E+00 -0.17170932120E+04  0.17170932120E+04  0.00000000000E+00 0. -1.
         23    2    1    2    0    0  0.75290448032E+02 -0.33825354346E+03 -0.14484728640E+03  0.38655639442E+03  0.91438495489E+02 0.  0.
        254    2    1    2    0    0 -0.75290448032E+02  0.33825354346E+03 -0.12912346908E+04  0.16115480523E+04  0.89984220109E+03 0.  0.
        -24    2    4    4    0    0  0.54833468557E+02  0.52820748042E+03 -0.35385649617E+03  0.64317274200E+03  0.80292618075E+02 0.  0.
         24    2    4    4    0    0 -0.13012391659E+03 -0.18995393696E+03 -0.93737819467E+03  0.96837531032E+03  0.77833989780E+02 0.  0.
         11    1    3    3    0    0  0.45773091871E+02 -0.19167780481E+03 -0.13048209921E+03  0.23634960336E+03  0.00000000000E+00 0. -1.
        -11    1    3    3    0    0  0.29517356161E+02 -0.14657573865E+03 -0.14365187197E+02  0.15020679105E+03  0.00000000000E+00 0.  1.
          4    1    6    6  502    0 -0.64720736062E+02 -0.11573750474E+03 -0.67645247214E+03  0.68932712897E+03  0.00000000000E+00 0. -1.
          1    1    5    5  503    0  0.50319250288E+02  0.44183055985E+03 -0.32905032844E+03  0.55319109647E+03  0.00000000000E+00 0. -1.
         -2    1    5    5    0  503  0.45142182688E+01  0.86376920574E+02 -0.24806167730E+02  0.89981645528E+02  0.00000000000E+00 0.  1.
         -1    1    6    6    0  502 -0.65403180527E+02 -0.74216432219E+02 -0.26092572253E+03  0.27904818134E+03  0.00000000000E+00 0.  1.
<mgrwt>
<rscale>  0 0.13892768E+04</rscale>
<asrwt>0</asrwt>
<pdfrwt beam="1">  1        1 0.26416818E+00 0.13892768E+04</pdfrwt>
<pdfrwt beam="2">  1       -1 0.43232499E-01 0.13892768E+04</pdfrwt>
<totfact> 0.23897830E+01</totfact>
</mgrwt>
</event>
<event>
12    1  0.2048318E-007  0.2735031E+04  0.7818608E-02  0.8323727E-01
         -2   -1    0    0    0  501 -0.00000000000E+00  0.00000000000E+00  0.91011592561E+03  0.91011592561E+03  0.00000000000E+00 0.  1.
          2   -1    0    0  501    0  0.00000000000E+00 -0.00000000000E+00 -0.20547920485E+04  0.20547920485E+04  0.00000000000E+00 0. -1.
         23    2    1    2    0    0  0.44667756422E+03 -0.11160822430E+04 -0.30033024321E+03  0.12426237872E+04  0.93569237212E+02 0.  0.
        254    2    1    2    0    0 -0.44667756422E+03  0.11160822430E+04 -0.84434587972E+03  0.17222841869E+04  0.89898967544E+03 0.  0.
        -24    2    4    4    0    0 -0.35733579559E+03  0.10541517891E+04 -0.29145625190E+03  0.11532891544E+04  0.78767134378E+02 0.  0.
         24    2    4    4    0    0 -0.89341768628E+02  0.61930453819E+02 -0.55288962782E+03  0.56899503257E+03  0.79063732539E+02 0.  0.
         13    1    3    3    0    0  0.35514052454E+03 -0.79522876697E+03 -0.19217993636E+03  0.89187819344E+03  0.00000000000E+00 0.  1.
        -13    1    3    3    0    0  0.91537039683E+02 -0.32085347598E+03 -0.10815030685E+03  0.35074559378E+03  0.00000000000E+00 0. -1.
          2    1    6    6  502    0 -0.40921756611E+02  0.67372504270E+02 -0.24769835698E+03  0.25993868613E+03  0.00000000000E+00 0. -1.
          3    1    5    5  503    0 -0.12739325577E+03  0.43609462049E+03 -0.84337365485E+02  0.46208262340E+03  0.00000000000E+00 0. -1.
         -4    1    5    5    0  503 -0.22994253982E+03  0.61805716865E+03 -0.20711888641E+03  0.69120653096E+03  0.00000000000E+00 0.  1.
         -1    1    6    6    0  502 -0.48420012016E+02 -0.54420504506E+01 -0.30519127084E+03  0.30905634644E+03  0.00000000000E+00 0.  1.
<mgrwt>
<rscale>  0 0.27350312E+04</rscale>
<asrwt>0</asrwt>
<pdfrwt beam="1">  1        2 0.31612185E+00 0.27350312E+04</pdfrwt>
<pdfrwt beam="2">  1       -2 0.14001783E+00 0.27350312E+04</pdfrwt>
<totfact> 0.19560742E+00</totfact>
</mgrwt>
</event>
<event>
12    1  0.2048318E-007  0.1527393E+04  0.7818608E-02  0.8866439E-01
         -2   -1    0    0    0  501 -0.00000000000E+00  0.00000000000E+00  0.36747392400E+03  0.36747392400E+03  0.00000000000E+00 0. -1.
          2   -1    0    0  501    0  0.00000000000E+00 -0.00000000000E+00 -0.15871385147E+04  0.15871385147E+04  0.00000000000E+00 0.  1.
         23    2    1    2    0    0  0.47700704981E+03  0.81774074841E+02 -0.26364218370E+03  0.55831040319E+03  0.89334094313E+02 0.  0.
        254    2    1    2    0    0 -0.47700704981E+03 -0.81774074841E+02 -0.95602240701E+03  0.13963020355E+04  0.89524175884E+03 0.  0.
        -24    2    4    4    0    0  0.22740195286E+03  0.13029803396E+03 -0.31115240462E+03  0.41471929038E+03  0.80542194515E+02 0.  0.
         24    2    4    4    0    0 -0.70440900267E+03 -0.21207210880E+03 -0.64487000238E+03  0.98158274512E+03  0.80503063164E+02 0.  0.
         13    1    3    3    0    0  0.58891390284E+02  0.21464958379E+02 -0.68885415902E+02  0.93135067572E+02  0.00000000000E+00 0.  1.
        -13    1    3    3    0    0  0.41811565953E+03  0.60309116462E+02 -0.19475676779E+03  0.46517533562E+03  0.00000000000E+00 0. -1.
          4    1    6    6  502    0 -0.68731468608E+03 -0.19906341267E+03 -0.63891487018E+03  0.95929136934E+03  0.00000000000E+00 0. -1.
          1    1    5    5  503    0  0.23358613234E+03  0.12854425161E+03 -0.29665815476E+03  0.39886359401E+03  0.00000000000E+00 0. -1.
         -4    1    5    5    0  503 -0.61841794799E+01  0.17537823449E+01 -0.14494249859E+02  0.15855696369E+02  0.00000000000E+00 0.  1.
         -3    1    6    6    0  502 -0.17094316586E+02 -0.13008696126E+02 -0.59551322074E+01  0.22291375777E+02  0.00000000000E+00 0.  1.
<mgrwt>
<rscale>  0 0.15273926E+04</rscale>
<asrwt>0</asrwt>
<pdfrwt beam="1">  1        2 0.24417515E+00 0.15273926E+04</pdfrwt>
<pdfrwt beam="2">  1       -2 0.56534450E-01 0.15273926E+04</pdfrwt>
<totfact> 0.32087082E+01</totfact>
</mgrwt>
</event>
<event>
12    1  0.2048318E-007  0.1748552E+04  0.7818608E-02  0.8734148E-01
         -2   -1    0    0    0  501 -0.00000000000E+00  0.00000000000E+00  0.25684543464E+03  0.25684543464E+03  0.00000000000E+00 0.  1.
          2   -1    0    0  501    0  0.00000000000E+00 -0.00000000000E+00 -0.29759476261E+04  0.29759476261E+04  0.00000000000E+00 0. -1.
         23    2    1    2    0    0 -0.29801828479E+03 -0.43265521718E+03 -0.16785874388E+04  0.17609228052E+04  0.84781489760E+02 0.  0.
        254    2    1    2    0    0  0.29801828479E+03  0.43265521718E+03 -0.10405147526E+04  0.14718702556E+04  0.89873559167E+03 0.  0.
        -24    2    4    4    0    0 -0.17200738222E+03 -0.93251427630E+02  0.20308918632E+01  0.21050627724E+03  0.77629890780E+02 0.  0.
         24    2    4    4    0    0  0.47002566701E+03  0.52590664481E+03 -0.10425456445E+04  0.12613639783E+04  0.81460040727E+02 0.  0.
         13    1    3    3    0    0 -0.60329631213E+02 -0.14598674798E+03 -0.43590128554E+03  0.46363965072E+03  0.00000000000E+00 0.  1.
        -13    1    3    3    0    0 -0.23768865358E+03 -0.28666846920E+03 -0.12426861533E+04  0.12972831544E+04  0.00000000000E+00 0. -1.
          4    1    6    6  502    0  0.25113326825E+03  0.24635678213E+03 -0.45927334114E+03  0.57852535329E+03  0.00000000000E+00 0. -1.
          3    1    5    5  503    0 -0.85126809497E+02 -0.37433131551E+01  0.82796354099E+01  0.85610387518E+02  0.00000000000E+00 0. -1.
         -4    1    5    5    0  503 -0.86880572723E+02 -0.89508114474E+02 -0.62487435466E+01  0.12489588972E+03  0.00000000000E+00 0.  1.
         -3    1    6    6    0  502  0.21889239876E+03  0.27954986268E+03 -0.58327230337E+03  0.68283862504E+03  0.00000000000E+00 0.  1.
<mgrwt>
<rscale>  0 0.17485520E+04</rscale>
<asrwt>0</asrwt>
<pdfrwt beam="1">  1        2 0.45783810E+00 0.17485520E+04</pdfrwt>
<pdfrwt beam="2">  1       -2 0.39514682E-01 0.17485520E+04</pdfrwt>
<totfact> 0.10393530E+01</totfact>
</mgrwt>
</event>
<event>
12    1  0.2048318E-007  0.2175813E+04  0.7818608E-02  0.8528563E-01
          2   -1    0    0  501    0  0.00000000000E+00  0.00000000000E+00  0.15891795120E+04  0.15891795120E+04  0.00000000000E+00 0. -1.
         -2   -1    0    0    0  501 -0.00000000000E+00 -0.00000000000E+00 -0.74474919326E+03  0.74474919326E+03  0.00000000000E+00 0.  1.
         23    2    1    2    0    0  0.55145622438E+03 -0.53808590804E+03 -0.14605921921E+03  0.78926266457E+03  0.89229178669E+02 0.  0.
        254    2    1    2    0    0 -0.55145622438E+03  0.53808590804E+03  0.99048953797E+03  0.15446660407E+04  0.90071262934E+03 0.  0.
        -24    2    4    4    0    0 -0.29269994664E+03  0.40930812258E+03  0.11100411892E+04  0.12213532463E+04  0.79409775452E+02 0.  0.
         24    2    4    4    0    0 -0.25875627774E+03  0.12877778546E+03 -0.11955165124E+03  0.32331279445E+03  0.81853750325E+02 0.  0.
         11    1    3    3    0    0  0.21418798848E+03 -0.15012424559E+03 -0.50406157625E+02  0.26637297958E+03  0.00000000000E+00 0. -1.
        -11    1    3    3    0    0  0.33726823590E+03 -0.38796166245E+03 -0.95653061581E+02  0.52288968499E+03  0.00000000000E+00 0.  1.
          4    1    6    6  502    0 -0.12077534644E+03  0.88917870516E+02 -0.95199005165E+02  0.17763986768E+03  0.00000000000E+00 0. -1.
          3    1    5    5  503    0 -0.28493989163E+02  0.93503856056E+01  0.60116885531E+02  0.67181672019E+02  0.00000000000E+00 0. -1.
         -4    1    5    5    0  503 -0.26420595748E+03  0.39995773698E+03  0.10499243037E+04  0.11541715742E+04  0.00000000000E+00 0.  1.
         -3    1    6    6    0  502 -0.13798093131E+03  0.39859914940E+02 -0.24352646071E+02  0.14567292677E+03  0.00000000000E+00 0.  1.
<mgrwt>
<rscale>  0 0.21758126E+04</rscale>
<asrwt>0</asrwt>
<pdfrwt beam="1">  1        2 0.24448915E+00 0.21758126E+04</pdfrwt>
<pdfrwt beam="2">  1       -2 0.11457680E+00 0.21758126E+04</pdfrwt>
<totfact> 0.61631217E+00</totfact>
</mgrwt>
</event>
<event>
12    1  0.2048318E-007  0.1276215E+04  0.7818608E-02  0.9048643E-01
          1   -1    0    0  501    0  0.00000000000E+00  0.00000000000E+00  0.23221705126E+03  0.23221705126E+03  0.00000000000E+00 0. -1.
         -1   -1    0    0    0  501 -0.00000000000E+00 -0.00000000000E+00 -0.17534499494E+04  0.17534499494E+04  0.00000000000E+00 0.  1.
         23    2    1    2    0    0  0.11473186075E+03  0.28216000489E+01  0.64411688752E+02  0.15975350434E+03  0.90559125454E+02 0.  0.
        254    2    1    2    0    0 -0.11473186075E+03 -0.28216000489E+01 -0.15856445869E+04  0.18259134963E+04  0.89806457384E+03 0.  0.
        -24    2    4    4    0    0  0.16741791733E+02  0.16397597994E+03 -0.15888107633E+04  0.15993148664E+04  0.79498369068E+02 0.  0.
         24    2    4    4    0    0 -0.13147365248E+03 -0.16679757999E+03  0.31661764125E+01  0.22659862992E+03  0.78931365274E+02 0.  0.
         13    1    3    3    0    0  0.87745028810E+02 -0.37640211234E+02  0.29662069970E+02  0.99979067696E+02  0.00000000000E+00 0. -1.
        -13    1    3    3    0    0  0.26986831936E+02  0.40461811283E+02  0.34749618782E+02  0.59774436641E+02  0.00000000000E+00 0.  1.
          4    1    6    6  502    0 -0.52521918997E+02 -0.10345073294E+03 -0.30432332544E+02  0.11994470803E+03  0.00000000000E+00 0. -1.
          1    1    5    5  503    0 -0.10360012713E+02  0.14447953649E+03 -0.11219509037E+04  0.11312627885E+04  0.00000000000E+00 0. -1.
         -2    1    5    5    0  503  0.27101804446E+02  0.19496443451E+02 -0.46685985957E+03  0.46805207786E+03  0.00000000000E+00 0.  1.
         -3    1    6    6    0  502 -0.78951733483E+02 -0.63346847052E+02  0.33598508956E+02  0.10665392189E+03  0.00000000000E+00 0.  1.
<mgrwt>
<rscale>  0 0.12762147E+04</rscale>
<asrwt>0</asrwt>
<pdfrwt beam="1">  1        1 0.35725701E-01 0.12762147E+04</pdfrwt>
<pdfrwt beam="2">  1       -1 0.26976153E+00 0.12762147E+04</pdfrwt>
<totfact> 0.62668801E+00</totfact>
</mgrwt>
</event>
<event>
12    1  0.2048318E-007  0.1292205E+04  0.7818608E-02  0.9035770E-01
         -1   -1    0    0    0  501 -0.00000000000E+00  0.00000000000E+00  0.53524061956E+03  0.53524061956E+03  0.00000000000E+00 0.  1.
          1   -1    0    0  501    0  0.00000000000E+00 -0.00000000000E+00 -0.77992668182E+03  0.77992668182E+03  0.00000000000E+00 0. -1.
         23    2    1    2    0    0 -0.96063301054E+02 -0.23625510062E+03  0.14014515347E+03  0.30428331286E+03  0.88899044206E+02 0.  0.
        254    2    1    2    0    0  0.96063301054E+02  0.23625510062E+03 -0.38483121573E+03  0.10108839885E+04  0.89930347674E+03 0.  0.
        -24    2    4    4    0    0  0.43785597001E+03  0.31345668939E+03 -0.35553627141E+03  0.65029315206E+03  0.80636199867E+02 0.  0.
         24    2    4    4    0    0 -0.34179266896E+03 -0.77201588763E+02 -0.29294944315E+02  0.36059083646E+03  0.79907720003E+02 0.  0.
         11    1    3    3    0    0 -0.85321304979E+02 -0.17449685092E+03  0.61563581588E+02  0.20376199509E+03  0.00000000000E+00 0. -1.
        -11    1    3    3    0    0 -0.10741996076E+02 -0.61758249704E+02  0.78581571883E+02  0.10052131777E+03  0.00000000000E+00 0.  1.
          2    1    6    6  502    0 -0.33678521827E+03 -0.87397306402E+02 -0.29847908464E+02  0.34921837016E+03  0.00000000000E+00 0. -1.
          1    1    5    5  503    0  0.33077299419E+03  0.19248977297E+03 -0.24118881482E+03  0.45236614681E+03  0.00000000000E+00 0. -1.
         -2    1    5    5    0  503  0.10708297582E+03  0.12096691642E+03 -0.11434745659E+03  0.19792700525E+03  0.00000000000E+00 0.  1.
         -1    1    6    6    0  502 -0.50074506846E+01  0.10195717639E+02  0.55296414930E+00  0.11372466306E+02  0.00000000000E+00 0.  1.
<mgrwt>
<rscale>  0 0.12922050E+04</rscale>
<asrwt>0</asrwt>
<pdfrwt beam="1">  1        1 0.11998872E+00 0.12922050E+04</pdfrwt>
<pdfrwt beam="2">  1       -1 0.82344711E-01 0.12922050E+04</pdfrwt>
<totfact> 0.33208121E+01</totfact>
</mgrwt>
</event>
<event>
12    1  0.2048318E-007  0.1008635E+04  0.7818608E-02  0.9299125E-01
         -2   -1    0    0    0  501 -0.00000000000E+00  0.00000000000E+00  0.39059953671E+03  0.39059953671E+03  0.00000000000E+00 0.  1.
          2   -1    0    0  501    0  0.00000000000E+00 -0.00000000000E+00 -0.65114251768E+03  0.65114251768E+03  0.00000000000E+00 0. -1.
         23    2    1    2    0    0  0.37039475246E+02 -0.26868677913E+02 -0.53831230489E+02  0.11680811025E+03  0.93018732866E+02 0.  0.
        254    2    1    2    0    0 -0.37039475246E+02  0.26868677913E+02 -0.20671175048E+03  0.92493394414E+03  0.90037725685E+03 0.  0.
        -24    2    4    4    0    0  0.23091763279E+03  0.13336468972E+03 -0.45705919778E+03  0.53543049961E+03  0.81692203037E+02 0.  0.
         24    2    4    4    0    0 -0.26795710804E+03 -0.10649601181E+03  0.25034744730E+03  0.38950344453E+03  0.76789821258E+02 0.  0.
         13    1    3    3    0    0 -0.11103913790E+02  0.28041374571E+02 -0.20937574217E+02  0.36715086864E+02  0.00000000000E+00 0. -1.
        -13    1    3    3    0    0  0.48143389036E+02 -0.54910052484E+02 -0.32893656271E+02  0.80093023382E+02  0.00000000000E+00 0.  1.
          2    1    6    6  502    0 -0.22989914356E+01 -0.78912896307E+01 -0.36207083670E+01  0.89815000270E+01  0.00000000000E+00 0. -1.
          3    1    5    5  503    0  0.78053933600E+02  0.56618176159E+02 -0.24295247184E+03  0.26138848099E+03  0.00000000000E+00 0. -1.
         -4    1    5    5    0  503  0.15286369919E+03  0.76746513564E+02 -0.21410672594E+03  0.27404201862E+03  0.00000000000E+00 0.  1.
         -1    1    6    6    0  502 -0.26565811660E+03 -0.98604722179E+02  0.25396815567E+03  0.38052194450E+03  0.00000000000E+00 0.  1.
<mgrwt>
<rscale>  0 0.10086347E+04</rscale>
<asrwt>0</asrwt>
<pdfrwt beam="1">  1        2 0.10017577E+00 0.10086347E+04</pdfrwt>
<pdfrwt beam="2">  1       -2 0.60092237E-01 0.10086347E+04</pdfrwt>
<totfact> 0.11564619E+02</totfact>
</mgrwt>
</event>
<event>
12    1  0.2048318E-007  0.1558131E+04  0.7818608E-02  0.8846691E-01
          2   -1    0    0  501    0  0.00000000000E+00  0.00000000000E+00  0.22880574378E+04  0.22880574378E+04  0.00000000000E+00 0.  1.
         -2   -1    0    0    0  501 -0.00000000000E+00 -0.00000000000E+00 -0.26526572953E+03  0.26526572953E+03  0.00000000000E+00 0. -1.
         23    2    1    2    0    0 -0.32885138386E+03 -0.39427080155E+03  0.68727097962E+03  0.86298727144E+03  0.93877226247E+02 0.  0.
        254    2    1    2    0    0  0.32885138386E+03  0.39427080155E+03  0.13355207287E+04  0.16903358959E+04  0.90001507028E+03 0.  0.
        -24    2    4    4    0    0  0.21726382270E+03  0.67943691841E+03  0.97278713132E+03  0.12088172947E+04  0.78015089885E+02 0.  0.
         24    2    4    4    0    0  0.11158756116E+03 -0.28516611686E+03  0.36273359735E+03  0.48151860126E+03  0.80703176549E+02 0.  0.
         11    1    3    3    0    0 -0.17995863975E+03 -0.27453730778E+03  0.39201516859E+03  0.51130395832E+03  0.00000000000E+00 0.  1.
        -11    1    3    3    0    0 -0.14889274411E+03 -0.11973349377E+03  0.29525581103E+03  0.35168331312E+03  0.00000000000E+00 0. -1.
          4    1    6    6  502    0  0.44455905714E+01 -0.10998919777E+01  0.32947785287E+02  0.33264539576E+02  0.00000000000E+00 0. -1.
          1    1    5    5  503    0  0.23874307781E+02  0.18383073045E+03  0.23880297307E+03  0.30230874942E+03  0.00000000000E+00 0. -1.
         -2    1    5    5    0  503  0.19338951492E+03  0.49560618796E+03  0.73398415825E+03  0.90650854524E+03  0.00000000000E+00 0.  1.
         -3    1    6    6    0  502  0.10714197059E+03 -0.28406622489E+03  0.32978581206E+03  0.44825406169E+03  0.00000000000E+00 0.  1.
<mgrwt>
<rscale>  0 0.15581312E+04</rscale>
<asrwt>0</asrwt>
<pdfrwt beam="1">  1        2 0.35200882E+00 0.15581312E+04</pdfrwt>
<pdfrwt beam="2">  1       -2 0.40810114E-01 0.15581312E+04</pdfrwt>
<totfact> 0.25219200E+01</totfact>
</mgrwt>
</event>
<event>
12    1  0.2048318E-007  0.2062387E+04  0.7818608E-02  0.8577996E-01
          1   -1    0    0  501    0  0.00000000000E+00  0.00000000000E+00  0.12762658434E+04  0.12762658434E+04  0.00000000000E+00 0. -1.
         -1   -1    0    0    0  501 -0.00000000000E+00 -0.00000000000E+00 -0.83318043309E+03  0.83318043309E+03  0.00000000000E+00 0.  1.
         23    2    1    2    0    0 -0.40116428881E+03 -0.34649617493E+02 -0.56455265039E+03  0.69911759502E+03  0.88951301249E+02 0.  0.
        254    2    1    2    0    0  0.40116428881E+03  0.34649617493E+02  0.10076380607E+04  0.14103286815E+04  0.90086577570E+03 0.  0.
        -24    2    4    4    0    0  0.41982223273E+03  0.40779747581E+03  0.49484490220E+03  0.77169644098E+03  0.89969058083E+02 0.  0.
         24    2    4    4    0    0 -0.18657943923E+02 -0.37314785832E+03  0.51279315852E+03  0.63863224051E+03  0.72848281772E+02 0.  0.
         11    1    3    3    0    0 -0.36147953301E+02 -0.82813808155E+01 -0.17666318331E+02  0.41077422015E+02  0.00000000000E+00 0. -1.
        -11    1    3    3    0    0 -0.36501633551E+03 -0.26368236678E+02 -0.54688633206E+03  0.65804017300E+03  0.00000000000E+00 0.  1.
          2    1    6    6  502    0  0.89497805834E+01 -0.56248896746E+02  0.43398908168E+02  0.71606579221E+02  0.00000000000E+00 0. -1.
          3    1    5    5  503    0  0.37014410085E+02  0.62278099680E+02  0.93264394145E+02  0.11809689017E+03  0.00000000000E+00 0. -1.
         -4    1    5    5    0  503  0.38280782265E+03  0.34551937613E+03  0.40158050805E+03  0.65359955080E+03  0.00000000000E+00 0.  1.
         -1    1    6    6    0  502 -0.27607724507E+02 -0.31689896157E+03  0.46939425035E+03  0.56702566129E+03  0.00000000000E+00 0.  1.
<mgrwt>
<rscale>  0 0.20623867E+04</rscale>
<asrwt>0</asrwt>
<pdfrwt beam="1">  1        1 0.19634859E+00 0.20623867E+04</pdfrwt>
<pdfrwt beam="2">  1       -1 0.12818161E+00 0.20623867E+04</pdfrwt>
<totfact> 0.45615554E+00</totfact>
</mgrwt>
</event>
<event>
12    1  0.2048318E-007  0.3321488E+04  0.7818608E-02  0.8157449E-01
         -2   -1    0    0    0  501 -0.00000000000E+00  0.00000000000E+00  0.10857565639E+04  0.10857565639E+04  0.00000000000E+00 0.  1.
          2   -1    0    0  501    0  0.00000000000E+00 -0.00000000000E+00 -0.25402289701E+04  0.25402289701E+04  0.00000000000E+00 0. -1.
         23    2    1    2    0    0 -0.40042390396E+03 -0.62288412824E+03 -0.21382204254E+04  0.22646649456E+04  0.91633990215E+02 0.  0.
        254    2    1    2    0    0  0.40042390396E+03  0.62288412824E+03  0.68374801924E+03  0.13613205884E+04  0.91507292081E+03 0.  0.
        -24    2    4    4    0    0  0.65054370803E+03  0.40832936886E+03  0.66883160242E+03  0.10217483245E+04  0.81816481903E+02 0.  0.
         24    2    4    4    0    0 -0.25011980407E+03  0.21455475938E+03  0.14916416820E+02  0.33957226385E+03  0.80580157146E+02 0.  0.
         13    1    3    3    0    0 -0.14922556389E+03 -0.16396695182E+03 -0.57765253363E+03  0.61873732699E+03  0.00000000000E+00 0. -1.
        -13    1    3    3    0    0 -0.25119834006E+03 -0.45891717642E+03 -0.15605678918E+04  0.16459276186E+04  0.00000000000E+00 0.  1.
          4    1    6    6  502    0 -0.24534952395E+03  0.22146704441E+03  0.12202152255E+02  0.33074602519E+03  0.00000000000E+00 0. -1.
          1    1    5    5  503    0  0.52611023980E+03  0.29461600512E+03  0.50223625745E+03  0.78474953532E+03  0.00000000000E+00 0. -1.
         -4    1    5    5    0  503  0.12443346822E+03  0.11371336374E+03  0.16659534497E+03  0.23699878918E+03  0.00000000000E+00 0.  1.
         -3    1    6    6    0  502 -0.47702801248E+01 -0.69122850283E+01  0.27142645653E+01  0.88262386616E+01  0.00000000000E+00 0.  1.
<mgrwt>
<rscale>  0 0.33214878E+04</rscale>
<asrwt>0</asrwt>
<pdfrwt beam="1">  1        2 0.39080446E+00 0.33214878E+04</pdfrwt>
<pdfrwt beam="2">  1       -2 0.16703947E+00 0.33214878E+04</pdfrwt>
<totfact> 0.61534412E-01</totfact>
</mgrwt>
</event>
<event>
12    1  0.2048318E-007  0.4292046E+04  0.7818608E-02  0.7948090E-01
          2   -1    0    0  501    0  0.00000000000E+00  0.00000000000E+00  0.39282426480E+04  0.39282426480E+04  0.00000000000E+00 0. -1.
         -2   -1    0    0    0  501 -0.00000000000E+00 -0.00000000000E+00 -0.11723856899E+04  0.11723856899E+04  0.00000000000E+00 0.  1.
         23    2    1    2    0    0 -0.18771132669E+04 -0.50280786904E+03  0.53947265203E+03  0.20188360850E+04  0.91095696470E+02 0.  0.
        254    2    1    2    0    0  0.18771132669E+04  0.50280786904E+03  0.22163843061E+04  0.30817922529E+04  0.89928534275E+03 0.  0.
        -24    2    4    4    0    0  0.17214552380E+04  0.55048298801E+03  0.15204253773E+04  0.23631617572E+04  0.80003164996E+02 0.  0.
         24    2    4    4    0    0  0.15565802895E+03 -0.47675118979E+02  0.69595892881E+03  0.71863049569E+03  0.74623185388E+02 0.  0.
         13    1    3    3    0    0 -0.13541730710E+04 -0.34147031284E+03  0.42419167784E+03  0.14595633800E+04  0.00000000000E+00 0.  1.
        -13    1    3    3    0    0 -0.52294019591E+03 -0.16133755620E+03  0.11528097419E+03  0.55927270499E+03  0.00000000000E+00 0. -1.
          2    1    6    6  502    0  0.16106402910E+02  0.17103011033E+02  0.13136355032E+03  0.13344778587E+03  0.00000000000E+00 0. -1.
          3    1    5    5  503    0  0.13186391804E+04  0.38619011077E+03  0.11614576008E+04  0.17991486454E+04  0.00000000000E+00 0. -1.
         -4    1    5    5    0  503  0.40281605751E+03  0.16429287725E+03  0.35896777649E+03  0.56401311178E+03  0.00000000000E+00 0.  1.
         -1    1    6    6    0  502  0.13955162604E+03 -0.64778130011E+02  0.56459537849E+03  0.58518270982E+03  0.00000000000E+00 0.  1.
<mgrwt>
<rscale>  0 0.42920463E+04</rscale>
<asrwt>0</asrwt>
<pdfrwt beam="1">  1        2 0.60434501E+00 0.42920463E+04</pdfrwt>
<pdfrwt beam="2">  1       -2 0.18036703E+00 0.42920463E+04</pdfrwt>
<totfact> 0.54049625E-02</totfact>
</mgrwt>
</event>
<event>
12    1  0.2048318E-007  0.1355311E+04  0.7818608E-02  0.8986818E-01
         -2   -1    0    0    0  501 -0.00000000000E+00  0.00000000000E+00  0.57807822224E+03  0.57807822224E+03  0.00000000000E+00 0.  1.
          2   -1    0    0  501    0  0.00000000000E+00 -0.00000000000E+00 -0.79438536928E+03  0.79438536928E+03  0.00000000000E+00 0. -1.
         23    2    1    2    0    0 -0.17986871853E+03 -0.26777755914E+03  0.12542905829E+03  0.35778722599E+03  0.90673443374E+02 0.  0.
        254    2    1    2    0    0  0.17986871853E+03  0.26777755914E+03 -0.34173620533E+03  0.10146763655E+04  0.89929245278E+03 0.  0.
        -24    2    4    4    0    0  0.43952384897E+03  0.23984985853E+03  0.78651280935E+02  0.51311463246E+03  0.79946442093E+02 0.  0.
         24    2    4    4    0    0 -0.25965513044E+03  0.27927700611E+02 -0.42038748627E+03  0.50156173306E+03  0.81472634873E+02 0.  0.
         11    1    3    3    0    0 -0.16794088730E+03 -0.17878313839E+03  0.91857632786E+02  0.26192628143E+03  0.00000000000E+00 0.  1.
        -11    1    3    3    0    0 -0.11927831229E+02 -0.88994420751E+02  0.33571425504E+02  0.95860944566E+02  0.00000000000E+00 0. -1.
          4    1    6    6  502    0 -0.18296671083E+02 -0.16389340411E+02 -0.18793625310E+02  0.30928611416E+02  0.00000000000E+00 0. -1.
          3    1    5    5  503    0  0.20416342996E+03  0.15386020743E+03  0.25076329952E+02  0.25687446717E+03  0.00000000000E+00 0. -1.
         -2    1    5    5    0  503  0.23536041901E+03  0.85989651105E+02  0.53574950983E+02  0.25624016529E+03  0.00000000000E+00 0.  1.
         -3    1    6    6    0  502 -0.24135845936E+03  0.44317041022E+02 -0.40159386096E+03  0.47063312164E+03  0.00000000000E+00 0.  1.
<mgrwt>
<rscale>  0 0.13553109E+04</rscale>
<asrwt>0</asrwt>
<pdfrwt beam="1">  1        2 0.12221313E+00 0.13553109E+04</pdfrwt>
<pdfrwt beam="2">  1       -2 0.88935112E-01 0.13553109E+04</pdfrwt>
<totfact> 0.36890777E+01</totfact>
</mgrwt>
</event>
<event>
12    1  0.2048318E-007  0.1489173E+04  0.7818608E-02  0.8891685E-01
          2   -1    0    0  501    0  0.00000000000E+00  0.00000000000E+00  0.43040625795E+03  0.43040625795E+03  0.00000000000E+00 0. -1.
         -2   -1    0    0    0  501 -0.00000000000E+00 -0.00000000000E+00 -0.12881068491E+04  0.12881068491E+04  0.00000000000E+00 0.  1.
         23    2    1    2    0    0  0.42113300031E+03  0.16152893201E+03 -0.13679381954E+03  0.47989539913E+03  0.90235498639E+02 0.  0.
        254    2    1    2    0    0 -0.42113300031E+03 -0.16152893201E+03 -0.72090677165E+03  0.12386177080E+04  0.90056796147E+03 0.  0.
        -24    2    4    4    0    0 -0.21407606950E+02 -0.19885341501E+03  0.15937608496E+03  0.26790975641E+03  0.79836926459E+02 0.  0.
         24    2    4    4    0    0 -0.39972539336E+03  0.37324483001E+02 -0.88028285662E+03  0.97070795155E+03  0.78756030979E+02 0.  0.
         13    1    3    3    0    0  0.68239135054E+02  0.22594599985E+02  0.11267635756E+02  0.72760257812E+02  0.00000000000E+00 0. -1.
        -13    1    3    3    0    0  0.35289386525E+03  0.13893433202E+03 -0.14806145530E+03  0.40713514131E+03  0.00000000000E+00 0.  1.
          2    1    6    6  502    0 -0.62004956575E+02  0.25874565656E+02 -0.20259367291E+03  0.21344391322E+03  0.00000000000E+00 0. -1.
          3    1    5    5  503    0  0.20531832450E+02 -0.14637911265E+02  0.10257984648E+02  0.27222248970E+02  0.00000000000E+00 0. -1.
         -4    1    5    5    0  503 -0.41939439400E+02 -0.18421550374E+03  0.14911810032E+03  0.24068750744E+03  0.00000000000E+00 0.  1.
         -1    1    6    6    0  502 -0.33772043678E+03  0.11449917345E+02 -0.67768918370E+03  0.75726403832E+03  0.00000000000E+00 0.  1.
<mgrwt>
<rscale>  0 0.14891733E+04</rscale>
<asrwt>0</asrwt>
<pdfrwt beam="1">  1        2 0.66216350E-01 0.14891733E+04</pdfrwt>
<pdfrwt beam="2">  1       -2 0.19817028E+00 0.14891733E+04</pdfrwt>
<totfact> 0.96658600E+00</totfact>
</mgrwt>
</event>
<event>
12    1  0.2048318E-007  0.1666434E+04  0.7818608E-02  0.8780743E-01
         -2   -1    0    0    0  501 -0.00000000000E+00  0.00000000000E+00  0.25759283275E+03  0.25759283275E+03  0.00000000000E+00 0.  1.
          2   -1    0    0  501    0  0.00000000000E+00 -0.00000000000E+00 -0.26951473101E+04  0.26951473101E+04  0.00000000000E+00 0. -1.
         23    2    1    2    0    0  0.40756525634E+03  0.23197991849E+03 -0.24470683923E+03  0.53696509467E+03  0.92336097897E+02 0.  0.
        254    2    1    2    0    0 -0.40756525634E+03 -0.23197991849E+03 -0.21928476381E+04  0.24157750482E+04  0.89859011712E+03 0.  0.
        -24    2    4    4    0    0 -0.41880965907E+03  0.23596632203E+03 -0.14868008641E+04  0.15647239930E+04  0.81870196538E+02 0.  0.
         24    2    4    4    0    0  0.11244402728E+02 -0.46794624052E+03 -0.70604677397E+03  0.85105105513E+03  0.81766318250E+02 0.  0.
         13    1    3    3    0    0  0.11217653264E+02 -0.76639887542E+01 -0.14054248032E+02  0.19547233976E+02  0.00000000000E+00 0. -1.
        -13    1    3    3    0    0  0.39634760308E+03  0.23964390724E+03 -0.23065259119E+03  0.51741786070E+03  0.00000000000E+00 0.  1.
          4    1    6    6  502    0 -0.29316581931E+02 -0.31955977417E+03 -0.45994622739E+03  0.56082835461E+03  0.00000000000E+00 0. -1.
          3    1    5    5  503    0 -0.15035258642E+03  0.10497047253E+03 -0.68390816397E+03  0.70806431706E+03  0.00000000000E+00 0. -1.
         -4    1    5    5    0  503 -0.26845707265E+03  0.13099584950E+03 -0.80289270017E+03  0.85665967596E+03  0.00000000000E+00 0.  1.
         -3    1    6    6    0  502  0.40560984659E+02 -0.14838646635E+03 -0.24610054658E+03  0.29022270052E+03  0.00000000000E+00 0.  1.
<mgrwt>
<rscale>  0 0.16664341E+04</rscale>
<asrwt>0</asrwt>
<pdfrwt beam="1">  1        2 0.41463803E+00 0.16664341E+04</pdfrwt>
<pdfrwt beam="2">  1       -2 0.39629668E-01 0.16664341E+04</pdfrwt>
<totfact> 0.15405897E+01</totfact>
</mgrwt>
</event>
<event>
12    1  0.2048318E-007  0.1590271E+04  0.7818608E-02  0.8826547E-01
         -1   -1    0    0    0  501 -0.00000000000E+00  0.00000000000E+00  0.98828807000E+03  0.98828807000E+03  0.00000000000E+00 0.  1.
          1   -1    0    0  501    0  0.00000000000E+00 -0.00000000000E+00 -0.63973302910E+03  0.63973302910E+03  0.00000000000E+00 0. -1.
         23    2    1    2    0    0 -0.12630066528E+03  0.48807040658E+03  0.30076194489E+03  0.59405476660E+03  0.90987572789E+02 0.  0.
        254    2    1    2    0    0  0.12630066528E+03 -0.48807040658E+03  0.47793096009E+02  0.10339663325E+04  0.90146415175E+03 0.  0.
        -24    2    4    4    0    0  0.23539932838E+03 -0.66258114019E+03 -0.16785387917E+03  0.72659716510E+03  0.73088333165E+02 0.  0.
         24    2    4    4    0    0 -0.10909866310E+03  0.17451073361E+03  0.21564697518E+03  0.30736916740E+03  0.74937792393E+02 0.  0.
         11    1    3    3    0    0  0.28719334464E+01  0.12665474726E+03  0.53657773754E+02  0.13758208346E+03  0.00000000000E+00 0.  1.
        -11    1    3    3    0    0 -0.12917259873E+03  0.36141565932E+03  0.24710417114E+03  0.45647268315E+03  0.00000000000E+00 0. -1.
          4    1    6    6  502    0  0.78672352419E+01  0.33385380904E+02  0.22103165021E+02  0.40804741788E+02  0.00000000000E+00 0. -1.
          1    1    5    5  503    0  0.32253722323E+02 -0.42673355377E+02 -0.21434906652E+01  0.53534217235E+02  0.00000000000E+00 0. -1.
         -2    1    5    5    0  503  0.20314560605E+03 -0.61990778482E+03 -0.16571038850E+03  0.67306294787E+03  0.00000000000E+00 0.  1.
         -3    1    6    6    0  502 -0.11696589834E+03  0.14112535271E+03  0.19354381016E+03  0.26656442561E+03  0.00000000000E+00 0.  1.
<mgrwt>
<rscale>  0 0.15902711E+04</rscale>
<asrwt>0</asrwt>
<pdfrwt beam="1">  1        1 0.98420466E-01 0.15902711E+04</pdfrwt>
<pdfrwt beam="2">  1       -1 0.15204432E+00 0.15902711E+04</pdfrwt>
<totfact> 0.10072291E+01</totfact>
</mgrwt>
</event>
<event>
12    1  0.2048318E-007  0.3389504E+04  0.7818608E-02  0.8140487E-01
          1   -1    0    0  501    0  0.00000000000E+00  0.00000000000E+00  0.19660343434E+04  0.19660343434E+04  0.00000000000E+00 0. -1.
         -1   -1    0    0    0  501 -0.00000000000E+00 -0.00000000000E+00 -0.14609022832E+04  0.14609022832E+04  0.00000000000E+00 0.  1.
         23    2    1    2    0    0  0.94780708007E+03  0.57276481966E+03  0.13647558090E+04  0.17598432368E+04  0.89955546254E+02 0.  0.
        254    2    1    2    0    0 -0.94780708007E+03 -0.57276481966E+03 -0.85962374876E+03  0.16670933898E+04  0.90213612117E+03 0.  0.
        -24    2    4    4    0    0 -0.75134697620E+03 -0.35644657017E+03 -0.89026736731E+02  0.83953329413E+03  0.72896886648E+02 0.  0.
         24    2    4    4    0    0 -0.19646010388E+03 -0.21631824949E+03 -0.77059701203E+03  0.82756009565E+03  0.75138535190E+02 0.  0.
         13    1    3    3    0    0  0.34773522335E+03  0.24085633939E+03  0.46606119344E+03  0.62940018892E+03  0.00000000000E+00 0. -1.
        -13    1    3    3    0    0  0.60007185672E+03  0.33190848027E+03  0.89869461555E+03  0.11304430479E+04  0.00000000000E+00 0.  1.
          4    1    6    6  502    0 -0.11563201038E+03 -0.17663285445E+03 -0.51652357648E+03  0.55800226895E+03  0.00000000000E+00 0. -1.
          3    1    5    5  503    0 -0.70645623623E+03 -0.31456879932E+03 -0.85534318729E+02  0.77804245571E+03  0.00000000000E+00 0. -1.
         -4    1    5    5    0  503 -0.44890739965E+02 -0.41877770851E+02 -0.34924180023E+01  0.61490838420E+02  0.00000000000E+00 0.  1.
         -3    1    6    6    0  502 -0.80828093497E+02 -0.39685395045E+02 -0.25407343555E+03  0.26955782669E+03  0.00000000000E+00 0.  1.
<mgrwt>
<rscale>  0 0.33895038E+04</rscale>
<asrwt>0</asrwt>
<pdfrwt beam="1">  1        1 0.30246682E+00 0.33895038E+04</pdfrwt>
<pdfrwt beam="2">  1       -1 0.22475420E+00 0.33895038E+04</pdfrwt>
<totfact> 0.26468962E-01</totfact>
</mgrwt>
</event>
<event>
12    1  0.2048318E-007  0.1399446E+04  0.7818608E-02  0.8954220E-01
          2   -1    0    0  501    0  0.00000000000E+00  0.00000000000E+00  0.16372097193E+04  0.16372097193E+04  0.00000000000E+00 0. -1.
         -2   -1    0    0    0  501 -0.00000000000E+00 -0.00000000000E+00 -0.29905290535E+03  0.29905290535E+03  0.00000000000E+00 0.  1.
         23    2    1    2    0    0  0.13089292580E+03  0.23652121777E+03  0.80767405431E+03  0.85647013753E+03  0.90158050063E+02 0.  0.
        254    2    1    2    0    0 -0.13089292580E+03 -0.23652121777E+03  0.53048275970E+03  0.10797924872E+04  0.90081330615E+03 0.  0.
        -24    2    4    4    0    0 -0.32043684054E+03 -0.47705648903E+03  0.18017657001E+03  0.60763111388E+03  0.80556264004E+02 0.  0.
         24    2    4    4    0    0  0.18954391474E+03  0.24053527125E+03  0.35030618969E+03  0.47216137329E+03  0.80236049058E+02 0.  0.
         11    1    3    3    0    0  0.10348085129E+03  0.23226265066E+03  0.68425944719E+03  0.72997617533E+03  0.00000000000E+00 0. -1.
        -11    1    3    3    0    0  0.27412074511E+02  0.42585671103E+01  0.12341460712E+03  0.12649396220E+03  0.00000000000E+00 0.  1.
          2    1    6    6  502    0  0.17089807858E+03  0.16610766017E+03  0.28404705035E+03  0.37078381146E+03  0.00000000000E+00 0. -1.
          3    1    5    5  503    0 -0.17107058786E+03 -0.18366644718E+03  0.83097652361E+02  0.26439313471E+03  0.00000000000E+00 0. -1.
         -4    1    5    5    0  503 -0.14936625268E+03 -0.29339004184E+03  0.97078917651E+02  0.34323797917E+03  0.00000000000E+00 0.  1.
         -1    1    6    6    0  502  0.18645836160E+02  0.74427611085E+02  0.66259139333E+02  0.10137756183E+03  0.00000000000E+00 0.  1.
<mgrwt>
<rscale>  0 0.13994461E+04</rscale>
<asrwt>0</asrwt>
<pdfrwt beam="1">  1        2 0.25187841E+00 0.13994461E+04</pdfrwt>
<pdfrwt beam="2">  1       -2 0.46008140E-01 0.13994461E+04</pdfrwt>
<totfact> 0.46339942E+01</totfact>
</mgrwt>
</event>
<event>
12    1  0.2048318E-007  0.2662973E+04  0.7818608E-02  0.8347120E-01
         -1   -1    0    0    0  501 -0.00000000000E+00  0.00000000000E+00  0.53105464466E+03  0.53105464466E+03  0.00000000000E+00 0.  1.
          1   -1    0    0  501    0  0.00000000000E+00 -0.00000000000E+00 -0.33383679353E+04  0.33383679353E+04  0.00000000000E+00 0. -1.
         23    2    1    2    0    0 -0.93492970790E+03  0.62332386955E+03 -0.73839910321E+03  0.13476556370E+04  0.91193614696E+02 0.  0.
        254    2    1    2    0    0  0.93492970790E+03 -0.62332386955E+03 -0.20689141874E+04  0.25217669429E+04  0.90348015714E+03 0.  0.
        -24    2    4    4    0    0  0.58361166156E+03 -0.20059464106E+03 -0.34837255423E+03  0.71384507331E+03  0.85852027489E+02 0.  0.
         24    2    4    4    0    0  0.35131804634E+03 -0.42272922849E+03 -0.17205416332E+04  0.18079218696E+04  0.78699458029E+02 0.  0.
         13    1    3    3    0    0 -0.26073655618E+03  0.21760933606E+03 -0.19824308064E+03  0.39323999529E+03  0.00000000000E+00 0.  1.
        -13    1    3    3    0    0 -0.67419315172E+03  0.40571453349E+03 -0.54015602257E+03  0.95441564175E+03  0.00000000000E+00 0. -1.
          4    1    6    6  502    0  0.33168826510E+03 -0.41669164950E+03 -0.16811958607E+04  0.17635386466E+04  0.00000000000E+00 0. -1.
          1    1    5    5  503    0  0.33975265744E+03 -0.14918107261E+03 -0.24115120642E+03  0.44253899830E+03  0.00000000000E+00 0. -1.
         -2    1    5    5    0  503  0.24385900412E+03 -0.51413568457E+02 -0.10722134780E+03  0.27130607501E+03  0.00000000000E+00 0.  1.
         -1    1    6    6    0  502  0.19629781238E+02 -0.60375789964E+01 -0.39345772525E+02  0.44383223038E+02  0.00000000000E+00 0.  1.
<mgrwt>
<rscale>  0 0.26629726E+04</rscale>
<asrwt>0</asrwt>
<pdfrwt beam="1">  1        1 0.51359506E+00 0.26629726E+04</pdfrwt>
<pdfrwt beam="2">  1       -1 0.81700715E-01 0.26629726E+04</pdfrwt>
<totfact> 0.43597702E-01</totfact>
</mgrwt>
</event>
<event>
12    1  0.2048318E-007  0.3812442E+04  0.7818608E-02  0.8043490E-01
         -1   -1    0    0    0  501 -0.00000000000E+00  0.00000000000E+00  0.24276904107E+04  0.24276904107E+04  0.00000000000E+00 0. -1.
          1   -1    0    0  501    0  0.00000000000E+00 -0.00000000000E+00 -0.14967631758E+04  0.14967631758E+04  0.00000000000E+00 0.  1.
         23    2    1    2    0    0  0.14683560920E+04  0.21581516056E+03 -0.60553988799E+03  0.16053460319E+04  0.88382859486E+02 0.  0.
        254    2    1    2    0    0 -0.14683560920E+04 -0.21581516056E+03  0.15364671230E+04  0.23191075545E+04  0.90270860920E+03 0.  0.
        -24    2    4    4    0    0 -0.43057455976E+03  0.82513213795E+01 -0.13969442840E+02  0.43829319824E+03  0.80269835389E+02 0.  0.
         24    2    4    4    0    0 -0.10377815322E+04 -0.22406648194E+03  0.15504365658E+04  0.18808143563E+04  0.80079968100E+02 0.  0.
         13    1    3    3    0    0  0.93099498098E+03  0.11111124653E+03 -0.34518662965E+03  0.99912520387E+03  0.00000000000E+00 0.  1.
        -13    1    3    3    0    0  0.53736111102E+03  0.10470391403E+03 -0.26035325834E+03  0.60622082807E+03  0.00000000000E+00 0. -1.
          2    1    6    6  502    0 -0.74596562863E+03 -0.16842145906E+03  0.10525464125E+04  0.13010320739E+04  0.00000000000E+00 0. -1.
          3    1    5    5  503    0 -0.19930863595E+03 -0.30834479452E+02 -0.26499433097E+02  0.20341316930E+03  0.00000000000E+00 0. -1.
         -4    1    5    5    0  503 -0.23126592381E+03  0.39085800832E+02  0.12529990258E+02  0.23488002895E+03  0.00000000000E+00 0.  1.
         -1    1    6    6    0  502 -0.29181590362E+03 -0.55645022874E+02  0.49789015336E+03  0.57978228240E+03  0.00000000000E+00 0.  1.
<mgrwt>
<rscale>  0 0.38124415E+04</rscale>
<asrwt>0</asrwt>
<pdfrwt beam="1">  1        1 0.23027126E+00 0.38124415E+04</pdfrwt>
<pdfrwt beam="2">  1       -1 0.37349083E+00 0.38124415E+04</pdfrwt>
<totfact> 0.56543126E-02</totfact>
</mgrwt>
</event>
<event>
12    1  0.2048318E-007  0.1652355E+04  0.7818608E-02  0.8789015E-01
         -1   -1    0    0    0  501 -0.00000000000E+00  0.00000000000E+00  0.61462434506E+03  0.61462434506E+03  0.00000000000E+00 0.  1.
          1   -1    0    0  501    0  0.00000000000E+00 -0.00000000000E+00 -0.11105464399E+04  0.11105464399E+04  0.00000000000E+00 0. -1.
         23    2    1    2    0    0  0.21059647656E+02  0.49815130066E+03  0.12822809137E+03  0.52252130187E+03  0.89374718950E+02 0.  0.
        254    2    1    2    0    0 -0.21059647656E+02 -0.49815130066E+03 -0.62415018616E+03  0.12026494830E+04  0.89900172251E+03 0.  0.
        -24    2    4    4    0    0  0.39058589117E+03 -0.40047848535E+03 -0.20319668484E+03  0.60044843106E+03  0.79429654557E+02 0.  0.
         24    2    4    4    0    0 -0.41164553883E+03 -0.97672815313E+02 -0.42095350132E+03  0.60220105199E+03  0.80325763315E+02 0.  0.
         11    1    3    3    0    0  0.41468568907E+02  0.21936500481E+03  0.88623198258E+02  0.24019724980E+03  0.00000000000E+00 0.  1.
        -11    1    3    3    0    0 -0.20408921251E+02  0.27878629585E+03  0.39604893107E+02  0.28232405207E+03  0.00000000000E+00 0. -1.
          2    1    6    6  502    0 -0.20836501007E+03 -0.30354424199E+02 -0.25855279738E+03  0.33344702356E+03  0.00000000000E+00 0. -1.
          1    1    5    5  503    0  0.11046846072E+03 -0.15531320791E+03 -0.44128744949E+02  0.19563440264E+03  0.00000000000E+00 0. -1.
         -2    1    5    5    0  503  0.28011743045E+03 -0.24516527743E+03 -0.15906793989E+03  0.40481402842E+03  0.00000000000E+00 0.  1.
         -1    1    6    6    0  502 -0.20328052876E+03 -0.67318391114E+02 -0.16240070395E+03  0.26875402843E+03  0.00000000000E+00 0.  1.
<mgrwt>
<rscale>  0 0.16523545E+04</rscale>
<asrwt>0</asrwt>
<pdfrwt beam="1">  1        1 0.17085330E+00 0.16523545E+04</pdfrwt>
<pdfrwt beam="2">  1       -1 0.94557591E-01 0.16523545E+04</pdfrwt>
<totfact> 0.12871815E+01</totfact>
</mgrwt>
</event>
<event>
12    1  0.2048318E-007  0.2226865E+04  0.7818608E-02  0.8507329E-01
          2   -1    0    0  501    0  0.00000000000E+00  0.00000000000E+00  0.52021007069E+03  0.52021007069E+03  0.00000000000E+00 0. -1.
         -2   -1    0    0    0  501 -0.00000000000E+00 -0.00000000000E+00 -0.23831380533E+04  0.23831380533E+04  0.00000000000E+00 0.  1.
         23    2    1    2    0    0 -0.71615548680E+03 -0.55313970815E+03 -0.10552684428E+04  0.13931623774E+04  0.92020135363E+02 0.  0.
        254    2    1    2    0    0  0.71615548680E+03  0.55313970815E+03 -0.80765953976E+03  0.15101857466E+04  0.89972486852E+03 0.  0.
        -24    2    4    4    0    0  0.32478078622E+01  0.48057084438E+03 -0.57257278398E+03  0.75158317655E+03  0.77966618441E+02 0.  0.
         24    2    4    4    0    0  0.71290767894E+03  0.72568863772E+02 -0.23508675578E+03  0.75860257004E+03  0.81905298080E+02 0.  0.
         13    1    3    3    0    0 -0.36415438755E+03 -0.33831907701E+03 -0.58855810614E+03  0.77036930115E+03  0.00000000000E+00 0. -1.
        -13    1    3    3    0    0 -0.35200109925E+03 -0.21482063114E+03 -0.46671033670E+03  0.62279307625E+03  0.00000000000E+00 0.  1.
          4    1    6    6  502    0  0.11972914054E+03  0.18768009880E+02 -0.90072521632E+01  0.12152545364E+03  0.00000000000E+00 0. -1.
          1    1    5    5  503    0  0.18496304545E+02  0.27505422814E+03 -0.38051577969E+03  0.46988211318E+03  0.00000000000E+00 0. -1.
         -2    1    5    5    0  503 -0.15248496682E+02  0.20551661625E+03 -0.19205700429E+03  0.28170106337E+03  0.00000000000E+00 0.  1.
         -3    1    6    6    0  502  0.59317853839E+03  0.53800853891E+02 -0.22607950362E+03  0.63707711641E+03  0.00000000000E+00 0.  1.
<mgrwt>
<rscale>  0 0.22268654E+04</rscale>
<asrwt>0</asrwt>
<pdfrwt beam="1">  1        2 0.80032320E-01 0.22268654E+04</pdfrwt>
<pdfrwt beam="2">  1       -2 0.36663662E+00 0.22268654E+04</pdfrwt>
<totfact> 0.65509163E-01</totfact>
</mgrwt>
</event>
<event>
12    1  0.2048318E-007  0.1963346E+04  0.7818608E-02  0.8623952E-01
         -2   -1    0    0    0  501 -0.00000000000E+00  0.00000000000E+00  0.42499236305E+03  0.42499236305E+03  0.00000000000E+00 0. -1.
          2   -1    0    0  501    0  0.00000000000E+00 -0.00000000000E+00 -0.22675266085E+04  0.22675266085E+04  0.00000000000E+00 0.  1.
         23    2    1    2    0    0 -0.38608593207E+03 -0.56969311714E+03 -0.24327466755E+03  0.73584923412E+03  0.93160811582E+02 0.  0.
        254    2    1    2    0    0  0.38608593207E+03  0.56969311714E+03 -0.15992595779E+04  0.19566697374E+04  0.89292366373E+03 0.  0.
        -24    2    4    4    0    0 -0.23171266538E+03 -0.39310672539E+02 -0.27304885733E+03  0.36964716055E+03  0.82748151282E+02 0.  0.
         24    2    4    4    0    0  0.61779859745E+03  0.60900378968E+03 -0.13262107205E+04  0.15870225769E+04  0.85117926157E+02 0.  0.
         11    1    3    3    0    0 -0.14918516121E+03 -0.15597627157E+03 -0.50896786625E+02  0.22175502814E+03  0.00000000000E+00 0. -1.
        -11    1    3    3    0    0 -0.23690077086E+03 -0.41371684558E+03 -0.19237788093E+03  0.51409420598E+03  0.00000000000E+00 0.  1.
          4    1    6    6  502    0  0.23898830592E+03  0.17989056346E+03 -0.44134757696E+03  0.53316386681E+03  0.00000000000E+00 0. -1.
          1    1    5    5  503    0 -0.10275602976E+03  0.58370868494E+00 -0.17452558045E+03  0.20252980176E+03  0.00000000000E+00 0. -1.
         -2    1    5    5    0  503 -0.12895663561E+03 -0.39894381224E+02 -0.98523276883E+02  0.16711735879E+03  0.00000000000E+00 0.  1.
         -3    1    6    6    0  502  0.37881029153E+03  0.42911322622E+03 -0.88486314359E+03  0.10538587101E+04  0.00000000000E+00 0.  1.
<mgrwt>
<rscale>  0 0.19633456E+04</rscale>
<asrwt>0</asrwt>
<pdfrwt beam="1">  1        2 0.34885024E+00 0.19633456E+04</pdfrwt>
<pdfrwt beam="2">  1       -2 0.65383441E-01 0.19633456E+04</pdfrwt>
<totfact> 0.95023620E+00</totfact>
</mgrwt>
</event>
<event>
12    1  0.2048318E-007  0.1467707E+04  0.7818608E-02  0.8906216E-01
         -2   -1    0    0    0  501 -0.00000000000E+00  0.00000000000E+00  0.14608945526E+04  0.14608945526E+04  0.00000000000E+00 0.  1.
          2   -1    0    0  501    0  0.00000000000E+00 -0.00000000000E+00 -0.36863758100E+03  0.36863758100E+03  0.00000000000E+00 0. -1.
         23    2    1    2    0    0  0.10782825985E+03  0.41369316543E+03  0.16216607535E+03  0.46577078516E+03  0.88744687548E+02 0.  0.
        254    2    1    2    0    0 -0.10782825985E+03 -0.41369316543E+03  0.93009089629E+03  0.13637613485E+04  0.90111429435E+03 0.  0.
        -24    2    4    4    0    0  0.36868951210E+03 -0.33474475113E+03  0.42539904657E+03  0.65976567017E+03  0.79626540588E+02 0.  0.
         24    2    4    4    0    0 -0.47651777195E+03 -0.78948414299E+02  0.50469184971E+03  0.70399567830E+03  0.87143633164E+02 0.  0.
         13    1    3    3    0    0  0.11563027848E+03  0.36939733277E+03  0.16484797865E+03  0.42071321209E+03  0.00000000000E+00 0.  1.
        -13    1    3    3    0    0 -0.78020186326E+01  0.44295832660E+02 -0.26819033024E+01  0.45057573071E+02  0.00000000000E+00 0. -1.
          2    1    6    6  502    0 -0.50875624374E+02  0.27316136975E+01  0.93952885634E+02  0.10687813428E+03  0.00000000000E+00 0. -1.
          3    1    5    5  503    0  0.10891317508E+02 -0.74196430299E+00 -0.52509886332E+00  0.10929182810E+02  0.00000000000E+00 0. -1.
         -4    1    5    5    0  503  0.35779819459E+03 -0.33400278683E+03  0.42592414544E+03  0.64883648736E+03  0.00000000000E+00 0.  1.
         -1    1    6    6    0  502 -0.42564214757E+03 -0.81680027996E+02  0.41073896408E+03  0.59711754402E+03  0.00000000000E+00 0.  1.
<mgrwt>
<rscale>  0 0.14677066E+04</rscale>
<asrwt>0</asrwt>
<pdfrwt beam="1">  1        2 0.56713475E-01 0.14677066E+04</pdfrwt>
<pdfrwt beam="2">  1       -2 0.22475301E+00 0.14677066E+04</pdfrwt>
<totfact> 0.77848818E+00</totfact>
</mgrwt>
</event>
<event>
12    1  0.2048318E-007  0.2732993E+04  0.7818608E-02  0.8324379E-01
         -1   -1    0    0    0  501 -0.00000000000E+00  0.00000000000E+00  0.13647971936E+04  0.13647971936E+04  0.00000000000E+00 0.  1.
          1   -1    0    0  501    0  0.00000000000E+00 -0.00000000000E+00 -0.13681980604E+04  0.13681980604E+04  0.00000000000E+00 0. -1.
         23    2    1    2    0    0 -0.13564712476E+03 -0.90787346771E+03 -0.79909266272E+03  0.12209666149E+04  0.97857116612E+02 0.  0.
        254    2    1    2    0    0  0.13564712476E+03  0.90787346771E+03  0.79569179599E+03  0.15120286391E+04  0.90026151502E+03 0.  0.
        -24    2    4    4    0    0  0.16660527579E+03  0.10774474151E+04  0.70884903459E+03  0.13028844214E+04  0.79941300139E+02 0.  0.
         24    2    4    4    0    0 -0.30958151023E+02 -0.16957394740E+03  0.86842761407E+02  0.20914421769E+03  0.80535134160E+02 0.  0.
         13    1    3    3    0    0 -0.14807250401E+03 -0.78685957978E+03 -0.71071788605E+03  0.10706042118E+04  0.00000000000E+00 0. -1.
        -13    1    3    3    0    0  0.12425379247E+02 -0.12101388793E+03 -0.88374776675E+02  0.15036240313E+03  0.00000000000E+00 0.  1.
          4    1    6    6  502    0 -0.14067935669E+02 -0.15025422679E+03  0.99267235881E+02  0.18063284198E+03  0.00000000000E+00 0. -1.
          3    1    5    5  503    0  0.54697899759E+02  0.18934663892E+03  0.14939219840E+03  0.24730960121E+03  0.00000000000E+00 0. -1.
         -4    1    5    5    0  503  0.11190737603E+03  0.88810077619E+03  0.55945683619E+03  0.10555748202E+04  0.00000000000E+00 0.  1.
         -3    1    6    6    0  502 -0.16890215354E+02 -0.19319720615E+02 -0.12424474474E+02  0.28511375717E+02  0.00000000000E+00 0.  1.
<mgrwt>
<rscale>  0 0.27329931E+04</rscale>
<asrwt>0</asrwt>
<pdfrwt beam="1">  1        1 0.21049201E+00 0.27329931E+04</pdfrwt>
<pdfrwt beam="2">  1       -1 0.20996880E+00 0.27329931E+04</pdfrwt>
<totfact> 0.90602814E-01</totfact>
</mgrwt>
</event>
<event>
12    1  0.2048318E-007  0.2351879E+04  0.7818608E-02  0.8457742E-01
          2   -1    0    0  501    0  0.00000000000E+00  0.00000000000E+00  0.17421507457E+04  0.17421507457E+04  0.00000000000E+00 0. -1.
         -2   -1    0    0    0  501 -0.00000000000E+00 -0.00000000000E+00 -0.79375085570E+03  0.79375085570E+03  0.00000000000E+00 0.  1.
         23    2    1    2    0    0  0.37982229004E+03  0.91986085418E+03  0.30643656704E+03  0.10457828175E+04  0.96692134088E+02 0.  0.
        254    2    1    2    0    0 -0.37982229004E+03 -0.91986085418E+03  0.64196332296E+03  0.14901187838E+04  0.90439378529E+03 0.  0.
        -24    2    4    4    0    0  0.53993099160E+02 -0.56466256173E+03 -0.73800264839E+02  0.57761066731E+03  0.80178179843E+02 0.  0.
         24    2    4    4    0    0 -0.43381538920E+03 -0.35519829245E+03  0.71576358780E+03  0.91250811653E+03  0.77407559423E+02 0.  0.
         13    1    3    3    0    0  0.13213774145E+03  0.43425382161E+03  0.16060413987E+03  0.48148775067E+03  0.00000000000E+00 0.  1.
        -13    1    3    3    0    0  0.24768454859E+03  0.48560703257E+03  0.14583242717E+03  0.56429506688E+03  0.00000000000E+00 0. -1.
          2    1    6    6  502    0 -0.10012914986E+03 -0.43580454193E+02  0.14860233067E+03  0.18441191751E+03  0.00000000000E+00 0. -1.
          3    1    5    5  503    0  0.59728413576E+02 -0.29140357258E+03 -0.13791209516E+02  0.29778133413E+03  0.00000000000E+00 0. -1.
         -4    1    5    5    0  503 -0.57353144163E+01 -0.27325898916E+03 -0.60009055324E+02  0.27982933318E+03  0.00000000000E+00 0.  1.
         -1    1    6    6    0  502 -0.33368623934E+03 -0.31161783826E+03  0.56716125713E+03  0.72809619902E+03  0.00000000000E+00 0.  1.
<mgrwt>
<rscale>  0 0.23518789E+04</rscale>
<asrwt>0</asrwt>
<pdfrwt beam="1">  1        2 0.26802319E+00 0.23518789E+04</pdfrwt>
<pdfrwt beam="2">  1       -2 0.12211552E+00 0.23518789E+04</pdfrwt>
<totfact> 0.42646797E+00</totfact>
</mgrwt>
</event>
<event>
12    1  0.2048318E-007  0.1277258E+04  0.7818608E-02  0.9047797E-01
          1   -1    0    0  501    0  0.00000000000E+00  0.00000000000E+00  0.65501257471E+03  0.65501257471E+03  0.00000000000E+00 0. -1.
         -1   -1    0    0    0  501 -0.00000000000E+00 -0.00000000000E+00 -0.62265527441E+03  0.62265527441E+03  0.00000000000E+00 0.  1.
         23    2    1    2    0    0 -0.56472494792E+02 -0.30222467222E+03 -0.30599236658E+02  0.32154206630E+03  0.89017368805E+02 0.  0.
        254    2    1    2    0    0  0.56472494792E+02  0.30222467222E+03  0.62956536959E+02  0.95612578282E+03  0.90315230823E+03 0.  0.
        -24    2    4    4    0    0  0.92266062460E+01 -0.37051526257E+02  0.43489617652E+03  0.44350574222E+03  0.78132663884E+02 0.  0.
         24    2    4    4    0    0  0.47245888546E+02  0.33927619848E+03 -0.37193963956E+03  0.51262004060E+03  0.84259703967E+02 0.  0.
         13    1    3    3    0    0 -0.12786560803E+02 -0.57216548148E+02  0.29330984106E+02  0.65555595854E+02  0.00000000000E+00 0. -1.
        -13    1    3    3    0    0 -0.43685933989E+02 -0.24500812407E+03 -0.59930220764E+02  0.25598647045E+03  0.00000000000E+00 0.  1.
          4    1    6    6  502    0  0.21354764183E+02  0.15636652346E+02 -0.42588651953E+02  0.50143036655E+02  0.00000000000E+00 0. -1.
          1    1    5    5  503    0 -0.12306502738E+02  0.18531646598E+02  0.61887223260E+02  0.65763974470E+02  0.00000000000E+00 0. -1.
         -2    1    5    5    0  503  0.21533108984E+02 -0.55583172855E+02  0.37300895326E+03  0.37774176774E+03  0.00000000000E+00 0.  1.
         -3    1    6    6    0  502  0.25891124364E+02  0.32363954613E+03 -0.32935098761E+03  0.46247700395E+03  0.00000000000E+00 0.  1.
<mgrwt>
<rscale>  0 0.12772581E+04</rscale>
<asrwt>0</asrwt>
<pdfrwt beam="1">  1        1 0.10077117E+00 0.12772581E+04</pdfrwt>
<pdfrwt beam="2">  1       -1 0.95793119E-01 0.12772581E+04</pdfrwt>
<totfact> 0.31158944E+01</totfact>
</mgrwt>
</event>
<event>
12    1  0.2048318E-007  0.2075505E+04  0.7818608E-02  0.8572111E-01
          1   -1    0    0  501    0  0.00000000000E+00  0.00000000000E+00  0.18552647946E+04  0.18552647946E+04  0.00000000000E+00 0. -1.
         -1   -1    0    0    0  501 -0.00000000000E+00 -0.00000000000E+00 -0.58047259147E+03  0.58047259147E+03  0.00000000000E+00 0.  1.
         23    2    1    2    0    0  0.75145546140E+03 -0.34502191814E+03  0.69375326557E+03  0.10832327724E+04  0.91510716410E+02 0.  0.
        254    2    1    2    0    0 -0.75145546140E+03  0.34502191814E+03  0.58103893760E+03  0.13525046137E+04  0.89885318528E+03 0.  0.
        -24    2    4    4    0    0 -0.24668682253E+03  0.74374567963E+02  0.71092352930E+03  0.76016087086E+03  0.77758088309E+02 0.  0.
         24    2    4    4    0    0 -0.50476863886E+03  0.27064735018E+03 -0.12988459170E+03  0.59234374288E+03  0.77199323980E+02 0.  0.
         11    1    3    3    0    0  0.72439464573E+03 -0.34584519048E+03  0.65544093058E+03  0.10363200818E+04  0.00000000000E+00 0.  1.
        -11    1    3    3    0    0  0.27060815667E+02  0.82327233809E+00  0.38312334995E+02  0.46912690550E+02  0.00000000000E+00 0. -1.
          4    1    6    6  502    0 -0.12865757862E+02 -0.11694183361E+01 -0.12965347438E+02  0.18302882254E+02  0.00000000000E+00 0. -1.
          3    1    5    5  503    0 -0.23557960851E+02  0.27283283645E+02  0.55314666032E+02  0.66023233518E+02  0.00000000000E+00 0. -1.
         -4    1    5    5    0  503 -0.22312886168E+03  0.47091284318E+02  0.65560886327E+03  0.69413763734E+03  0.00000000000E+00 0.  1.
         -3    1    6    6    0  502 -0.49190288100E+03  0.27181676852E+03 -0.11691924426E+03  0.57404086062E+03  0.00000000000E+00 0.  1.
<mgrwt>
<rscale>  0 0.20755051E+04</rscale>
<asrwt>0</asrwt>
<pdfrwt beam="1">  1        1 0.28542535E+00 0.20755051E+04</pdfrwt>
<pdfrwt beam="2">  1       -1 0.89303477E-01 0.20755051E+04</pdfrwt>
<totfact> 0.42311846E+00</totfact>
</mgrwt>
</event>
<event>
12    1  0.2048318E-007  0.3766670E+04  0.7818608E-02  0.8053345E-01
         -1   -1    0    0    0  501 -0.00000000000E+00  0.00000000000E+00  0.11129474955E+04  0.11129474955E+04  0.00000000000E+00 0.  1.
          1   -1    0    0  501    0  0.00000000000E+00 -0.00000000000E+00 -0.31869883890E+04  0.31869883890E+04  0.00000000000E+00 0. -1.
         23    2    1    2    0    0  0.60297762994E+03 -0.15321522419E+04 -0.17338774126E+04  0.23928850745E+04  0.92171487810E+02 0.  0.
        254    2    1    2    0    0 -0.60297762994E+03  0.15321522419E+04 -0.34016348095E+03  0.19070508101E+04  0.90003282378E+03 0.  0.
        -24    2    4    4    0    0 -0.59699321623E+03  0.16387503100E+04 -0.30999141474E+03  0.17731880054E+04  0.78724498362E+02 0.  0.
         24    2    4    4    0    0 -0.59844137060E+01 -0.10659806807E+03 -0.30172066212E+02  0.13386280467E+03  0.74899503139E+02 0.  0.
         11    1    3    3    0    0  0.57882126149E+03 -0.14137509930E+04 -0.15891453581E+04  0.22043386519E+04  0.00000000000E+00 0. -1.
        -11    1    3    3    0    0  0.24156368445E+02 -0.11840124891E+03 -0.14473205449E+03  0.18854642261E+03  0.00000000000E+00 0.  1.
          4    1    6    6  502    0 -0.15721555961E+02 -0.85559047139E+02 -0.52557864358E+02  0.10163585477E+03  0.00000000000E+00 0. -1.
          3    1    5    5  503    0 -0.51594831531E+03  0.14315764838E+04 -0.24405972270E+03  0.15411615883E+04  0.00000000000E+00 0. -1.
         -4    1    5    5    0  503 -0.81044900921E+02  0.20717382625E+03 -0.65931692034E+02  0.23202641716E+03  0.00000000000E+00 0.  1.
         -3    1    6    6    0  502  0.97371422548E+01 -0.21039020934E+02  0.22385798147E+02  0.32226949899E+02  0.00000000000E+00 0.  1.
<mgrwt>
<rscale>  0 0.37666700E+04</rscale>
<asrwt>0</asrwt>
<pdfrwt beam="1">  1        1 0.49030590E+00 0.37666700E+04</pdfrwt>
<pdfrwt beam="2">  1       -1 0.17122270E+00 0.37666700E+04</pdfrwt>
<totfact> 0.83524405E-02</totfact>
</mgrwt>
</event>
<event>
12    1  0.2048318E-007  0.1748961E+04  0.7818608E-02  0.8733922E-01
         -3   -1    0    0    0  501 -0.00000000000E+00  0.00000000000E+00  0.33654436329E+03  0.33654436329E+03  0.00000000000E+00 0.  1.
          3   -1    0    0  501    0  0.00000000000E+00 -0.00000000000E+00 -0.22722603376E+04  0.22722603376E+04  0.00000000000E+00 0. -1.
         23    2    1    2    0    0 -0.48159422725E+03  0.31282057397E+02 -0.93145351236E+02  0.49885564563E+03  0.85260376962E+02 0.  0.
        254    2    1    2    0    0  0.48159422725E+03 -0.31282057397E+02 -0.18425706231E+04  0.21099490553E+04  0.90769320146E+03 0.  0.
        -24    2    4    4    0    0 -0.23382196201E+03 -0.15936289080E+03 -0.46487975958E+03  0.54999860226E+03  0.79473459367E+02 0.  0.
         24    2    4    4    0    0  0.71541618926E+03  0.12808083340E+03 -0.13776908635E+04  0.15599504530E+04  0.84783705596E+02 0.  0.
         13    1    3    3    0    0 -0.20345418589E+03  0.26725099114E+02  0.92182475557E+00  0.20520401176E+03  0.00000000000E+00 0.  1.
        -13    1    3    3    0    0 -0.27814004136E+03  0.45569582829E+01 -0.94067175991E+02  0.29365163387E+03  0.00000000000E+00 0. -1.
          4    1    6    6  502    0  0.29675433137E+03  0.62222814133E+02 -0.66310988390E+03  0.72914301060E+03  0.00000000000E+00 0. -1.
          3    1    5    5  503    0 -0.68257963849E+02 -0.77999799776E+02 -0.11756145316E+03  0.15672847113E+03  0.00000000000E+00 0. -1.
         -4    1    5    5    0  503 -0.16556399816E+03 -0.81363091023E+02 -0.34731830641E+03  0.39327013113E+03  0.00000000000E+00 0.  1.
         -3    1    6    6    0  502  0.41866185789E+03  0.65858019269E+02 -0.71458097962E+03  0.83080744242E+03  0.00000000000E+00 0.  1.
<mgrwt>
<rscale>  0 0.17489613E+04</rscale>
<asrwt>0</asrwt>
<pdfrwt beam="1">  1        3 0.34957852E+00 0.17489613E+04</pdfrwt>
<pdfrwt beam="2">  1       -3 0.51776055E-01 0.17489613E+04</pdfrwt>
<totfact> 0.19075712E-01</totfact>
</mgrwt>
</event>
<event>
12    1  0.2048318E-007  0.1053567E+04  0.7818608E-02  0.9251669E-01
         -2   -1    0    0    0  501 -0.00000000000E+00  0.00000000000E+00  0.21926142704E+03  0.21926142704E+03  0.00000000000E+00 0.  1.
          2   -1    0    0  501    0  0.00000000000E+00 -0.00000000000E+00 -0.12656156486E+04  0.12656156486E+04  0.00000000000E+00 0. -1.
         23    2    1    2    0    0 -0.73825053970E+02  0.54348860529E+02 -0.50813605723E+02  0.13930461275E+03  0.91759551937E+02 0.  0.
        254    2    1    2    0    0  0.73825053970E+02 -0.54348860529E+02 -0.99554061584E+03  0.13455724629E+04  0.90058880621E+03 0.  0.
        -24    2    4    4    0    0 -0.55024230219E+02 -0.26211128106E+03  0.35347424206E+02  0.28308771951E+03  0.84612215244E+02 0.  0.
         24    2    4    4    0    0  0.12884928419E+03  0.20776242053E+03 -0.10308880400E+04  0.10624847434E+04  0.79851846523E+02 0.  0.
         13    1    3    3    0    0 -0.82064844365E+02  0.69873638562E+02 -0.29633109656E+02  0.11178141721E+03  0.00000000000E+00 0. -1.
        -13    1    3    3    0    0  0.82397903951E+01 -0.15524778033E+02 -0.21180496066E+02  0.27523195533E+02  0.00000000000E+00 0.  1.
          4    1    6    6  502    0 -0.21483580320E+01  0.58327217482E+02 -0.24623261849E+03  0.25305568982E+03  0.00000000000E+00 0. -1.
          3    1    5    5  503    0 -0.35370791314E+02 -0.17814534234E+03 -0.16657230294E+02  0.18238508491E+03  0.00000000000E+00 0. -1.
         -4    1    5    5    0  503 -0.19653438904E+02 -0.83965938716E+02  0.52004654499E+02  0.10070263460E+03  0.00000000000E+00 0.  1.
         -1    1    6    6    0  502  0.13099764222E+03  0.14943520305E+03 -0.78465542156E+03  0.80942905357E+03  0.00000000000E+00 0.  1.
<mgrwt>
<rscale>  0 0.10535667E+04</rscale>
<asrwt>0</asrwt>
<pdfrwt beam="1">  1        2 0.19471010E+00 0.10535667E+04</pdfrwt>
<pdfrwt beam="2">  1       -2 0.33732528E-01 0.10535667E+04</pdfrwt>
<totfact> 0.14153955E+02</totfact>
</mgrwt>
</event>
<event>
12    1  0.2048318E-007  0.1515709E+04  0.7818608E-02  0.8874073E-01
          4   -1    0    0  501    0  0.00000000000E+00  0.00000000000E+00  0.26346124763E+04  0.26346124763E+04  0.00000000000E+00 0. -1.
         -4   -1    0    0    0  501 -0.00000000000E+00 -0.00000000000E+00 -0.21799922191E+03  0.21799922191E+03  0.00000000000E+00 0.  1.
         23    2    1    2    0    0  0.26031398155E+03 -0.30990634259E+03  0.28704785411E+03  0.50495853040E+03  0.93708786733E+02 0.  0.
        254    2    1    2    0    0 -0.26031398155E+03  0.30990634259E+03  0.21295654003E+04  0.23476531678E+04  0.90145509709E+03 0.  0.
        -24    2    4    4    0    0 -0.27686622476E+03 -0.23702058934E+03  0.48221739318E+03  0.60995965496E+03  0.81752677073E+02 0.  0.
         24    2    4    4    0    0  0.16552243206E+02  0.54692693192E+03  0.16473480071E+04  0.17376935128E+04  0.80126415620E+02 0.  0.
         13    1    3    3    0    0  0.72824461129E+02 -0.14280980088E+03  0.78400344941E+02  0.17845070875E+03  0.00000000000E+00 0. -1.
        -13    1    3    3    0    0  0.18748952042E+03 -0.16709654171E+03  0.20864750917E+03  0.32650782165E+03  0.00000000000E+00 0.  1.
          4    1    6    6  502    0 -0.26022372184E+02  0.79725636311E+02  0.24595927551E+03  0.25986401473E+03  0.00000000000E+00 0. -1.
          1    1    5    5  503    0 -0.65508534768E+02 -0.62184804437E+02  0.18277011959E+03  0.20387063213E+03  0.00000000000E+00 0. -1.
         -2    1    5    5    0  503 -0.21135768999E+03 -0.17483578490E+03  0.29944727359E+03  0.40608902283E+03  0.00000000000E+00 0.  1.
         -3    1    6    6    0  502  0.42574615390E+02  0.46720129561E+03  0.14013887316E+04  0.14778294981E+04  0.00000000000E+00 0.  1.
<mgrwt>
<rscale>  0 0.15157090E+04</rscale>
<asrwt>0</asrwt>
<pdfrwt beam="1">  1        4 0.40532497E+00 0.15157090E+04</pdfrwt>
<pdfrwt beam="2">  1       -4 0.33538344E-01 0.15157090E+04</pdfrwt>
<totfact> 0.10626399E-01</totfact>
</mgrwt>
</event>
<event>
12    1  0.2048318E-007  0.2085969E+04  0.7818608E-02  0.8567449E-01
         -2   -1    0    0    0  501 -0.00000000000E+00  0.00000000000E+00  0.34587527768E+03  0.34587527768E+03  0.00000000000E+00 0.  1.
          2   -1    0    0  501    0  0.00000000000E+00 -0.00000000000E+00 -0.31451136251E+04  0.31451136251E+04  0.00000000000E+00 0. -1.
         23    2    1    2    0    0 -0.72356457281E+03 -0.12171924187E+03 -0.18379672668E+04  0.19811152925E+04  0.91284519188E+02 0.  0.
        254    2    1    2    0    0  0.72356457281E+03  0.12171924187E+03 -0.96127108057E+03  0.15098736102E+04  0.90405473489E+03 0.  0.
        -24    2    4    4    0    0  0.47595142250E+03  0.15779125445E+02 -0.10965476322E+04  0.11981045504E+04  0.79114263831E+02 0.  0.
         24    2    4    4    0    0  0.24761315031E+03  0.10594011643E+03  0.13527655159E+03  0.31176905982E+03  0.79778573419E+02 0.  0.
         11    1    3    3    0    0 -0.91514959982E+02  0.10633822171E+02 -0.19049523755E+03  0.21160458786E+03  0.00000000000E+00 0. -1.
        -11    1    3    3    0    0 -0.63204961283E+03 -0.13235306404E+03 -0.16474720293E+04  0.17695107046E+04  0.00000000000E+00 0.  1.
          2    1    6    6  502    0 -0.38905926151E+01 -0.43604317283E+01  0.53650223119E+00  0.58683822641E+01  0.00000000000E+00 0. -1.
          3    1    5    5  503    0  0.80284272259E+02  0.32156745260E+02 -0.18214801142E+03  0.20163709654E+03  0.00000000000E+00 0. -1.
         -4    1    5    5    0  503  0.39566715024E+03 -0.16377619815E+02 -0.91439962074E+03  0.99646745387E+03  0.00000000000E+00 0.  1.
         -1    1    6    6    0  502  0.25150374292E+03  0.11030054816E+03  0.13474004936E+03  0.30590067756E+03  0.00000000000E+00 0.  1.
<mgrwt>
<rscale>  0 0.20859694E+04</rscale>
<asrwt>0</asrwt>
<pdfrwt beam="1">  1        2 0.48386365E+00 0.20859694E+04</pdfrwt>
<pdfrwt beam="2">  1       -2 0.53211580E-01 0.20859694E+04</pdfrwt>
<totfact> 0.43353774E+00</totfact>
</mgrwt>
</event>
<event>
12    1  0.2048318E-007  0.1577184E+04  0.7818608E-02  0.8834688E-01
          1   -1    0    0  501    0  0.00000000000E+00  0.00000000000E+00  0.39508959558E+03  0.39508959558E+03  0.00000000000E+00 0. -1.
         -1   -1    0    0    0  501 -0.00000000000E+00 -0.00000000000E+00 -0.15740168785E+04  0.15740168785E+04  0.00000000000E+00 0.  1.
         23    2    1    2    0    0  0.13396716292E+03 -0.66824865455E+02  0.23104576354E+03  0.29012912839E+03  0.91542355796E+02 0.  0.
        254    2    1    2    0    0 -0.13396716292E+03  0.66824865455E+02 -0.14099730464E+04  0.16789773457E+04  0.89918194611E+03 0.  0.
        -24    2    4    4    0    0  0.80236459801E+02 -0.98828276186E+02  0.74576360245E+02  0.16787461006E+03  0.80095777298E+02 0.  0.
         24    2    4    4    0    0 -0.21420362272E+03  0.16565314164E+03 -0.14845494067E+04  0.15111027356E+04  0.78869394323E+02 0.  0.
         13    1    3    3    0    0  0.11076848937E+03 -0.67983800388E+02  0.23302381264E+03  0.26681745185E+03  0.00000000000E+00 0. -1.
        -13    1    3    3    0    0  0.23198673554E+02  0.11589349326E+01 -0.19780491031E+01  0.23311676540E+02  0.00000000000E+00 0.  1.
          4    1    6    6  502    0 -0.69919359647E+02  0.10353826582E+03 -0.66520768039E+03  0.67683834657E+03  0.00000000000E+00 0. -1.
          1    1    5    5  503    0  0.83010034929E+02 -0.11055840243E+03  0.70170583138E+02  0.15504108160E+03  0.00000000000E+00 0. -1.
         -2    1    5    5    0  503 -0.27735751280E+01  0.11730126246E+02  0.44057771065E+01  0.12833528457E+02  0.00000000000E+00 0.  1.
         -3    1    6    6    0  502 -0.14428426308E+03  0.62114875826E+02 -0.81934172628E+03  0.83426438902E+03  0.00000000000E+00 0.  1.
<mgrwt>
<rscale>  0 0.15771844E+04</rscale>
<asrwt>0</asrwt>
<pdfrwt beam="1">  1        1 0.60783014E-01 0.15771844E+04</pdfrwt>
<pdfrwt beam="2">  1       -1 0.24215645E+00 0.15771844E+04</pdfrwt>
<totfact> 0.46023989E+00</totfact>
</mgrwt>
</event>
<event>
12    1  0.2048318E-007  0.8223633E+04  0.7818608E-02  0.7462918E-01
         -2   -1    0    0    0  501 -0.00000000000E+00  0.00000000000E+00  0.39287998950E+04  0.39287998950E+04  0.00000000000E+00 0. -1.
          2   -1    0    0  501    0  0.00000000000E+00 -0.00000000000E+00 -0.43033583930E+04  0.43033583930E+04  0.00000000000E+00 0.  1.
         23    2    1    2    0    0 -0.54964881306E+03 -0.36676107668E+04 -0.18441141079E+04  0.41428169170E+04  0.93234170728E+02 0.  0.
        254    2    1    2    0    0  0.54964881306E+03  0.36676107668E+04  0.14695556098E+04  0.40893413710E+04  0.89979809041E+03 0.  0.
        -24    2    4    4    0    0  0.52576123549E+03  0.32011151018E+04  0.15705782829E+04  0.36050721403E+04  0.79159474364E+02 0.  0.
         24    2    4    4    0    0  0.23887577570E+02  0.46649566499E+03 -0.10102267306E+03  0.48426923066E+03  0.78245034825E+02 0.  0.
         11    1    3    3    0    0 -0.11317573910E+03 -0.76835273992E+03 -0.34421325376E+03  0.84950423479E+03  0.00000000000E+00 0. -1.
        -11    1    3    3    0    0 -0.43647307395E+03 -0.28992580269E+04 -0.14999008541E+04  0.32933126822E+04  0.00000000000E+00 0.  1.
          2    1    6    6  502    0  0.33425854993E+02  0.44020529560E+03 -0.78581659764E+02  0.44841171629E+03  0.00000000000E+00 0. -1.
          1    1    5    5  503    0  0.39899781581E+03  0.25962819454E+04  0.12883665572E+04  0.29257080481E+04  0.00000000000E+00 0. -1.
         -2    1    5    5    0  503  0.12676341968E+03  0.60483315641E+03  0.28221172565E+03  0.67936409219E+03  0.00000000000E+00 0.  1.
         -1    1    6    6    0  502 -0.95382774231E+01  0.26290369390E+02 -0.22441013297E+02  0.35857514368E+02  0.00000000000E+00 0.  1.
<mgrwt>
<rscale>  0 0.82236328E+04</rscale>
<asrwt>0</asrwt>
<pdfrwt beam="1">  1        2 0.66205514E+00 0.82236328E+04</pdfrwt>
<pdfrwt beam="2">  1       -2 0.60443075E+00 0.82236328E+04</pdfrwt>
<totfact> 0.53771001E-05</totfact>
</mgrwt>
</event>
<event>
12    1  0.2048318E-007  0.2153153E+04  0.7818608E-02  0.8538184E-01
         -2   -1    0    0    0  501 -0.00000000000E+00  0.00000000000E+00  0.79082456464E+03  0.79082456464E+03  0.00000000000E+00 0.  1.
          2   -1    0    0  501    0  0.00000000000E+00 -0.00000000000E+00 -0.14655798662E+04  0.14655798662E+04  0.00000000000E+00 0. -1.
         23    2    1    2    0    0 -0.50070719250E+03  0.66730622984E+03 -0.60164341598E+03  0.10325801019E+04  0.90783091942E+02 0.  0.
        254    2    1    2    0    0  0.50070719250E+03 -0.66730622984E+03 -0.73111885618E+02  0.12238243290E+04  0.89240985171E+03 0.  0.
        -24    2    4    4    0    0 -0.15195202269E+03 -0.36194656703E+03  0.20019387877E+03  0.44799630600E+03  0.80798307555E+02 0.  0.
         24    2    4    4    0    0  0.65265921520E+03 -0.30535966281E+03 -0.27330576439E+03  0.77582802300E+03  0.89467902465E+02 0.  0.
         11    1    3    3    0    0 -0.14452581750E+03  0.24510379067E+03 -0.16905757478E+03  0.33097438528E+03  0.00000000000E+00 0.  1.
        -11    1    3    3    0    0 -0.35618137501E+03  0.42220243917E+03 -0.43258584120E+03  0.70160571659E+03  0.00000000000E+00 0. -1.
          2    1    6    6  502    0  0.25484545139E+03 -0.14229163334E+03 -0.69545472733E+02  0.30004947223E+03  0.00000000000E+00 0. -1.
          1    1    5    5  503    0 -0.34089558159E+02 -0.78895607493E+02  0.84313577755E+01  0.86357991240E+02  0.00000000000E+00 0. -1.
         -2    1    5    5    0  503 -0.11786246453E+03 -0.28305095954E+03  0.19176252100E+03  0.36163831476E+03  0.00000000000E+00 0.  1.
         -1    1    6    6    0  502  0.39781376381E+03 -0.16306802947E+03 -0.20376029166E+03  0.47577855077E+03  0.00000000000E+00 0.  1.
<mgrwt>
<rscale>  0 0.21531526E+04</rscale>
<asrwt>0</asrwt>
<pdfrwt beam="1">  1        2 0.22547382E+00 0.21531526E+04</pdfrwt>
<pdfrwt beam="2">  1       -2 0.12166532E+00 0.21531526E+04</pdfrwt>
<totfact> 0.62514019E+00</totfact>
</mgrwt>
</event>
<event>
12    1  0.2048318E-007  0.1822653E+04  0.7818608E-02  0.8694345E-01
          1   -1    0    0  501    0  0.00000000000E+00  0.00000000000E+00  0.33226817063E+04  0.33226817063E+04  0.00000000000E+00 0. -1.
         -1   -1    0    0    0  501 -0.00000000000E+00 -0.00000000000E+00 -0.24995365109E+03  0.24995365109E+03  0.00000000000E+00 0.  1.
         23    2    1    2    0    0  0.10816532581E+03  0.64791051087E+03  0.78681350193E+03  0.10290698119E+04  0.91768312162E+02 0.  0.
        254    2    1    2    0    0 -0.10816532581E+03 -0.64791051087E+03  0.22859145533E+04  0.25435655455E+04  0.90157227749E+03 0.  0.
        -24    2    4    4    0    0 -0.27496547408E+03  0.94938999527E+02  0.35128324003E+03  0.46302961575E+03  0.79856651355E+02 0.  0.
         24    2    4    4    0    0  0.16680014828E+03 -0.74284951040E+03  0.19346313133E+04  0.20805359298E+04  0.78636837469E+02 0.  0.
         13    1    3    3    0    0  0.24957921765E+02  0.41595162837E+03  0.50405365078E+03  0.65399444789E+03  0.00000000000E+00 0. -1.
        -13    1    3    3    0    0  0.83207404041E+02  0.23195888250E+03  0.28275985114E+03  0.37507536400E+03  0.00000000000E+00 0.  1.
          2    1    6    6  502    0  0.12532274423E+03 -0.47886336107E+03  0.13444192260E+04  0.14326475365E+04  0.00000000000E+00 0. -1.
          3    1    5    5  503    0 -0.21711156456E+03  0.70965476492E+02  0.21791611210E+03  0.31569124510E+03  0.00000000000E+00 0. -1.
         -4    1    5    5    0  503 -0.57853909525E+02  0.23973523035E+02  0.13336712793E+03  0.14733837065E+03  0.00000000000E+00 0.  1.
         -1    1    6    6    0  502  0.41477404050E+02 -0.26398614933E+03  0.59021208728E+03  0.64788839321E+03  0.00000000000E+00 0.  1.
<mgrwt>
<rscale>  0 0.18226535E+04</rscale>
<asrwt>0</asrwt>
<pdfrwt beam="1">  1        1 0.51118177E+00 0.18226535E+04</pdfrwt>
<pdfrwt beam="2">  1       -1 0.38454410E-01 0.18226535E+04</pdfrwt>
<totfact> 0.21258873E+00</totfact>
</mgrwt>
</event>
<event>
12    1  0.2048318E-007  0.3183207E+04  0.7818608E-02  0.8193266E-01
          1   -1    0    0  501    0  0.00000000000E+00  0.00000000000E+00  0.81626797732E+03  0.81626797732E+03  0.00000000000E+00 0. -1.
         -1   -1    0    0    0  501 -0.00000000000E+00 -0.00000000000E+00 -0.31033950560E+04  0.31033950560E+04  0.00000000000E+00 0.  1.
         23    2    1    2    0    0 -0.94823454684E+03 -0.91962242125E+03 -0.27797946775E+03  0.13527096619E+04  0.87730789369E+02 0.  0.
        254    2    1    2    0    0  0.94823454684E+03  0.91962242125E+03 -0.20091476109E+04  0.25669533714E+04  0.89873318348E+03 0.  0.
        -24    2    4    4    0    0  0.41550732098E+03  0.70553962628E+03 -0.53077527108E+03  0.97899652568E+03  0.79242102873E+02 0.  0.
         24    2    4    4    0    0  0.53272722586E+03  0.21408279497E+03 -0.14783723398E+04  0.15879568457E+04  0.79952663868E+02 0.  0.
         11    1    3    3    0    0 -0.77121745957E+03 -0.70792169942E+03 -0.24140263292E+03  0.10743392079E+04  0.00000000000E+00 0.  1.
        -11    1    3    3    0    0 -0.17701708727E+03 -0.21170072183E+03 -0.36576834826E+02  0.27837045399E+03  0.00000000000E+00 0. -1.
          2    1    6    6  502    0  0.14510686631E+03  0.82435301802E+02 -0.51003354975E+03  0.53664308763E+03  0.00000000000E+00 0. -1.
          3    1    5    5  503    0  0.42523171172E+02  0.42139188820E+02 -0.56066585565E+02  0.82020688474E+02  0.00000000000E+00 0. -1.
         -4    1    5    5    0  503  0.37298414980E+03  0.66340043746E+03 -0.47470868551E+03  0.89697583720E+03  0.00000000000E+00 0.  1.
         -1    1    6    6    0  502  0.38762035955E+03  0.13164749317E+03 -0.96833879007E+03  0.10513137581E+04  0.00000000000E+00 0.  1.
<mgrwt>
<rscale>  0 0.31832072E+04</rscale>
<asrwt>0</asrwt>
<pdfrwt beam="1">  1        1 0.12557969E+00 0.31832072E+04</pdfrwt>
<pdfrwt beam="2">  1       -1 0.47744538E+00 0.31832072E+04</pdfrwt>
<totfact> 0.37618436E-02</totfact>
</mgrwt>
</event>
<event>
12    1  0.2048318E-007  0.1625724E+04  0.7818608E-02  0.8804899E-01
         -1   -1    0    0    0  501 -0.00000000000E+00  0.00000000000E+00  0.18047781069E+04  0.18047781069E+04  0.00000000000E+00 0.  1.
          1   -1    0    0  501    0  0.00000000000E+00 -0.00000000000E+00 -0.36610854993E+03  0.36610854993E+03  0.00000000000E+00 0. -1.
         23    2    1    2    0    0 -0.14094848247E+02  0.52171809739E+03  0.76416974267E+03  0.93002611752E+03  0.92761768827E+02 0.  0.
        254    2    1    2    0    0  0.14094848247E+02 -0.52171809739E+03  0.67449981425E+03  0.12408605393E+04  0.90133037261E+03 0.  0.
        -24    2    4    4    0    0 -0.42353289163E+03 -0.25081219381E+03  0.20260548299E+03  0.53795035259E+03  0.77812166535E+02 0.  0.
         24    2    4    4    0    0  0.43762773987E+03 -0.27090590358E+03  0.47189433126E+03  0.70291018667E+03  0.80563163739E+02 0.  0.
         11    1    3    3    0    0  0.29749208091E+02  0.19904872930E+03  0.24342975544E+03  0.31585353861E+03  0.00000000000E+00 0. -1.
        -11    1    3    3    0    0 -0.43844056339E+02  0.32266936809E+03  0.52073998723E+03  0.61417257891E+03  0.00000000000E+00 0.  1.
          2    1    6    6  502    0  0.33607446054E+03 -0.19714753636E+03  0.39936921672E+03  0.55795068365E+03  0.00000000000E+00 0. -1.
          1    1    5    5  503    0 -0.38857337299E+03 -0.23342198103E+03  0.20762840854E+03  0.49858263453E+03  0.00000000000E+00 0. -1.
         -2    1    5    5    0  503 -0.34959518640E+02 -0.17390212783E+02 -0.50229255525E+01  0.39367718060E+02  0.00000000000E+00 0.  1.
         -1    1    6    6    0  502  0.10155327933E+03 -0.73758367217E+02  0.72525114541E+02  0.14495950302E+03  0.00000000000E+00 0.  1.
<mgrwt>
<rscale>  0 0.16257241E+04</rscale>
<asrwt>0</asrwt>
<pdfrwt beam="1">  1        1 0.56324393E-01 0.16257241E+04</pdfrwt>
<pdfrwt beam="2">  1       -1 0.27765816E+00 0.16257241E+04</pdfrwt>
<totfact> 0.29813984E+00</totfact>
</mgrwt>
</event>
<event>
12    1  0.2048318E-007  0.1996491E+04  0.7818608E-02  0.8608263E-01
         -2   -1    0    0    0  501 -0.00000000000E+00  0.00000000000E+00  0.78840213550E+03  0.78840213550E+03  0.00000000000E+00 0.  1.
          2   -1    0    0  501    0  0.00000000000E+00 -0.00000000000E+00 -0.12639415222E+04  0.12639415222E+04  0.00000000000E+00 0. -1.
         23    2    1    2    0    0  0.77285063424E+03  0.16664963545E+03 -0.23996843740E+03  0.83111712673E+03  0.90003464116E+02 0.  0.
        254    2    1    2    0    0 -0.77285063424E+03 -0.16664963545E+03 -0.23557094933E+03  0.12212265310E+04  0.90046119519E+03 0.  0.
        -24    2    4    4    0    0 -0.44579519995E+03 -0.32819631447E+03 -0.51096309160E+03  0.75722503621E+03  0.76552552892E+02 0.  0.
         24    2    4    4    0    0 -0.32705543429E+03  0.16154667903E+03  0.27539214226E+03  0.46400149480E+03  0.79962294577E+02 0.  0.
         11    1    3    3    0    0  0.39499333695E+03  0.58812784204E+02 -0.82411874404E+02  0.40776267223E+03  0.00000000000E+00 0.  1.
        -11    1    3    3    0    0  0.37785729730E+03  0.10783685124E+03 -0.15755656300E+03  0.42335445451E+03  0.00000000000E+00 0. -1.
          2    1    6    6  502    0 -0.33057695004E+03  0.15955670433E+03  0.27678067246E+03  0.45972492041E+03  0.00000000000E+00 0. -1.
          1    1    5    5  503    0 -0.28419444759E+03 -0.25144866480E+03 -0.36174370749E+03  0.52426274422E+03  0.00000000000E+00 0. -1.
         -2    1    5    5    0  503 -0.16160075236E+03 -0.76747649670E+02 -0.14921938411E+03  0.23296229199E+03  0.00000000000E+00 0.  1.
         -3    1    6    6    0  502  0.35215157478E+01  0.19899746984E+01 -0.13885301978E+01  0.42765743970E+01  0.00000000000E+00 0.  1.
<mgrwt>
<rscale>  0 0.19964911E+04</rscale>
<asrwt>0</asrwt>
<pdfrwt beam="1">  1        2 0.19445254E+00 0.19964911E+04</pdfrwt>
<pdfrwt beam="2">  1       -2 0.12129264E+00 0.19964911E+04</pdfrwt>
<totfact> 0.83405802E+00</totfact>
</mgrwt>
</event>
<event>
12    1  0.2048318E-007  0.2856266E+04  0.7818608E-02  0.8286010E-01
         -2   -1    0    0    0  501 -0.00000000000E+00  0.00000000000E+00  0.23286733812E+04  0.23286733812E+04  0.00000000000E+00 0.  1.
          2   -1    0    0  501    0  0.00000000000E+00 -0.00000000000E+00 -0.87584781727E+03  0.87584781727E+03  0.00000000000E+00 0. -1.
         23    2    1    2    0    0  0.57195048638E+03 -0.11358385765E+04  0.45399647598E+03  0.13532925030E+04  0.89616782037E+02 0.  0.
        254    2    1    2    0    0 -0.57195048638E+03  0.11358385765E+04  0.99882908794E+03  0.18512286955E+04  0.90118339152E+03 0.  0.
        -24    2    4    4    0    0 -0.58793291504E+03  0.23614156267E+03  0.28294898255E+03  0.69839538693E+03  0.79170951439E+02 0.  0.
         24    2    4    4    0    0  0.15982428667E+02  0.89969701388E+03  0.71588010539E+03  0.11528333085E+04  0.82644764875E+02 0.  0.
         13    1    3    3    0    0  0.40247509221E+03 -0.88404543226E+03  0.34508170338E+03  0.10308268080E+04  0.00000000000E+00 0.  1.
        -13    1    3    3    0    0  0.16947539417E+03 -0.25179314429E+03  0.10891477260E+03  0.32246569497E+03  0.00000000000E+00 0. -1.
          2    1    6    6  502    0 -0.29186190580E+02  0.54243325149E+03  0.41589132249E+03  0.68414271768E+03  0.00000000000E+00 0. -1.
          3    1    5    5  503    0 -0.51688709974E+03  0.18494395678E+03  0.26230146291E+03  0.60842304235E+03  0.00000000000E+00 0. -1.
         -4    1    5    5    0  503 -0.71045815308E+02  0.51197605892E+02  0.20647519639E+02  0.89972344579E+02  0.00000000000E+00 0.  1.
         -1    1    6    6    0  502  0.45168619247E+02  0.35726376239E+03  0.29998878291E+03  0.46869059085E+03  0.00000000000E+00 0.  1.
<mgrwt>
<rscale>  0 0.28562657E+04</rscale>
<asrwt>0</asrwt>
<pdfrwt beam="1">  1        2 0.13474582E+00 0.28562657E+04</pdfrwt>
<pdfrwt beam="2">  1       -2 0.35825744E+00 0.28562657E+04</pdfrwt>
<totfact> 0.36384744E-01</totfact>
</mgrwt>
</event>
<event>
12    1  0.2048318E-007  0.1919651E+04  0.7818608E-02  0.8645136E-01
         -2   -1    0    0    0  501 -0.00000000000E+00  0.00000000000E+00  0.38695447774E+03  0.38695447774E+03  0.00000000000E+00 0.  1.
          2   -1    0    0  501    0  0.00000000000E+00 -0.00000000000E+00 -0.23808101763E+04  0.23808101763E+04  0.00000000000E+00 0. -1.
         23    2    1    2    0    0 -0.49244016675E+03  0.29680152714E+03 -0.93348888016E+02  0.58974436745E+03  0.92173421899E+02 0.  0.
        254    2    1    2    0    0  0.49244016675E+03 -0.29680152714E+03 -0.19005068105E+04  0.21780202866E+04  0.89513002829E+03 0.  0.
        -24    2    4    4    0    0  0.55995643849E+03 -0.36483222210E+03 -0.19359752407E+04  0.20496393229E+04  0.79796352935E+02 0.  0.
         24    2    4    4    0    0 -0.67516271741E+02  0.68030694960E+02  0.35468430153E+02  0.12838096373E+03  0.77698390618E+02 0.  0.
         11    1    3    3    0    0 -0.31705051000E+03  0.14738626510E+03 -0.30728909074E+02  0.35098148510E+03  0.00000000000E+00 0.  1.
        -11    1    3    3    0    0 -0.17538965675E+03  0.14941526203E+03 -0.62619978942E+02  0.23876288235E+03  0.00000000000E+00 0. -1.
          4    1    6    6  502    0 -0.41338949313E+02  0.96951982593E+01 -0.16932299323E+02  0.45712234248E+02  0.00000000000E+00 0. -1.
          1    1    5    5  503    0  0.18375495734E+03 -0.77191157334E+02 -0.59606105796E+03  0.62850071117E+03  0.00000000000E+00 0. -1.
         -2    1    5    5    0  503  0.37620148116E+03 -0.28764106476E+03 -0.13399141827E+04  0.14211386117E+04  0.00000000000E+00 0.  1.
         -3    1    6    6    0  502 -0.26177322429E+02  0.58335496701E+02  0.52400729476E+02  0.82668729484E+02  0.00000000000E+00 0.  1.
<mgrwt>
<rscale>  0 0.19196512E+04</rscale>
<asrwt>0</asrwt>
<pdfrwt beam="1">  1        2 0.36627848E+00 0.19196512E+04</pdfrwt>
<pdfrwt beam="2">  1       -2 0.59531459E-01 0.19196512E+04</pdfrwt>
<totfact> 0.10044509E+01</totfact>
</mgrwt>
</event>
<event>
12    1  0.2048318E-007  0.3113946E+04  0.7818608E-02  0.8211921E-01
          1   -1    0    0  501    0  0.00000000000E+00  0.00000000000E+00  0.14553754190E+04  0.14553754190E+04  0.00000000000E+00 0. -1.
         -1   -1    0    0    0  501 -0.00000000000E+00 -0.00000000000E+00 -0.16656631164E+04  0.16656631164E+04  0.00000000000E+00 0.  1.
         23    2    1    2    0    0 -0.19860053717E+03 -0.13145568351E+04 -0.61349793972E+03  0.14668256171E+04  0.87725839247E+02 0.  0.
        254    2    1    2    0    0  0.19860053717E+03  0.13145568351E+04  0.40321024235E+03  0.16542129183E+04  0.89796438317E+03 0.  0.
        -24    2    4    4    0    0 -0.81590644365E+02  0.53213740541E+03  0.58599606775E+03  0.79957046355E+03  0.78065890658E+02 0.  0.
         24    2    4    4    0    0  0.28019118153E+03  0.78241942968E+03 -0.18278582540E+03  0.85464245473E+03  0.79472041112E+02 0.  0.
         11    1    3    3    0    0 -0.87332598992E+02 -0.74596727781E+03 -0.38534220778E+03  0.84414618373E+03  0.00000000000E+00 0.  1.
        -11    1    3    3    0    0 -0.11126793818E+03 -0.56858955728E+03 -0.22815573193E+03  0.62267943336E+03  0.00000000000E+00 0. -1.
          2    1    6    6  502    0  0.25990262327E+03  0.76181482773E+03 -0.16844688030E+03  0.82236582907E+03  0.00000000000E+00 0. -1.
          1    1    5    5  503    0 -0.30261427997E+02  0.35506135664E+03  0.42661404459E+03  0.55586317026E+03  0.00000000000E+00 0. -1.
         -2    1    5    5    0  503 -0.51329216368E+02  0.17707604876E+03  0.15938202316E+03  0.24370729330E+03  0.00000000000E+00 0.  1.
         -1    1    6    6    0  502  0.20288558263E+02  0.20604601945E+02 -0.14338945101E+02  0.32276625665E+02  0.00000000000E+00 0.  1.
<mgrwt>
<rscale>  0 0.31139461E+04</rscale>
<asrwt>0</asrwt>
<pdfrwt beam="1">  1        1 0.22390391E+00 0.31139461E+04</pdfrwt>
<pdfrwt beam="2">  1       -1 0.25625586E+00 0.31139461E+04</pdfrwt>
<totfact> 0.37583171E-01</totfact>
</mgrwt>
</event>
<event>
12    1  0.2048318E-007  0.1765429E+04  0.7818608E-02  0.8724903E-01
         -2   -1    0    0    0  501 -0.00000000000E+00  0.00000000000E+00  0.70745142793E+03  0.70745142793E+03  0.00000000000E+00 0. -1.
          2   -1    0    0  501    0  0.00000000000E+00 -0.00000000000E+00 -0.11013970075E+04  0.11013970075E+04  0.00000000000E+00 0.  1.
         23    2    1    2    0    0  0.21005882876E+03 -0.61273836979E+03 -0.17928928175E+03  0.67833607678E+03  0.91772355040E+02 0.  0.
        254    2    1    2    0    0 -0.21005882876E+03  0.61273836979E+03 -0.21465629781E+03  0.11305123587E+04  0.90133669932E+03 0.  0.
        -24    2    4    4    0    0 -0.22383679459E+03  0.67037462766E+03  0.17146399417E+03  0.73137463012E+03  0.77484813106E+02 0.  0.
         24    2    4    4    0    0  0.13777965829E+02 -0.57636257869E+02 -0.38612029198E+03  0.39913772854E+03  0.81916273742E+02 0.  0.
         11    1    3    3    0    0  0.16758755238E+03 -0.35414345297E+03 -0.96397845901E+02  0.40347951334E+03  0.00000000000E+00 0.  1.
        -11    1    3    3    0    0  0.42471276375E+02 -0.25859491682E+03 -0.82891435852E+02  0.27485656343E+03  0.00000000000E+00 0. -1.
          4    1    6    6  502    0 -0.31711462081E+02 -0.41967133939E+02 -0.18408635520E+03  0.19145402406E+03  0.00000000000E+00 0. -1.
          1    1    5    5  503    0  0.18152346201E+00  0.44160315656E+02  0.23548002592E+02  0.50046726723E+02  0.00000000000E+00 0. -1.
         -2    1    5    5    0  503 -0.22401831805E+03  0.62621431200E+03  0.14791599158E+03  0.68132790339E+03  0.00000000000E+00 0.  1.
         -3    1    6    6    0  502  0.45489427910E+02 -0.15669123930E+02 -0.20203393678E+03  0.20768370448E+03  0.00000000000E+00 0.  1.
<mgrwt>
<rscale>  0 0.17654290E+04</rscale>
<asrwt>0</asrwt>
<pdfrwt beam="1">  1        2 0.16944569E+00 0.17654290E+04</pdfrwt>
<pdfrwt beam="2">  1       -2 0.10883868E+00 0.17654290E+04</pdfrwt>
<totfact> 0.13877898E+01</totfact>
</mgrwt>
</event>
<event>
12    1  0.2048318E-007  0.2569219E+04  0.7818608E-02  0.8378733E-01
         -2   -1    0    0    0  501 -0.00000000000E+00  0.00000000000E+00  0.55778992932E+03  0.55778992932E+03  0.00000000000E+00 0.  1.
          2   -1    0    0  501    0  0.00000000000E+00 -0.00000000000E+00 -0.29584992369E+04  0.29584992369E+04  0.00000000000E+00 0. -1.
         23    2    1    2    0    0  0.64608994147E+03 -0.59209450212E+03 -0.20405612261E+04  0.22226525468E+04  0.91028097023E+02 0.  0.
        254    2    1    2    0    0 -0.64608994147E+03  0.59209450212E+03 -0.36014808148E+03  0.12936366194E+04  0.88078428153E+03 0.  0.
        -24    2    4    4    0    0 -0.73824965748E+03  0.23825552988E+03 -0.46139724296E+03  0.90623088940E+03  0.81171145209E+02 0.  0.
         24    2    4    4    0    0  0.92159716001E+02  0.35383897224E+03  0.10124916148E+03  0.38740573002E+03  0.78335020391E+02 0.  0.
         11    1    3    3    0    0  0.36188159126E+03 -0.33058040121E+03 -0.12539815371E+04  0.13463697052E+04  0.00000000000E+00 0. -1.
        -11    1    3    3    0    0  0.28420835022E+03 -0.26151410091E+03 -0.78657968904E+03  0.87628284162E+03  0.00000000000E+00 0.  1.
          2    1    6    6  502    0  0.76208439291E+02  0.31988019094E+03  0.64918643579E+02  0.33517979214E+03  0.00000000000E+00 0. -1.
          1    1    5    5  503    0 -0.62611071898E+03  0.17076805476E+03 -0.38979226919E+03  0.75704317847E+03  0.00000000000E+00 0. -1.
         -2    1    5    5    0  503 -0.11213893849E+03  0.67487475111E+02 -0.71604973773E+02  0.14918771093E+03  0.00000000000E+00 0.  1.
         -1    1    6    6    0  502  0.15951276710E+02  0.33958781303E+02  0.36330517903E+02  0.52225937879E+02  0.00000000000E+00 0.  1.
<mgrwt>
<rscale>  0 0.25692186E+04</rscale>
<asrwt>0</asrwt>
<pdfrwt beam="1">  1        2 0.45515373E+00 0.25692186E+04</pdfrwt>
<pdfrwt beam="2">  1       -2 0.85813834E-01 0.25692186E+04</pdfrwt>
<totfact> 0.19323683E+00</totfact>
</mgrwt>
</event>
<event>
12    1  0.2048318E-007  0.2011958E+04  0.7818608E-02  0.8601050E-01
          1   -1    0    0  501    0  0.00000000000E+00  0.00000000000E+00  0.15257849958E+04  0.15257849958E+04  0.00000000000E+00 0. -1.
         -1   -1    0    0    0  501 -0.00000000000E+00 -0.00000000000E+00 -0.66326130406E+03  0.66326130406E+03  0.00000000000E+00 0.  1.
         23    2    1    2    0    0 -0.80345929191E+03 -0.13670080344E+02  0.42601061618E+03  0.91413973324E+03  0.91829744267E+02 0.  0.
        254    2    1    2    0    0  0.80345929191E+03  0.13670080344E+02  0.43651307559E+03  0.12749065666E+04  0.88831828961E+03 0.  0.
        -24    2    4    4    0    0  0.69261625741E+03  0.27212222287E+03 -0.84150090474E+00  0.74841666279E+03  0.79743393544E+02 0.  0.
         24    2    4    4    0    0  0.11084303450E+03 -0.25845214253E+03  0.43735457649E+03  0.52648990385E+03  0.82637189001E+02 0.  0.
         11    1    3    3    0    0 -0.38172875811E+03 -0.26187293651E+02  0.15589966771E+03  0.41316743036E+03  0.00000000000E+00 0.  1.
        -11    1    3    3    0    0 -0.42173053379E+03  0.12517213307E+02  0.27011094847E+03  0.50097230287E+03  0.00000000000E+00 0. -1.
          2    1    6    6  502    0  0.24975886364E+02 -0.49703940379E+02  0.36744285676E+02  0.66666476723E+02  0.00000000000E+00 0. -1.
          1    1    5    5  503    0  0.18401972681E+03  0.78366543724E+02  0.34720742176E+02  0.20300272158E+03  0.00000000000E+00 0. -1.
         -2    1    5    5    0  503  0.50859653060E+03  0.19375567915E+03 -0.35562243080E+02  0.54541394121E+03  0.00000000000E+00 0.  1.
         -1    1    6    6    0  502  0.85867148133E+02 -0.20874820215E+03  0.40061029082E+03  0.45982342713E+03  0.00000000000E+00 0.  1.
<mgrwt>
<rscale>  0 0.20119584E+04</rscale>
<asrwt>0</asrwt>
<pdfrwt beam="1">  1        1 0.23473615E+00 0.20119584E+04</pdfrwt>
<pdfrwt beam="2">  1       -1 0.10204020E+00 0.20119584E+04</pdfrwt>
<totfact> 0.52928172E+00</totfact>
</mgrwt>
</event>
<event>
12    1  0.2048318E-007  0.2267992E+04  0.7818608E-02  0.8490649E-01
         -2   -1    0    0    0  501 -0.00000000000E+00  0.00000000000E+00  0.93882888186E+03  0.93882888186E+03  0.00000000000E+00 0.  1.
          2   -1    0    0  501    0  0.00000000000E+00 -0.00000000000E+00 -0.13697352366E+04  0.13697352366E+04  0.00000000000E+00 0. -1.
         23    2    1    2    0    0  0.79736234358E+02  0.93921919210E+03 -0.32052548978E+03  0.99961910627E+03  0.89505363774E+02 0.  0.
        254    2    1    2    0    0 -0.79736234358E+02 -0.93921919210E+03 -0.11038086500E+03  0.13089450122E+04  0.90147798186E+03 0.  0.
        -24    2    4    4    0    0  0.11545593573E+03 -0.82734134642E+03 -0.40309068001E+03  0.93091898531E+03  0.79399523286E+02 0.  0.
         24    2    4    4    0    0 -0.19519217009E+03 -0.11187784568E+03  0.29270981501E+03  0.37802602692E+03  0.81289640207E+02 0.  0.
         13    1    3    3    0    0  0.44077576179E+02  0.36840688329E+03 -0.17056248059E+03  0.40836016475E+03  0.00000000000E+00 0. -1.
        -13    1    3    3    0    0  0.35658658178E+02  0.57081230881E+03 -0.14996300919E+03  0.59125894152E+03  0.00000000000E+00 0.  1.
          4    1    6    6  502    0 -0.10942784452E+02 -0.33171219850E+02  0.22158608255E+02  0.41365181949E+02  0.00000000000E+00 0. -1.
          1    1    5    5  503    0  0.28484669574E+02 -0.33000598690E+03 -0.19850875316E+03  0.38616195161E+03  0.00000000000E+00 0. -1.
         -2    1    5    5    0  503  0.86971266157E+02 -0.49733535952E+03 -0.20458192685E+03  0.54475703369E+03  0.00000000000E+00 0.  1.
         -3    1    6    6    0  502 -0.18424938564E+03 -0.78706625827E+02  0.27055120676E+03  0.33666084497E+03  0.00000000000E+00 0.  1.
<mgrwt>
<rscale>  0 0.22679921E+04</rscale>
<asrwt>0</asrwt>
<pdfrwt beam="1">  1        2 0.21072850E+00 0.22679921E+04</pdfrwt>
<pdfrwt beam="2">  1       -2 0.14443521E+00 0.22679921E+04</pdfrwt>
<totfact> 0.45331338E+00</totfact>
</mgrwt>
</event>
<event>
12    1  0.2048318E-007  0.2011508E+04  0.7818608E-02  0.8601259E-01
         -2   -1    0    0    0  501 -0.00000000000E+00  0.00000000000E+00  0.55523238895E+03  0.55523238895E+03  0.00000000000E+00 0.  1.
          2   -1    0    0  501    0  0.00000000000E+00 -0.00000000000E+00 -0.18218330211E+04  0.18218330211E+04  0.00000000000E+00 0. -1.
         23    2    1    2    0    0  0.37039260484E+03  0.47936630825E+03 -0.11297122170E+04  0.12852043227E+04  0.92291487932E+02 0.  0.
        254    2    1    2    0    0 -0.37039260484E+03 -0.47936630825E+03 -0.13688841517E+03  0.10918610873E+04  0.89801974177E+03 0.  0.
        -24    2    4    4    0    0 -0.25726664735E+02 -0.48819137513E+03  0.26005530835E+03  0.55927006463E+03  0.78495616202E+02 0.  0.
         24    2    4    4    0    0 -0.34466594011E+03  0.88250668807E+01 -0.39694372353E+03  0.53259102270E+03  0.84949312742E+02 0.  0.
         11    1    3    3    0    0  0.10119113128E+03  0.17410426392E+03 -0.44907282729E+03  0.49215682864E+03  0.00000000000E+00 0.  1.
        -11    1    3    3    0    0  0.26920147357E+03  0.30526204432E+03 -0.68063938971E+03  0.79304749410E+03  0.00000000000E+00 0. -1.
          4    1    6    6  502    0 -0.33644821077E+03  0.24432632372E+02 -0.37412699336E+03  0.50375128706E+03  0.00000000000E+00 0. -1.
          1    1    5    5  503    0 -0.34873830442E+02 -0.47513602178E+03  0.23940865548E+03  0.53318564081E+03  0.00000000000E+00 0. -1.
         -4    1    5    5    0  503  0.91471657074E+01 -0.13055353348E+02  0.20646652871E+02  0.26084423825E+02  0.00000000000E+00 0.  1.
         -3    1    6    6    0  502 -0.82177293343E+01 -0.15607565491E+02 -0.22816730170E+02  0.28839735637E+02  0.00000000000E+00 0.  1.
<mgrwt>
<rscale>  0 0.20115076E+04</rscale>
<asrwt>0</asrwt>
<pdfrwt beam="1">  1        2 0.28028200E+00 0.20115076E+04</pdfrwt>
<pdfrwt beam="2">  1       -2 0.85420367E-01 0.20115076E+04</pdfrwt>
<totfact> 0.92792132E+00</totfact>
</mgrwt>
</event>
<event>
12    1  0.2048318E-007  0.2081377E+04  0.7818608E-02  0.8569492E-01
         -1   -1    0    0    0  501 -0.00000000000E+00  0.00000000000E+00  0.11180615607E+04  0.11180615607E+04  0.00000000000E+00 0.  1.
          1   -1    0    0  501    0  0.00000000000E+00 -0.00000000000E+00 -0.96866959137E+03  0.96866959137E+03  0.00000000000E+00 0. -1.
         23    2    1    2    0    0 -0.14126741688E+03  0.40226894260E+03  0.79149587221E+03  0.90372693587E+03  0.92086229282E+02 0.  0.
        254    2    1    2    0    0  0.14126741688E+03 -0.40226894260E+03 -0.64210390287E+03  0.11830042162E+04  0.89745460511E+03 0.  0.
        -24    2    4    4    0    0  0.18789611634E+03 -0.50693289403E+03 -0.22004480748E+02  0.54677218000E+03  0.78674710473E+02 0.  0.
         24    2    4    4    0    0 -0.46628699462E+02  0.10466395142E+03 -0.62009942212E+03  0.63623203621E+03  0.84493385790E+02 0.  0.
         13    1    3    3    0    0 -0.70257265158E+02  0.30043167050E+03  0.50995220364E+03  0.59602560511E+03  0.00000000000E+00 0.  1.
        -13    1    3    3    0    0 -0.71010151717E+02  0.10183727211E+03  0.28154366857E+03  0.30770133076E+03  0.00000000000E+00 0. -1.
          4    1    6    6  502    0 -0.43475350240E+02  0.11950118606E+03 -0.55812712813E+03  0.57243037192E+03  0.00000000000E+00 0. -1.
          1    1    5    5  503    0  0.14281650716E+03 -0.45598528190E+03 -0.26773944480E+02  0.47857703260E+03  0.00000000000E+00 0. -1.
         -2    1    5    5    0  503  0.45079609176E+02 -0.50947612126E+02  0.47694637322E+01  0.68195147401E+02  0.00000000000E+00 0.  1.
         -3    1    6    6    0  502 -0.31533492216E+01 -0.14837234633E+02 -0.61972293997E+02  0.63801664290E+02  0.00000000000E+00 0.  1.
<mgrwt>
<rscale>  0 0.20813767E+04</rscale>
<asrwt>0</asrwt>
<pdfrwt beam="1">  1        1 0.14902609E+00 0.20813767E+04</pdfrwt>
<pdfrwt beam="2">  1       -1 0.17200947E+00 0.20813767E+04</pdfrwt>
<totfact> 0.35091877E+00</totfact>
</mgrwt>
</event>
<event>
12    1  0.2048318E-007  0.3005464E+04  0.7818608E-02  0.8242172E-01
          2   -1    0    0  501    0  0.00000000000E+00  0.00000000000E+00  0.11523797998E+04  0.11523797998E+04  0.00000000000E+00 0. -1.
         -2   -1    0    0    0  501 -0.00000000000E+00 -0.00000000000E+00 -0.19595999570E+04  0.19595999570E+04  0.00000000000E+00 0.  1.
         23    2    1    2    0    0 -0.13597597237E+04  0.63761612030E+02 -0.48601059964E+03  0.14481462936E+04  0.88934443817E+02 0.  0.
        254    2    1    2    0    0  0.13597597237E+04 -0.63761612030E+02 -0.32120955763E+03  0.16638334632E+04  0.90119596300E+03 0.  0.
        -24    2    4    4    0    0  0.11673380195E+04 -0.77527246086E+02  0.11665743315E+03  0.11786557282E+04  0.83257691555E+02 0.  0.
         24    2    4    4    0    0  0.19242170426E+03  0.13765634056E+02 -0.43786699078E+03  0.48517773499E+03  0.80338832264E+02 0.  0.
         11    1    3    3    0    0 -0.10204989144E+04  0.31483096423E+02 -0.32691254613E+03  0.10720452567E+04  0.00000000000E+00 0. -1.
        -11    1    3    3    0    0 -0.33926080934E+03  0.32278515607E+02 -0.15909805351E+03  0.37610103690E+03  0.00000000000E+00 0.  1.
          4    1    6    6  502    0  0.31390827225E+00  0.37832940947E+01 -0.69527529060E+02  0.69631093268E+02  0.00000000000E+00 0. -1.
          3    1    5    5  503    0  0.64817814839E+03 -0.29156675395E+02  0.10383598040E+03  0.65708974623E+03  0.00000000000E+00 0. -1.
         -4    1    5    5    0  503  0.51915987109E+03 -0.48370570691E+02  0.12821452757E+02  0.52156598193E+03  0.00000000000E+00 0.  1.
         -3    1    6    6    0  502  0.19210779599E+03  0.99823399609E+01 -0.36833946172E+03  0.41554664173E+03  0.00000000000E+00 0.  1.
<mgrwt>
<rscale>  0 0.30054640E+04</rscale>
<asrwt>0</asrwt>
<pdfrwt beam="1">  1        2 0.17728920E+00 0.30054640E+04</pdfrwt>
<pdfrwt beam="2">  1       -2 0.30147692E+00 0.30054640E+04</pdfrwt>
<totfact> 0.53891004E-01</totfact>
</mgrwt>
</event>
<event>
12    1  0.2048318E-007  0.2260325E+04  0.7818608E-02  0.8493731E-01
         -2   -1    0    0    0  501 -0.00000000000E+00  0.00000000000E+00  0.18363267964E+04  0.18363267964E+04  0.00000000000E+00 0.  1.
          2   -1    0    0  501    0  0.00000000000E+00 -0.00000000000E+00 -0.69555536530E+03  0.69555536530E+03  0.00000000000E+00 0. -1.
         23    2    1    2    0    0 -0.37206213725E+03 -0.86563748718E+03  0.60293349464E+03  0.11220691949E+04  0.88045363097E+02 0.  0.
        254    2    1    2    0    0  0.37206213725E+03  0.86563748718E+03  0.53783793648E+03  0.14098129668E+04  0.90030242826E+03 0.  0.
        -24    2    4    4    0    0  0.59777916420E+03  0.80073022652E+03  0.57828575366E+03  0.11572347689E+04  0.79177475915E+02 0.  0.
         24    2    4    4    0    0 -0.22571702695E+03  0.64907260666E+02 -0.40447817182E+02  0.25257819791E+03  0.83657584243E+02 0.  0.
         11    1    3    3    0    0 -0.10026477724E+03 -0.31580101275E+03  0.18034300209E+03  0.37723587265E+03  0.00000000000E+00 0. -1.
        -11    1    3    3    0    0 -0.27179736001E+03 -0.54983647443E+03  0.42259049254E+03  0.74483332223E+03  0.00000000000E+00 0.  1.
          2    1    6    6  502    0 -0.52287732349E+02  0.13681059600E+02 -0.46996765614E+02  0.71623140982E+02  0.00000000000E+00 0. -1.
          3    1    5    5  503    0  0.14079433939E+03  0.24682326238E+03  0.15516686661E+03  0.32376152544E+03  0.00000000000E+00 0. -1.
         -4    1    5    5    0  503  0.45698482481E+03  0.55390696413E+03  0.42311888704E+03  0.83347324348E+03  0.00000000000E+00 0.  1.
         -1    1    6    6    0  502 -0.17342929460E+03  0.51226201067E+02  0.65489484322E+01  0.18095505693E+03  0.00000000000E+00 0.  1.
<mgrwt>
<rscale>  0 0.22603247E+04</rscale>
<asrwt>0</asrwt>
<pdfrwt beam="1">  1        2 0.10700852E+00 0.22603247E+04</pdfrwt>
<pdfrwt beam="2">  1       -2 0.28251181E+00 0.22603247E+04</pdfrwt>
<totfact> 0.15275632E+00</totfact>
</mgrwt>
</event>
<event>
12    1  0.6079718E-007  0.3133558E+04  0.7818608E-02  0.8206588E-01
          2   -1    0    0  501    0  0.00000000000E+00  0.00000000000E+00  0.23606677310E+04  0.23606677310E+04  0.00000000000E+00 0. -1.
         -2   -1    0    0    0  501 -0.00000000000E+00 -0.00000000000E+00 -0.10398740451E+04  0.10398740451E+04  0.00000000000E+00 0.  1.
         23    2    1    2    0    0 -0.10129660917E+04  0.56237350375E+03  0.15265976480E+04  0.19186692448E+04  0.91798863722E+02 0.  0.
        254    2    1    2    0    0  0.10129660917E+04 -0.56237350375E+03 -0.20580396203E+03  0.14818725313E+04  0.90068122418E+03 0.  0.
        -24    2    4    4    0    0 -0.85548878899E+02  0.12109841660E+03 -0.51939927662E+02  0.17642767744E+03  0.80284071250E+02 0.  0.
         24    2    4    4    0    0  0.10985149706E+04 -0.68347192035E+03 -0.15386403437E+03  0.13054448539E+04  0.81505330289E+02 0.  0.
         11    1    3    3    0    0 -0.32784802188E+03  0.17346363280E+03  0.55997601076E+03  0.67167483947E+03  0.00000000000E+00 0. -1.
        -11    1    3    3    0    0 -0.68511806983E+03  0.38890987095E+03  0.96662163723E+03  0.12469944053E+04  0.00000000000E+00 0.  1.
          4    1    6    6  502    0  0.96585068126E+03 -0.62119315330E+03 -0.15572161480E+03  0.11588777733E+04  0.00000000000E+00 0. -1.
          1    1    5    5  503    0 -0.76542773097E+02  0.12473698021E+03 -0.25884673936E+02  0.14862074784E+03  0.00000000000E+00 0. -1.
         -2    1    5    5    0  503 -0.90061058022E+01 -0.36385636052E+01 -0.26055253726E+02  0.27806929596E+02  0.00000000000E+00 0.  1.
         -1    1    6    6    0  502  0.13266428935E+03 -0.62278767056E+02  0.18575804340E+01  0.14656708055E+03  0.00000000000E+00 0.  1.
<mgrwt>
<rscale>  0 0.31335584E+04</rscale>
<asrwt>0</asrwt>
<pdfrwt beam="1">  1        2 0.36317965E+00 0.31335584E+04</pdfrwt>
<pdfrwt beam="2">  1       -2 0.15998062E+00 0.31335584E+04</pdfrwt>
<totfact> 0.89316713E-01</totfact>
</mgrwt>
</event>
<event>
12    1  0.2048318E-007  0.1918433E+04  0.7818608E-02  0.8645735E-01
          1   -1    0    0  501    0  0.00000000000E+00  0.00000000000E+00  0.54082031870E+03  0.54082031870E+03  0.00000000000E+00 0. -1.
         -1   -1    0    0    0  501 -0.00000000000E+00 -0.00000000000E+00 -0.17012982633E+04  0.17012982633E+04  0.00000000000E+00 0.  1.
         23    2    1    2    0    0  0.71487874509E+03 -0.14720926611E+03 -0.27552785957E+03  0.78435998596E+03  0.81134443758E+02 0.  0.
        254    2    1    2    0    0 -0.71487874509E+03  0.14720926611E+03 -0.88495008499E+03  0.14577585960E+04  0.89955615893E+03 0.  0.
        -24    2    4    4    0    0 -0.46247046892E+02  0.66842650816E+02  0.16694829132E+03  0.20602168472E+03  0.89255102311E+02 0.  0.
         24    2    4    4    0    0 -0.66863169820E+03  0.80366615290E+02 -0.10518983763E+04  0.12517369113E+04  0.82631472703E+02 0.  0.
         11    1    3    3    0    0  0.69950197544E+03 -0.15404981865E+03 -0.27579894081E+03  0.76752812067E+03  0.00000000000E+00 0.  1.
        -11    1    3    3    0    0  0.15376769655E+02  0.68405525442E+01  0.27108123862E+00  0.16831865291E+02  0.00000000000E+00 0. -1.
          4    1    6    6  502    0 -0.21310003446E+03  0.47934943932E+02 -0.28371295668E+03  0.35805366263E+03  0.00000000000E+00 0. -1.
          1    1    5    5  503    0 -0.93674475765E+01 -0.15136838655E+02  0.16700648730E+01  0.17879096041E+02  0.00000000000E+00 0. -1.
         -2    1    5    5    0  503 -0.36879599315E+02  0.81979489472E+02  0.16527822644E+03  0.18814258868E+03  0.00000000000E+00 0.  1.
         -3    1    6    6    0  502 -0.45553166374E+03  0.32431671358E+02 -0.76818541963E+03  0.89368324865E+03  0.00000000000E+00 0.  1.
<mgrwt>
<rscale>  0 0.19184334E+04</rscale>
<asrwt>0</asrwt>
<pdfrwt beam="1">  1        1 0.83203125E-01 0.19184334E+04</pdfrwt>
<pdfrwt beam="2">  1       -1 0.26173820E+00 0.19184334E+04</pdfrwt>
<totfact> 0.21697527E+00</totfact>
</mgrwt>
</event>
<event>
12    1  0.2048318E-007  0.1147246E+04  0.7818608E-02  0.9160328E-01
         -2   -1    0    0    0  501 -0.00000000000E+00  0.00000000000E+00  0.40429192363E+03  0.40429192363E+03  0.00000000000E+00 0.  1.
          2   -1    0    0  501    0  0.00000000000E+00 -0.00000000000E+00 -0.81387603384E+03  0.81387603384E+03  0.00000000000E+00 0. -1.
         23    2    1    2    0    0 -0.13709580095E+03 -0.15236691304E+03 -0.40565893688E+02  0.22825973099E+03  0.91902003422E+02 0.  0.
        254    2    1    2    0    0  0.13709580095E+03  0.15236691304E+03 -0.36901821652E+03  0.98990822649E+03  0.89539539753E+03 0.  0.
        -24    2    4    4    0    0  0.49696487845E+02 -0.27199212884E+03 -0.45744002982E+03  0.54052401236E+03  0.80407512036E+02 0.  0.
         24    2    4    4    0    0  0.87399313101E+02  0.42435904189E+03  0.88421813304E+02  0.44938421413E+03  0.80053222808E+02 0.  0.
         13    1    3    3    0    0 -0.10302349616E+03 -0.13631746411E+03  0.27088056393E+01  0.17089069434E+03  0.00000000000E+00 0.  1.
        -13    1    3    3    0    0 -0.34072304786E+02 -0.16049448931E+02 -0.43274699328E+02  0.57369036651E+02  0.00000000000E+00 0. -1.
          2    1    6    6  502    0  0.62960874649E+00  0.69308586323E+02  0.41756772104E+02  0.80917887774E+02  0.00000000000E+00 0. -1.
          3    1    5    5  503    0  0.35210696655E+02 -0.10306130425E+03 -0.24940367452E+03  0.27214631810E+03  0.00000000000E+00 0. -1.
         -4    1    5    5    0  503  0.14485791190E+02 -0.16893082460E+03 -0.20803635530E+03  0.26837769425E+03  0.00000000000E+00 0.  1.
         -1    1    6    6    0  502  0.86769704354E+02  0.35505045556E+03  0.46665041200E+02  0.36846632636E+03  0.00000000000E+00 0.  1.
<mgrwt>
<rscale>  0 0.11472463E+04</rscale>
<asrwt>0</asrwt>
<pdfrwt beam="1">  1        2 0.12521170E+00 0.11472463E+04</pdfrwt>
<pdfrwt beam="2">  1       -2 0.62198758E-01 0.11472463E+04</pdfrwt>
<totfact> 0.79989279E+01</totfact>
</mgrwt>
</event>
<event>
12    1  0.2048318E-007  0.1236060E+04  0.7818608E-02  0.9081866E-01
          2   -1    0    0  501    0  0.00000000000E+00  0.00000000000E+00  0.16514038688E+04  0.16514038688E+04  0.00000000000E+00 0. -1.
         -2   -1    0    0    0  501 -0.00000000000E+00 -0.00000000000E+00 -0.23129488465E+03  0.23129488465E+03  0.00000000000E+00 0.  1.
         23    2    1    2    0    0 -0.19476857232E+03  0.14075242167E+03  0.54108243426E+03  0.59932277647E+03  0.93121151000E+02 0.  0.
        254    2    1    2    0    0  0.19476857232E+03 -0.14075242167E+03  0.87902654987E+03  0.12833759770E+04  0.90367039449E+03 0.  0.
        -24    2    4    4    0    0  0.51028508815E+03  0.26111023512E+02  0.29779351484E+03  0.59654767957E+03  0.78201661003E+02 0.  0.
         24    2    4    4    0    0 -0.31551651583E+03 -0.16686344519E+03  0.58123303503E+03  0.68682829739E+03  0.80667143107E+02 0.  0.
         13    1    3    3    0    0 -0.95117599322E+02  0.83118524373E+02  0.38627902399E+03  0.40640808453E+03  0.00000000000E+00 0. -1.
        -13    1    3    3    0    0 -0.99650972993E+02  0.57633897302E+02  0.15480341027E+03  0.19291469195E+03  0.00000000000E+00 0.  1.
          2    1    6    6  502    0 -0.31911077249E+03 -0.16856108692E+03  0.57901115166E+03  0.68227446009E+03  0.00000000000E+00 0. -1.
          1    1    5    5  503    0  0.38417315674E+03 -0.10498612041E+02  0.20339084619E+03  0.43481843513E+03  0.00000000000E+00 0. -1.
         -2    1    5    5    0  503  0.12611193140E+03  0.36609635553E+02  0.94402668649E+02  0.16172924444E+03  0.00000000000E+00 0.  1.
         -1    1    6    6    0  502  0.35942566633E+01  0.16976417313E+01  0.22218833733E+01  0.45538372977E+01  0.00000000000E+00 0.  1.
<mgrwt>
<rscale>  0 0.12360603E+04</rscale>
<asrwt>0</asrwt>
<pdfrwt beam="1">  1        2 0.25406213E+00 0.12360603E+04</pdfrwt>
<pdfrwt beam="2">  1       -2 0.35583830E-01 0.12360603E+04</pdfrwt>
<totfact> 0.76236543E+01</totfact>
</mgrwt>
</event>
<event>
12    1  0.2048318E-007  0.2324354E+04  0.7818608E-02  0.8468380E-01
          2   -1    0    0  501    0  0.00000000000E+00  0.00000000000E+00  0.24631944840E+04  0.24631944840E+04  0.00000000000E+00 0. -1.
         -2   -1    0    0    0  501 -0.00000000000E+00 -0.00000000000E+00 -0.54833468778E+03  0.54833468778E+03  0.00000000000E+00 0.  1.
         23    2    1    2    0    0 -0.54223258637E+03  0.51593794873E+03  0.16460085602E+04  0.18104300392E+04  0.90025563383E+02 0.  0.
        254    2    1    2    0    0  0.54223258637E+03 -0.51593794873E+03  0.26885123606E+03  0.12010991326E+04  0.90008332640E+03 0.  0.
        -24    2    4    4    0    0  0.64455478237E+02 -0.63977491574E+03  0.26759627694E+03  0.70112979351E+03  0.80676938688E+02 0.  0.
         24    2    4    4    0    0  0.47777710813E+03  0.12383696700E+03  0.12549591198E+01  0.49996933906E+03  0.79757166612E+02 0.  0.
         13    1    3    3    0    0 -0.37571245844E+03  0.30052157164E+03  0.10817171017E+04  0.11838855327E+04  0.00000000000E+00 0.  1.
        -13    1    3    3    0    0 -0.16652012793E+03  0.21541637709E+03  0.56429145845E+03  0.62654450648E+03  0.00000000000E+00 0. -1.
          4    1    6    6  502    0  0.27614724369E+03  0.90207146929E+02  0.35628807505E+02  0.29268420093E+03  0.00000000000E+00 0. -1.
          1    1    5    5  503    0  0.83526534987E+02 -0.54345532023E+03  0.22941253736E+03  0.59577720620E+03  0.00000000000E+00 0. -1.
         -2    1    5    5    0  503 -0.19071056750E+02 -0.96319595508E+02  0.38183739578E+02  0.10535258731E+03  0.00000000000E+00 0.  1.
         -3    1    6    6    0  502  0.20162986445E+03  0.33629820073E+02 -0.34373848385E+02  0.20728513813E+03  0.00000000000E+00 0.  1.
<mgrwt>
<rscale>  0 0.23243537E+04</rscale>
<asrwt>0</asrwt>
<pdfrwt beam="1">  1        2 0.37895299E+00 0.23243537E+04</pdfrwt>
<pdfrwt beam="2">  1       -2 0.84359184E-01 0.23243537E+04</pdfrwt>
<totfact> 0.40549931E+00</totfact>
</mgrwt>
</event>
<event>
12    1  0.2048318E-007  0.1538738E+04  0.7818608E-02  0.8859093E-01
          1   -1    0    0  501    0  0.00000000000E+00  0.00000000000E+00  0.80811329723E+03  0.80811329723E+03  0.00000000000E+00 0. -1.
         -1   -1    0    0    0  501 -0.00000000000E+00 -0.00000000000E+00 -0.73248230476E+03  0.73248230476E+03  0.00000000000E+00 0.  1.
         23    2    1    2    0    0 -0.30103518712E+03 -0.50114619940E+02 -0.37763559795E+03  0.49420866643E+03  0.92194913739E+02 0.  0.
        254    2    1    2    0    0  0.30103518712E+03  0.50114619940E+02  0.45326659042E+03  0.10463869356E+04  0.89237960416E+03 0.  0.
        -24    2    4    4    0    0  0.19309310023E+03  0.89838725381E+02 -0.24519439695E+03  0.33366325065E+03  0.76517518306E+02 0.  0.
         24    2    4    4    0    0  0.10794208689E+03 -0.39724105441E+02  0.69846098738E+03  0.71272368491E+03  0.83053004012E+02 0.  0.
         11    1    3    3    0    0 -0.87603851758E+02 -0.47018430289E+02 -0.78263720875E+02  0.12653212096E+03  0.00000000000E+00 0. -1.
        -11    1    3    3    0    0 -0.21343133536E+03 -0.30961896517E+01 -0.29937187707E+03  0.36767654546E+03  0.00000000000E+00 0.  1.
          2    1    6    6  502    0  0.11200761625E+03 -0.25086444590E+02  0.67556096975E+03  0.68524277424E+03  0.00000000000E+00 0. -1.
          1    1    5    5  503    0  0.16251811589E+03  0.84998486661E+02 -0.24034710110E+03  0.30233029907E+03  0.00000000000E+00 0. -1.
         -2    1    5    5    0  503  0.30574984336E+02  0.48402387198E+01 -0.48472958505E+01  0.31332951586E+02  0.00000000000E+00 0.  1.
         -1    1    6    6    0  502 -0.40655293580E+01 -0.14637660851E+02  0.22900017628E+02  0.27480910675E+02  0.00000000000E+00 0.  1.
<mgrwt>
<rscale>  0 0.15387380E+04</rscale>
<asrwt>0</asrwt>
<pdfrwt beam="1">  1        1 0.12432512E+00 0.15387380E+04</pdfrwt>
<pdfrwt beam="2">  1       -1 0.11268959E+00 0.15387380E+04</pdfrwt>
<totfact> 0.15120303E+01</totfact>
</mgrwt>
</event>
<event>
12    1  0.2048318E-007  0.1152789E+04  0.7818608E-02  0.9155214E-01
          2   -1    0    0  501    0  0.00000000000E+00  0.00000000000E+00  0.57787810809E+03  0.57787810809E+03  0.00000000000E+00 0.  1.
         -2   -1    0    0    0  501 -0.00000000000E+00 -0.00000000000E+00 -0.57491486402E+03  0.57491486402E+03  0.00000000000E+00 0. -1.
         23    2    1    2    0    0  0.43195595828E+01  0.95092884217E+02 -0.18805317553E+03  0.22935199907E+03  0.90426917604E+02 0.  0.
        254    2    1    2    0    0 -0.43195595828E+01 -0.95092884217E+02  0.19101641960E+03  0.92344097303E+03  0.89844011648E+03 0.  0.
        -24    2    4    4    0    0  0.43729656180E+03 -0.77076152434E+02  0.13637075534E+03  0.47087462144E+03  0.77181020792E+02 0.  0.
         24    2    4    4    0    0 -0.44161612138E+03 -0.18016731783E+02  0.54645664259E+02  0.45256635159E+03  0.80503122190E+02 0.  0.
         11    1    3    3    0    0  0.22890801578E+02  0.79367185073E+02 -0.68390302142E+02  0.10723978875E+03  0.00000000000E+00 0.  1.
        -11    1    3    3    0    0 -0.18571241995E+02  0.15725699144E+02 -0.11966287339E+03  0.12211221033E+03  0.00000000000E+00 0. -1.
          2    1    6    6  502    0 -0.26187504131E+02 -0.95423524642E+01  0.22480832971E+02  0.35808235285E+02  0.00000000000E+00 0. -1.
          3    1    5    5  503    0  0.67491784670E+02 -0.12021337830E+02 -0.70875330767E+01  0.68919421691E+02  0.00000000000E+00 0. -1.
         -4    1    5    5    0  503  0.36980477713E+03 -0.65054814604E+02  0.14345828842E+03  0.40195519975E+03  0.00000000000E+00 0.  1.
         -1    1    6    6    0  502 -0.41542861725E+03 -0.84743793189E+01  0.32164831288E+02  0.41675811631E+03  0.00000000000E+00 0.  1.
<mgrwt>
<rscale>  0 0.11527892E+04</rscale>
<asrwt>0</asrwt>
<pdfrwt beam="1">  1        2 0.88904325E-01 0.11527892E+04</pdfrwt>
<pdfrwt beam="2">  1       -2 0.88448440E-01 0.11527892E+04</pdfrwt>
<totfact> 0.56526171E+01</totfact>
</mgrwt>
</event>
<event>
12    1  0.2048318E-007  0.3634682E+04  0.7818608E-02  0.8082593E-01
          1   -1    0    0  501    0  0.00000000000E+00  0.00000000000E+00  0.39431920509E+04  0.39431920509E+04  0.00000000000E+00 0. -1.
         -1   -1    0    0    0  501 -0.00000000000E+00 -0.00000000000E+00 -0.83757741804E+03  0.83757741804E+03  0.00000000000E+00 0.  1.
         23    2    1    2    0    0 -0.25084128522E+03 -0.14522770543E+04  0.33031153330E+03  0.15121786277E+04  0.74488256429E+02 0.  0.
        254    2    1    2    0    0  0.25084128522E+03  0.14522770543E+04  0.27753030995E+04  0.32685908412E+04  0.89963814942E+03 0.  0.
        -24    2    4    4    0    0  0.67510054785E+02 -0.10644434570E+03  0.32697872620E+03  0.35928830099E+03  0.79277926384E+02 0.  0.
         24    2    4    4    0    0  0.18333123044E+03  0.15587214000E+04  0.24483243733E+04  0.29093025402E+04  0.80785459066E+02 0.  0.
         11    1    3    3    0    0 -0.11482658261E+03 -0.50229086885E+03  0.13826383073E+03  0.53347741085E+03  0.00000000000E+00 0. -1.
        -11    1    3    3    0    0 -0.13601470262E+03 -0.94998618544E+03  0.19204770257E+03  0.97870121688E+03  0.00000000000E+00 0.  1.
          2    1    6    6  502    0  0.16148149762E+03  0.14643946467E+04  0.22652374870E+04  0.27021896358E+04  0.00000000000E+00 0. -1.
          3    1    5    5  503    0  0.34640283439E+02 -0.11030310715E+03  0.26163974819E+03  0.28604559517E+03  0.00000000000E+00 0. -1.
         -4    1    5    5    0  503  0.32869771345E+02  0.38587614503E+01  0.65338978016E+02  0.73242705824E+02  0.00000000000E+00 0.  1.
         -1    1    6    6    0  502  0.21849732816E+02  0.94326753304E+02  0.18308688634E+03  0.20711290439E+03  0.00000000000E+00 0.  1.
<mgrwt>
<rscale>  0 0.36346822E+04</rscale>
<asrwt>0</asrwt>
<pdfrwt beam="1">  1        1 0.60664492E+00 0.36346822E+04</pdfrwt>
<pdfrwt beam="2">  1       -1 0.12885807E+00 0.36346822E+04</pdfrwt>
<totfact> 0.44885365E-02</totfact>
</mgrwt>
</event>
<event>
12    1  0.2048318E-007  0.3529657E+04  0.7818608E-02  0.8106797E-01
         -2   -1    0    0    0  501 -0.00000000000E+00  0.00000000000E+00  0.40796859049E+04  0.40796859049E+04  0.00000000000E+00 0.  1.
          2   -1    0    0  501    0  0.00000000000E+00 -0.00000000000E+00 -0.76344581900E+03  0.76344581900E+03  0.00000000000E+00 0. -1.
         23    2    1    2    0    0  0.15388050082E+03  0.15655495133E+04  0.87320805278E+03  0.18016507419E+04  0.93960657328E+02 0.  0.
        254    2    1    2    0    0 -0.15388050082E+03 -0.15655495133E+04  0.24430320331E+04  0.30414809820E+04  0.89865263707E+03 0.  0.
        -24    2    4    4    0    0 -0.33029151164E+03 -0.22700763438E+03  0.29828952690E+03  0.50593082461E+03  0.79777244282E+02 0.  0.
         24    2    4    4    0    0  0.17641101082E+03 -0.13385418789E+04  0.21447425062E+04  0.25355501574E+04  0.79239992994E+02 0.  0.
         13    1    3    3    0    0  0.94183700870E+02  0.62274807789E+03  0.38635392751E+03  0.73888774203E+03  0.00000000000E+00 0. -1.
        -13    1    3    3    0    0  0.59696799947E+02  0.94280143539E+03  0.48685412527E+03  0.10627629998E+04  0.00000000000E+00 0.  1.
          2    1    6    6  502    0  0.84857503382E+02 -0.55918189220E+03  0.96919069694E+03  0.11221478474E+04  0.00000000000E+00 0. -1.
          1    1    5    5  503    0 -0.31509675769E+03 -0.19626940962E+03  0.28885804898E+03  0.47036860048E+03  0.00000000000E+00 0. -1.
         -2    1    5    5    0  503 -0.15194753951E+02 -0.30738224767E+02  0.94314779189E+01  0.35562224131E+02  0.00000000000E+00 0.  1.
         -1    1    6    6    0  502  0.91553507438E+02 -0.77935998670E+03  0.11755518093E+04  0.14134023100E+04  0.00000000000E+00 0.  1.
<mgrwt>
<rscale>  0 0.35296567E+04</rscale>
<asrwt>0</asrwt>
<pdfrwt beam="1">  1        2 0.11745321E+00 0.35296567E+04</pdfrwt>
<pdfrwt beam="2">  1       -2 0.62764397E+00 0.35296567E+04</pdfrwt>
<totfact> 0.11951700E-02</totfact>
</mgrwt>
</event>
<event>
12    1  0.2048318E-007  0.2002526E+04  0.7818608E-02  0.8605441E-01
         -1   -1    0    0    0  501 -0.00000000000E+00  0.00000000000E+00  0.77920713791E+03  0.77920713791E+03  0.00000000000E+00 0.  1.
          1   -1    0    0  501    0  0.00000000000E+00 -0.00000000000E+00 -0.12865996405E+04  0.12865996405E+04  0.00000000000E+00 0. -1.
         23    2    1    2    0    0 -0.24596484172E+03 -0.73892003525E+03 -0.38670020883E+03  0.87434641538E+03  0.91886238039E+02 0.  0.
        254    2    1    2    0    0  0.24596484172E+03  0.73892003525E+03 -0.12069229377E+03  0.11914603630E+04  0.89359366887E+03 0.  0.
        -24    2    4    4    0    0 -0.84771340832E+01  0.28117468120E+03 -0.47250208352E+03  0.55553224827E+03  0.78910055019E+02 0.  0.
         24    2    4    4    0    0  0.25444197580E+03  0.45774535405E+03  0.35180978975E+03  0.63592811476E+03  0.79767855534E+02 0.  0.
         11    1    3    3    0    0 -0.23988480266E+03 -0.63262269308E+03 -0.34986549657E+03  0.76168369816E+03  0.00000000000E+00 0. -1.
        -11    1    3    3    0    0 -0.60800390600E+01 -0.10629734217E+03 -0.36834712258E+02  0.11266271723E+03  0.00000000000E+00 0.  1.
          4    1    6    6  502    0  0.22234776642E+03  0.40299100304E+03  0.27449190311E+03  0.53589745534E+03  0.00000000000E+00 0. -1.
          3    1    5    5  503    0  0.66625304687E+01  0.19944148769E+03 -0.39172779566E+03  0.43962707175E+03  0.00000000000E+00 0. -1.
         -4    1    5    5    0  503 -0.15139664552E+02  0.81733193503E+02 -0.80774287862E+02  0.11590517651E+03  0.00000000000E+00 0.  1.
         -3    1    6    6    0  502  0.32094209383E+02  0.54754351005E+02  0.77317886641E+02  0.10003065942E+03  0.00000000000E+00 0.  1.
<mgrwt>
<rscale>  0 0.20025260E+04</rscale>
<asrwt>0</asrwt>
<pdfrwt beam="1">  1        1 0.19793840E+00 0.20025260E+04</pdfrwt>
<pdfrwt beam="2">  1       -1 0.11987802E+00 0.20025260E+04</pdfrwt>
<totfact> 0.53234556E+00</totfact>
</mgrwt>
</event>
<event>
12    1  0.2048318E-007  0.2458007E+04  0.7818608E-02  0.8418100E-01
         -2   -1    0    0    0  501 -0.00000000000E+00  0.00000000000E+00  0.11362731825E+04  0.11362731825E+04  0.00000000000E+00 0.  1.
          2   -1    0    0  501    0  0.00000000000E+00 -0.00000000000E+00 -0.13293014328E+04  0.13293014328E+04  0.00000000000E+00 0. -1.
         23    2    1    2    0    0  0.98368839633E+03 -0.55438815043E+02  0.30832668388E+03  0.10366481644E+04  0.94115617702E+02 0.  0.
        254    2    1    2    0    0 -0.98368839633E+03  0.55438815043E+02 -0.50135493414E+03  0.14289264509E+04  0.90540472104E+03 0.  0.
        -24    2    4    4    0    0 -0.96426889675E+03  0.35246707246E+03 -0.39735505783E+03  0.11037281992E+04  0.79229749663E+02 0.  0.
         24    2    4    4    0    0 -0.19419499580E+02 -0.29702825742E+03 -0.10399987630E+03  0.32519825176E+03  0.79592876626E+02 0.  0.
         11    1    3    3    0    0  0.27397729754E+03 -0.23804910350E+02  0.13002669536E+03  0.30419923542E+03  0.00000000000E+00 0.  1.
        -11    1    3    3    0    0  0.70971109879E+03 -0.31633904693E+02  0.17829998852E+03  0.73244892899E+03  0.00000000000E+00 0. -1.
          2    1    6    6  502    0  0.14395073189E+02 -0.15565875569E+03 -0.86860164242E+02  0.17883387399E+03  0.00000000000E+00 0. -1.
          3    1    5    5  503    0 -0.86967508920E+03  0.31682129711E+03 -0.33187385401E+03  0.98328569096E+03  0.00000000000E+00 0. -1.
         -4    1    5    5    0  503 -0.94593807548E+02  0.35645775356E+02 -0.65481203822E+02  0.12044250820E+03  0.00000000000E+00 0.  1.
         -1    1    6    6    0  502 -0.33814572768E+02 -0.14136950173E+03 -0.17139712061E+02  0.14636437777E+03  0.00000000000E+00 0.  1.
<mgrwt>
<rscale>  0 0.24580070E+04</rscale>
<asrwt>0</asrwt>
<pdfrwt beam="1">  1        2 0.20450791E+00 0.24580070E+04</pdfrwt>
<pdfrwt beam="2">  1       -2 0.17481126E+00 0.24580070E+04</pdfrwt>
<totfact> 0.28037477E+00</totfact>
</mgrwt>
</event>
<event>
12    1  0.2048318E-007  0.2242878E+04  0.7818608E-02  0.8500790E-01
         -1   -1    0    0    0  501 -0.00000000000E+00  0.00000000000E+00  0.23498532528E+04  0.23498532528E+04  0.00000000000E+00 0. -1.
          1   -1    0    0  501    0  0.00000000000E+00 -0.00000000000E+00 -0.53519335843E+03  0.53519335843E+03  0.00000000000E+00 0.  1.
         23    2    1    2    0    0 -0.29185209880E+03 -0.61710002373E+03 -0.65055307076E+02  0.69166577000E+03  0.90439247794E+02 0.  0.
        254    2    1    2    0    0  0.29185209880E+03  0.61710002373E+03  0.18797152014E+04  0.21933808412E+04  0.90088855543E+03 0.  0.
        -24    2    4    4    0    0  0.34363657261E+03  0.75734754377E+03  0.10250050418E+04  0.13221895882E+04  0.76737052438E+02 0.  0.
         24    2    4    4    0    0 -0.51784473802E+02 -0.14024752004E+03  0.85471015961E+03  0.87119125306E+03  0.78062435679E+02 0.  0.
         11    1    3    3    0    0 -0.23715731076E+03 -0.41808368702E+03 -0.24246978705E+02  0.48127484390E+03  0.00000000000E+00 0. -1.
        -11    1    3    3    0    0 -0.54694788041E+02 -0.19901633672E+03 -0.40808328371E+02  0.21039092610E+03  0.00000000000E+00 0.  1.
          4    1    6    6  502    0  0.65901564430E+01 -0.83356387906E+02  0.52118966099E+03  0.52785450674E+03  0.00000000000E+00 0. -1.
          1    1    5    5  503    0  0.98038886407E+02  0.30490683759E+03  0.38262435308E+03  0.49898015835E+03  0.00000000000E+00 0. -1.
         -2    1    5    5    0  503  0.24559768620E+03  0.45244070617E+03  0.64238068874E+03  0.82320942982E+03  0.00000000000E+00 0.  1.
         -3    1    6    6    0  502 -0.58374630245E+02 -0.56891132130E+02  0.33352049862E+03  0.34333674632E+03  0.00000000000E+00 0.  1.
<mgrwt>
<rscale>  0 0.22428784E+04</rscale>
<asrwt>0</asrwt>
<pdfrwt beam="1">  1        1 0.82337441E-01 0.22428784E+04</pdfrwt>
<pdfrwt beam="2">  1       -1 0.36151588E+00 0.22428784E+04</pdfrwt>
<totfact> 0.47730782E-01</totfact>
</mgrwt>
</event>
<event>
12    1  0.2048318E-007  0.2505491E+04  0.7818608E-02  0.8401032E-01
          2   -1    0    0  501    0  0.00000000000E+00  0.00000000000E+00  0.31865092206E+04  0.31865092206E+04  0.00000000000E+00 0. -1.
         -2   -1    0    0    0  501 -0.00000000000E+00 -0.00000000000E+00 -0.49250473474E+03  0.49250473474E+03  0.00000000000E+00 0.  1.
         23    2    1    2    0    0 -0.64512635116E+03  0.72302631282E+03  0.19008322962E+04  0.21355234167E+04  0.91333385035E+02 0.  0.
        254    2    1    2    0    0  0.64512635116E+03 -0.72302631282E+03  0.79317218975E+03  0.15434905387E+04  0.90237789334E+03 0.  0.
        -24    2    4    4    0    0  0.66770224381E+02 -0.45121557824E+03 -0.70427948976E+02  0.46680252377E+03  0.69933820782E+02 0.  0.
         24    2    4    4    0    0  0.57835612678E+03 -0.27181073457E+03  0.86360013873E+03  0.10766880149E+04  0.71239013244E+02 0.  0.
         13    1    3    3    0    0 -0.60665441826E+02  0.36956268325E+02  0.11543247690E+03  0.13553862300E+03  0.00000000000E+00 0.  1.
        -13    1    3    3    0    0 -0.58446090934E+03  0.68607004449E+03  0.17853998193E+04  0.19999847937E+04  0.00000000000E+00 0. -1.
          4    1    6    6  502    0  0.32033568914E+03 -0.17000357593E+03  0.54003737250E+03  0.65050482955E+03  0.00000000000E+00 0. -1.
          1    1    5    5  503    0  0.63028828580E+02 -0.43876664352E+03 -0.55064422194E+02  0.44667761449E+03  0.00000000000E+00 0. -1.
         -2    1    5    5    0  503  0.37413958015E+01 -0.12448934723E+02 -0.15363526781E+02  0.20124909278E+02  0.00000000000E+00 0.  1.
         -3    1    6    6    0  502  0.25802043764E+03 -0.10180715864E+03  0.32356276623E+03  0.42618318536E+03  0.00000000000E+00 0.  1.
<mgrwt>
<rscale>  0 0.25054907E+04</rscale>
<asrwt>0</asrwt>
<pdfrwt beam="1">  1        2 0.49023217E+00 0.25054907E+04</pdfrwt>
<pdfrwt beam="2">  1       -2 0.75769961E-01 0.25054907E+04</pdfrwt>
<totfact> 0.18423315E+00</totfact>
</mgrwt>
</event>
<event>
12    1  0.2048318E-007  0.2095745E+04  0.7818608E-02  0.8563120E-01
         -1   -1    0    0    0  501 -0.00000000000E+00  0.00000000000E+00  0.47558943564E+03  0.47558943564E+03  0.00000000000E+00 0.  1.
          1   -1    0    0  501    0  0.00000000000E+00 -0.00000000000E+00 -0.23087908284E+04  0.23087908284E+04  0.00000000000E+00 0. -1.
         23    2    1    2    0    0 -0.29301618031E+03  0.79865283344E+03 -0.76463987399E+03  0.11478220838E+04  0.95480724579E+02 0.  0.
        254    2    1    2    0    0  0.29301618031E+03 -0.79865283344E+03 -0.10685615187E+04  0.16365581803E+04  0.90155095682E+03 0.  0.
        -24    2    4    4    0    0  0.46862845383E+03 -0.59867346848E+03 -0.11179463153E+04  0.13542793444E+04  0.79031823475E+02 0.  0.
         24    2    4    4    0    0 -0.17561227352E+03 -0.19997936497E+03  0.49384796567E+02  0.28227883587E+03  0.80069132784E+02 0.  0.
         11    1    3    3    0    0 -0.22696961872E+03  0.61160619000E+03 -0.52964844575E+03  0.84030043172E+03  0.00000000000E+00 0.  1.
        -11    1    3    3    0    0 -0.66046561592E+02  0.18704664344E+03 -0.23499142824E+03  0.30752165203E+03  0.00000000000E+00 0. -1.
          4    1    6    6  502    0 -0.16597128102E+03 -0.19901806183E+03  0.30341314700E+02  0.26091234244E+03  0.00000000000E+00 0. -1.
          1    1    5    5  503    0  0.36713301415E+03 -0.51616130824E+03 -0.91599538300E+03  0.11136681229E+04  0.00000000000E+00 0. -1.
         -2    1    5    5    0  503  0.10149543968E+03 -0.82512160238E+02 -0.20195093231E+03  0.24061122153E+03  0.00000000000E+00 0.  1.
         -3    1    6    6    0  502 -0.96409924965E+01 -0.96130314023E+00  0.19043481867E+02  0.21366493434E+02  0.00000000000E+00 0.  1.
<mgrwt>
<rscale>  0 0.20957448E+04</rscale>
<asrwt>0</asrwt>
<pdfrwt beam="1">  1        1 0.35519859E+00 0.20957448E+04</pdfrwt>
<pdfrwt beam="2">  1       -1 0.73167606E-01 0.20957448E+04</pdfrwt>
<totfact> 0.31793677E+00</totfact>
</mgrwt>
</event>
<event>
12    1  0.2048318E-007  0.1568584E+04  0.7818608E-02  0.8840084E-01
          1   -1    0    0  501    0  0.00000000000E+00  0.00000000000E+00  0.24720254894E+04  0.24720254894E+04  0.00000000000E+00 0. -1.
         -1   -1    0    0    0  501 -0.00000000000E+00 -0.00000000000E+00 -0.24882978417E+03  0.24882978417E+03  0.00000000000E+00 0.  1.
         23    2    1    2    0    0 -0.96052235872E+02 -0.41452665521E+03  0.12655973944E+04  0.13388082212E+04  0.98042381795E+02 0.  0.
        254    2    1    2    0    0  0.96052235872E+02  0.41452665521E+03  0.95759831083E+03  0.13820470523E+04  0.90111106422E+03 0.  0.
        -24    2    4    4    0    0  0.89803119480E+02  0.48798471574E+03  0.93586928188E+02  0.51121694955E+03  0.79941061479E+02 0.  0.
         24    2    4    4    0    0  0.62491163914E+01 -0.73458060529E+02  0.86401138264E+03  0.87083010279E+03  0.79964119929E+02 0.  0.
         13    1    3    3    0    0  0.11560333719E+02 -0.10162197271E+03  0.23219034450E+03  0.25371839257E+03  0.00000000000E+00 0.  1.
        -13    1    3    3    0    0 -0.10761256959E+03 -0.31290468251E+03  0.10334070499E+04  0.10850898287E+04  0.00000000000E+00 0. -1.
          4    1    6    6  502    0  0.31666993358E+02 -0.68645055718E+02  0.47683054052E+03  0.48278598417E+03  0.00000000000E+00 0. -1.
          1    1    5    5  503    0  0.70317176725E+02  0.32707289378E+03  0.99476614685E+02  0.34902260680E+03  0.00000000000E+00 0. -1.
         -2    1    5    5    0  503  0.19485942755E+02  0.16091182196E+03 -0.58896864970E+01  0.16219434274E+03  0.00000000000E+00 0.  1.
         -3    1    6    6    0  502 -0.25417876966E+02 -0.48130048109E+01  0.38718084212E+03  0.38804411862E+03  0.00000000000E+00 0.  1.
<mgrwt>
<rscale>  0 0.15685835E+04</rscale>
<asrwt>0</asrwt>
<pdfrwt beam="1">  1        1 0.38031160E+00 0.15685835E+04</pdfrwt>
<pdfrwt beam="2">  1       -1 0.38281507E-01 0.15685835E+04</pdfrwt>
<totfact> 0.90124171E+00</totfact>
</mgrwt>
</event>
<event>
12    1  0.2048318E-007  0.1703046E+04  0.7818608E-02  0.8759629E-01
          2   -1    0    0  501    0  0.00000000000E+00  0.00000000000E+00  0.19113080990E+04  0.19113080990E+04  0.00000000000E+00 0. -1.
         -2   -1    0    0    0  501 -0.00000000000E+00 -0.00000000000E+00 -0.37936940770E+03  0.37936940770E+03  0.00000000000E+00 0.  1.
         23    2    1    2    0    0 -0.31673122560E+03 -0.45086185163E+03  0.91701061076E+03  0.10737456750E+04  0.91794530763E+02 0.  0.
        254    2    1    2    0    0  0.31673122560E+03  0.45086185163E+03  0.61492808053E+03  0.12169318317E+04  0.89397508922E+03 0.  0.
        -24    2    4    4    0    0  0.34272116113E+03 -0.19205117212E+03  0.21013557229E+03  0.45248459994E+03  0.79018399389E+02 0.  0.
         24    2    4    4    0    0 -0.25989935522E+02  0.64291302375E+03  0.40479250824E+03  0.76444723172E+03  0.80684338685E+02 0.  0.
         11    1    3    3    0    0 -0.98036241906E+02 -0.15390129141E+03  0.22592441183E+03  0.29041100545E+03  0.00000000000E+00 0.  1.
        -11    1    3    3    0    0 -0.21869498370E+03 -0.29696056022E+03  0.69108619894E+03  0.78333466959E+03  0.00000000000E+00 0. -1.
          4    1    6    6  502    0 -0.14457208074E+01  0.57239833524E+03  0.34124248226E+03  0.66639956182E+03  0.00000000000E+00 0. -1.
          3    1    5    5  503    0  0.17860656546E+03 -0.10988164460E+03  0.68341515885E+02  0.22055576129E+03  0.00000000000E+00 0. -1.
         -4    1    5    5    0  503  0.16411459567E+03 -0.82169527521E+02  0.14179405641E+03  0.23192883865E+03  0.00000000000E+00 0.  1.
         -3    1    6    6    0  502 -0.24544214714E+02  0.70514688505E+02  0.63550025985E+02  0.98047669904E+02  0.00000000000E+00 0.  1.
<mgrwt>
<rscale>  0 0.17030465E+04</rscale>
<asrwt>0</asrwt>
<pdfrwt beam="1">  1        2 0.29404740E+00 0.17030465E+04</pdfrwt>
<pdfrwt beam="2">  1       -2 0.58364525E-01 0.17030465E+04</pdfrwt>
<totfact> 0.19548548E+01</totfact>
</mgrwt>
</event>
<event>
12    1  0.2048318E-007  0.1545349E+04  0.7818608E-02  0.8854844E-01
          2   -1    0    0  501    0  0.00000000000E+00  0.00000000000E+00  0.32847485488E+04  0.32847485488E+04  0.00000000000E+00 0. -1.
         -2   -1    0    0    0  501 -0.00000000000E+00 -0.00000000000E+00 -0.18175691865E+03  0.18175691865E+03  0.00000000000E+00 0.  1.
         23    2    1    2    0    0 -0.69616853905E+02 -0.15082132719E+03 -0.38741628199E+02  0.19382418796E+03  0.92050654535E+02 0.  0.
        254    2    1    2    0    0  0.69616853905E+02  0.15082132719E+03  0.31417332584E+04  0.32726812795E+04  0.90131088499E+03 0.  0.
        -24    2    4    4    0    0 -0.31621838998E+03  0.94896269975E+02  0.52866922255E+03  0.62944718656E+03  0.87825062405E+02 0.  0.
         24    2    4    4    0    0  0.38583524388E+03  0.55925057211E+02  0.26130640358E+04  0.26432340930E+04  0.81156437458E+02 0.  0.
         11    1    3    3    0    0  0.12991285788E+02 -0.38232379943E+02 -0.36087385632E+02  0.54155219363E+02  0.00000000000E+00 0.  1.
        -11    1    3    3    0    0 -0.82608139693E+02 -0.11258894724E+03 -0.26542425674E+01  0.13966896859E+03  0.00000000000E+00 0. -1.
          2    1    6    6  502    0  0.13773295468E+03  0.38966053307E+02  0.73819635440E+03  0.75194586093E+03  0.00000000000E+00 0. -1.
          3    1    5    5  503    0 -0.16854849704E+03  0.46272787478E+02  0.35920170925E+03  0.39946919110E+03  0.00000000000E+00 0. -1.
         -4    1    5    5    0  503 -0.14766989294E+03  0.48623482497E+02  0.16946751330E+03  0.22997799546E+03  0.00000000000E+00 0.  1.
         -1    1    6    6    0  502  0.24810228920E+03  0.16959003903E+02  0.18748676814E+04  0.18912882320E+04  0.00000000000E+00 0.  1.
<mgrwt>
<rscale>  0 0.15453489E+04</rscale>
<asrwt>0</asrwt>
<pdfrwt beam="1">  1        2 0.50534589E+00 0.15453489E+04</pdfrwt>
<pdfrwt beam="2">  1       -2 0.27962605E-01 0.15453489E+04</pdfrwt>
<totfact> 0.12959698E+01</totfact>
</mgrwt>
</event>
<event>
12    1  0.2048318E-007  0.1583896E+04  0.7818608E-02  0.8830503E-01
         -1   -1    0    0    0  501 -0.00000000000E+00  0.00000000000E+00  0.68016913112E+03  0.68016913112E+03  0.00000000000E+00 0.  1.
          1   -1    0    0  501    0  0.00000000000E+00 -0.00000000000E+00 -0.92209626343E+03  0.92209626343E+03  0.00000000000E+00 0. -1.
         23    2    1    2    0    0  0.46603935884E+03  0.22129904134E+03  0.58309382481E+02  0.52770560552E+03  0.94378346707E+02 0.  0.
        254    2    1    2    0    0 -0.46603935884E+03 -0.22129904134E+03 -0.30023651479E+03  0.10745597890E+04  0.89351599073E+03 0.  0.
        -24    2    4    4    0    0  0.35810645272E+02 -0.44515114163E+03 -0.21217672588E+02  0.45313643663E+03  0.73759740818E+02 0.  0.
         24    2    4    4    0    0 -0.50185000411E+03  0.22385210029E+03 -0.27901884220E+03  0.62142335239E+03  0.79701186751E+02 0.  0.
         13    1    3    3    0    0  0.16655625231E+03  0.47048309039E+02 -0.14399234085E+02  0.17367172052E+03  0.00000000000E+00 0. -1.
        -13    1    3    3    0    0  0.29948310653E+03  0.17425073230E+03  0.72708616565E+02  0.35403388500E+03  0.00000000000E+00 0.  1.
          2    1    6    6  502    0 -0.46775758359E+02  0.18199818245E+02 -0.53874488015E+02  0.73631959183E+02  0.00000000000E+00 0. -1.
          3    1    5    5  503    0  0.22174866472E+02 -0.19789449649E+03 -0.45659961969E+02  0.20430073072E+03  0.00000000000E+00 0. -1.
         -4    1    5    5    0  503  0.13635778801E+02 -0.24725664513E+03  0.24442289381E+02  0.24883570591E+03  0.00000000000E+00 0.  1.
         -1    1    6    6    0  502 -0.45507424575E+03  0.20565228204E+03 -0.22514435419E+03  0.54779139321E+03  0.00000000000E+00 0.  1.
<mgrwt>
<rscale>  0 0.15838957E+04</rscale>
<asrwt>0</asrwt>
<pdfrwt beam="1">  1        1 0.14186096E+00 0.15838957E+04</pdfrwt>
<pdfrwt beam="2">  1       -1 0.10464141E+00 0.15838957E+04</pdfrwt>
<totfact> 0.14397101E+01</totfact>
</mgrwt>
</event>
<event>
12    1  0.2048318E-007  0.1318336E+04  0.7818608E-02  0.9015149E-01
          2   -1    0    0  501    0  0.00000000000E+00  0.00000000000E+00  0.26319545001E+04  0.26319545001E+04  0.00000000000E+00 0. -1.
         -2   -1    0    0    0  501 -0.00000000000E+00 -0.00000000000E+00 -0.16508741790E+03  0.16508741790E+03  0.00000000000E+00 0.  1.
         23    2    1    2    0    0  0.28833036249E+03  0.17650099664E+03  0.79297900867E+03  0.86692692236E+03  0.91975979250E+02 0.  0.
        254    2    1    2    0    0 -0.28833036249E+03 -0.17650099664E+03  0.16738880735E+04  0.19301149957E+04  0.89953077435E+03 0.  0.
        -24    2    4    4    0    0 -0.44830367788E+03 -0.17485658178E+03  0.16789902569E+04  0.17483784949E+04  0.79171124206E+02 0.  0.
         24    2    4    4    0    0  0.15997331539E+03 -0.16444148547E+01 -0.51021833321E+01  0.18173650078E+03  0.86069493462E+02 0.  0.
         13    1    3    3    0    0  0.17567513343E+03  0.15781135560E+03  0.53168156818E+03  0.58176581750E+03  0.00000000000E+00 0. -1.
        -13    1    3    3    0    0  0.11265522906E+03  0.18689641034E+02  0.26129744049E+03  0.28516110486E+03  0.00000000000E+00 0.  1.
          4    1    6    6  502    0  0.14932636217E+03 -0.28222473095E+02  0.29357660229E+01  0.15199831956E+03  0.00000000000E+00 0. -1.
          3    1    5    5  503    0 -0.10619280699E+03 -0.79033097240E+02  0.44976891018E+03  0.46884455343E+03  0.00000000000E+00 0. -1.
         -4    1    5    5    0  503 -0.34211087089E+03 -0.95823484543E+02  0.12292213467E+04  0.12795339414E+04  0.00000000000E+00 0.  1.
         -3    1    6    6    0  502  0.10646953221E+02  0.26578058241E+02 -0.80379493550E+01  0.29738181225E+02  0.00000000000E+00 0.  1.
<mgrwt>
<rscale>  0 0.13183362E+04</rscale>
<asrwt>0</asrwt>
<pdfrwt beam="1">  1        2 0.40491604E+00 0.13183362E+04</pdfrwt>
<pdfrwt beam="2">  1       -2 0.25398066E-01 0.13183362E+04</pdfrwt>
<totfact> 0.40006543E+01</totfact>
</mgrwt>
</event>
<event>
12    1  0.2048318E-007  0.2431041E+04  0.7818608E-02  0.8427973E-01
          1   -1    0    0  501    0  0.00000000000E+00  0.00000000000E+00  0.23919280299E+04  0.23919280299E+04  0.00000000000E+00 0. -1.
         -1   -1    0    0    0  501 -0.00000000000E+00 -0.00000000000E+00 -0.61769829737E+03  0.61769829737E+03  0.00000000000E+00 0.  1.
         23    2    1    2    0    0 -0.86213484611E+03  0.17111976563E+03  0.62868087188E+02  0.88585454583E+03  0.90705087633E+02 0.  0.
        254    2    1    2    0    0  0.86213484611E+03 -0.17111976563E+03  0.17113616453E+04  0.21237717814E+04  0.89949398631E+03 0.  0.
        -24    2    4    4    0    0  0.53138212575E+02  0.28969544529E+03  0.59186457960E+03  0.66561057344E+03  0.77373343152E+02 0.  0.
         24    2    4    4    0    0  0.80899663353E+03 -0.46081521093E+03  0.11194970657E+04  0.14581612080E+04  0.78321239822E+02 0.  0.
         13    1    3    3    0    0 -0.57502657524E+03  0.15404669602E+03  0.58920782240E+02  0.59821200704E+03  0.00000000000E+00 0. -1.
        -13    1    3    3    0    0 -0.28710827087E+03  0.17073069612E+02  0.39473049486E+01  0.28764253879E+03  0.00000000000E+00 0.  1.
          2    1    6    6  502    0  0.46466794281E+03 -0.28207243922E+03  0.70815927365E+03  0.89273216302E+03  0.00000000000E+00 0. -1.
          1    1    5    5  503    0  0.58964670629E+02  0.28784129260E+03  0.55244413830E+03  0.62571876115E+03  0.00000000000E+00 0. -1.
         -2    1    5    5    0  503 -0.58264580541E+01  0.18541526902E+01  0.39420441305E+02  0.39891812297E+02  0.00000000000E+00 0.  1.
         -1    1    6    6    0  502  0.34432869072E+03 -0.17874277170E+03  0.41133779208E+03  0.56542904496E+03  0.00000000000E+00 0.  1.
<mgrwt>
<rscale>  0 0.24310408E+04</rscale>
<asrwt>0</asrwt>
<pdfrwt beam="1">  1        1 0.36798892E+00 0.24310408E+04</pdfrwt>
<pdfrwt beam="2">  1       -1 0.95030508E-01 0.24310408E+04</pdfrwt>
<totfact> 0.15383918E+00</totfact>
</mgrwt>
</event>
<event>
12    1  0.2048318E-007  0.3409446E+04  0.7818608E-02  0.8135592E-01
         -1   -1    0    0    0  501 -0.00000000000E+00  0.00000000000E+00  0.91314798144E+03  0.91314798144E+03  0.00000000000E+00 0.  1.
          1   -1    0    0  501    0  0.00000000000E+00 -0.00000000000E+00 -0.31824850616E+04  0.31824850616E+04  0.00000000000E+00 0. -1.
         23    2    1    2    0    0  0.82564146030E+03 -0.12808695597E+04 -0.53607840305E+03  0.16177760495E+04  0.86652422496E+02 0.  0.
        254    2    1    2    0    0 -0.82564146030E+03  0.12808695597E+04 -0.17332586771E+04  0.24778569935E+04  0.90181982045E+03 0.  0.
        -24    2    4    4    0    0 -0.66039078895E+03  0.13779803350E+04 -0.13422917377E+04  0.20354188695E+04  0.78975106529E+02 0.  0.
         24    2    4    4    0    0 -0.16525067136E+03 -0.97110775288E+02 -0.39096693939E+03  0.44243812400E+03  0.78473300008E+02 0.  0.
         11    1    3    3    0    0  0.37134668721E+03 -0.54641546262E+03 -0.27465232199E+03  0.71547335232E+03  0.00000000000E+00 0. -1.
        -11    1    3    3    0    0  0.45429477309E+03 -0.73445409706E+03 -0.26142608106E+03  0.90230269722E+03  0.00000000000E+00 0.  1.
          4    1    6    6  502    0 -0.13454467987E+03 -0.10723566231E+03 -0.29918901755E+03  0.34513160733E+03  0.00000000000E+00 0. -1.
          3    1    5    5  503    0 -0.51001789142E+03  0.10740715198E+04 -0.10001559841E+04  0.15537245161E+04  0.00000000000E+00 0. -1.
         -4    1    5    5    0  503 -0.15037289753E+03  0.30390881517E+03 -0.34213575354E+03  0.48169435340E+03  0.00000000000E+00 0.  1.
         -3    1    6    6    0  502 -0.30705991484E+02  0.10124887025E+02 -0.91777921836E+02  0.97306516672E+02  0.00000000000E+00 0.  1.
<mgrwt>
<rscale>  0 0.34094456E+04</rscale>
<asrwt>0</asrwt>
<pdfrwt beam="1">  1        1 0.48961309E+00 0.34094456E+04</pdfrwt>
<pdfrwt beam="2">  1       -1 0.14048430E+00 0.34094456E+04</pdfrwt>
<totfact> 0.14944983E-01</totfact>
</mgrwt>
</event>
<event>
12    1  0.2048318E-007  0.2398989E+04  0.7818608E-02  0.8439882E-01
          1   -1    0    0  501    0  0.00000000000E+00  0.00000000000E+00  0.20617718646E+04  0.20617718646E+04  0.00000000000E+00 0. -1.
         -1   -1    0    0    0  501 -0.00000000000E+00 -0.00000000000E+00 -0.69783984144E+03  0.69783984144E+03  0.00000000000E+00 0.  1.
         23    2    1    2    0    0 -0.29873871726E+03  0.93896792372E+03  0.92360122858E+03  0.13539742876E+04  0.96444590567E+02 0.  0.
        254    2    1    2    0    0  0.29873871726E+03 -0.93896792372E+03  0.44033079460E+03  0.14056374185E+04  0.90056635548E+03 0.  0.
        -24    2    4    4    0    0  0.58324529416E+02 -0.48001977367E+03  0.67253623131E+03  0.83228606472E+03  0.81082533547E+02 0.  0.
         24    2    4    4    0    0  0.24041418784E+03 -0.45894815004E+03 -0.23220543671E+03  0.57335135377E+03  0.79875051752E+02 0.  0.
         13    1    3    3    0    0 -0.11885951000E+03  0.29677662002E+03  0.24750962787E+03  0.40430800288E+03  0.00000000000E+00 0.  1.
        -13    1    3    3    0    0 -0.17987920726E+03  0.64219130370E+03  0.67609160071E+03  0.94966628470E+03  0.00000000000E+00 0. -1.
          2    1    6    6  502    0  0.38834790801E+02 -0.71072988654E+02 -0.70160153263E+02  0.10715389773E+03  0.00000000000E+00 0. -1.
          3    1    5    5  503    0  0.69388409539E+02 -0.23536863278E+03  0.33321738925E+03  0.41381997677E+03  0.00000000000E+00 0. -1.
         -4    1    5    5    0  503 -0.11063880124E+02 -0.24465114089E+03  0.33931884207E+03  0.41846608795E+03  0.00000000000E+00 0.  1.
         -1    1    6    6    0  502  0.20157939704E+03 -0.38787516139E+03 -0.16204528344E+03  0.46619745604E+03  0.00000000000E+00 0.  1.
<mgrwt>
<rscale>  0 0.23989886E+04</rscale>
<asrwt>0</asrwt>
<pdfrwt beam="1">  1        1 0.31719567E+00 0.23989886E+04</pdfrwt>
<pdfrwt beam="2">  1       -1 0.10735998E+00 0.23989886E+04</pdfrwt>
<totfact> 0.19592424E+00</totfact>
</mgrwt>
</event>
<event>
12    1  0.2048318E-007  0.2843556E+04  0.7818608E-02  0.8289872E-01
          2   -1    0    0  501    0  0.00000000000E+00  0.00000000000E+00  0.41498429852E+04  0.41498429852E+04  0.00000000000E+00 0. -1.
         -2   -1    0    0    0  501 -0.00000000000E+00 -0.00000000000E+00 -0.48711547745E+03  0.48711547745E+03  0.00000000000E+00 0.  1.
         23    2    1    2    0    0 -0.36220512021E+03 -0.57535203126E+03  0.34152863041E+04  0.34835157336E+04  0.92080496719E+02 0.  0.
        254    2    1    2    0    0  0.36220512021E+03  0.57535203126E+03  0.24744120362E+03  0.11534427291E+04  0.89832091761E+03 0.  0.
        -24    2    4    4    0    0  0.43636479266E+03 -0.79240599680E+02  0.17671426690E+03  0.48535507804E+03  0.87454643916E+02 0.  0.
         24    2    4    4    0    0 -0.74159672447E+02  0.65459263094E+03  0.70726936720E+02  0.66808765103E+03  0.85718378318E+02 0.  0.
         11    1    3    3    0    0 -0.19902061819E+03 -0.37800738882E+03  0.19795015766E+04  0.20250741429E+04  0.00000000000E+00 0.  1.
        -11    1    3    3    0    0 -0.16318450202E+03 -0.19734464244E+03  0.14357847275E+04  0.14584415907E+04  0.00000000000E+00 0. -1.
          2    1    6    6  502    0  0.10526560579E+02  0.20800371802E+03  0.43230541769E+02  0.21270927326E+03  0.00000000000E+00 0. -1.
          1    1    5    5  503    0  0.84108712556E+01 -0.14713636371E+02 -0.21020772130E+01  0.17077838831E+02  0.00000000000E+00 0. -1.
         -2    1    5    5    0  503  0.42795392140E+03 -0.64526963309E+02  0.17881634411E+03  0.46827723921E+03  0.00000000000E+00 0.  1.
         -1    1    6    6    0  502 -0.84686233027E+02  0.44658891292E+03  0.27496394951E+02  0.45537837777E+03  0.00000000000E+00 0.  1.
<mgrwt>
<rscale>  0 0.28435560E+04</rscale>
<asrwt>0</asrwt>
<pdfrwt beam="1">  1        2 0.63843736E+00 0.28435560E+04</pdfrwt>
<pdfrwt beam="2">  1       -2 0.74940846E-01 0.28435560E+04</pdfrwt>
<totfact> 0.35643152E-01</totfact>
</mgrwt>
</event>
<event>
12    1  0.2048318E-007  0.1967000E+04  0.7818608E-02  0.8622206E-01
         -2   -1    0    0    0  501 -0.00000000000E+00  0.00000000000E+00  0.47356296714E+03  0.47356296714E+03  0.00000000000E+00 0.  1.
          2   -1    0    0  501    0  0.00000000000E+00 -0.00000000000E+00 -0.20425429813E+04  0.20425429813E+04  0.00000000000E+00 0. -1.
         23    2    1    2    0    0  0.61513710810E+03 -0.45229470485E+03 -0.44190171298E+03  0.88696452499E+03  0.92004254656E+02 0.  0.
        254    2    1    2    0    0 -0.61513710810E+03  0.45229470485E+03 -0.11270783012E+04  0.16291414235E+04  0.89489223867E+03 0.  0.
        -24    2    4    4    0    0 -0.22513377705E+03  0.64986764557E+03 -0.47365526562E+03  0.83898297019E+03  0.80808039801E+02 0.  0.
         24    2    4    4    0    0 -0.39000333105E+03 -0.19757294072E+03 -0.65342303557E+03  0.79015845327E+03  0.79063599187E+02 0.  0.
         11    1    3    3    0    0  0.37781737493E+03 -0.29860724650E+03 -0.23026477318E+03  0.53379220885E+03  0.00000000000E+00 0. -1.
        -11    1    3    3    0    0  0.23731973316E+03 -0.15368745835E+03 -0.21163693980E+03  0.35317231614E+03  0.00000000000E+00 0.  1.
          4    1    6    6  502    0 -0.10509651902E+03 -0.35464929078E+02 -0.11480526204E+03  0.15963485740E+03  0.00000000000E+00 0. -1.
          1    1    5    5  503    0 -0.62738682929E+02  0.92310328750E+02 -0.82901869808E+02  0.13903258304E+03  0.00000000000E+00 0. -1.
         -2    1    5    5    0  503 -0.16239509412E+03  0.55755731682E+03 -0.39075339581E+03  0.69995038715E+03  0.00000000000E+00 0.  1.
         -3    1    6    6    0  502 -0.28490681203E+03 -0.16210801165E+03 -0.53861777354E+03  0.63052359587E+03  0.00000000000E+00 0.  1.
<mgrwt>
<rscale>  0 0.19670005E+04</rscale>
<asrwt>0</asrwt>
<pdfrwt beam="1">  1        2 0.31423739E+00 0.19670005E+04</pdfrwt>
<pdfrwt beam="2">  1       -2 0.72855840E-01 0.19670005E+04</pdfrwt>
<totfact> 0.10033496E+01</totfact>
</mgrwt>
</event>
<event>
12    1  0.2048318E-007  0.1111156E+04  0.7818608E-02  0.9194386E-01
         -2   -1    0    0    0  501 -0.00000000000E+00  0.00000000000E+00  0.14237759305E+03  0.14237759305E+03  0.00000000000E+00 0.  1.
          2   -1    0    0  501    0  0.00000000000E+00 -0.00000000000E+00 -0.21679451409E+04  0.21679451409E+04  0.00000000000E+00 0. -1.
         23    2    1    2    0    0  0.98961519292E+01 -0.88588357531E+02 -0.66386728382E+03  0.67541569471E+03  0.86722311007E+02 0.  0.
        254    2    1    2    0    0 -0.98961519292E+01  0.88588357531E+02 -0.13617002641E+04  0.16349070392E+04  0.90041523030E+03 0.  0.
        -24    2    4    4    0    0 -0.35213284119E+03  0.25090856641E+03 -0.10484180225E+04  0.11368923640E+04  0.79945298585E+02 0.  0.
         24    2    4    4    0    0  0.34223668926E+03 -0.16232020888E+03 -0.31328224153E+03  0.49801467528E+03  0.79994076307E+02 0.  0.
         11    1    3    3    0    0  0.64503823609E+01 -0.64276023850E+02 -0.63146270999E+03  0.63475835464E+03  0.00000000000E+00 0. -1.
        -11    1    3    3    0    0  0.34457695683E+01 -0.24312333681E+02 -0.32404573828E+02  0.40657340074E+02  0.00000000000E+00 0.  1.
          4    1    6    6  502    0  0.34151206737E+03 -0.16777727789E+03 -0.30320397619E+03  0.48653094282E+03  0.00000000000E+00 0. -1.
          1    1    5    5  503    0 -0.34739727318E+03  0.25672482295E+03 -0.10349138184E+04  0.11214450997E+04  0.00000000000E+00 0. -1.
         -2    1    5    5    0  503 -0.47355680145E+01 -0.58162565341E+01 -0.13504204105E+02  0.15447264256E+02  0.00000000000E+00 0.  1.
         -3    1    6    6    0  502  0.72462188982E+00  0.54570690092E+01 -0.10078265335E+02  0.11483732460E+02  0.00000000000E+00 0.  1.
<mgrwt>
<rscale>  0 0.11111558E+04</rscale>
<asrwt>0</asrwt>
<pdfrwt beam="1">  1        2 0.33352999E+00 0.11111558E+04</pdfrwt>
<pdfrwt beam="2">  1       -2 0.21904247E-01 0.11111558E+04</pdfrwt>
<totfact> 0.97553828E+01</totfact>
</mgrwt>
</event>
<event>
12    1  0.2048318E-007  0.1592607E+04  0.7818608E-02  0.8825103E-01
         -2   -1    0    0    0  501 -0.00000000000E+00  0.00000000000E+00  0.47387059105E+03  0.47387059105E+03  0.00000000000E+00 0.  1.
          2   -1    0    0  501    0  0.00000000000E+00 -0.00000000000E+00 -0.13381270900E+04  0.13381270900E+04  0.00000000000E+00 0. -1.
         23    2    1    2    0    0  0.31439440655E+03 -0.22616757282E+03  0.12840725640E+03  0.41761093558E+03  0.88965477314E+02 0.  0.
        254    2    1    2    0    0 -0.31439440655E+03  0.22616757282E+03 -0.99266375539E+03  0.13943867455E+04  0.89940950126E+03 0.  0.
        -24    2    4    4    0    0 -0.13407716958E+02  0.14851648856E+03  0.13822098749E+03  0.21881177837E+03  0.80849481895E+02 0.  0.
         24    2    4    4    0    0 -0.30098668959E+03  0.77651084265E+02 -0.11308847429E+04  0.11755749671E+04  0.80333825408E+02 0.  0.
         13    1    3    3    0    0  0.98100278086E+02 -0.29598679841E+02  0.54852075531E+02  0.11622605817E+03  0.00000000000E+00 0. -1.
        -13    1    3    3    0    0  0.21629412847E+03 -0.19656889298E+03  0.73555180865E+02  0.30138487740E+03  0.00000000000E+00 0.  1.
          4    1    6    6  502    0 -0.30356723014E+03  0.83013223735E+02 -0.11006239247E+04  0.11447345903E+04  0.00000000000E+00 0. -1.
          3    1    5    5  503    0 -0.43317412793E+02  0.10416504705E+03  0.11298646178E+03  0.15966432232E+03  0.00000000000E+00 0. -1.
         -4    1    5    5    0  503  0.29909695836E+02  0.44351441509E+02  0.25234525717E+02  0.59147456049E+02  0.00000000000E+00 0.  1.
         -3    1    6    6    0  502  0.25805405476E+01 -0.53621394699E+01 -0.30260818195E+02  0.30840376895E+02  0.00000000000E+00 0.  1.
<mgrwt>
<rscale>  0 0.15926068E+04</rscale>
<asrwt>0</asrwt>
<pdfrwt beam="1">  1        2 0.20586570E+00 0.15926068E+04</pdfrwt>
<pdfrwt beam="2">  1       -2 0.72903170E-01 0.15926068E+04</pdfrwt>
<totfact> 0.25625799E+01</totfact>
</mgrwt>
</event>
<event>
12    1  0.2048318E-007  0.1469749E+04  0.7818608E-02  0.8904823E-01
          2   -1    0    0  501    0  0.00000000000E+00  0.00000000000E+00  0.11981787482E+04  0.11981787482E+04  0.00000000000E+00 0. -1.
         -2   -1    0    0    0  501 -0.00000000000E+00 -0.00000000000E+00 -0.45071763536E+03  0.45071763536E+03  0.00000000000E+00 0.  1.
         23    2    1    2    0    0 -0.19321264547E+03  0.40568153864E+03  0.20611058919E+03  0.50345171017E+03  0.95254460929E+02 0.  0.
        254    2    1    2    0    0  0.19321264547E+03 -0.40568153864E+03  0.54135052360E+03  0.11454446733E+04  0.90392171848E+03 0.  0.
        -24    2    4    4    0    0 -0.18522178066E+03 -0.48344608945E+03  0.66107759226E+02  0.52795512137E+03  0.79618747260E+02 0.  0.
         24    2    4    4    0    0  0.37843442612E+03  0.77764550807E+02  0.47524276437E+03  0.61748955198E+03  0.78598482682E+02 0.  0.
         11    1    3    3    0    0 -0.34826481168E+02  0.65098742645E+02  0.75971109224E+02  0.10593554418E+03  0.00000000000E+00 0. -1.
        -11    1    3    3    0    0 -0.15838616430E+03  0.34058279600E+03  0.13013947997E+03  0.39751616598E+03  0.00000000000E+00 0.  1.
          4    1    6    6  502    0  0.21576626269E+03  0.42076969369E+02  0.20821202992E+03  0.30278342238E+03  0.00000000000E+00 0. -1.
          1    1    5    5  503    0 -0.70562270277E+02 -0.10893809964E+03  0.38182229974E+02  0.13529385139E+03  0.00000000000E+00 0. -1.
         -2    1    5    5    0  503 -0.11465951038E+03 -0.37450798981E+03  0.27925529252E+02  0.39266126997E+03  0.00000000000E+00 0.  1.
         -3    1    6    6    0  502  0.16266816343E+03  0.35687581438E+02  0.26703073446E+03  0.31470612960E+03  0.00000000000E+00 0.  1.
<mgrwt>
<rscale>  0 0.14697487E+04</rscale>
<asrwt>0</asrwt>
<pdfrwt beam="1">  1        2 0.18433519E+00 0.14697487E+04</pdfrwt>
<pdfrwt beam="2">  1       -2 0.69341175E-01 0.14697487E+04</pdfrwt>
<totfact> 0.34897797E+01</totfact>
</mgrwt>
</event>
<event>
12    1  0.2048318E-007  0.1529735E+04  0.7818608E-02  0.8864917E-01
         -2   -1    0    0    0  501 -0.00000000000E+00  0.00000000000E+00  0.33835896400E+03  0.33835896400E+03  0.00000000000E+00 0. -1.
          2   -1    0    0  501    0  0.00000000000E+00 -0.00000000000E+00 -0.17289979516E+04  0.17289979516E+04  0.00000000000E+00 0.  1.
         23    2    1    2    0    0 -0.21855990877E+03 -0.17363802071E+03 -0.10096963431E+04  0.10515413713E+04  0.91290494561E+02 0.  0.
        254    2    1    2    0    0  0.21855990877E+03  0.17363802071E+03 -0.38094264450E+03  0.10158155443E+04  0.89935828545E+03 0.  0.
        -24    2    4    4    0    0 -0.12549683192E+03 -0.81399392057E+02 -0.52919748289E+03  0.55566730060E+03  0.79629499633E+02 0.  0.
         24    2    4    4    0    0  0.34405674068E+03  0.25503741277E+03  0.14825483839E+03  0.46014824366E+03  0.79610214888E+02 0.  0.
         13    1    3    3    0    0 -0.22024393101E+03 -0.16794038781E+03 -0.10080053493E+04  0.10453641218E+04  0.00000000000E+00 0.  1.
        -13    1    3    3    0    0  0.16840222456E+01 -0.56976328981E+01 -0.16909938316E+01  0.61772495258E+01  0.00000000000E+00 0. -1.
          2    1    6    6  502    0  0.34175351995E+03  0.23340050133E+03  0.14118708836E+03  0.43727000393E+03  0.00000000000E+00 0. -1.
          3    1    5    5  503    0 -0.32854718013E+02 -0.42628322532E+02 -0.30896419013E+03  0.31361676798E+03  0.00000000000E+00 0. -1.
         -4    1    5    5    0  503 -0.92642113904E+02 -0.38771069526E+02 -0.22023329276E+03  0.24205053262E+03  0.00000000000E+00 0.  1.
         -1    1    6    6    0  502  0.23032207291E+01  0.21636911439E+02  0.70677500308E+01  0.22878239723E+02  0.00000000000E+00 0.  1.
<mgrwt>
<rscale>  0 0.15297346E+04</rscale>
<asrwt>0</asrwt>
<pdfrwt beam="1">  1        2 0.26599969E+00 0.15297346E+04</pdfrwt>
<pdfrwt beam="2">  1       -2 0.52055224E-01 0.15297346E+04</pdfrwt>
<totfact> 0.31735163E+01</totfact>
</mgrwt>
</event>
<event>
12    1  0.2048318E-007  0.1086740E+04  0.7818608E-02  0.9218213E-01
          2   -1    0    0  501    0  0.00000000000E+00  0.00000000000E+00  0.96919177108E+03  0.96919177108E+03  0.00000000000E+00 0. -1.
         -2   -1    0    0    0  501 -0.00000000000E+00 -0.00000000000E+00 -0.30463608384E+03  0.30463608384E+03  0.00000000000E+00 0.  1.
         23    2    1    2    0    0 -0.63230510592E+02  0.12861028578E+03  0.15080473442E+03  0.22699321871E+03  0.90802810197E+02 0.  0.
        254    2    1    2    0    0  0.63230510592E+02 -0.12861028578E+03  0.51375095282E+03  0.10468346362E+04  0.90076856681E+03 0.  0.
        -24    2    4    4    0    0  0.28605490218E+03  0.32569376813E+02 -0.14238072559E+03  0.33101408915E+03  0.80061756352E+02 0.  0.
         24    2    4    4    0    0 -0.22282439159E+03 -0.16117966259E+03  0.65613167841E+03  0.71582054705E+03  0.79124478145E+02 0.  0.
         11    1    3    3    0    0 -0.12553730357E+02  0.21363160127E+02  0.90686878171E+02  0.94011119709E+02  0.00000000000E+00 0. -1.
        -11    1    3    3    0    0 -0.50676780234E+02  0.10724712565E+03  0.60117856253E+02  0.13298209900E+03  0.00000000000E+00 0.  1.
          2    1    6    6  502    0 -0.13550915741E+03 -0.59584884106E+02  0.28313149320E+03  0.31949418242E+03  0.00000000000E+00 0. -1.
          3    1    5    5  503    0  0.39389343112E+02  0.41943473188E+01  0.84442866420E+01  0.40502084849E+02  0.00000000000E+00 0. -1.
         -4    1    5    5    0  503  0.24666555907E+03  0.28375029494E+02 -0.15082501223E+03  0.29051200430E+03  0.00000000000E+00 0.  1.
         -1    1    6    6    0  502 -0.87315234181E+02 -0.10159477848E+03  0.37300018521E+03  0.39632636464E+03  0.00000000000E+00 0.  1.
<mgrwt>
<rscale>  0 0.10867397E+04</rscale>
<asrwt>0</asrwt>
<pdfrwt beam="1">  1        2 0.14910643E+00 0.10867397E+04</pdfrwt>
<pdfrwt beam="2">  1       -2 0.46867090E-01 0.10867397E+04</pdfrwt>
<totfact> 0.11305722E+02</totfact>
</mgrwt>
</event>
<event>
12    1  0.2048318E-007  0.2277717E+04  0.7818608E-02  0.8486759E-01
         -2   -1    0    0    0  501 -0.00000000000E+00  0.00000000000E+00  0.41261129949E+03  0.41261129949E+03  0.00000000000E+00 0.  1.
          2   -1    0    0  501    0  0.00000000000E+00 -0.00000000000E+00 -0.31433908184E+04  0.31433908184E+04  0.00000000000E+00 0. -1.
         23    2    1    2    0    0 -0.12630934522E+03 -0.59885738296E+03 -0.14424961351E+01  0.61898421389E+03  0.92494110281E+02 0.  0.
        254    2    1    2    0    0  0.12630934522E+03  0.59885738296E+03 -0.27293370228E+04  0.29370179040E+04  0.89566141407E+03 0.  0.
        -24    2    4    4    0    0  0.11438009766E+02 -0.17179761192E+03 -0.15159664661E+03  0.24289063740E+03  0.79806459279E+02 0.  0.
         24    2    4    4    0    0  0.11487133545E+03  0.77065499488E+03 -0.25777403761E+04  0.26941272666E+04  0.80447105985E+02 0.  0.
         11    1    3    3    0    0 -0.47318181932E+02 -0.34074292210E+03 -0.39933845442E+02  0.34632277042E+03  0.00000000000E+00 0. -1.
        -11    1    3    3    0    0 -0.78991163285E+02 -0.25811446086E+03  0.38491349306E+02  0.27266144347E+03  0.00000000000E+00 0.  1.
          4    1    6    6  502    0  0.84229281557E+02  0.65628802991E+03 -0.22672409124E+04  0.23618191940E+04  0.00000000000E+00 0. -1.
          3    1    5    5  503    0 -0.16858174732E+02 -0.15578526607E+03 -0.11815628091E+03  0.19625023287E+03  0.00000000000E+00 0. -1.
         -4    1    5    5    0  503  0.28296184499E+02 -0.16012345845E+02 -0.33440365699E+02  0.46640404530E+02  0.00000000000E+00 0.  1.
         -3    1    6    6    0  502  0.30642053893E+02  0.11436696496E+03 -0.31049946373E+03  0.33230807260E+03  0.00000000000E+00 0.  1.
<mgrwt>
<rscale>  0 0.22777169E+04</rscale>
<asrwt>0</asrwt>
<pdfrwt beam="1">  1        2 0.48359860E+00 0.22777169E+04</pdfrwt>
<pdfrwt beam="2">  1       -2 0.63478660E-01 0.22777169E+04</pdfrwt>
<totfact> 0.29483288E+00</totfact>
</mgrwt>
</event>
<event>
12    1  0.2048318E-007  0.4037421E+04  0.7818608E-02  0.7997040E-01
          2   -1    0    0  501    0  0.00000000000E+00  0.00000000000E+00  0.15603232506E+04  0.15603232506E+04  0.00000000000E+00 0. -1.
         -2   -1    0    0    0  501 -0.00000000000E+00 -0.00000000000E+00 -0.26117618235E+04  0.26117618235E+04  0.00000000000E+00 0.  1.
         23    2    1    2    0    0 -0.16039108944E+04  0.83690539738E+03 -0.11557958606E+04  0.21486510315E+04  0.88861591369E+02 0.  0.
        254    2    1    2    0    0  0.16039108944E+04 -0.83690539738E+03  0.10435728769E+03  0.20234340427E+04  0.90025223140E+03 0.  0.
        -24    2    4    4    0    0  0.99292130298E+03 -0.79323557212E+03  0.40529736620E+03  0.13364020508E+04  0.81173268073E+02 0.  0.
         24    2    4    4    0    0  0.61098959145E+03 -0.43669825254E+02 -0.30094007851E+03  0.68703199191E+03  0.78947403758E+02 0.  0.
         11    1    3    3    0    0 -0.12679412779E+04  0.62189466782E+03 -0.88841710076E+03  0.16684462853E+04  0.00000000000E+00 0.  1.
        -11    1    3    3    0    0 -0.33596961649E+03  0.21501072956E+03 -0.26737875980E+03  0.48020474614E+03  0.00000000000E+00 0. -1.
          4    1    6    6  502    0  0.40979069846E+03 -0.28612844048E+02 -0.24229008784E+03  0.47691885898E+03  0.00000000000E+00 0. -1.
          3    1    5    5  503    0  0.87551557592E+03 -0.68269287066E+03  0.32858140133E+03  0.11578267645E+04  0.00000000000E+00 0. -1.
         -4    1    5    5    0  503  0.11740572705E+03 -0.11054270146E+03  0.76715964870E+02  0.17857528625E+03  0.00000000000E+00 0.  1.
         -3    1    6    6    0  502  0.20119889299E+03 -0.15056981206E+02 -0.58649990666E+02  0.21011313292E+03  0.00000000000E+00 0.  1.
<mgrwt>
<rscale>  0 0.40374213E+04</rscale>
<asrwt>0</asrwt>
<pdfrwt beam="1">  1        2 0.24004973E+00 0.40374213E+04</pdfrwt>
<pdfrwt beam="2">  1       -2 0.40180951E+00 0.40374213E+04</pdfrwt>
<totfact> 0.66652041E-02</totfact>
</mgrwt>
</event>
<event>
12    1  0.2048318E-007  0.3705215E+04  0.7818608E-02  0.8066807E-01
         -2   -1    0    0    0  501 -0.00000000000E+00  0.00000000000E+00  0.15212801261E+04  0.15212801261E+04  0.00000000000E+00 0.  1.
          2   -1    0    0  501    0  0.00000000000E+00 -0.00000000000E+00 -0.22560967262E+04  0.22560967262E+04  0.00000000000E+00 0. -1.
         23    2    1    2    0    0  0.12858160811E+04  0.11327494723E+04 -0.22091788850E+02  0.17162659162E+04  0.92931623468E+02 0.  0.
        254    2    1    2    0    0 -0.12858160811E+04 -0.11327494723E+04 -0.71272481129E+03  0.20611109361E+04  0.89652510998E+03 0.  0.
        -24    2    4    4    0    0 -0.12698779277E+04 -0.10556671427E+04 -0.36247529909E+03  0.16928029279E+04  0.84677875943E+02 0.  0.
         24    2    4    4    0    0 -0.15938153387E+02 -0.77082329534E+02 -0.35024951220E+03  0.36830800818E+03  0.82342928276E+02 0.  0.
         13    1    3    3    0    0  0.90727908633E+03  0.74978674404E+03 -0.37079175943E+02  0.11775866708E+04  0.00000000000E+00 0. -1.
        -13    1    3    3    0    0  0.37853699477E+03  0.38296272822E+03  0.14987387093E+02  0.53867924537E+03  0.00000000000E+00 0.  1.
          4    1    6    6  502    0  0.44049648060E+01 -0.13297303690E+01 -0.18837539240E+03  0.18843158005E+03  0.00000000000E+00 0. -1.
          1    1    5    5  503    0 -0.88748686764E+03 -0.73008047802E+03 -0.29148389847E+03  0.11855856391E+04  0.00000000000E+00 0. -1.
         -2    1    5    5    0  503 -0.38239106007E+03 -0.32558666471E+03 -0.70991400620E+02  0.50721728876E+03  0.00000000000E+00 0.  1.
         -3    1    6    6    0  502 -0.20343118193E+02 -0.75752599165E+02 -0.16187411980E+03  0.17987642814E+03  0.00000000000E+00 0.  1.
<mgrwt>
<rscale>  0 0.37052153E+04</rscale>
<asrwt>0</asrwt>
<pdfrwt beam="1">  1        2 0.34709180E+00 0.37052153E+04</pdfrwt>
<pdfrwt beam="2">  1       -2 0.23404310E+00 0.37052153E+04</pdfrwt>
<totfact> 0.31295105E-01</totfact>
</mgrwt>
</event>
<event>
12    1  0.2048318E-007  0.3858649E+04  0.7818608E-02  0.8033685E-01
          1   -1    0    0  501    0  0.00000000000E+00  0.00000000000E+00  0.14965385291E+04  0.14965385291E+04  0.00000000000E+00 0. -1.
         -1   -1    0    0    0  501 -0.00000000000E+00 -0.00000000000E+00 -0.24872679483E+04  0.24872679483E+04  0.00000000000E+00 0.  1.
         23    2    1    2    0    0 -0.48277033364E+03  0.15964782463E+04 -0.12307104042E+04  0.20749504389E+04  0.94663819869E+02 0.  0.
        254    2    1    2    0    0  0.48277033364E+03 -0.15964782463E+04  0.23998098505E+03  0.19088560385E+04  0.89684475605E+03 0.  0.
        -24    2    4    4    0    0  0.31551322101E+03 -0.15214176112E+04  0.44934914974E+03  0.16193192099E+04  0.77588045360E+02 0.  0.
         24    2    4    4    0    0  0.16725711263E+03 -0.75060635118E+02 -0.20936816469E+03  0.28953682861E+03  0.79921874751E+02 0.  0.
         13    1    3    3    0    0 -0.30931076663E+03  0.10945824951E+04 -0.79012467156E+03  0.13849480083E+04  0.00000000000E+00 0. -1.
        -13    1    3    3    0    0 -0.17345956701E+03  0.50189575122E+03 -0.44058573261E+03  0.69000243062E+03  0.00000000000E+00 0.  1.
          2    1    6    6  502    0  0.95568005136E+02 -0.39359505790E+02 -0.17312671679E+03  0.20163153119E+03  0.00000000000E+00 0. -1.
          3    1    5    5  503    0  0.20006261700E+03 -0.89476731413E+03  0.30188820027E+03  0.96528238491E+03  0.00000000000E+00 0. -1.
         -4    1    5    5    0  503  0.11545060400E+03 -0.62665029709E+03  0.14746094946E+03  0.65403682497E+03  0.00000000000E+00 0.  1.
         -1    1    6    6    0  502  0.71689107496E+02 -0.35701129328E+02 -0.36241447901E+02  0.87905297422E+02  0.00000000000E+00 0.  1.
<mgrwt>
<rscale>  0 0.38586486E+04</rscale>
<asrwt>0</asrwt>
<pdfrwt beam="1">  1        1 0.23023670E+00 0.38586486E+04</pdfrwt>
<pdfrwt beam="2">  1       -1 0.38265661E+00 0.38586486E+04</pdfrwt>
<totfact> 0.48860067E-02</totfact>
</mgrwt>
</event>
<event>
12    1  0.2048318E-007  0.2949404E+04  0.7818608E-02  0.8258328E-01
          2   -1    0    0  501    0  0.00000000000E+00  0.00000000000E+00  0.14241443969E+04  0.14241443969E+04  0.00000000000E+00 0. -1.
         -2   -1    0    0    0  501 -0.00000000000E+00 -0.00000000000E+00 -0.15270545711E+04  0.15270545711E+04  0.00000000000E+00 0.  1.
         23    2    1    2    0    0 -0.84705338338E+03  0.10238280632E+04 -0.18984424777E+03  0.13455107331E+04  0.92924470194E+02 0.  0.
        254    2    1    2    0    0  0.84705338338E+03 -0.10238280632E+04  0.86934073606E+02  0.16056882349E+04  0.89719219627E+03 0.  0.
        -24    2    4    4    0    0  0.30770737455E+03 -0.93470845204E+03  0.27129817725E+03  0.10237484554E+04  0.78067152966E+02 0.  0.
         24    2    4    4    0    0  0.53934600883E+03 -0.89119611187E+02 -0.18436410365E+03  0.58193977941E+03  0.76337158773E+02 0.  0.
         13    1    3    3    0    0 -0.29649337852E+03  0.37585158089E+03 -0.24864675318E+02  0.47936519110E+03  0.00000000000E+00 0. -1.
        -13    1    3    3    0    0 -0.55056000486E+03  0.64797648234E+03 -0.16497957245E+03  0.86614554201E+03  0.00000000000E+00 0.  1.
          4    1    6    6  502    0  0.28042478119E+03 -0.15656319868E+02 -0.69634237722E+02  0.28936500362E+03  0.00000000000E+00 0. -1.
          1    1    5    5  503    0  0.16644665396E+03 -0.42448266054E+03  0.15619007982E+03  0.48195991404E+03  0.00000000000E+00 0. -1.
         -2    1    5    5    0  503  0.14126072060E+03 -0.51022579151E+03  0.11510809744E+03  0.54178854140E+03  0.00000000000E+00 0.  1.
         -1    1    6    6    0  502  0.25892122764E+03 -0.73463291319E+02 -0.11472986593E+03  0.29257477579E+03  0.00000000000E+00 0.  1.
<mgrwt>
<rscale>  0 0.29494042E+04</rscale>
<asrwt>0</asrwt>
<pdfrwt beam="1">  1        2 0.21909914E+00 0.29494042E+04</pdfrwt>
<pdfrwt beam="2">  1       -2 0.23493147E+00 0.29494042E+04</pdfrwt>
<totfact> 0.95970499E-01</totfact>
</mgrwt>
</event>
<event>
12    1  0.2048318E-007  0.2758377E+04  0.7818608E-02  0.8316308E-01
          2   -1    0    0  501    0  0.00000000000E+00  0.00000000000E+00  0.20077642151E+04  0.20077642151E+04  0.00000000000E+00 0.  1.
         -2   -1    0    0    0  501 -0.00000000000E+00 -0.00000000000E+00 -0.94740232892E+03  0.94740232892E+03  0.00000000000E+00 0. -1.
         23    2    1    2    0    0 -0.27004341311E+03  0.11847187154E+04  0.68104572809E+03  0.13958611334E+04  0.90128467487E+02 0.  0.
        254    2    1    2    0    0  0.27004341311E+03 -0.11847187154E+04  0.37931615813E+03  0.15593054106E+04  0.90059465703E+03 0.  0.
        -24    2    4    4    0    0  0.55551313954E+03 -0.75969608389E+03  0.51120753624E+02  0.94590770152E+03  0.79969120714E+02 0.  0.
         24    2    4    4    0    0 -0.28546972643E+03 -0.42502263147E+03  0.32819540451E+03  0.61339770910E+03  0.80045762032E+02 0.  0.
         11    1    3    3    0    0 -0.13599058829E+03  0.76888831718E+03  0.45956319351E+03  0.90602484140E+03  0.00000000000E+00 0. -1.
        -11    1    3    3    0    0 -0.13405282482E+03  0.41583039817E+03  0.22148253458E+03  0.48983629205E+03  0.00000000000E+00 0.  1.
          2    1    6    6  502    0 -0.56123865202E+02 -0.48008213177E+02  0.24948601510E+02  0.77955817582E+02  0.00000000000E+00 0. -1.
          1    1    5    5  503    0  0.31662233583E+03 -0.36537252925E+03  0.28284107904E+02  0.48430029882E+03  0.00000000000E+00 0. -1.
         -2    1    5    5    0  503  0.23889080370E+03 -0.39432355464E+03  0.22836645720E+02  0.46160740269E+03  0.00000000000E+00 0.  1.
         -1    1    6    6    0  502 -0.22934586123E+03 -0.37701441829E+03  0.30324680300E+03  0.53544189151E+03  0.00000000000E+00 0.  1.
<mgrwt>
<rscale>  0 0.27583767E+04</rscale>
<asrwt>0</asrwt>
<pdfrwt beam="1">  1        2 0.30888680E+00 0.27583767E+04</pdfrwt>
<pdfrwt beam="2">  1       -2 0.14575420E+00 0.27583767E+04</pdfrwt>
<totfact> 0.18670533E+00</totfact>
</mgrwt>
</event>
<event>
12    1  0.2048318E-007  0.1638027E+04  0.7818608E-02  0.8797521E-01
          2   -1    0    0  501    0  0.00000000000E+00  0.00000000000E+00  0.98203175762E+03  0.98203175762E+03  0.00000000000E+00 0. -1.
         -2   -1    0    0    0  501 -0.00000000000E+00 -0.00000000000E+00 -0.68305685259E+03  0.68305685259E+03  0.00000000000E+00 0.  1.
         23    2    1    2    0    0 -0.22968748118E+03 -0.51677398413E+03  0.10619758703E+03  0.58267120363E+03  0.91739382827E+02 0.  0.
        254    2    1    2    0    0  0.22968748118E+03  0.51677398413E+03  0.19277731800E+03  0.10824174066E+04  0.90258110885E+03 0.  0.
        -24    2    4    4    0    0  0.50221168164E+02  0.39537480153E+03  0.53338072263E+03  0.67096302946E+03  0.82782801381E+02 0.  0.
         24    2    4    4    0    0  0.17946631302E+03  0.12139918260E+03 -0.34060340463E+03  0.41145437713E+03  0.79612223727E+02 0.  0.
         11    1    3    3    0    0 -0.39583695597E+02 -0.11368769102E+03  0.60324633733E+02  0.13465073888E+03  0.00000000000E+00 0. -1.
        -11    1    3    3    0    0 -0.19010378559E+03 -0.40308629310E+03  0.45872953294E+02  0.44802046474E+03  0.00000000000E+00 0.  1.
          4    1    6    6  502    0  0.41237995711E+02  0.14697614458E+01 -0.30252548021E+02  0.51165898318E+02  0.00000000000E+00 0. -1.
          3    1    5    5  503    0  0.17861117291E+01  0.26513218576E+03  0.38717131767E+03  0.46925461675E+03  0.00000000000E+00 0. -1.
         -4    1    5    5    0  503  0.48435056435E+02  0.13024261577E+03  0.14620940497E+03  0.20170841270E+03  0.00000000000E+00 0.  1.
         -3    1    6    6    0  502  0.13822831731E+03  0.11992942115E+03 -0.31035085661E+03  0.36028847881E+03  0.00000000000E+00 0.  1.
<mgrwt>
<rscale>  0 0.16380275E+04</rscale>
<asrwt>0</asrwt>
<pdfrwt beam="1">  1        2 0.15108181E+00 0.16380275E+04</pdfrwt>
<pdfrwt beam="2">  1       -2 0.10508567E+00 0.16380275E+04</pdfrwt>
<totfact> 0.18150637E+01</totfact>
</mgrwt>
</event>
<event>
12    1  0.2048318E-007  0.1727126E+04  0.7818608E-02  0.8746043E-01
         -2   -1    0    0    0  501 -0.00000000000E+00  0.00000000000E+00  0.28659659965E+03  0.28659659965E+03  0.00000000000E+00 0.  1.
          2   -1    0    0  501    0  0.00000000000E+00 -0.00000000000E+00 -0.26020591668E+04  0.26020591668E+04  0.00000000000E+00 0. -1.
         23    2    1    2    0    0 -0.56865847048E+03 -0.22010777503E+03 -0.62788245707E+03  0.88005591942E+03  0.91881188108E+02 0.  0.
        254    2    1    2    0    0  0.56865847048E+03  0.22010777503E+03 -0.16875801101E+04  0.20085998470E+04  0.90262219610E+03 0.  0.
        -24    2    4    4    0    0 -0.40610187963E+02 -0.23796244834E+03 -0.16340629211E+03  0.30253964754E+03  0.80952503631E+02 0.  0.
         24    2    4    4    0    0  0.60926865844E+03  0.45807022337E+03 -0.15241738180E+04  0.17060601995E+04  0.80616060603E+02 0.  0.
         13    1    3    3    0    0 -0.11797510373E+03 -0.78113545797E+02 -0.18044606720E+03  0.22930467572E+03  0.00000000000E+00 0. -1.
        -13    1    3    3    0    0 -0.45068336675E+03 -0.14199422923E+03 -0.44743638987E+03  0.65075124370E+03  0.00000000000E+00 0.  1.
          2    1    6    6  502    0  0.25680903770E+03  0.22411051218E+03 -0.75070247437E+03  0.82445776638E+03  0.00000000000E+00 0. -1.
          3    1    5    5  503    0  0.24555527299E+02 -0.59959908308E+02 -0.35690445447E+02  0.73972781625E+02  0.00000000000E+00 0. -1.
         -4    1    5    5    0  503 -0.65165715262E+02 -0.17800254003E+03 -0.12771584667E+03  0.22856686591E+03  0.00000000000E+00 0.  1.
         -1    1    6    6    0  502  0.35245962074E+03  0.23395971119E+03 -0.77347134358E+03  0.88160243310E+03  0.00000000000E+00 0.  1.
<mgrwt>
<rscale>  0 0.17271263E+04</rscale>
<asrwt>0</asrwt>
<pdfrwt beam="1">  1        2 0.40031678E+00 0.17271263E+04</pdfrwt>
<pdfrwt beam="2">  1       -2 0.44091786E-01 0.17271263E+04</pdfrwt>
<totfact> 0.14084529E+01</totfact>
</mgrwt>
</event>
<event>
12    1  0.2048318E-007  0.1710262E+04  0.7818608E-02  0.8755533E-01
         -2   -1    0    0    0  501 -0.00000000000E+00  0.00000000000E+00  0.33573602942E+03  0.33573602942E+03  0.00000000000E+00 0.  1.
          2   -1    0    0  501    0  0.00000000000E+00 -0.00000000000E+00 -0.21780473232E+04  0.21780473232E+04  0.00000000000E+00 0. -1.
         23    2    1    2    0    0 -0.46982963351E+03  0.22935389418E+03 -0.11462624824E+04  0.12631970744E+04  0.91684660887E+02 0.  0.
        254    2    1    2    0    0  0.46982963351E+03 -0.22935389418E+03 -0.69604881136E+03  0.12505862782E+04  0.89785243666E+03 0.  0.
        -24    2    4    4    0    0 -0.15189530027E+03  0.18985404648E+03 -0.55198657777E+02  0.26154992383E+03  0.79023601690E+02 0.  0.
         24    2    4    4    0    0  0.62172493378E+03 -0.41920794066E+03 -0.64085015359E+03  0.98903635433E+03  0.72296611532E+02 0.  0.
         13    1    3    3    0    0 -0.10644947459E+03  0.40241014999E+02 -0.17113132785E+03  0.20551584197E+03  0.00000000000E+00 0.  1.
        -13    1    3    3    0    0 -0.36338015892E+03  0.18911287918E+03 -0.97513115452E+03  0.10576812325E+04  0.00000000000E+00 0. -1.
          2    1    6    6  502    0  0.30117714506E+03 -0.21558625372E+03 -0.36191539248E+03  0.51784926070E+03  0.00000000000E+00 0. -1.
          1    1    5    5  503    0 -0.71117163220E+02  0.34382840299E+02 -0.43315913480E+01  0.79111271606E+02  0.00000000000E+00 0. -1.
         -2    1    5    5    0  503 -0.80778137048E+02  0.15547120618E+03 -0.50867066429E+02  0.18243865222E+03  0.00000000000E+00 0.  1.
         -1    1    6    6    0  502  0.32054778871E+03 -0.20362168694E+03 -0.27893476111E+03  0.47118709362E+03  0.00000000000E+00 0.  1.
<mgrwt>
<rscale>  0 0.17102619E+04</rscale>
<asrwt>0</asrwt>
<pdfrwt beam="1">  1        2 0.33508420E+00 0.17102619E+04</pdfrwt>
<pdfrwt beam="2">  1       -2 0.51651698E-01 0.17102619E+04</pdfrwt>
<totfact> 0.17891320E+01</totfact>
</mgrwt>
</event>
<event>
12    1  0.2048318E-007  0.3366727E+04  0.7818608E-02  0.8146121E-01
         -2   -1    0    0    0  501 -0.00000000000E+00  0.00000000000E+00  0.18458493158E+04  0.18458493158E+04  0.00000000000E+00 0.  1.
          2   -1    0    0  501    0  0.00000000000E+00 -0.00000000000E+00 -0.15351809570E+04  0.15351809570E+04  0.00000000000E+00 0. -1.
         23    2    1    2    0    0  0.12843445299E+04  0.84796534832E+03 -0.12370924595E+03  0.15466426733E+04  0.90628240466E+02 0.  0.
        254    2    1    2    0    0 -0.12843445299E+04 -0.84796534832E+03  0.43437760480E+03  0.18343875995E+04  0.89872568566E+03 0.  0.
        -24    2    4    4    0    0 -0.13433853951E+04 -0.74620903784E+03  0.18870532794E+03  0.15503578905E+04  0.80545886861E+02 0.  0.
         24    2    4    4    0    0  0.59040865162E+02 -0.10175631048E+03  0.24567227686E+03  0.28402970900E+03  0.80485014101E+02 0.  0.
         11    1    3    3    0    0  0.35720670383E+03  0.23187088583E+03  0.62299953710E+01  0.42591026027E+03  0.00000000000E+00 0.  1.
        -11    1    3    3    0    0  0.92713782610E+03  0.61609446248E+03 -0.12993924132E+03  0.11207324131E+04  0.00000000000E+00 0. -1.
          2    1    6    6  502    0 -0.13818921296E+02  0.20604173355E+01  0.40264095015E+02  0.42619306103E+02  0.00000000000E+00 0. -1.
          1    1    5    5  503    0 -0.32715885808E+02 -0.17420927640E+02  0.17391443855E+02  0.40942401290E+02  0.00000000000E+00 0. -1.
         -4    1    5    5    0  503 -0.13106695093E+04 -0.72878811019E+03  0.17131388409E+03  0.15094154892E+04  0.00000000000E+00 0.  1.
         -3    1    6    6    0  502  0.72859786458E+02 -0.10381672782E+03  0.20540818184E+03  0.24141040289E+03  0.00000000000E+00 0.  1.
<mgrwt>
<rscale>  0 0.33667270E+04</rscale>
<asrwt>0</asrwt>
<pdfrwt beam="1">  1        2 0.23618169E+00 0.33667270E+04</pdfrwt>
<pdfrwt beam="2">  1       -2 0.28397682E+00 0.33667270E+04</pdfrwt>
<totfact> 0.40115318E-01</totfact>
</mgrwt>
</event>
<event>
12    1  0.2048318E-007  0.1124210E+04  0.7818608E-02  0.9181911E-01
         -2   -1    0    0    0  501 -0.00000000000E+00  0.00000000000E+00  0.49775694369E+03  0.49775694369E+03  0.00000000000E+00 0.  1.
          2   -1    0    0  501    0  0.00000000000E+00 -0.00000000000E+00 -0.63477220766E+03  0.63477220766E+03  0.00000000000E+00 0. -1.
         23    2    1    2    0    0  0.19640119371E+03 -0.38668321988E+02 -0.71291365227E+02  0.22951229411E+03  0.86745411254E+02 0.  0.
        254    2    1    2    0    0 -0.19640119371E+03  0.38668321988E+02 -0.65723898744E+02  0.90301685725E+03  0.87809518026E+03 0.  0.
        -24    2    4    4    0    0  0.27546281736E+03 -0.21506943275E+03 -0.18583409114E+02  0.35920508310E+03  0.80921715135E+02 0.  0.
         24    2    4    4    0    0 -0.47186401108E+03  0.25373775474E+03 -0.47140489631E+02  0.54381177415E+03  0.80439584830E+02 0.  0.
         13    1    3    3    0    0  0.82378893442E+02 -0.44067197428E+02 -0.67574351279E+02  0.11530174727E+03  0.00000000000E+00 0. -1.
        -13    1    3    3    0    0  0.11402230027E+03  0.53988754403E+01 -0.37170139478E+01  0.11421054683E+03  0.00000000000E+00 0.  1.
          4    1    6    6  502    0 -0.41526418900E+03  0.19588151952E+03 -0.24642563534E+02  0.45980558097E+03  0.00000000000E+00 0. -1.
          1    1    5    5  503    0  0.19873790653E+03 -0.10563440581E+03 -0.10742814461E+02  0.22532374763E+03  0.00000000000E+00 0. -1.
         -2    1    5    5    0  503  0.76724910832E+02 -0.10943502695E+03 -0.78405946526E+01  0.13388133548E+03  0.00000000000E+00 0.  1.
         -3    1    6    6    0  502 -0.56599822080E+02  0.57856235224E+02 -0.22497926096E+02  0.84006193179E+02  0.00000000000E+00 0.  1.
<mgrwt>
<rscale>  0 0.11242104E+04</rscale>
<asrwt>0</asrwt>
<pdfrwt beam="1">  1        2 0.97657263E-01 0.11242104E+04</pdfrwt>
<pdfrwt beam="2">  1       -2 0.76577991E-01 0.11242104E+04</pdfrwt>
<totfact> 0.70021605E+01</totfact>
</mgrwt>
</event>
<event>
12    1  0.2048318E-007  0.1792190E+04  0.7818608E-02  0.8710464E-01
          2   -1    0    0  501    0  0.00000000000E+00  0.00000000000E+00  0.71277663907E+03  0.71277663907E+03  0.00000000000E+00 0. -1.
         -2   -1    0    0    0  501 -0.00000000000E+00 -0.00000000000E+00 -0.11265605298E+04  0.11265605298E+04  0.00000000000E+00 0.  1.
         23    2    1    2    0    0  0.62933531257E+03 -0.18770503045E+03 -0.26624519313E+03  0.71508860590E+03  0.95755403673E+02 0.  0.
        254    2    1    2    0    0 -0.62933531257E+03  0.18770503045E+03 -0.14753869760E+03  0.11242485630E+04  0.90048378661E+03 0.  0.
        -24    2    4    4    0    0 -0.43896057474E+03  0.51623103940E+03  0.59609073145E+02  0.68495808512E+03  0.80208880771E+02 0.  0.
         24    2    4    4    0    0 -0.19037473782E+03 -0.32852600895E+03 -0.20714777075E+03  0.43929047785E+03  0.76772688141E+02 0.  0.
         13    1    3    3    0    0  0.43380614648E+02 -0.34668472333E+02 -0.57427633310E+01  0.55827950275E+02  0.00000000000E+00 0. -1.
        -13    1    3    3    0    0  0.58595469792E+03 -0.15303655811E+03 -0.26050242980E+03  0.65926065563E+03  0.00000000000E+00 0.  1.
          4    1    6    6  502    0 -0.40311789417E+02 -0.10553325343E+03 -0.28361837677E+02  0.11647618547E+03  0.00000000000E+00 0. -1.
          1    1    5    5  503    0 -0.83485456458E+02  0.92242809463E+02 -0.19870858829E+02  0.12598971533E+03  0.00000000000E+00 0. -1.
         -2    1    5    5    0  503 -0.35547511828E+03  0.42398822993E+03  0.79479931974E+02  0.55896836979E+03  0.00000000000E+00 0.  1.
         -3    1    6    6    0  502 -0.15006294841E+03 -0.22299275552E+03 -0.17878593307E+03  0.32281429238E+03  0.00000000000E+00 0.  1.
<mgrwt>
<rscale>  0 0.17921898E+04</rscale>
<asrwt>0</asrwt>
<pdfrwt beam="1">  1        2 0.10965794E+00 0.17921898E+04</pdfrwt>
<pdfrwt beam="2">  1       -2 0.17331700E+00 0.17921898E+04</pdfrwt>
<totfact> 0.76321728E+00</totfact>
</mgrwt>
</event>
<event>
12    1  0.2048318E-007  0.3815769E+04  0.7818608E-02  0.8042779E-01
          2   -1    0    0  501    0  0.00000000000E+00  0.00000000000E+00  0.26087159360E+04  0.26087159360E+04  0.00000000000E+00 0. -1.
         -2   -1    0    0    0  501 -0.00000000000E+00 -0.00000000000E+00 -0.13953313594E+04  0.13953313594E+04  0.00000000000E+00 0.  1.
         23    2    1    2    0    0  0.10168229327E+04  0.14776723316E+04  0.71565758110E+03  0.19333613376E+04  0.90971931589E+02 0.  0.
        254    2    1    2    0    0 -0.10168229327E+04 -0.14776723316E+04  0.49772699547E+03  0.20706859578E+04  0.90695301843E+03 0.  0.
        -24    2    4    4    0    0  0.40695234650E+01 -0.64459505119E+03  0.36231957481E+03  0.74366615815E+03  0.79022398340E+02 0.  0.
         24    2    4    4    0    0 -0.10208924562E+04 -0.83307728039E+03  0.13540742066E+03  0.13270197996E+04  0.80045092372E+02 0.  0.
         13    1    3    3    0    0  0.63564765354E+03  0.96131577831E+03  0.50042938762E+03  0.12564256990E+04  0.00000000000E+00 0.  1.
        -13    1    3    3    0    0  0.38117527919E+03  0.51635655328E+03  0.21522819347E+03  0.67693563862E+03  0.00000000000E+00 0. -1.
          2    1    6    6  502    0 -0.97415950413E+03 -0.77360877473E+03  0.11917692194E+03  0.12496641207E+04  0.00000000000E+00 0. -1.
          3    1    5    5  503    0  0.25726161935E+02 -0.53189918916E+03  0.32047958014E+03  0.62151890086E+03  0.00000000000E+00 0. -1.
         -4    1    5    5    0  503 -0.21656638470E+02 -0.11269586204E+03  0.41839994668E+02  0.12214725729E+03  0.00000000000E+00 0.  1.
         -1    1    6    6    0  502 -0.46732952059E+02 -0.59468505661E+02  0.16230498726E+02  0.77355678929E+02  0.00000000000E+00 0.  1.
<mgrwt>
<rscale>  0 0.38157689E+04</rscale>
<asrwt>0</asrwt>
<pdfrwt beam="1">  1        2 0.40134091E+00 0.38157689E+04</pdfrwt>
<pdfrwt beam="2">  1       -2 0.21466636E+00 0.38157689E+04</pdfrwt>
<totfact> 0.25736341E-01</totfact>
</mgrwt>
</event>
<event>
12    1  0.2048318E-007  0.1447255E+04  0.7818608E-02  0.8920306E-01
         -2   -1    0    0    0  501 -0.00000000000E+00  0.00000000000E+00  0.24121554200E+03  0.24121554200E+03  0.00000000000E+00 0.  1.
          2   -1    0    0  501    0  0.00000000000E+00 -0.00000000000E+00 -0.21708242110E+04  0.21708242110E+04  0.00000000000E+00 0. -1.
         23    2    1    2    0    0 -0.57314618991E+02 -0.27585204876E+03 -0.44191138126E+02  0.29940398247E+03  0.91162325944E+02 0.  0.
        254    2    1    2    0    0  0.57314618991E+02  0.27585204876E+03 -0.18854175309E+04  0.21126357705E+04  0.91052255042E+03 0.  0.
        -24    2    4    4    0    0 -0.92217415109E+02  0.14948934732E+03 -0.18909848671E+04  0.19009788185E+04  0.83937977540E+02 0.  0.
         24    2    4    4    0    0  0.14953203410E+03  0.12636270144E+03  0.55673362181E+01  0.21165695206E+03  0.80251533223E+02 0.  0.
         13    1    3    3    0    0 -0.54355833176E+02 -0.66753004225E+02 -0.23671569113E+02  0.89279691742E+02  0.00000000000E+00 0. -1.
        -13    1    3    3    0    0 -0.29587858150E+01 -0.20909904454E+03 -0.20519569013E+02  0.21012429073E+03  0.00000000000E+00 0.  1.
          2    1    6    6  502    0  0.53452842522E+01  0.43874649319E+02 -0.82730554607E+01  0.44966658351E+02  0.00000000000E+00 0. -1.
          3    1    5    5  503    0 -0.17192675730E+02  0.62034665466E+00 -0.59916811261E+02  0.62337767047E+02  0.00000000000E+00 0. -1.
         -4    1    5    5    0  503 -0.75024739379E+02  0.14886900067E+03 -0.18310680558E+04  0.18386410514E+04  0.00000000000E+00 0.  1.
         -1    1    6    6    0  502  0.14418674985E+03  0.82488052122E+02  0.13840391679E+02  0.16669029371E+03  0.00000000000E+00 0.  1.
<mgrwt>
<rscale>  0 0.14472547E+04</rscale>
<asrwt>0</asrwt>
<pdfrwt beam="1">  1        2 0.33397296E+00 0.14472547E+04</pdfrwt>
<pdfrwt beam="2">  1       -2 0.37110083E-01 0.14472547E+04</pdfrwt>
<totfact> 0.35643179E+01</totfact>
</mgrwt>
</event>
<event>
12    1  0.2048318E-007  0.1292169E+04  0.7818608E-02  0.9035798E-01
         -3   -1    0    0    0  501 -0.00000000000E+00  0.00000000000E+00  0.33242783825E+03  0.33242783825E+03  0.00000000000E+00 0.  1.
          3   -1    0    0  501    0  0.00000000000E+00 -0.00000000000E+00 -0.12556870396E+04  0.12556870396E+04  0.00000000000E+00 0. -1.
         23    2    1    2    0    0 -0.31182731904E+03  0.63632262108E+02 -0.19145834505E+03  0.38469198477E+03  0.10023115073E+03 0.  0.
        254    2    1    2    0    0  0.31182731904E+03 -0.63632262108E+02 -0.73180085633E+03  0.12034228931E+04  0.90078234032E+03 0.  0.
        -24    2    4    4    0    0  0.34902893065E+03  0.42212850601E+02 -0.90989206339E+03  0.97833124617E+03  0.75002273422E+02 0.  0.
         24    2    4    4    0    0 -0.37201611612E+02 -0.10584511271E+03  0.17809120706E+03  0.22509164693E+03  0.79766056038E+02 0.  0.
         11    1    3    3    0    0 -0.92438727084E+02 -0.23905135655E+02 -0.36639004682E+02  0.10226822791E+03  0.00000000000E+00 0. -1.
        -11    1    3    3    0    0 -0.21938859196E+03  0.87537397764E+02 -0.15481934036E+03  0.28242375686E+03  0.00000000000E+00 0.  1.
          4    1    6    6  502    0 -0.37433064033E+02 -0.66263883955E+01  0.41669753159E+02  0.56404890164E+02  0.00000000000E+00 0. -1.
          1    1    5    5  503    0  0.10069414023E+03  0.19202484146E+02 -0.18178874296E+03  0.20869880772E+03  0.00000000000E+00 0. -1.
         -2    1    5    5    0  503  0.24833479042E+03  0.23010366455E+02 -0.72810332043E+03  0.76963243845E+03  0.00000000000E+00 0.  1.
         -1    1    6    6    0  502  0.23145242176E+00 -0.99218724314E+02  0.13642145390E+03  0.16868675677E+03  0.00000000000E+00 0.  1.
<mgrwt>
<rscale>  0 0.12921692E+04</rscale>
<asrwt>0</asrwt>
<pdfrwt beam="1">  1        3 0.19318262E+00 0.12921692E+04</pdfrwt>
<pdfrwt beam="2">  1       -3 0.51142744E-01 0.12921692E+04</pdfrwt>
<totfact> 0.15862232E+00</totfact>
</mgrwt>
</event>
<event>
12    1  0.2048318E-007  0.2148405E+04  0.7818608E-02  0.8540215E-01
         -1   -1    0    0    0  501 -0.00000000000E+00  0.00000000000E+00  0.55553854421E+03  0.55553854421E+03  0.00000000000E+00 0.  1.
          1   -1    0    0  501    0  0.00000000000E+00 -0.00000000000E+00 -0.20771031360E+04  0.20771031360E+04  0.00000000000E+00 0. -1.
         23    2    1    2    0    0 -0.43963229939E+03  0.70507758292E+03 -0.24414878920E+03  0.87107619611E+03  0.93563623105E+02 0.  0.
        254    2    1    2    0    0  0.43963229939E+03 -0.70507758292E+03 -0.12774158026E+04  0.17615654841E+04  0.88369161221E+03 0.  0.
        -24    2    4    4    0    0  0.42113435727E+03 -0.55428693893E+03 -0.13897707037E+04  0.15564171207E+04  0.79896728401E+02 0.  0.
         24    2    4    4    0    0  0.18497942115E+02 -0.15079064398E+03  0.11235490114E+03  0.20514836338E+03  0.79888891656E+02 0.  0.
         11    1    3    3    0    0 -0.28241205869E+03  0.37122294358E+03 -0.15401303318E+03  0.49120571976E+03  0.00000000000E+00 0. -1.
        -11    1    3    3    0    0 -0.15722024069E+03  0.33385463934E+03 -0.90135756018E+02  0.37987047635E+03  0.00000000000E+00 0.  1.
          4    1    6    6  502    0  0.64435656205E+01 -0.11629221957E+03  0.12062800052E+03  0.16767979718E+03  0.00000000000E+00 0. -1.
          1    1    5    5  503    0  0.28009395803E+03 -0.35952898735E+03 -0.82348272293E+03  0.94118941400E+03  0.00000000000E+00 0. -1.
         -2    1    5    5    0  503  0.14104039924E+03 -0.19475795158E+03 -0.56628798082E+03  0.61522770674E+03  0.00000000000E+00 0.  1.
         -3    1    6    6    0  502  0.12054376494E+02 -0.34498424411E+02 -0.82730993849E+01  0.37468566198E+02  0.00000000000E+00 0.  1.
<mgrwt>
<rscale>  0 0.21484049E+04</rscale>
<asrwt>0</asrwt>
<pdfrwt beam="1">  1        1 0.31955433E+00 0.21484049E+04</pdfrwt>
<pdfrwt beam="2">  1       -1 0.85467467E-01 0.21484049E+04</pdfrwt>
<totfact> 0.32722706E+00</totfact>
</mgrwt>
</event>
<event>
12    1  0.2048318E-007  0.1775731E+04  0.7818608E-02  0.8719313E-01
         -4   -1    0    0    0  501 -0.00000000000E+00  0.00000000000E+00  0.32660595128E+03  0.32660595128E+03  0.00000000000E+00 0.  1.
          4   -1    0    0  501    0  0.00000000000E+00 -0.00000000000E+00 -0.24136280985E+04  0.24136280985E+04  0.00000000000E+00 0. -1.
         23    2    1    2    0    0  0.63461534328E+03  0.15384881046E+03 -0.68262695445E+03  0.94926770582E+03  0.93399828582E+02 0.  0.
        254    2    1    2    0    0 -0.63461534328E+03 -0.15384881046E+03 -0.14043951928E+04  0.17909663440E+04  0.89934892968E+03 0.  0.
        -24    2    4    4    0    0 -0.57606076458E+03 -0.28364949145E+03 -0.14767379327E+04  0.16123687220E+04  0.81700277196E+02 0.  0.
         24    2    4    4    0    0 -0.58554578695E+02  0.12980068098E+03  0.72342739895E+02  0.17859762200E+03  0.79917351667E+02 0.  0.
         13    1    3    3    0    0  0.18278950676E+03  0.68389932911E+01 -0.16098790871E+03  0.24367166918E+03  0.00000000000E+00 0. -1.
        -13    1    3    3    0    0  0.45182583652E+03  0.14700981717E+03 -0.52163904573E+03  0.70559603664E+03  0.00000000000E+00 0.  1.
          2    1    6    6  502    0 -0.30110567440E+02 -0.24822554227E+00  0.11557648726E+02  0.32253482472E+02  0.00000000000E+00 0. -1.
          3    1    5    5  503    0 -0.41686668379E+02 -0.57373606280E+01 -0.64063406760E+02  0.76647346419E+02  0.00000000000E+00 0. -1.
         -4    1    5    5    0  503 -0.53437409620E+03 -0.27791213082E+03 -0.14126745259E+04  0.15357213756E+04  0.00000000000E+00 0.  1.
         -1    1    6    6    0  502 -0.28444011255E+02  0.13004890653E+03  0.60785091169E+02  0.14634413953E+03  0.00000000000E+00 0.  1.
<mgrwt>
<rscale>  0 0.17757312E+04</rscale>
<asrwt>0</asrwt>
<pdfrwt beam="1">  1        4 0.37132740E+00 0.17757312E+04</pdfrwt>
<pdfrwt beam="2">  1       -4 0.50247069E-01 0.17757312E+04</pdfrwt>
<totfact> 0.78004933E-02</totfact>
</mgrwt>
</event>
<event>
12    1  0.2048318E-007  0.2117223E+04  0.7818608E-02  0.8553694E-01
         -2   -1    0    0    0  501 -0.00000000000E+00  0.00000000000E+00  0.10430855746E+04  0.10430855746E+04  0.00000000000E+00 0.  1.
          2   -1    0    0  501    0  0.00000000000E+00 -0.00000000000E+00 -0.10743688482E+04  0.10743688482E+04  0.00000000000E+00 0. -1.
         23    2    1    2    0    0 -0.16171560766E+03  0.64150837327E+03 -0.56861174879E+03  0.87686829637E+03  0.88846820849E+02 0.  0.
        254    2    1    2    0    0  0.16171560766E+03 -0.64150837327E+03  0.53732847521E+03  0.12405861264E+04  0.90146942042E+03 0.  0.
        -24    2    4    4    0    0  0.73223451698E+02 -0.16977293341E+03 -0.24687869115E+03  0.31764797418E+03  0.75938294407E+02 0.  0.
         24    2    4    4    0    0  0.88492155967E+02 -0.47173543986E+03  0.78420716636E+03  0.92293815220E+03  0.80428639913E+02 0.  0.
         13    1    3    3    0    0 -0.77307316884E+02  0.41535844645E+03 -0.31703189773E+03  0.52821234788E+03  0.00000000000E+00 0.  1.
        -13    1    3    3    0    0 -0.84408290780E+02  0.22614992683E+03 -0.25157985106E+03  0.34865594849E+03  0.00000000000E+00 0. -1.
          4    1    6    6  502    0  0.13972106553E+02 -0.25401509214E+03  0.36843992551E+03  0.44773526275E+03  0.00000000000E+00 0. -1.
          3    1    5    5  503    0  0.46574293475E+02 -0.27917475380E+02 -0.52407828109E+02  0.75466089679E+02  0.00000000000E+00 0. -1.
         -4    1    5    5    0  503  0.26649158222E+02 -0.14185545803E+03 -0.19447086304E+03  0.24218188450E+03  0.00000000000E+00 0.  1.
         -3    1    6    6    0  502  0.74520049415E+02 -0.21772034772E+03  0.41576724085E+03  0.47520288945E+03  0.00000000000E+00 0.  1.
<mgrwt>
<rscale>  0 0.21172233E+04</rscale>
<asrwt>0</asrwt>
<pdfrwt beam="1">  1        2 0.16528752E+00 0.21172233E+04</pdfrwt>
<pdfrwt beam="2">  1       -2 0.16047470E+00 0.21172233E+04</pdfrwt>
<totfact> 0.51961462E+00</totfact>
</mgrwt>
</event>
<event>
12    1  0.2048318E-007  0.1802127E+04  0.7818608E-02  0.8705169E-01
          2   -1    0    0  501    0  0.00000000000E+00  0.00000000000E+00  0.89629663722E+03  0.89629663722E+03  0.00000000000E+00 0. -1.
         -2   -1    0    0    0  501 -0.00000000000E+00 -0.00000000000E+00 -0.90585568522E+03  0.90585568522E+03  0.00000000000E+00 0.  1.
         23    2    1    2    0    0 -0.62713264121E+03 -0.22292754774E+02  0.24380422999E+03  0.67923958327E+03  0.90186430996E+02 0.  0.
        254    2    1    2    0    0  0.62713264121E+03  0.22292754774E+02 -0.25336327799E+03  0.11229127392E+04  0.89607351962E+03 0.  0.
        -24    2    4    4    0    0 -0.97543265726E+02  0.40727583963E+02  0.21892110776E+03  0.25412009534E+03  0.74007747226E+02 0.  0.
         24    2    4    4    0    0  0.72467590694E+03 -0.18434829189E+02 -0.47228438574E+03  0.86879264383E+03  0.79076570018E+02 0.  0.
         13    1    3    3    0    0 -0.15178790973E+03 -0.22643091354E+02  0.97783631644E+02  0.18197229938E+03  0.00000000000E+00 0. -1.
        -13    1    3    3    0    0 -0.47534473149E+03  0.35033658040E+00  0.14602059834E+03  0.49726728389E+03  0.00000000000E+00 0.  1.
          2    1    6    6  502    0  0.44116198517E+03  0.18202169290E+02 -0.25661129685E+03  0.51069029146E+03  0.00000000000E+00 0. -1.
          1    1    5    5  503    0 -0.54837813163E+02  0.16704111849E+00  0.46439759000E+02  0.71860036677E+02  0.00000000000E+00 0. -1.
         -2    1    5    5    0  503 -0.42705452564E+02  0.40560542845E+02  0.17248134876E+03  0.18226005866E+03  0.00000000000E+00 0.  1.
         -3    1    6    6    0  502  0.28351392177E+03 -0.36636998479E+02 -0.21567308889E+03  0.35810235236E+03  0.00000000000E+00 0.  1.
<mgrwt>
<rscale>  0 0.18021270E+04</rscale>
<asrwt>0</asrwt>
<pdfrwt beam="1">  1        2 0.13789179E+00 0.18021270E+04</pdfrwt>
<pdfrwt beam="2">  1       -2 0.13936241E+00 0.18021270E+04</pdfrwt>
<totfact> 0.10115750E+01</totfact>
</mgrwt>
</event>
<event>
12    1  0.2048318E-007  0.1938741E+04  0.7818608E-02  0.8635809E-01
          2   -1    0    0  501    0  0.00000000000E+00  0.00000000000E+00  0.19630139014E+04  0.19630139014E+04  0.00000000000E+00 0.  1.
         -2   -1    0    0    0  501 -0.00000000000E+00 -0.00000000000E+00 -0.47869206291E+03  0.47869206291E+03  0.00000000000E+00 0. -1.
         23    2    1    2    0    0  0.20639514506E+03  0.59291240875E+03  0.46978930745E+02  0.63311451565E+03  0.66954384744E+02 0.  0.
        254    2    1    2    0    0 -0.20639514506E+03 -0.59291240875E+03  0.14373429077E+04  0.18085914487E+04  0.90050225617E+03 0.  0.
        -24    2    4    4    0    0 -0.27094342440E+03  0.11774084942E+03  0.16541541301E+03  0.34773328308E+03  0.79264938347E+02 0.  0.
         24    2    4    4    0    0  0.64548279348E+02 -0.71065325817E+03  0.12719274947E+04  0.14608581656E+04  0.84335605604E+02 0.  0.
         11    1    3    3    0    0  0.46713499081E+02  0.71638287960E+02  0.16346222884E+02  0.87071202478E+02  0.00000000000E+00 0.  1.
        -11    1    3    3    0    0  0.15968164598E+03  0.52127412079E+03  0.30632707862E+02  0.54604331317E+03  0.00000000000E+00 0. -1.
          4    1    6    6  502    0  0.49270128193E+01 -0.27074690686E+03  0.41049132924E+03  0.49176345372E+03  0.00000000000E+00 0. -1.
          3    1    5    5  503    0 -0.49423291977E+02  0.53642990181E+02  0.22073195602E+02  0.76206680478E+02  0.00000000000E+00 0. -1.
         -4    1    5    5    0  503 -0.22152013243E+03  0.64097859238E+02  0.14334221741E+03  0.27152660261E+03  0.00000000000E+00 0.  1.
         -3    1    6    6    0  502  0.59621266528E+02 -0.43990635131E+03  0.86143616548E+03  0.96909471186E+03  0.00000000000E+00 0.  1.
<mgrwt>
<rscale>  0 0.19387410E+04</rscale>
<asrwt>0</asrwt>
<pdfrwt beam="1">  1        2 0.30200213E+00 0.19387410E+04</pdfrwt>
<pdfrwt beam="2">  1       -2 0.73644934E-01 0.19387410E+04</pdfrwt>
<totfact> 0.10873638E+01</totfact>
</mgrwt>
</event>
<event>
12    1  0.2048318E-007  0.2431886E+04  0.7818608E-02  0.8427662E-01
          1   -1    0    0  501    0  0.00000000000E+00  0.00000000000E+00  0.16479199993E+04  0.16479199993E+04  0.00000000000E+00 0.  1.
         -1   -1    0    0    0  501 -0.00000000000E+00 -0.00000000000E+00 -0.89720197576E+03  0.89720197576E+03  0.00000000000E+00 0. -1.
         23    2    1    2    0    0 -0.29387850791E+03 -0.10239266555E+03 -0.72209111430E+03  0.79167949111E+03  0.92152069558E+02 0.  0.
        254    2    1    2    0    0  0.29387850791E+03  0.10239266555E+03  0.14728091378E+04  0.17534424839E+04  0.89919127700E+03 0.  0.
        -24    2    4    4    0    0 -0.29768245703E+03 -0.43034683320E+02  0.70050268161E+03  0.76658263381E+03  0.80486634388E+02 0.  0.
         24    2    4    4    0    0  0.59156096495E+03  0.14542734887E+03  0.77230645619E+03  0.98685985011E+03  0.79634241634E+02 0.  0.
         11    1    3    3    0    0 -0.22668058247E+03 -0.10329780054E+03 -0.48480249118E+03  0.54505777448E+03  0.00000000000E+00 0.  1.
        -11    1    3    3    0    0 -0.67197925444E+02  0.90513498544E+00 -0.23728862312E+03  0.24662171663E+03  0.00000000000E+00 0. -1.
          4    1    6    6  502    0  0.41215230943E+03  0.70445800238E+02  0.56130807035E+03  0.69992777255E+03  0.00000000000E+00 0. -1.
          1    1    5    5  503    0 -0.20035059115E+03 -0.55012980625E+02  0.40417190508E+03  0.45444660441E+03  0.00000000000E+00 0. -1.
         -2    1    5    5    0  503 -0.97331865886E+02  0.11978297305E+02  0.29633077654E+03  0.31213602939E+03  0.00000000000E+00 0.  1.
         -3    1    6    6    0  502  0.17940865551E+03  0.74981548632E+02  0.21099838584E+03  0.28693207757E+03  0.00000000000E+00 0.  1.
<mgrwt>
<rscale>  0 0.24318858E+04</rscale>
<asrwt>0</asrwt>
<pdfrwt beam="1">  1        1 0.25352615E+00 0.24318858E+04</pdfrwt>
<pdfrwt beam="2">  1       -1 0.13803107E+00 0.24318858E+04</pdfrwt>
<totfact> 0.20108185E+00</totfact>
</mgrwt>
</event>
<event>
12    1  0.2048318E-007  0.1291136E+04  0.7818608E-02  0.9036624E-01
         -2   -1    0    0    0  501 -0.00000000000E+00  0.00000000000E+00  0.15923570886E+03  0.15923570886E+03  0.00000000000E+00 0.  1.
          2   -1    0    0  501    0  0.00000000000E+00 -0.00000000000E+00 -0.26172400861E+04  0.26172400861E+04  0.00000000000E+00 0. -1.
         23    2    1    2    0    0  0.70115392671E+02  0.31124950656E+03 -0.74155360683E+03  0.81244162345E+03  0.91472488186E+02 0.  0.
        254    2    1    2    0    0 -0.70115392671E+02 -0.31124950656E+03 -0.17164507704E+04  0.19640341715E+04  0.89968580959E+03 0.  0.
        -24    2    4    4    0    0 -0.34398064769E+03 -0.14851235437E+02 -0.14023281982E+04  0.14463518082E+04  0.82860922602E+02 0.  0.
         24    2    4    4    0    0  0.27386525502E+03 -0.29639827113E+03 -0.31412257225E+03  0.51768236332E+03  0.80423416146E+02 0.  0.
         13    1    3    3    0    0  0.50695442316E+02  0.15252287473E+03 -0.47659587783E+03  0.50296807647E+03  0.00000000000E+00 0. -1.
        -13    1    3    3    0    0  0.19419950356E+02  0.15872663183E+03 -0.26495772900E+03  0.30947354698E+03  0.00000000000E+00 0.  1.
          2    1    6    6  502    0  0.13607842982E+03 -0.10905405595E+03 -0.17308189375E+03  0.24569792047E+03  0.00000000000E+00 0. -1.
          1    1    5    5  503    0 -0.13919945804E+03 -0.39647217312E+02 -0.48607547764E+03  0.50716640358E+03  0.00000000000E+00 0. -1.
         -2    1    5    5    0  503 -0.20478118965E+03  0.24795981875E+02 -0.91625272054E+03  0.93918540462E+03  0.00000000000E+00 0.  1.
         -1    1    6    6    0  502  0.13778682520E+03 -0.18734421518E+03 -0.14104067849E+03  0.27198444285E+03  0.00000000000E+00 0.  1.
<mgrwt>
<rscale>  0 0.12911361E+04</rscale>
<asrwt>0</asrwt>
<pdfrwt beam="1">  1        2 0.40265231E+00 0.12911361E+04</pdfrwt>
<pdfrwt beam="2">  1       -2 0.24497802E-01 0.12911361E+04</pdfrwt>
<totfact> 0.43669448E+01</totfact>
</mgrwt>
</event>
<event>
12    1  0.2048318E-007  0.2459633E+04  0.7818608E-02  0.8417509E-01
          2   -1    0    0  501    0  0.00000000000E+00  0.00000000000E+00  0.20883760538E+04  0.20883760538E+04  0.00000000000E+00 0. -1.
         -2   -1    0    0    0  501 -0.00000000000E+00 -0.00000000000E+00 -0.72422215212E+03  0.72422215212E+03  0.00000000000E+00 0.  1.
         23    2    1    2    0    0 -0.13305665735E+02  0.10240718520E+04  0.91638683484E+03  0.13773992614E+04  0.92540236463E+02 0.  0.
        254    2    1    2    0    0  0.13305665735E+02 -0.10240718520E+04  0.44776706682E+03  0.14351989445E+04  0.90022245330E+03 0.  0.
        -24    2    4    4    0    0 -0.16127302964E+03 -0.67151010089E+03  0.67902014701E+03  0.97180557803E+03  0.80018221463E+02 0.  0.
         24    2    4    4    0    0  0.17457869537E+03 -0.35256175111E+03 -0.23125308019E+03  0.46339336649E+03  0.80485500423E+02 0.  0.
         13    1    3    3    0    0 -0.40962607656E+01  0.10367106327E+03  0.58282793066E+02  0.11900148183E+03  0.00000000000E+00 0.  1.
        -13    1    3    3    0    0 -0.92094049698E+01  0.92040078874E+03  0.85810404178E+03  0.12583977795E+04  0.00000000000E+00 0. -1.
          4    1    6    6  502    0  0.20190235939E+01 -0.13694403221E+02  0.60981099388E+01  0.15126138987E+02  0.00000000000E+00 0. -1.
          3    1    5    5  503    0 -0.13158478000E+03 -0.47243663423E+03  0.43551727481E+03  0.65588583179E+03  0.00000000000E+00 0. -1.
         -4    1    5    5    0  503 -0.29688249644E+02 -0.19907346666E+03  0.24350287220E+03  0.31591974624E+03  0.00000000000E+00 0.  1.
         -3    1    6    6    0  502  0.17255967178E+03 -0.33886734789E+03 -0.23735119013E+03  0.44826722750E+03  0.00000000000E+00 0.  1.
<mgrwt>
<rscale>  0 0.24596327E+04</rscale>
<asrwt>0</asrwt>
<pdfrwt beam="1">  1        2 0.32128862E+00 0.24596327E+04</pdfrwt>
<pdfrwt beam="2">  1       -2 0.11141879E+00 0.24596327E+04</pdfrwt>
<totfact> 0.33990590E+00</totfact>
</mgrwt>
</event>
<event>
12    1  0.2048318E-007  0.2493718E+04  0.7818608E-02  0.8405227E-01
         -1   -1    0    0    0  501 -0.00000000000E+00  0.00000000000E+00  0.13561098352E+04  0.13561098352E+04  0.00000000000E+00 0.  1.
          1   -1    0    0  501    0  0.00000000000E+00 -0.00000000000E+00 -0.11464099708E+04  0.11464099708E+04  0.00000000000E+00 0. -1.
         23    2    1    2    0    0 -0.33926256720E+03 -0.72557229651E+03 -0.63879879474E+03  0.10284830503E+04  0.90328498641E+02 0.  0.
        254    2    1    2    0    0  0.33926256720E+03  0.72557229651E+03  0.84849865908E+03  0.14740367557E+04  0.90071090568E+03 0.  0.
        -24    2    4    4    0    0 -0.10099772788E+00  0.51199621013E+03 -0.15326168922E+02  0.51830641651E+03  0.79161357755E+02 0.  0.
         24    2    4    4    0    0  0.33936356493E+03  0.21357608638E+03  0.86382482800E+03  0.95573033914E+03  0.80279348604E+02 0.  0.
         13    1    3    3    0    0 -0.27144779685E+03 -0.48171754280E+03 -0.43640914248E+03  0.70440658508E+03  0.00000000000E+00 0. -1.
        -13    1    3    3    0    0 -0.67814770356E+02 -0.24385475370E+03 -0.20238965226E+03  0.32407646524E+03  0.00000000000E+00 0.  1.
          2    1    6    6  502    0  0.33955702002E+03  0.20637037938E+03  0.86045892995E+03  0.94777490653E+03  0.00000000000E+00 0. -1.
          3    1    5    5  503    0 -0.30271486425E+02  0.28537686534E+03 -0.33702849684E+02  0.28895016913E+03  0.00000000000E+00 0. -1.
         -4    1    5    5    0  503  0.30170488697E+02  0.22661934478E+03  0.18376680763E+02  0.22935624739E+03  0.00000000000E+00 0.  1.
         -1    1    6    6    0  502 -0.19345508958E+00  0.72057070023E+01  0.33658980512E+01  0.79554326071E+01  0.00000000000E+00 0.  1.
<mgrwt>
<rscale>  0 0.24937184E+04</rscale>
<asrwt>0</asrwt>
<pdfrwt beam="1">  1        1 0.17637076E+00 0.24937184E+04</pdfrwt>
<pdfrwt beam="2">  1       -1 0.20863228E+00 0.24937184E+04</pdfrwt>
<totfact> 0.13664082E+00</totfact>
</mgrwt>
</event>
<event>
12    1  0.2048318E-007  0.2377032E+04  0.7818608E-02  0.8448153E-01
         -1   -1    0    0    0  501 -0.00000000000E+00  0.00000000000E+00  0.78923094642E+03  0.78923094642E+03  0.00000000000E+00 0.  1.
          1   -1    0    0  501    0  0.00000000000E+00 -0.00000000000E+00 -0.17898053116E+04  0.17898053116E+04  0.00000000000E+00 0. -1.
         23    2    1    2    0    0  0.75553658544E+03  0.22360262626E+03 -0.11245317488E+04  0.13761955993E+04  0.92244278516E+02 0.  0.
        254    2    1    2    0    0 -0.75553658544E+03 -0.22360262626E+03  0.12395738368E+03  0.12028406587E+04  0.90034801655E+03 0.  0.
        -24    2    4    4    0    0 -0.90027829448E+03 -0.28144513557E+03  0.25988565908E+03  0.98164208279E+03  0.79801322397E+02 0.  0.
         24    2    4    4    0    0  0.14474170904E+03  0.57842509308E+02 -0.13592827540E+03  0.22119857594E+03  0.78462702763E+02 0.  0.
         11    1    3    3    0    0  0.40340586175E+03  0.15352358501E+03 -0.55765757360E+03  0.70518632278E+03  0.00000000000E+00 0. -1.
        -11    1    3    3    0    0  0.35213072369E+03  0.70079041254E+02 -0.56687417525E+03  0.67100927650E+03  0.00000000000E+00 0.  1.
          2    1    6    6  502    0  0.94519816240E+02 -0.39387799585E+01 -0.67492850806E+02  0.11621013105E+03  0.00000000000E+00 0. -1.
          1    1    5    5  503    0 -0.80009701005E+03 -0.22297394068E+03  0.23072891725E+03  0.86203737562E+03  0.00000000000E+00 0. -1.
         -2    1    5    5    0  503 -0.10018128443E+03 -0.58471194895E+02  0.29156741834E+02  0.11960470717E+03  0.00000000000E+00 0.  1.
         -1    1    6    6    0  502  0.50221892800E+02  0.61781289267E+02 -0.68435424595E+02  0.10498844489E+03  0.00000000000E+00 0.  1.
<mgrwt>
<rscale>  0 0.23770315E+04</rscale>
<asrwt>0</asrwt>
<pdfrwt beam="1">  1        1 0.27535466E+00 0.23770315E+04</pdfrwt>
<pdfrwt beam="2">  1       -1 0.12142015E+00 0.23770315E+04</pdfrwt>
<totfact> 0.22352436E+00</totfact>
</mgrwt>
</event>
<event>
12    1  0.2048318E-007  0.3390971E+04  0.7818608E-02  0.8140126E-01
         -2   -1    0    0    0  501 -0.00000000000E+00  0.00000000000E+00  0.20122965253E+04  0.20122965253E+04  0.00000000000E+00 0.  1.
          2   -1    0    0  501    0  0.00000000000E+00 -0.00000000000E+00 -0.14285521176E+04  0.14285521176E+04  0.00000000000E+00 0. -1.
         23    2    1    2    0    0  0.30872559247E+03  0.23466560374E+03  0.18200621058E+04  0.18631276893E+04  0.90770482522E+02 0.  0.
        254    2    1    2    0    0 -0.30872559247E+03 -0.23466560374E+03 -0.12363176981E+04  0.15777209537E+04  0.90019026878E+03 0.  0.
        -24    2    4    4    0    0 -0.57751450203E+02 -0.36394607988E+02  0.13359843764E+03  0.16867839954E+03  0.77097746000E+02 0.  0.
         24    2    4    4    0    0 -0.25097414226E+03 -0.19827099575E+03 -0.13699161358E+04  0.14090425542E+04  0.80195339941E+02 0.  0.
         11    1    3    3    0    0  0.65813530065E+02  0.15477066072E+02  0.41522772925E+03  0.42069588475E+03  0.00000000000E+00 0. -1.
        -11    1    3    3    0    0  0.24291206240E+03  0.21918853767E+03  0.14048343766E+04  0.14424318045E+04  0.00000000000E+00 0.  1.
          2    1    6    6  502    0 -0.23573726444E+03 -0.19186235462E+03 -0.13465072171E+04  0.13803857819E+04  0.00000000000E+00 0. -1.
          3    1    5    5  503    0 -0.36308159944E+02 -0.60312041047E+02  0.84167112066E+02  0.10972660355E+03  0.00000000000E+00 0. -1.
         -4    1    5    5    0  503 -0.21443290259E+02  0.23917433060E+02  0.49431325578E+02  0.58951795983E+02  0.00000000000E+00 0.  1.
         -1    1    6    6    0  502 -0.15236877821E+02 -0.64086411346E+01 -0.23408918634E+02  0.28656772299E+02  0.00000000000E+00 0.  1.
<mgrwt>
<rscale>  0 0.33909706E+04</rscale>
<asrwt>0</asrwt>
<pdfrwt beam="1">  1        2 0.21977725E+00 0.33909706E+04</pdfrwt>
<pdfrwt beam="2">  1       -2 0.30958408E+00 0.33909706E+04</pdfrwt>
<totfact> 0.32067358E-01</totfact>
</mgrwt>
</event>
<event>
12    1  0.2048318E-007  0.1715427E+04  0.7818608E-02  0.8752614E-01
         -2   -1    0    0    0  501 -0.00000000000E+00  0.00000000000E+00  0.63431299245E+03  0.63431299245E+03  0.00000000000E+00 0.  1.
          2   -1    0    0  501    0  0.00000000000E+00 -0.00000000000E+00 -0.11597939576E+04  0.11597939576E+04  0.00000000000E+00 0. -1.
         23    2    1    2    0    0 -0.46016949386E+02  0.60050047478E+03 -0.35333325124E+03  0.70416311473E+03  0.91010581084E+02 0.  0.
        254    2    1    2    0    0  0.46016949386E+02 -0.60050047478E+03 -0.17214771388E+03  0.10899438353E+04  0.89197777374E+03 0.  0.
        -24    2    4    4    0    0 -0.15794389730E+02 -0.59885863357E+03 -0.47680810913E+03  0.76969662989E+03  0.78776921632E+02 0.  0.
         24    2    4    4    0    0  0.61811339115E+02 -0.16418412064E+01  0.30466039525E+03  0.32024720540E+03  0.76921900933E+02 0.  0.
         13    1    3    3    0    0 -0.37078777973E+02  0.86977798381E+02 -0.41070270332E+02  0.10308608195E+03  0.00000000000E+00 0.  1.
        -13    1    3    3    0    0 -0.89381714128E+01  0.51352267640E+03 -0.31226298091E+03  0.60107703278E+03  0.00000000000E+00 0. -1.
          4    1    6    6  502    0  0.50577654526E+02  0.33578208945E+02  0.16635555336E+03  0.17708688655E+03  0.00000000000E+00 0. -1.
          3    1    5    5  503    0 -0.42131589970E+02 -0.43310030406E+03 -0.32153968457E+03  0.54105333656E+03  0.00000000000E+00 0. -1.
         -4    1    5    5    0  503  0.26337200241E+02 -0.16575832951E+03 -0.15526842456E+03  0.22864329333E+03  0.00000000000E+00 0.  1.
         -3    1    6    6    0  502  0.11233684589E+02 -0.35220050152E+02  0.13830484189E+03  0.14316031885E+03  0.00000000000E+00 0.  1.
<mgrwt>
<rscale>  0 0.17154269E+04</rscale>
<asrwt>0</asrwt>
<pdfrwt beam="1">  1        2 0.17842984E+00 0.17154269E+04</pdfrwt>
<pdfrwt beam="2">  1       -2 0.97586615E-01 0.17154269E+04</pdfrwt>
<totfact> 0.16658355E+01</totfact>
</mgrwt>
</event>
<event>
12    1  0.2048318E-007  0.2573940E+04  0.7818608E-02  0.8377107E-01
          2   -1    0    0  501    0  0.00000000000E+00  0.00000000000E+00  0.12031685850E+04  0.12031685850E+04  0.00000000000E+00 0. -1.
         -2   -1    0    0    0  501 -0.00000000000E+00 -0.00000000000E+00 -0.13766087628E+04  0.13766087628E+04  0.00000000000E+00 0.  1.
         23    2    1    2    0    0  0.43509478296E+03 -0.99949676765E+03  0.21251077953E+03  0.11143738779E+04  0.91471578394E+02 0.  0.
        254    2    1    2    0    0 -0.43509478296E+03  0.99949676765E+03 -0.38595095733E+03  0.14654034699E+04  0.90008217920E+03 0.  0.
        -24    2    4    4    0    0 -0.16911666847E+03  0.24298210859E+03  0.28424392708E+03  0.41723938078E+03  0.75188683586E+02 0.  0.
         24    2    4    4    0    0 -0.26597811449E+03  0.75651465906E+03 -0.67019488441E+03  0.10481640891E+04  0.80174732924E+02 0.  0.
         11    1    3    3    0    0  0.10675059963E+03 -0.35270682124E+03  0.66273894931E+02  0.37441957937E+03  0.00000000000E+00 0.  1.
        -11    1    3    3    0    0  0.32834418334E+03 -0.64678994642E+03  0.14623688460E+03  0.73995429854E+03  0.00000000000E+00 0. -1.
          4    1    6    6  502    0 -0.24821216388E+03  0.64033217573E+03 -0.59480258730E+03  0.90852886109E+03  0.00000000000E+00 0. -1.
          3    1    5    5  503    0  0.59299008628E+00  0.11819280021E+02  0.36175233986E+02  0.38061720552E+02  0.00000000000E+00 0. -1.
         -4    1    5    5    0  503 -0.16970965856E+03  0.23116282857E+03  0.24806869309E+03  0.37917766022E+03  0.00000000000E+00 0.  1.
         -3    1    6    6    0  502 -0.17765950608E+02  0.11618248334E+03 -0.75392297106E+02  0.13963522800E+03  0.00000000000E+00 0.  1.
<mgrwt>
<rscale>  0 0.25739405E+04</rscale>
<asrwt>0</asrwt>
<pdfrwt beam="1">  1        2 0.18510286E+00 0.25739405E+04</pdfrwt>
<pdfrwt beam="2">  1       -2 0.21178596E+00 0.25739405E+04</pdfrwt>
<totfact> 0.18642148E+00</totfact>
</mgrwt>
</event>
<event>
12    1  0.2048318E-007  0.1609878E+04  0.7818608E-02  0.8814502E-01
          1   -1    0    0  501    0  0.00000000000E+00  0.00000000000E+00  0.38041578541E+03  0.38041578541E+03  0.00000000000E+00 0. -1.
         -1   -1    0    0    0  501 -0.00000000000E+00 -0.00000000000E+00 -0.17032071877E+04  0.17032071877E+04  0.00000000000E+00 0.  1.
         23    2    1    2    0    0  0.38724131914E+03 -0.38236159744E+03 -0.52992928655E+03  0.76510184599E+03  0.91649089164E+02 0.  0.
        254    2    1    2    0    0 -0.38724131914E+03  0.38236159744E+03 -0.79286211569E+03  0.13185211271E+04  0.90205953108E+03 0.  0.
        -24    2    4    4    0    0 -0.81024143206E+01 -0.10502809767E+03 -0.67097423070E+03  0.68384028760E+03  0.79590013570E+02 0.  0.
         24    2    4    4    0    0 -0.37913890482E+03  0.48738969511E+03 -0.12188788499E+03  0.63468083948E+03  0.81658358111E+02 0.  0.
         13    1    3    3    0    0  0.35404665554E+03 -0.30359207121E+03 -0.44764242908E+03  0.64645256926E+03  0.00000000000E+00 0. -1.
        -13    1    3    3    0    0  0.33194663605E+02 -0.78769526234E+02 -0.82286857470E+02  0.11864927672E+03  0.00000000000E+00 0.  1.
          2    1    6    6  502    0 -0.34963004525E+03  0.41523313297E+03 -0.12353905085E+03  0.55670604482E+03  0.00000000000E+00 0. -1.
          1    1    5    5  503    0  0.68002284072E+01 -0.73408690900E+02 -0.60216701709E+03  0.60666316476E+03  0.00000000000E+00 0. -1.
         -2    1    5    5    0  503 -0.14902642728E+02 -0.31619406769E+02 -0.68807213614E+02  0.77177122841E+02  0.00000000000E+00 0.  1.
         -1    1    6    6    0  502 -0.29508859567E+02  0.72156562145E+02  0.16511658598E+01  0.77974794660E+02  0.00000000000E+00 0.  1.
<mgrwt>
<rscale>  0 0.16098781E+04</rscale>
<asrwt>0</asrwt>
<pdfrwt beam="1">  1        1 0.58525505E-01 0.16098781E+04</pdfrwt>
<pdfrwt beam="2">  1       -1 0.26203188E+00 0.16098781E+04</pdfrwt>
<totfact> 0.35818372E+00</totfact>
</mgrwt>
</event>
<event>
12    1  0.2048318E-007  0.1279533E+04  0.7818608E-02  0.9045955E-01
          1   -1    0    0  501    0  0.00000000000E+00  0.00000000000E+00  0.10514331268E+04  0.10514331268E+04  0.00000000000E+00 0. -1.
         -1   -1    0    0    0  501 -0.00000000000E+00 -0.00000000000E+00 -0.38927960633E+03  0.38927960633E+03  0.00000000000E+00 0.  1.
         23    2    1    2    0    0  0.27293087757E+03  0.12164433439E+03  0.27734622428E+03  0.41757241414E+03  0.90317135182E+02 0.  0.
        254    2    1    2    0    0 -0.27293087757E+03 -0.12164433439E+03  0.38480729621E+03  0.10231403190E+04  0.89969486446E+03 0.  0.
        -24    2    4    4    0    0 -0.40628039248E+03  0.24278399103E+03  0.13632694962E+02  0.48015590892E+03  0.79724669234E+02 0.  0.
         24    2    4    4    0    0  0.13334951491E+03 -0.36442832543E+03  0.37117460125E+03  0.54298441008E+03  0.80444934458E+02 0.  0.
         11    1    3    3    0    0  0.41616914068E+02  0.53354298813E+02  0.37188084390E+02  0.77211413399E+02  0.00000000000E+00 0.  1.
        -11    1    3    3    0    0  0.23131396350E+03  0.68290035579E+02  0.24015813989E+03  0.34036100074E+03  0.00000000000E+00 0. -1.
          4    1    6    6  502    0  0.24359969777E+02 -0.13986184699E+03  0.17600406774E+03  0.22612424954E+03  0.00000000000E+00 0. -1.
          3    1    5    5  503    0 -0.20029427797E+03  0.13517722032E+03 -0.30641831183E+02  0.24357668299E+03  0.00000000000E+00 0. -1.
         -4    1    5    5    0  503 -0.20598611451E+03  0.10760677072E+03  0.44274526145E+02  0.23657922593E+03  0.00000000000E+00 0.  1.
         -3    1    6    6    0  502  0.10898954513E+03 -0.22456647844E+03  0.19517053351E+03  0.31686016054E+03  0.00000000000E+00 0.  1.
<mgrwt>
<rscale>  0 0.12795335E+04</rscale>
<asrwt>0</asrwt>
<pdfrwt beam="1">  1        1 0.16175894E+00 0.12795335E+04</pdfrwt>
<pdfrwt beam="2">  1       -1 0.59889171E-01 0.12795335E+04</pdfrwt>
<totfact> 0.38398582E+01</totfact>
</mgrwt>
</event>
<event>
12    1  0.2048318E-007  0.1374449E+04  0.7818608E-02  0.8972524E-01
          2   -1    0    0  501    0  0.00000000000E+00  0.00000000000E+00  0.32264850230E+04  0.32264850230E+04  0.00000000000E+00 0.  1.
         -2   -1    0    0    0  501 -0.00000000000E+00 -0.00000000000E+00 -0.14637525313E+03  0.14637525313E+03  0.00000000000E+00 0. -1.
         23    2    1    2    0    0 -0.30440247107E+03  0.23318157358E+03  0.80535241919E+03  0.89669349168E+03  0.91826947454E+02 0.  0.
        254    2    1    2    0    0  0.30440247107E+03 -0.23318157358E+03  0.22747573506E+04  0.24761667844E+04  0.89991467889E+03 0.  0.
        -24    2    4    4    0    0 -0.30923404259E+03 -0.15138880241E+03  0.78416404665E+03  0.86011842914E+03  0.79663024661E+02 0.  0.
         24    2    4    4    0    0  0.61363651366E+03 -0.81792771163E+02  0.14905933040E+04  0.16160483553E+04  0.80647754834E+02 0.  0.
         13    1    3    3    0    0 -0.71909833904E+02  0.29096007217E+02  0.10063125133E+03  0.12706002751E+03  0.00000000000E+00 0. -1.
        -13    1    3    3    0    0 -0.23249263717E+03  0.20408556636E+03  0.70472116786E+03  0.76963346417E+03  0.00000000000E+00 0.  1.
          4    1    6    6  502    0  0.37412106494E+03 -0.45860099557E+02  0.10062034062E+04  0.10744836037E+04  0.00000000000E+00 0. -1.
          1    1    5    5  503    0 -0.74786545499E+02 -0.85164815907E+01  0.12281629197E+03  0.14404651825E+03  0.00000000000E+00 0. -1.
         -2    1    5    5    0  503 -0.23444749709E+03 -0.14287232082E+03  0.66134775468E+03  0.71607191089E+03  0.00000000000E+00 0.  1.
         -3    1    6    6    0  502  0.23951544872E+03 -0.35932671606E+02  0.48438989775E+03  0.54156475154E+03  0.00000000000E+00 0.  1.
<mgrwt>
<rscale>  0 0.13744491E+04</rscale>
<asrwt>0</asrwt>
<pdfrwt beam="1">  1        2 0.49638226E+00 0.13744491E+04</pdfrwt>
<pdfrwt beam="2">  1       -2 0.22519272E-01 0.13744491E+04</pdfrwt>
<totfact> 0.21320060E+01</totfact>
</mgrwt>
</event>
<event>
12    1  0.2048318E-007  0.4057334E+04  0.7818608E-02  0.7993079E-01
          1   -1    0    0  501    0  0.00000000000E+00  0.00000000000E+00  0.21976356371E+04  0.21976356371E+04  0.00000000000E+00 0. -1.
         -1   -1    0    0    0  501 -0.00000000000E+00 -0.00000000000E+00 -0.18726896165E+04  0.18726896165E+04  0.00000000000E+00 0.  1.
         23    2    1    2    0    0 -0.96751514126E+02  0.13029886899E+04  0.15754544552E+04  0.20490192647E+04  0.96347419510E+02 0.  0.
        254    2    1    2    0    0  0.96751514126E+02 -0.13029886899E+04 -0.12505084346E+04  0.20213059890E+04  0.90264399104E+03 0.  0.
        -24    2    4    4    0    0 -0.73280904418E+02 -0.10221327627E+04 -0.39424310229E+03  0.11008352405E+04  0.79278795746E+02 0.  0.
         24    2    4    4    0    0  0.17003241854E+03 -0.28085592721E+03 -0.85626533228E+03  0.92047074847E+03  0.79278019161E+02 0.  0.
         11    1    3    3    0    0 -0.89218768023E+01  0.76025488280E+03  0.90849331970E+03  0.11846633271E+04  0.00000000000E+00 0. -1.
        -11    1    3    3    0    0 -0.87829637323E+02  0.54273380714E+03  0.66696113546E+03  0.86435593757E+03  0.00000000000E+00 0.  1.
          2    1    6    6  502    0  0.16981429681E+03 -0.28503366977E+03 -0.85269864680E+03  0.91497326221E+03  0.00000000000E+00 0. -1.
          3    1    5    5  503    0 -0.84770101754E+02 -0.91999207832E+03 -0.37004066063E+03  0.99523941081E+03  0.00000000000E+00 0. -1.
         -4    1    5    5    0  503  0.11489197335E+02 -0.10214068440E+03 -0.24202441659E+02  0.10559582969E+03  0.00000000000E+00 0.  1.
         -1    1    6    6    0  502  0.21812173591E+00  0.41777425522E+01 -0.35666854823E+01  0.54974862669E+01  0.00000000000E+00 0.  1.
<mgrwt>
<rscale>  0 0.40573338E+04</rscale>
<asrwt>0</asrwt>
<pdfrwt beam="1">  1        1 0.33809779E+00 0.40573338E+04</pdfrwt>
<pdfrwt beam="2">  1       -1 0.28810609E+00 0.40573338E+04</pdfrwt>
<totfact> 0.67182805E-02</totfact>
</mgrwt>
</event>
<event>
12    1  0.2048318E-007  0.2800311E+04  0.7818608E-02  0.8303172E-01
         -2   -1    0    0    0  501 -0.00000000000E+00  0.00000000000E+00  0.12903658555E+04  0.12903658555E+04  0.00000000000E+00 0.  1.
          2   -1    0    0  501    0  0.00000000000E+00 -0.00000000000E+00 -0.15192869572E+04  0.15192869572E+04  0.00000000000E+00 0. -1.
         23    2    1    2    0    0 -0.71468442084E+03 -0.64670293012E+03  0.70135106290E+03  0.11958581064E+04  0.95837341206E+02 0.  0.
        254    2    1    2    0    0  0.71468442084E+03  0.64670293012E+03 -0.93027216466E+03  0.16137947063E+04  0.89996030608E+03 0.  0.
        -24    2    4    4    0    0  0.63942613957E+03  0.85147943336E+03 -0.85887336086E+03  0.13704995795E+04  0.81991670667E+02 0.  0.
         24    2    4    4    0    0  0.75258281270E+02 -0.20477650324E+03 -0.71398803791E+02  0.24329512678E+03  0.80607098639E+02 0.  0.
         13    1    3    3    0    0 -0.62896169621E+03 -0.55409255426E+03  0.64498732025E+03  0.10576483429E+04  0.00000000000E+00 0.  1.
        -13    1    3    3    0    0 -0.85722724627E+02 -0.92610375852E+02  0.56363742653E+02  0.13820976347E+03  0.00000000000E+00 0. -1.
          2    1    6    6  502    0  0.16934342269E+02  0.34258939295E+00  0.34601674600E+01  0.17287627785E+02  0.00000000000E+00 0. -1.
          3    1    5    5  503    0  0.42303916893E+02  0.49202205425E+02 -0.79237271903E+02  0.10241593461E+03  0.00000000000E+00 0. -1.
         -4    1    5    5    0  503  0.59712222267E+03  0.80227722793E+03 -0.77963608896E+03  0.12680836449E+04  0.00000000000E+00 0.  1.
         -1    1    6    6    0  502  0.58323939000E+02 -0.20511909263E+03 -0.74858971251E+02  0.22600749899E+03  0.00000000000E+00 0.  1.
<mgrwt>
<rscale>  0 0.28003114E+04</rscale>
<asrwt>0</asrwt>
<pdfrwt beam="1">  1        2 0.23373645E+00 0.28003114E+04</pdfrwt>
<pdfrwt beam="2">  1       -2 0.19851782E+00 0.28003114E+04</pdfrwt>
<totfact> 0.14653649E+00</totfact>
</mgrwt>
</event>
<event>
12    1  0.2048318E-007  0.3200066E+04  0.7818608E-02  0.8188800E-01
         -2   -1    0    0    0  501 -0.00000000000E+00  0.00000000000E+00  0.14956795447E+04  0.14956795447E+04  0.00000000000E+00 0.  1.
          2   -1    0    0  501    0  0.00000000000E+00 -0.00000000000E+00 -0.17116668305E+04  0.17116668305E+04  0.00000000000E+00 0. -1.
         23    2    1    2    0    0  0.10751436771E+04  0.98228642111E+03  0.11488869129E+03  0.14635677956E+04  0.89502745621E+02 0.  0.
        254    2    1    2    0    0 -0.10751436771E+04 -0.98228642111E+03 -0.33087597702E+03  0.17437785796E+04  0.90025789809E+03 0.  0.
        -24    2    4    4    0    0  0.89190600171E+02 -0.58642603696E+02  0.12907813966E+03  0.18592775972E+03  0.80709649807E+02 0.  0.
         24    2    4    4    0    0 -0.11643342773E+04 -0.92364381741E+03 -0.45995411668E+03  0.15578508199E+04  0.80926985181E+02 0.  0.
         13    1    3    3    0    0  0.84882632393E+03  0.82285776910E+03  0.95757234354E+02  0.11860735577E+04  0.00000000000E+00 0.  1.
        -13    1    3    3    0    0  0.22631735316E+03  0.15942865201E+03  0.19131456932E+02  0.27749423790E+03  0.00000000000E+00 0. -1.
          2    1    6    6  502    0 -0.10065055273E+04 -0.76492883183E+03 -0.37803265629E+03  0.13194992169E+04  0.00000000000E+00 0. -1.
          1    1    5    5  503    0  0.33131316877E+02  0.12497158028E+02  0.10932813105E+02  0.37059270354E+02  0.00000000000E+00 0. -1.
         -2    1    5    5    0  503  0.56059283294E+02 -0.71139761724E+02  0.11814532655E+03  0.14886848937E+03  0.00000000000E+00 0.  1.
         -1    1    6    6    0  502 -0.15782874997E+03 -0.15871498558E+03 -0.81921460387E+02  0.23835160297E+03  0.00000000000E+00 0.  1.
<mgrwt>
<rscale>  0 0.32000657E+04</rscale>
<asrwt>0</asrwt>
<pdfrwt beam="1">  1        2 0.26333336E+00 0.32000657E+04</pdfrwt>
<pdfrwt beam="2">  1       -2 0.23010454E+00 0.32000657E+04</pdfrwt>
<totfact> 0.69457077E-01</totfact>
</mgrwt>
</event>
<event>
12    1  0.2048318E-007  0.1182630E+04  0.7818608E-02  0.9128198E-01
         -1   -1    0    0    0  501 -0.00000000000E+00  0.00000000000E+00  0.24757948750E+03  0.24757948750E+03  0.00000000000E+00 0.  1.
          1   -1    0    0  501    0  0.00000000000E+00 -0.00000000000E+00 -0.14122882654E+04  0.14122882654E+04  0.00000000000E+00 0. -1.
         23    2    1    2    0    0  0.17982272528E+03  0.56390945339E+02 -0.44337850315E+03  0.49119165512E+03  0.95752774142E+02 0.  0.
        254    2    1    2    0    0 -0.17982272528E+03 -0.56390945339E+02 -0.72133027472E+03  0.11686760978E+04  0.89998350263E+03 0.  0.
        -24    2    4    4    0    0 -0.41729975454E+03 -0.33026134804E+03 -0.34415135126E+03  0.63885922148E+03  0.80556248408E+02 0.  0.
         24    2    4    4    0    0  0.23747702925E+03  0.27387040270E+03 -0.37717892346E+03  0.52981687628E+03  0.83914511176E+02 0.  0.
         13    1    3    3    0    0  0.91464673319E+02  0.18326994122E+02 -0.11009707840E+03  0.14430187751E+03  0.00000000000E+00 0.  1.
        -13    1    3    3    0    0  0.88358051964E+02  0.38063951217E+02 -0.33328142475E+03  0.34688977761E+03  0.00000000000E+00 0. -1.
          4    1    6    6  502    0 -0.42879262075E+01  0.23943953341E+02 -0.26257109399E+02  0.35792946326E+02  0.00000000000E+00 0. -1.
          3    1    5    5  503    0 -0.25031960023E+03 -0.24494644673E+03 -0.21093278796E+03  0.40884141799E+03  0.00000000000E+00 0. -1.
         -4    1    5    5    0  503 -0.16698015431E+03 -0.85314901302E+02 -0.13321856330E+03  0.23001780350E+03  0.00000000000E+00 0.  1.
         -3    1    6    6    0  502  0.24176495546E+03  0.24992644936E+03 -0.35092181407E+03  0.49402392995E+03  0.00000000000E+00 0.  1.
<mgrwt>
<rscale>  0 0.11826303E+04</rscale>
<asrwt>0</asrwt>
<pdfrwt beam="1">  1        1 0.21727512E+00 0.11826303E+04</pdfrwt>
<pdfrwt beam="2">  1       -1 0.38089151E-01 0.11826303E+04</pdfrwt>
<totfact> 0.49688870E+01</totfact>
</mgrwt>
</event>
<event>
12    1  0.2048318E-007  0.1949293E+04  0.7818608E-02  0.8630702E-01
         -1   -1    0    0    0  501 -0.00000000000E+00  0.00000000000E+00  0.11099368918E+04  0.11099368918E+04  0.00000000000E+00 0.  1.
          1   -1    0    0  501    0  0.00000000000E+00 -0.00000000000E+00 -0.85584672212E+03  0.85584672212E+03  0.00000000000E+00 0. -1.
         23    2    1    2    0    0  0.45323695692E+02  0.47120320821E+03 -0.50359874345E+03  0.69720830358E+03  0.91657096606E+02 0.  0.
        254    2    1    2    0    0 -0.45323695692E+02 -0.47120320821E+03  0.75768891315E+03  0.12685753104E+04  0.90061319562E+03 0.  0.
        -24    2    4    4    0    0  0.21684757530E+03 -0.41218363805E+03  0.12106055006E+02  0.47226027462E+03  0.77233334947E+02 0.  0.
         24    2    4    4    0    0 -0.26217127099E+03 -0.59019570164E+02  0.74558285814E+03  0.79631503574E+03  0.77503243794E+02 0.  0.
         13    1    3    3    0    0  0.36644403470E+02  0.46947665909E+03 -0.50184715256E+03  0.68818726395E+03  0.00000000000E+00 0. -1.
        -13    1    3    3    0    0  0.86792922221E+01  0.17265491259E+01 -0.17515908898E+01  0.90210396300E+01  0.00000000000E+00 0.  1.
          4    1    6    6  502    0 -0.17863366258E+03 -0.47364267446E+02  0.60266296304E+03  0.63036180583E+03  0.00000000000E+00 0. -1.
          1    1    5    5  503    0  0.13150761986E+03 -0.29807599130E+03 -0.19234555220E+02  0.32636408931E+03  0.00000000000E+00 0. -1.
         -2    1    5    5    0  503  0.85339955437E+02 -0.11410764674E+03  0.31340610226E+02  0.14589618531E+03  0.00000000000E+00 0.  1.
         -3    1    6    6    0  502 -0.83537608407E+02 -0.11655302718E+02  0.14291989510E+03  0.16595322990E+03  0.00000000000E+00 0.  1.
<mgrwt>
<rscale>  0 0.19492931E+04</rscale>
<asrwt>0</asrwt>
<pdfrwt beam="1">  1        1 0.13166873E+00 0.19492931E+04</pdfrwt>
<pdfrwt beam="2">  1       -1 0.17075952E+00 0.19492931E+04</pdfrwt>
<totfact> 0.44815872E+00</totfact>
</mgrwt>
</event>
<event>
12    1  0.2048318E-007  0.1325965E+04  0.7818608E-02  0.9009224E-01
          1   -1    0    0  501    0  0.00000000000E+00  0.00000000000E+00  0.32694544107E+04  0.32694544107E+04  0.00000000000E+00 0. -1.
         -1   -1    0    0    0  501 -0.00000000000E+00 -0.00000000000E+00 -0.13444009799E+03  0.13444009799E+03  0.00000000000E+00 0.  1.
         23    2    1    2    0    0  0.10530039930E+03 -0.31140317119E+03  0.63600480341E+03  0.72303766404E+03  0.10110017084E+03 0.  0.
        254    2    1    2    0    0 -0.10530039930E+03  0.31140317119E+03  0.24990095093E+04  0.26808568447E+04  0.91317292161E+03 0.  0.
        -24    2    4    4    0    0  0.25135434665E+02  0.47445867148E+03  0.60619744956E+03  0.77476753437E+03  0.83943811193E+02 0.  0.
         24    2    4    4    0    0 -0.13043583397E+03 -0.16305550029E+03  0.18928120598E+04  0.19060893103E+04  0.82694390867E+02 0.  0.
         11    1    3    3    0    0  0.82709130303E+02 -0.21367396491E+03  0.52836932237E+03  0.57590928482E+03  0.00000000000E+00 0. -1.
        -11    1    3    3    0    0  0.22591268999E+02 -0.97729206281E+02  0.10763548104E+03  0.14712837923E+03  0.00000000000E+00 0.  1.
          2    1    6    6  502    0 -0.32024986440E+02  0.22136724130E+01  0.24840673523E+03  0.25047236616E+03  0.00000000000E+00 0. -1.
          3    1    5    5  503    0  0.55024509838E+02  0.29279043700E+03  0.35816217407E+03  0.46586916578E+03  0.00000000000E+00 0. -1.
         -4    1    5    5    0  503 -0.29889075174E+02  0.18166823447E+03  0.24803527549E+03  0.30889836859E+03  0.00000000000E+00 0.  1.
         -1    1    6    6    0  502 -0.98410847527E+02 -0.16526917270E+03  0.16444053246E+04  0.16556169442E+04  0.00000000000E+00 0.  1.
<mgrwt>
<rscale>  0 0.13259650E+04</rscale>
<asrwt>0</asrwt>
<pdfrwt beam="1">  1        1 0.50299293E+00 0.13259650E+04</pdfrwt>
<pdfrwt beam="2">  1       -1 0.20683094E-01 0.13259650E+04</pdfrwt>
<totfact> 0.72373322E+00</totfact>
</mgrwt>
</event>
<event>
12    1  0.2048318E-007  0.2591088E+04  0.7818608E-02  0.8371235E-01
          2   -1    0    0  501    0  0.00000000000E+00  0.00000000000E+00  0.60512139300E+03  0.60512139300E+03  0.00000000000E+00 0. -1.
         -2   -1    0    0    0  501 -0.00000000000E+00 -0.00000000000E+00 -0.27737146639E+04  0.27737146639E+04  0.00000000000E+00 0.  1.
         23    2    1    2    0    0 -0.10563337850E+04  0.99191779393E+02 -0.41873531916E+03  0.11442572612E+04  0.91133626260E+02 0.  0.
        254    2    1    2    0    0  0.10563337850E+04 -0.99191779393E+02 -0.17498579517E+04  0.22345787957E+04  0.89758535434E+03 0.  0.
        -24    2    4    4    0    0  0.26210955157E+03 -0.41907591253E+03 -0.87334707726E+03  0.10066912017E+04  0.79787347403E+02 0.  0.
         24    2    4    4    0    0  0.79422423345E+03  0.31988413314E+03 -0.87651087445E+03  0.12278875939E+04  0.79489864868E+02 0.  0.
         11    1    3    3    0    0 -0.62795551391E+03  0.85287252620E+02 -0.21067202829E+03  0.66782089396E+03  0.00000000000E+00 0. -1.
        -11    1    3    3    0    0 -0.42837827111E+03  0.13904526773E+02 -0.20806329087E+03  0.47643636725E+03  0.00000000000E+00 0.  1.
          2    1    6    6  502    0  0.72697190359E+03  0.28758020315E+03 -0.76567565670E+03  0.10942804636E+04  0.00000000000E+00 0. -1.
          3    1    5    5  503    0  0.16863618078E+03 -0.28724211781E+03 -0.65740742166E+03  0.73697402516E+03  0.00000000000E+00 0. -1.
         -4    1    5    5    0  503  0.93473370795E+02 -0.13183379472E+03 -0.21593965561E+03  0.26971717658E+03  0.00000000000E+00 0.  1.
         -1    1    6    6    0  502  0.67252329866E+02  0.32303929994E+02 -0.11083521775E+03  0.13360713027E+03  0.00000000000E+00 0.  1.
<mgrwt>
<rscale>  0 0.25910879E+04</rscale>
<asrwt>0</asrwt>
<pdfrwt beam="1">  1        2 0.93095598E-01 0.25910879E+04</pdfrwt>
<pdfrwt beam="2">  1       -2 0.42672534E+00 0.25910879E+04</pdfrwt>
<totfact> 0.21497571E-01</totfact>
</mgrwt>
</event>
<event>
12    1  0.2048318E-007  0.2776687E+04  0.7818608E-02  0.8310543E-01
         -3   -1    0    0    0  501 -0.00000000000E+00  0.00000000000E+00  0.94526666053E+03  0.94526666053E+03  0.00000000000E+00 0.  1.
          3   -1    0    0  501    0  0.00000000000E+00 -0.00000000000E+00 -0.20391041624E+04  0.20391041624E+04  0.00000000000E+00 0. -1.
         23    2    1    2    0    0 -0.77777338987E+03  0.95430598423E+03 -0.32478678623E+03  0.12765190534E+04  0.91559158967E+02 0.  0.
        254    2    1    2    0    0  0.77777338987E+03 -0.95430598423E+03 -0.76905071560E+03  0.17078517695E+04  0.89982626433E+03 0.  0.
        -24    2    4    4    0    0  0.19665304331E+03 -0.30117722646E+03  0.18389360885E+03  0.41217717550E+03  0.81810900509E+02 0.  0.
         24    2    4    4    0    0  0.58112034655E+03 -0.65312875777E+03 -0.95294432445E+03  0.12956745940E+04  0.79948337670E+02 0.  0.
         11    1    3    3    0    0 -0.42557601673E+03  0.46820614661E+03 -0.19822322934E+03  0.66304177123E+03  0.00000000000E+00 0. -1.
        -11    1    3    3    0    0 -0.35219737314E+03  0.48609983762E+03 -0.12656355689E+03  0.61347728215E+03  0.00000000000E+00 0.  1.
          4    1    6    6  502    0  0.45917513998E+03 -0.53271530496E+03 -0.80810966166E+03  0.10712929714E+04  0.00000000000E+00 0. -1.
          3    1    5    5  503    0  0.15737065778E+03 -0.26640788255E+03  0.12610106858E+03  0.33412596923E+03  0.00000000000E+00 0. -1.
         -4    1    5    5    0  503  0.39282385533E+02 -0.34769343907E+02  0.57792540270E+02  0.78051206267E+02  0.00000000000E+00 0.  1.
         -3    1    6    6    0  502  0.12194520658E+03 -0.12041345281E+03 -0.14483466279E+03  0.22438162262E+03  0.00000000000E+00 0.  1.
<mgrwt>
<rscale>  0 0.27766866E+04</rscale>
<asrwt>0</asrwt>
<pdfrwt beam="1">  1        3 0.31370833E+00 0.27766866E+04</pdfrwt>
<pdfrwt beam="2">  1       -3 0.14542564E+00 0.27766866E+04</pdfrwt>
<totfact> 0.25746394E-02</totfact>
</mgrwt>
</event>
<event>
12    1  0.2048318E-007  0.1615836E+04  0.7818608E-02  0.8810878E-01
          2   -1    0    0  501    0  0.00000000000E+00  0.00000000000E+00  0.22744642364E+04  0.22744642364E+04  0.00000000000E+00 0. -1.
         -2   -1    0    0    0  501 -0.00000000000E+00 -0.00000000000E+00 -0.28698241463E+03  0.28698241463E+03  0.00000000000E+00 0.  1.
         23    2    1    2    0    0  0.53718507871E+03  0.36321459008E+02  0.49319783187E+03  0.73571917594E+03  0.90285919751E+02 0.  0.
        254    2    1    2    0    0 -0.53718507871E+03 -0.36321459008E+02  0.14942839899E+04  0.18257274751E+04  0.90028279649E+03 0.  0.
        -24    2    4    4    0    0 -0.46953410312E+03 -0.42635411379E+03  0.10041698079E+04  0.11903531414E+04  0.79646054179E+02 0.  0.
         24    2    4    4    0    0 -0.67650975600E+02  0.39003265479E+03  0.49011418205E+03  0.63537433367E+03  0.82380253380E+02 0.  0.
         11    1    3    3    0    0  0.41565001572E+03 -0.98369227554E+01  0.36811390141E+03  0.55531031417E+03  0.00000000000E+00 0. -1.
        -11    1    3    3    0    0  0.12153506300E+03  0.46158381763E+02  0.12508393046E+03  0.18040886177E+03  0.00000000000E+00 0.  1.
          4    1    6    6  502    0 -0.10989684795E+00 -0.42410792736E+01  0.65115746074E+01  0.77717073150E+01  0.00000000000E+00 0. -1.
          3    1    5    5  503    0 -0.40809196294E+03 -0.37785009305E+03  0.82645234361E+03  0.99615923390E+03  0.00000000000E+00 0. -1.
         -4    1    5    5    0  503 -0.61442140170E+02 -0.48504020741E+02  0.17771746428E+03  0.19419390754E+03  0.00000000000E+00 0.  1.
         -1    1    6    6    0  502 -0.67541078752E+02  0.39427373406E+03  0.48360260744E+03  0.62760262636E+03  0.00000000000E+00 0.  1.
<mgrwt>
<rscale>  0 0.16158357E+04</rscale>
<asrwt>0</asrwt>
<pdfrwt beam="1">  1        2 0.34991756E+00 0.16158357E+04</pdfrwt>
<pdfrwt beam="2">  1       -2 0.44151142E-01 0.16158357E+04</pdfrwt>
<totfact> 0.21862338E+01</totfact>
</mgrwt>
</event>
<event>
12    1  0.2048318E-007  0.2109796E+04  0.7818608E-02  0.8556940E-01
         -1   -1    0    0    0  501 -0.00000000000E+00  0.00000000000E+00  0.12450038798E+04  0.12450038798E+04  0.00000000000E+00 0.  1.
          1   -1    0    0  501    0  0.00000000000E+00 -0.00000000000E+00 -0.89382054173E+03  0.89382054173E+03  0.00000000000E+00 0. -1.
         23    2    1    2    0    0 -0.24475889009E+03  0.64205125340E+03  0.67348540442E+03  0.96641044817E+03  0.90718455102E+02 0.  0.
        254    2    1    2    0    0  0.24475889009E+03 -0.64205125340E+03 -0.32230206633E+03  0.11724139734E+04  0.89361019284E+03 0.  0.
        -24    2    4    4    0    0  0.73045954894E+02 -0.33350926198E+03 -0.61393511795E+03  0.70702526128E+03  0.80026568606E+02 0.  0.
         24    2    4    4    0    0  0.17171293520E+03 -0.30854199142E+03  0.29163305162E+03  0.46538871210E+03  0.82784805209E+02 0.  0.
         13    1    3    3    0    0 -0.11781315036E+03  0.32003189361E+03  0.27127155682E+03  0.43576210123E+03  0.00000000000E+00 0.  1.
        -13    1    3    3    0    0 -0.12694573973E+03  0.32201935979E+03  0.40221384759E+03  0.53064834694E+03  0.00000000000E+00 0. -1.
          2    1    6    6  502    0 -0.34173388659E+01 -0.51631428571E+02  0.42928236407E+02  0.67233296083E+02  0.00000000000E+00 0. -1.
          1    1    5    5  503    0  0.21369921105E+01 -0.13004976378E+02 -0.30421235719E+01  0.13525925539E+02  0.00000000000E+00 0. -1.
         -2    1    5    5    0  503  0.70908962783E+02 -0.32050428560E+03 -0.61089299438E+03  0.69349933574E+03  0.00000000000E+00 0.  1.
         -1    1    6    6    0  502  0.17513027406E+03 -0.25691056285E+03  0.24870481521E+03  0.39815541602E+03  0.00000000000E+00 0.  1.
<mgrwt>
<rscale>  0 0.21097962E+04</rscale>
<asrwt>0</asrwt>
<pdfrwt beam="1">  1        1 0.13751085E+00 0.21097962E+04</pdfrwt>
<pdfrwt beam="2">  1       -1 0.19153906E+00 0.21097962E+04</pdfrwt>
<totfact> 0.29158042E+00</totfact>
</mgrwt>
</event>
<event>
12    1  0.2048318E-007  0.2167048E+04  0.7818608E-02  0.8532270E-01
         -1   -1    0    0    0  501 -0.00000000000E+00  0.00000000000E+00  0.10120228207E+04  0.10120228207E+04  0.00000000000E+00 0.  1.
          1   -1    0    0  501    0  0.00000000000E+00 -0.00000000000E+00 -0.11600770358E+04  0.11600770358E+04  0.00000000000E+00 0. -1.
         23    2    1    2    0    0  0.20605221695E+03 -0.57662209678E+03 -0.71374502495E+03  0.94480553250E+03  0.90966889610E+02 0.  0.
        254    2    1    2    0    0 -0.20605221695E+03  0.57662209678E+03  0.56569080992E+03  0.12272943240E+04  0.90071899432E+03 0.  0.
        -24    2    4    4    0    0 -0.45121889761E+03  0.54173809383E+01  0.30164110974E+03  0.54725879852E+03  0.69835463057E+02 0.  0.
         24    2    4    4    0    0  0.24516668066E+03  0.57120471584E+03  0.26404970018E+03  0.68003552549E+03  0.79652640003E+02 0.  0.
         13    1    3    3    0    0  0.98820300707E+02 -0.35316003168E+03 -0.36930184998E+03  0.52045299135E+03  0.00000000000E+00 0. -1.
        -13    1    3    3    0    0  0.10723191624E+03 -0.22346206510E+03 -0.34444317497E+03  0.42435254115E+03  0.00000000000E+00 0.  1.
          4    1    6    6  502    0  0.15971021629E+03  0.27598231842E+03  0.12123464668E+03  0.34113257368E+03  0.00000000000E+00 0. -1.
          3    1    5    5  503    0 -0.10949321416E+03  0.29636885397E+02  0.63033124002E+02  0.12977011846E+03  0.00000000000E+00 0. -1.
         -4    1    5    5    0  503 -0.34172568345E+03 -0.24219504459E+02  0.23860798574E+03  0.41748868006E+03  0.00000000000E+00 0.  1.
         -3    1    6    6    0  502  0.85456464368E+02  0.29522239742E+03  0.14281505349E+03  0.33890295181E+03  0.00000000000E+00 0.  1.
<mgrwt>
<rscale>  0 0.21670482E+04</rscale>
<asrwt>0</asrwt>
<pdfrwt beam="1">  1        1 0.17847339E+00 0.21670482E+04</pdfrwt>
<pdfrwt beam="2">  1       -1 0.15569582E+00 0.21670482E+04</pdfrwt>
<totfact> 0.32956893E+00</totfact>
</mgrwt>
</event>
<event>
12    1  0.2048318E-007  0.3594624E+04  0.7818608E-02  0.8091724E-01
          1   -1    0    0  501    0  0.00000000000E+00  0.00000000000E+00  0.21026061154E+04  0.21026061154E+04  0.00000000000E+00 0. -1.
         -1   -1    0    0    0  501 -0.00000000000E+00 -0.00000000000E+00 -0.15363456698E+04  0.15363456698E+04  0.00000000000E+00 0.  1.
         23    2    1    2    0    0 -0.75921943348E+03 -0.11768138647E+04  0.12096693409E+04  0.18528459386E+04  0.91832115074E+02 0.  0.
        254    2    1    2    0    0  0.75921943348E+03  0.11768138647E+04 -0.64340889533E+03  0.17861058467E+04  0.90271483237E+03 0.  0.
        -24    2    4    4    0    0  0.28079530142E+03  0.10270686796E+04 -0.15029342074E+03  0.10784612922E+04  0.82307790695E+02 0.  0.
         24    2    4    4    0    0  0.47842413206E+03  0.14974518512E+03 -0.49311547459E+03  0.70764455453E+03  0.79275933762E+02 0.  0.
         13    1    3    3    0    0 -0.41617696656E+03 -0.72809878161E+03  0.72075624537E+03  0.11058122212E+04  0.00000000000E+00 0. -1.
        -13    1    3    3    0    0 -0.34304246692E+03 -0.44871508313E+03  0.48891309555E+03  0.74703371740E+03  0.00000000000E+00 0.  1.
          2    1    6    6  502    0  0.22071592415E+02 -0.85057228758E+01 -0.32622161002E+02  0.40295259049E+02  0.00000000000E+00 0. -1.
          3    1    5    5  503    0  0.82454536281E+02  0.18447140233E+03 -0.37616826233E+02  0.20553217375E+03  0.00000000000E+00 0. -1.
         -4    1    5    5    0  503  0.19834076514E+03  0.84259727730E+03 -0.11267659451E+03  0.87292911841E+03  0.00000000000E+00 0.  1.
         -1    1    6    6    0  502  0.45635253964E+03  0.15825090799E+03 -0.46049331359E+03  0.66734929548E+03  0.00000000000E+00 0.  1.
<mgrwt>
<rscale>  0 0.35946237E+04</rscale>
<asrwt>0</asrwt>
<pdfrwt beam="1">  1        1 0.32347786E+00 0.35946237E+04</pdfrwt>
<pdfrwt beam="2">  1       -1 0.23636087E+00 0.35946237E+04</pdfrwt>
<totfact> 0.17601828E-01</totfact>
</mgrwt>
</event>
<event>
12    1  0.2048318E-007  0.1364616E+04  0.7818608E-02  0.8979837E-01
          1   -1    0    0  501    0  0.00000000000E+00  0.00000000000E+00  0.55022857036E+03  0.55022857036E+03  0.00000000000E+00 0. -1.
         -1   -1    0    0    0  501 -0.00000000000E+00 -0.00000000000E+00 -0.84609271203E+03  0.84609271203E+03  0.00000000000E+00 0.  1.
         23    2    1    2    0    0  0.27201880466E+03  0.11820265429E+03 -0.32149610534E+03  0.44654093666E+03  0.89849678863E+02 0.  0.
        254    2    1    2    0    0 -0.27201880466E+03 -0.11820265429E+03  0.25631963673E+02  0.94978034573E+03  0.90191995765E+03 0.  0.
        -24    2    4    4    0    0 -0.45768687732E+03  0.16302629769E+03 -0.20427982948E+03  0.53296199007E+03  0.79141535954E+02 0.  0.
         24    2    4    4    0    0  0.18566807266E+03 -0.28122895198E+03  0.22991179316E+03  0.41681835566E+03  0.85532171389E+02 0.  0.
         11    1    3    3    0    0  0.60581020385E+02  0.53360460604E+02 -0.44820504619E+02  0.92337838512E+02  0.00000000000E+00 0. -1.
        -11    1    3    3    0    0  0.21143778427E+03  0.64842193686E+02 -0.27667560072E+03  0.35420309814E+03  0.00000000000E+00 0.  1.
          4    1    6    6  502    0  0.78094506939E+02 -0.11740785268E+03  0.14796021046E+03  0.20439075264E+03  0.00000000000E+00 0. -1.
          1    1    5    5  503    0 -0.26169629240E+03  0.91132072743E+02 -0.15851238788E+03  0.31924313814E+03  0.00000000000E+00 0. -1.
         -4    1    5    5    0  503 -0.19599058493E+03  0.71894224947E+02 -0.45767441607E+02  0.21371885193E+03  0.00000000000E+00 0.  1.
         -3    1    6    6    0  502  0.10757356573E+03 -0.16382109930E+03  0.81951582703E+02  0.21242760302E+03  0.00000000000E+00 0.  1.
<mgrwt>
<rscale>  0 0.13646163E+04</rscale>
<asrwt>0</asrwt>
<pdfrwt beam="1">  1        1 0.84650550E-01 0.13646163E+04</pdfrwt>
<pdfrwt beam="2">  1       -1 0.13016811E+00 0.13646163E+04</pdfrwt>
<totfact> 0.19165771E+01</totfact>
</mgrwt>
</event>
<event>
12    1  0.2048318E-007  0.1467229E+04  0.7818608E-02  0.8906543E-01
          1   -1    0    0  501    0  0.00000000000E+00  0.00000000000E+00  0.43494704786E+03  0.43494704786E+03  0.00000000000E+00 0. -1.
         -1   -1    0    0    0  501 -0.00000000000E+00 -0.00000000000E+00 -0.12373693943E+04  0.12373693943E+04  0.00000000000E+00 0.  1.
         23    2    1    2    0    0  0.37349878551E+03 -0.12439568597E+03 -0.52729088724E+03  0.66390824799E+03  0.88107051486E+02 0.  0.
        254    2    1    2    0    0 -0.37349878551E+03  0.12439568597E+03 -0.27513145921E+03  0.10084081942E+04  0.88668716962E+03 0.  0.
        -24    2    4    4    0    0 -0.57851692916E+03  0.19485948087E+03  0.40995080480E+02  0.61707735612E+03  0.80323173491E+02 0.  0.
         24    2    4    4    0    0  0.20501814365E+03 -0.70463794897E+02 -0.31612653969E+03  0.39133083806E+03  0.78779756929E+02 0.  0.
         13    1    3    3    0    0  0.76183402310E+02 -0.40578215438E+02 -0.65631029231E+02  0.10843400921E+03  0.00000000000E+00 0. -1.
        -13    1    3    3    0    0  0.29731538320E+03 -0.83817470531E+02 -0.46165985801E+03  0.55547423878E+03  0.00000000000E+00 0.  1.
          4    1    6    6  502    0 -0.24740059040E+01 -0.45546161879E+01 -0.36900651325E+02  0.37262894440E+02  0.00000000000E+00 0. -1.
          1    1    5    5  503    0 -0.12832161078E+03  0.36139805270E+02  0.41828491370E+02  0.13972166621E+03  0.00000000000E+00 0. -1.
         -2    1    5    5    0  503 -0.45019531838E+03  0.15871967560E+03 -0.83341088904E+00  0.47735568990E+03  0.00000000000E+00 0.  1.
         -3    1    6    6    0  502  0.20749214955E+03 -0.65909178709E+02 -0.27922588837E+03  0.35406794362E+03  0.00000000000E+00 0.  1.
<mgrwt>
<rscale>  0 0.14672289E+04</rscale>
<asrwt>0</asrwt>
<pdfrwt beam="1">  1        1 0.66914931E-01 0.14672289E+04</pdfrwt>
<pdfrwt beam="2">  1       -1 0.19036452E+00 0.14672289E+04</pdfrwt>
<totfact> 0.91334528E+00</totfact>
</mgrwt>
</event>
<event>
12    1  0.2048318E-007  0.3190698E+04  0.7818608E-02  0.8191278E-01
          2   -1    0    0  501    0  0.00000000000E+00  0.00000000000E+00  0.14324697899E+04  0.14324697899E+04  0.00000000000E+00 0.  1.
         -2   -1    0    0    0  501 -0.00000000000E+00 -0.00000000000E+00 -0.17767485605E+04  0.17767485605E+04  0.00000000000E+00 0. -1.
         23    2    1    2    0    0 -0.50080876595E+03  0.13587618697E+04 -0.38627396293E+03  0.15016044190E+04  0.92547383845E+02 0.  0.
        254    2    1    2    0    0  0.50080876595E+03 -0.13587618697E+04  0.41995192418E+02  0.17076139314E+04  0.90395713605E+03 0.  0.
        -24    2    4    4    0    0  0.33131232238E+03 -0.13133423368E+04  0.29636387213E+03  0.13891046611E+04  0.84523761167E+02 0.  0.
         24    2    4    4    0    0  0.16949644357E+03 -0.45419532878E+02 -0.25436867971E+03  0.31850927024E+03  0.77154077431E+02 0.  0.
         13    1    3    3    0    0 -0.15236296086E+03  0.48679180165E+03 -0.98678669314E+02  0.51953653363E+03  0.00000000000E+00 0. -1.
        -13    1    3    3    0    0 -0.34844580509E+03  0.87197006804E+03 -0.28759529361E+03  0.98206788541E+03  0.00000000000E+00 0.  1.
          2    1    6    6  502    0  0.20254495748E+02 -0.36626593755E+02 -0.63666865109E+02  0.76192005361E+02  0.00000000000E+00 0. -1.
          3    1    5    5  503    0  0.26901474827E+03 -0.10325636147E+04  0.26751278626E+03  0.11000543823E+04  0.00000000000E+00 0. -1.
         -4    1    5    5    0  503  0.62297574102E+02 -0.28077872210E+03  0.28851085867E+02  0.28905027881E+03  0.00000000000E+00 0.  1.
         -1    1    6    6    0  502  0.14924194783E+03 -0.87929391228E+01 -0.19070181460E+03  0.24231726488E+03  0.00000000000E+00 0.  1.
<mgrwt>
<rscale>  0 0.31906981E+04</rscale>
<asrwt>0</asrwt>
<pdfrwt beam="1">  1        2 0.22037997E+00 0.31906981E+04</pdfrwt>
<pdfrwt beam="2">  1       -2 0.27334593E+00 0.31906981E+04</pdfrwt>
<totfact> 0.54026292E-01</totfact>
</mgrwt>
</event>
<event>
12    1  0.2048318E-007  0.1864132E+04  0.7818608E-02  0.8672919E-01
         -1   -1    0    0    0  501 -0.00000000000E+00  0.00000000000E+00  0.57192059421E+03  0.57192059421E+03  0.00000000000E+00 0.  1.
          1   -1    0    0  501    0  0.00000000000E+00 -0.00000000000E+00 -0.15189990296E+04  0.15189990296E+04  0.00000000000E+00 0. -1.
         23    2    1    2    0    0 -0.21940826487E+03  0.41256131178E+03 -0.96620141514E+03  0.10771263219E+04  0.91154353015E+02 0.  0.
        254    2    1    2    0    0  0.21940826487E+03 -0.41256131178E+03  0.19122979775E+02  0.10137933019E+04  0.89948004307E+03 0.  0.
        -24    2    4    4    0    0  0.26589655570E+03 -0.90083283618E+02  0.40717948399E+03  0.50125387020E+03  0.81512783613E+02 0.  0.
         24    2    4    4    0    0 -0.46488290823E+02 -0.32247802817E+03 -0.38805650422E+03  0.51253943167E+03  0.77172396062E+02 0.  0.
         13    1    3    3    0    0 -0.45467825382E+02  0.57983125882E+02 -0.92146246846E+02  0.11798430760E+03  0.00000000000E+00 0.  1.
        -13    1    3    3    0    0 -0.17394043949E+03  0.35457818590E+03 -0.87405516830E+03  0.95914201432E+03  0.00000000000E+00 0. -1.
          4    1    6    6  502    0 -0.59513229911E+02 -0.31315349776E+03 -0.37131912287E+03  0.48937187159E+03  0.00000000000E+00 0. -1.
          3    1    5    5  503    0  0.14667821261E+03 -0.12509482692E+02  0.24217326334E+03  0.28340584802E+03  0.00000000000E+00 0. -1.
         -4    1    5    5    0  503  0.11921834308E+03 -0.77573800926E+02  0.16500622065E+03  0.21784802219E+03  0.00000000000E+00 0.  1.
         -3    1    6    6    0  502  0.13024939087E+02 -0.93245304016E+01 -0.16737381349E+02  0.23167560076E+02  0.00000000000E+00 0.  1.
<mgrwt>
<rscale>  0 0.18641318E+04</rscale>
<asrwt>0</asrwt>
<pdfrwt beam="1">  1        1 0.23369215E+00 0.18641318E+04</pdfrwt>
<pdfrwt beam="2">  1       -1 0.87987787E-01 0.18641318E+04</pdfrwt>
<totfact> 0.75612151E+00</totfact>
</mgrwt>
</event>
<event>
12    1  0.2048318E-007  0.1422720E+04  0.7818608E-02  0.8937535E-01
          2   -1    0    0  501    0  0.00000000000E+00  0.00000000000E+00  0.28879430303E+04  0.28879430303E+04  0.00000000000E+00 0. -1.
         -2   -1    0    0    0  501 -0.00000000000E+00 -0.00000000000E+00 -0.17522266973E+03  0.17522266973E+03  0.00000000000E+00 0.  1.
         23    2    1    2    0    0 -0.18750952098E+03  0.25445344340E+03  0.22540410301E+03  0.39867000879E+03  0.90688427816E+02 0.  0.
        254    2    1    2    0    0  0.18750952098E+03 -0.25445344340E+03  0.24873162575E+04  0.26644956912E+04  0.90160343179E+03 0.  0.
        -24    2    4    4    0    0  0.17131470940E+03  0.27055400181E+03  0.15678682678E+04  0.16021720200E+04  0.78715176380E+02 0.  0.
         24    2    4    4    0    0  0.16194811575E+02 -0.52500744521E+03  0.91944798979E+03  0.10623236713E+04  0.85158012761E+02 0.  0.
         13    1    3    3    0    0 -0.12855759121E+03  0.12465666601E+03  0.83701403470E+02  0.19766705235E+03  0.00000000000E+00 0.  1.
        -13    1    3    3    0    0 -0.58951929766E+02  0.12979677739E+03  0.14170269954E+03  0.20100295645E+03  0.00000000000E+00 0. -1.
          2    1    6    6  502    0  0.48294549940E+02 -0.21248360055E+03  0.38333417731E+03  0.44093847139E+03  0.00000000000E+00 0. -1.
          1    1    5    5  503    0  0.15335248171E+02  0.85618879690E+02  0.36574219272E+03  0.37594296633E+03  0.00000000000E+00 0. -1.
         -2    1    5    5    0  503  0.15597946123E+03  0.18493512212E+03  0.12021260750E+04  0.12262290536E+04  0.00000000000E+00 0.  1.
         -1    1    6    6    0  502 -0.32099738365E+02 -0.31252384467E+03  0.53611381247E+03  0.62138519986E+03  0.00000000000E+00 0.  1.
<mgrwt>
<rscale>  0 0.14227201E+04</rscale>
<asrwt>0</asrwt>
<pdfrwt beam="1">  1        2 0.44429889E+00 0.14227201E+04</pdfrwt>
<pdfrwt beam="2">  1       -2 0.26957336E-01 0.14227201E+04</pdfrwt>
<totfact> 0.25008422E+01</totfact>
</mgrwt>
</event>
<event>
12    1  0.2048318E-007  0.1782634E+04  0.7818608E-02  0.8715589E-01
         -1   -1    0    0    0  501 -0.00000000000E+00  0.00000000000E+00  0.33231626311E+03  0.33231626311E+03  0.00000000000E+00 0.  1.
          1   -1    0    0  501    0  0.00000000000E+00 -0.00000000000E+00 -0.23906327057E+04  0.23906327057E+04  0.00000000000E+00 0. -1.
         23    2    1    2    0    0  0.24085601195E+03 -0.59437356669E+03 -0.99646099398E+03  0.11898059366E+04  0.10682742555E+03 0.  0.
        254    2    1    2    0    0 -0.24085601195E+03  0.59437356669E+03 -0.10618554487E+04  0.15331430323E+04  0.90094339910E+03 0.  0.
        -24    2    4    4    0    0  0.12604964740E+03  0.69921897302E+03 -0.73346190950E+03  0.10241242427E+04  0.77899973574E+02 0.  0.
         24    2    4    4    0    0 -0.36690565935E+03 -0.10484540633E+03 -0.32839353916E+03  0.50901878964E+03  0.75136472894E+02 0.  0.
         13    1    3    3    0    0  0.87755915845E+02 -0.26237714222E+03 -0.33934277936E+03  0.43783146007E+03  0.00000000000E+00 0.  1.
        -13    1    3    3    0    0  0.15310009610E+03 -0.33199642448E+03 -0.65711821462E+03  0.75197447648E+03  0.00000000000E+00 0. -1.
          2    1    6    6  502    0 -0.86931530466E+02  0.92358515040E+00 -0.10022688636E+03  0.13267770253E+03  0.00000000000E+00 0. -1.
          1    1    5    5  503    0  0.13853309484E+02  0.68066402880E+02 -0.41762712552E+02  0.81049821372E+02  0.00000000000E+00 0. -1.
         -2    1    5    5    0  503  0.11219633792E+03  0.63115257014E+03 -0.69169919694E+03  0.94307442129E+03  0.00000000000E+00 0.  1.
         -1    1    6    6    0  502 -0.27997412888E+03 -0.10576899148E+03 -0.22816665280E+03  0.37634108711E+03  0.00000000000E+00 0.  1.
<mgrwt>
<rscale>  0 0.17826341E+04</rscale>
<asrwt>0</asrwt>
<pdfrwt beam="1">  1        1 0.36778965E+00 0.17826341E+04</pdfrwt>
<pdfrwt beam="2">  1       -1 0.51125579E-01 0.17826341E+04</pdfrwt>
<totfact> 0.58666961E+00</totfact>
</mgrwt>
</event>
<event>
12    1  0.2048318E-007  0.2246783E+04  0.7818608E-02  0.8499204E-01
          2   -1    0    0  501    0  0.00000000000E+00  0.00000000000E+00  0.22895962656E+04  0.22895962656E+04  0.00000000000E+00 0. -1.
         -2   -1    0    0    0  501 -0.00000000000E+00 -0.00000000000E+00 -0.55119254470E+03  0.55119254470E+03  0.00000000000E+00 0.  1.
         23    2    1    2    0    0  0.43958668537E+03  0.73148426836E+03  0.12294004554E+04  0.14991972641E+04  0.88663793430E+02 0.  0.
        254    2    1    2    0    0 -0.43958668537E+03 -0.73148426836E+03  0.50900326553E+03  0.13415915462E+04  0.90137553975E+03 0.  0.
        -24    2    4    4    0    0 -0.21617668882E+03  0.11425115237E+02 -0.18642533709E+03  0.29675622588E+03  0.80292946369E+02 0.  0.
         24    2    4    4    0    0 -0.22340999654E+03 -0.74290938360E+03  0.69542860263E+03  0.10448353203E+04  0.78952684727E+02 0.  0.
         11    1    3    3    0    0  0.35987425543E+03  0.57602309983E+03  0.10335851252E+04  0.12367741517E+04  0.00000000000E+00 0. -1.
        -11    1    3    3    0    0  0.79712429931E+02  0.15546116853E+03  0.19581533020E+03  0.26242311245E+03  0.00000000000E+00 0.  1.
          4    1    6    6  502    0 -0.96261771438E+02 -0.45424908892E+03  0.41802226516E+03  0.62478090367E+03  0.00000000000E+00 0. -1.
          1    1    5    5  503    0 -0.10037166183E+03  0.37670568567E+02 -0.58166762980E+02  0.12197095782E+03  0.00000000000E+00 0. -1.
         -2    1    5    5    0  503 -0.11580502699E+03 -0.26245453330E+02 -0.12825857411E+03  0.17478526806E+03  0.00000000000E+00 0.  1.
         -3    1    6    6    0  502 -0.12714822510E+03 -0.28866029468E+03  0.27740633747E+03  0.42005441664E+03  0.00000000000E+00 0.  1.
<mgrwt>
<rscale>  0 0.22467829E+04</rscale>
<asrwt>0</asrwt>
<pdfrwt beam="1">  1        2 0.35224557E+00 0.22467829E+04</pdfrwt>
<pdfrwt beam="2">  1       -2 0.84798854E-01 0.22467829E+04</pdfrwt>
<totfact> 0.50687753E+00</totfact>
</mgrwt>
</event>
<event>
12    1  0.2048318E-007  0.2174294E+04  0.7818608E-02  0.8529205E-01
          2   -1    0    0  501    0  0.00000000000E+00  0.00000000000E+00  0.19321691771E+04  0.19321691771E+04  0.00000000000E+00 0. -1.
         -2   -1    0    0    0  501 -0.00000000000E+00 -0.00000000000E+00 -0.61168974147E+03  0.61168974147E+03  0.00000000000E+00 0.  1.
         23    2    1    2    0    0 -0.49598079514E+03  0.72528613456E+03  0.33678280091E+03  0.94653361979E+03  0.10230499634E+03 0.  0.
        254    2    1    2    0    0  0.49598079514E+03 -0.72528613456E+03  0.98369663475E+03  0.15973252988E+04  0.90097287134E+03 0.  0.
        -24    2    4    4    0    0  0.18804810007E+03 -0.60592710691E+03  0.10704578795E+04  0.12463842302E+04  0.71300986172E+02 0.  0.
         24    2    4    4    0    0  0.30793269507E+03 -0.11935902766E+03 -0.86761244728E+02  0.35094106866E+03  0.81012331822E+02 0.  0.
         11    1    3    3    0    0 -0.14829884065E+03  0.17989928138E+03  0.13296668622E+03  0.26839604547E+03  0.00000000000E+00 0. -1.
        -11    1    3    3    0    0 -0.34768195449E+03  0.54538685319E+03  0.20381611469E+03  0.67813757432E+03  0.00000000000E+00 0.  1.
          4    1    6    6  502    0  0.10664536217E+03 -0.59868553862E+02 -0.68689070873E+02  0.14026997352E+03  0.00000000000E+00 0. -1.
          3    1    5    5  503    0  0.18862562035E+02 -0.23613769906E+02  0.73794521711E+02  0.79743575354E+02  0.00000000000E+00 0. -1.
         -4    1    5    5    0  503  0.16918553803E+03 -0.58231333700E+03  0.99666335777E+03  0.11666406548E+04  0.00000000000E+00 0.  1.
         -3    1    6    6    0  502  0.20128733290E+03 -0.59490473794E+02 -0.18072173855E+02  0.21067109514E+03  0.00000000000E+00 0.  1.
<mgrwt>
<rscale>  0 0.21742935E+04</rscale>
<asrwt>0</asrwt>
<pdfrwt beam="1">  1        2 0.29725679E+00 0.21742935E+04</pdfrwt>
<pdfrwt beam="2">  1       -2 0.94106115E-01 0.21742935E+04</pdfrwt>
<totfact> 0.63597528E+00</totfact>
</mgrwt>
</event>
<event>
12    1  0.2048318E-007  0.2255950E+04  0.7818608E-02  0.8495495E-01
         -1   -1    0    0    0  501 -0.00000000000E+00  0.00000000000E+00  0.59528239854E+03  0.59528239854E+03  0.00000000000E+00 0.  1.
          1   -1    0    0  501    0  0.00000000000E+00 -0.00000000000E+00 -0.21373521811E+04  0.21373521811E+04  0.00000000000E+00 0. -1.
         23    2    1    2    0    0  0.45739574928E+03 -0.69859396311E+03 -0.11873351943E+04  0.14543981244E+04  0.90910086183E+02 0.  0.
        254    2    1    2    0    0 -0.45739574928E+03  0.69859396311E+03 -0.35473458822E+03  0.12782364552E+04  0.90044844976E+03 0.  0.
        -24    2    4    4    0    0  0.75948711159E+02  0.66903810212E+03 -0.28316095541E+03  0.73427355352E+03  0.74815345394E+02 0.  0.
         24    2    4    4    0    0 -0.53334446044E+03  0.29555860990E+02 -0.71573632804E+02  0.54396290173E+03  0.73776630057E+02 0.  0.
         13    1    3    3    0    0  0.25122722386E+03 -0.43375947082E+03 -0.64949296295E+03  0.82042885460E+03  0.00000000000E+00 0.  1.
        -13    1    3    3    0    0  0.20616852542E+03 -0.26483449229E+03 -0.53784223138E+03  0.63396926979E+03  0.00000000000E+00 0. -1.
          2    1    6    6  502    0 -0.43403218295E+03 -0.30961387648E+00 -0.41648579474E+02  0.43602595779E+03  0.00000000000E+00 0. -1.
          3    1    5    5  503    0  0.72728427004E+02  0.66695925258E+03 -0.28617530663E+03  0.72939726818E+03  0.00000000000E+00 0. -1.
         -2    1    5    5    0  503  0.32202841542E+01  0.20788495399E+01  0.30143512184E+01  0.48762853394E+01  0.00000000000E+00 0.  1.
         -1    1    6    6    0  502 -0.99312277492E+02  0.29865474866E+02 -0.29925053330E+02  0.10793694394E+03  0.00000000000E+00 0.  1.
<mgrwt>
<rscale>  0 0.22559505E+04</rscale>
<asrwt>0</asrwt>
<pdfrwt beam="1">  1        1 0.32882341E+00 0.22559505E+04</pdfrwt>
<pdfrwt beam="2">  1       -1 0.91581907E-01 0.22559505E+04</pdfrwt>
<totfact> 0.25340277E+00</totfact>
</mgrwt>
</event>
<event>
12    1  0.2048318E-007  0.1844758E+04  0.7818608E-02  0.8682853E-01
          1   -1    0    0  501    0  0.00000000000E+00  0.00000000000E+00  0.14337553721E+04  0.14337553721E+04  0.00000000000E+00 0. -1.
         -1   -1    0    0    0  501 -0.00000000000E+00 -0.00000000000E+00 -0.59339476431E+03  0.59339476431E+03  0.00000000000E+00 0.  1.
         23    2    1    2    0    0 -0.30006497261E+03 -0.11720618719E+02 -0.37316434125E+03  0.48783655632E+03  0.92501456280E+02 0.  0.
        254    2    1    2    0    0  0.30006497261E+03  0.11720618719E+02  0.12135249490E+04  0.15393135801E+04  0.89814649986E+03 0.  0.
        -24    2    4    4    0    0 -0.16229319027E+03  0.62849756886E+02 -0.42407001415E+02  0.19764792070E+03  0.83529487237E+02 0.  0.
         24    2    4    4    0    0  0.46235816288E+03 -0.51129138168E+02  0.12559319505E+04  0.13416656594E+04  0.79450725956E+02 0.  0.
         13    1    3    3    0    0 -0.19467535265E+03  0.31145706259E+02 -0.26953047498E+03  0.33393895383E+03  0.00000000000E+00 0.  1.
        -13    1    3    3    0    0 -0.10538961996E+03 -0.42866324978E+02 -0.10363386627E+03  0.15389760249E+03  0.00000000000E+00 0. -1.
          4    1    6    6  502    0  0.33758824308E+03 -0.48920967664E+01  0.94303891699E+03  0.10016547077E+04  0.00000000000E+00 0. -1.
          3    1    5    5  503    0 -0.74947722463E+02 -0.73066320094E+01 -0.40710610389E+02  0.85603164497E+02  0.00000000000E+00 0. -1.
         -4    1    5    5    0  503 -0.87345467810E+02  0.70156388896E+02 -0.16963910262E+01  0.11204475620E+03  0.00000000000E+00 0.  1.
         -3    1    6    6    0  502  0.12476991981E+03 -0.46237041401E+02  0.31289303347E+03  0.34001095171E+03  0.00000000000E+00 0.  1.
<mgrwt>
<rscale>  0 0.18447579E+04</rscale>
<asrwt>0</asrwt>
<pdfrwt beam="1">  1        1 0.22057775E+00 0.18447579E+04</pdfrwt>
<pdfrwt beam="2">  1       -1 0.91291503E-01 0.18447579E+04</pdfrwt>
<totfact> 0.80040177E+00</totfact>
</mgrwt>
</event>
<event>
12    1  0.2048318E-007  0.1432539E+04  0.7818608E-02  0.8930596E-01
          1   -1    0    0  501    0  0.00000000000E+00  0.00000000000E+00  0.28497614351E+03  0.28497614351E+03  0.00000000000E+00 0. -1.
         -1   -1    0    0    0  501 -0.00000000000E+00 -0.00000000000E+00 -0.18002976769E+04  0.18002976769E+04  0.00000000000E+00 0.  1.
         23    2    1    2    0    0  0.31302508623E+03  0.30274494329E+02 -0.87918353739E+03  0.93758000003E+03  0.84801617962E+02 0.  0.
        254    2    1    2    0    0 -0.31302508623E+03 -0.30274494329E+02 -0.63613799596E+03  0.11476938204E+04  0.90201347315E+03 0.  0.
        -24    2    4    4    0    0 -0.44091602717E+03 -0.89857728223E+01 -0.80431503014E+03  0.92068889168E+03  0.79105501933E+02 0.  0.
         24    2    4    4    0    0  0.12789094094E+03 -0.21288721507E+02  0.16817703418E+03  0.22700492867E+03  0.80239768055E+02 0.  0.
         11    1    3    3    0    0  0.17569546740E+03  0.60264742908E+00 -0.59757822195E+03  0.62287156926E+03  0.00000000000E+00 0.  1.
        -11    1    3    3    0    0  0.13732961883E+03  0.29671846900E+02 -0.28160531544E+03  0.31470843076E+03  0.00000000000E+00 0. -1.
          4    1    6    6  502    0  0.52706682585E+02 -0.45573380859E+02  0.10415834414E+03  0.12531515505E+03  0.00000000000E+00 0. -1.
          3    1    5    5  503    0 -0.97193179944E+02 -0.47593404205E+01 -0.25204232321E+03  0.27017494007E+03  0.00000000000E+00 0. -1.
         -4    1    5    5    0  503 -0.34372284722E+03 -0.42264324018E+01 -0.55227270693E+03  0.65051395162E+03  0.00000000000E+00 0.  1.
         -3    1    6    6    0  502  0.75184258350E+02  0.24284659353E+02  0.64018690041E+02  0.10168977362E+03  0.00000000000E+00 0.  1.
<mgrwt>
<rscale>  0 0.14325388E+04</rscale>
<asrwt>0</asrwt>
<pdfrwt beam="1">  1        1 0.43842484E-01 0.14325388E+04</pdfrwt>
<pdfrwt beam="2">  1       -1 0.27696887E+00 0.14325388E+04</pdfrwt>
<totfact> 0.42545364E+00</totfact>
</mgrwt>
</event>
<event>
12    1  0.2048318E-007  0.4773475E+04  0.7818608E-02  0.7864434E-01
          2   -1    0    0  501    0  0.00000000000E+00  0.00000000000E+00  0.27146295040E+04  0.27146295040E+04  0.00000000000E+00 0. -1.
         -2   -1    0    0    0  501 -0.00000000000E+00 -0.00000000000E+00 -0.20984504450E+04  0.20984504450E+04  0.00000000000E+00 0.  1.
         23    2    1    2    0    0  0.21144901536E+04  0.40921869305E+03 -0.52001963213E+03  0.22173280691E+04  0.87148149404E+02 0.  0.
        254    2    1    2    0    0 -0.21144901536E+04 -0.40921869305E+03  0.11361986911E+04  0.25957518798E+04  0.89913948173E+03 0.  0.
        -24    2    4    4    0    0 -0.10126876310E+04  0.15987984507E+02  0.97372640226E+02  0.10207930265E+04  0.82128667796E+02 0.  0.
         24    2    4    4    0    0 -0.11018025225E+04 -0.42520667756E+03  0.10388260509E+04  0.15749588534E+04  0.81032761816E+02 0.  0.
         13    1    3    3    0    0  0.13133068685E+04  0.28881935831E+03 -0.35016981374E+03  0.13895360560E+04  0.00000000000E+00 0.  1.
        -13    1    3    3    0    0  0.80118328506E+03  0.12039933474E+03 -0.16984981839E+03  0.82779201305E+03  0.00000000000E+00 0. -1.
          4    1    6    6  502    0 -0.55314666137E+03 -0.20358517906E+03  0.57089442018E+03  0.82057211329E+03  0.00000000000E+00 0. -1.
          1    1    5    5  503    0 -0.76109180565E+03  0.17541744459E+02  0.37777075383E+02  0.76223064544E+03  0.00000000000E+00 0. -1.
         -2    1    5    5    0  503 -0.25159582540E+03 -0.15537599524E+01  0.59595564843E+02  0.25856238102E+03  0.00000000000E+00 0.  1.
         -3    1    6    6    0  502 -0.54865586115E+03 -0.22162149849E+03  0.46793163074E+03  0.75438674009E+03  0.00000000000E+00 0.  1.
<mgrwt>
<rscale>  0 0.47734748E+04</rscale>
<asrwt>0</asrwt>
<pdfrwt beam="1">  1        2 0.41763531E+00 0.47734748E+04</pdfrwt>
<pdfrwt beam="2">  1       -2 0.32283853E+00 0.47734748E+04</pdfrwt>
<totfact> 0.44356664E-02</totfact>
</mgrwt>
</event>
<event>
12    1  0.2048318E-007  0.3200207E+04  0.7818608E-02  0.8188763E-01
         -1   -1    0    0    0  501 -0.00000000000E+00  0.00000000000E+00  0.10225108283E+04  0.10225108283E+04  0.00000000000E+00 0.  1.
          1   -1    0    0  501    0  0.00000000000E+00 -0.00000000000E+00 -0.25039641764E+04  0.25039641764E+04  0.00000000000E+00 0. -1.
         23    2    1    2    0    0  0.69798029379E+03  0.61547980807E+03  0.57406313139E+03  0.10972499246E+04  0.91744392216E+02 0.  0.
        254    2    1    2    0    0 -0.69798029379E+03 -0.61547980807E+03 -0.20555164795E+04  0.24292250802E+04  0.89999700436E+03 0.  0.
        -24    2    4    4    0    0 -0.33309237186E+03  0.80355158889E+02 -0.18190081514E+03  0.39603003710E+03  0.79651767009E+02 0.  0.
         24    2    4    4    0    0 -0.36488792193E+03 -0.69583496695E+03 -0.18736156644E+04  0.20331950431E+04  0.78210795369E+02 0.  0.
         13    1    3    3    0    0  0.43269109314E+03  0.34113305558E+03  0.29967863238E+03  0.62721657057E+03  0.00000000000E+00 0.  1.
        -13    1    3    3    0    0  0.26528920065E+03  0.27434675249E+03  0.27438449900E+03  0.47003335400E+03  0.00000000000E+00 0. -1.
          4    1    6    6  502    0 -0.25792969612E+03 -0.42166142246E+03 -0.11244405485E+04  0.12282884964E+04  0.00000000000E+00 0. -1.
          1    1    5    5  503    0 -0.17310121171E+03  0.81564605110E+02 -0.89266421614E+02  0.21115233442E+03  0.00000000000E+00 0. -1.
         -2    1    5    5    0  503 -0.15999116015E+03 -0.12094462203E+01 -0.92634393529E+02  0.18487770268E+03  0.00000000000E+00 0.  1.
         -3    1    6    6    0  502 -0.10695822581E+03 -0.27417354449E+03 -0.74917511588E+03  0.80490654664E+03  0.00000000000E+00 0.  1.
<mgrwt>
<rscale>  0 0.32002065E+04</rscale>
<asrwt>0</asrwt>
<pdfrwt beam="1">  1        1 0.38522525E+00 0.32002065E+04</pdfrwt>
<pdfrwt beam="2">  1       -1 0.15730936E+00 0.32002065E+04</pdfrwt>
<totfact> 0.34493115E-01</totfact>
</mgrwt>
</event>
<event>
12    1  0.2048318E-007  0.3964421E+04  0.7818608E-02  0.8011763E-01
         -1   -1    0    0    0  501 -0.00000000000E+00  0.00000000000E+00  0.11669229721E+04  0.11669229721E+04  0.00000000000E+00 0.  1.
          1   -1    0    0  501    0  0.00000000000E+00 -0.00000000000E+00 -0.33671112190E+04  0.33671112190E+04  0.00000000000E+00 0. -1.
         23    2    1    2    0    0 -0.17139204698E+04 -0.59818998750E+03 -0.48016225064E+03  0.18800839719E+04  0.93836649288E+02 0.  0.
        254    2    1    2    0    0  0.17139204698E+04  0.59818998750E+03 -0.17200259963E+04  0.26539502191E+04  0.88859872822E+03 0.  0.
        -24    2    4    4    0    0  0.54068569087E+03  0.81593158765E+02 -0.61127814679E+02  0.55593580929E+03  0.79558497097E+02 0.  0.
         24    2    4    4    0    0  0.11732347789E+04  0.51659682873E+03 -0.16588981816E+04  0.20980144098E+04  0.79806998353E+02 0.  0.
         13    1    3    3    0    0 -0.30852492456E+03 -0.81844964280E+02 -0.11158059814E+03  0.33813674325E+03  0.00000000000E+00 0.  1.
        -13    1    3    3    0    0 -0.14053955452E+04 -0.51634502322E+03 -0.36858165249E+03  0.15419472287E+04  0.00000000000E+00 0. -1.
          2    1    6    6  502    0  0.68897409315E+03  0.27207780189E+03 -0.91310373555E+03  0.11757848711E+04  0.00000000000E+00 0. -1.
          1    1    5    5  503    0  0.34999666226E+03  0.85448011504E+02 -0.20045982461E+02  0.36083357338E+03  0.00000000000E+00 0. -1.
         -2    1    5    5    0  503  0.19068902861E+03 -0.38548527392E+01 -0.41081832218E+02  0.19510223592E+03  0.00000000000E+00 0.  1.
         -1    1    6    6    0  502  0.48426068577E+03  0.24451902684E+03 -0.74579444607E+03  0.92222953871E+03  0.00000000000E+00 0.  1.
<mgrwt>
<rscale>  0 0.39644215E+04</rscale>
<asrwt>0</asrwt>
<pdfrwt beam="1">  1        1 0.51801710E+00 0.39644215E+04</pdfrwt>
<pdfrwt beam="2">  1       -1 0.17952662E+00 0.39644215E+04</pdfrwt>
<totfact> 0.52162172E-02</totfact>
</mgrwt>
</event>
<event>
12    1  0.2048318E-007  0.4432456E+04  0.7818608E-02  0.7922570E-01
         -1   -1    0    0    0  501 -0.00000000000E+00  0.00000000000E+00  0.18021919732E+04  0.18021919732E+04  0.00000000000E+00 0.  1.
          1   -1    0    0  501    0  0.00000000000E+00 -0.00000000000E+00 -0.27253847115E+04  0.27253847115E+04  0.00000000000E+00 0. -1.
         23    2    1    2    0    0 -0.18837448797E+04 -0.71975377941E+03  0.24060587760E+03  0.20328558796E+04  0.89841883465E+02 0.  0.
        254    2    1    2    0    0  0.18837448797E+04  0.71975377941E+03 -0.11637986159E+04  0.24947208052E+04  0.89591539939E+03 0.  0.
        -24    2    4    4    0    0 -0.83393237596E+02  0.30414461830E+02 -0.41891282633E+02  0.12613720531E+03  0.79222745704E+02 0.  0.
         24    2    4    4    0    0  0.19671381173E+04  0.68933931758E+03 -0.11219073333E+04  0.23685835999E+04  0.81799377034E+02 0.  0.
         11    1    3    3    0    0 -0.73371576472E+03 -0.30679416423E+03  0.13144202694E+03  0.80606357631E+03  0.00000000000E+00 0.  1.
        -11    1    3    3    0    0 -0.11500291150E+04 -0.41295961518E+03  0.10916385067E+03  0.12267923032E+04  0.00000000000E+00 0. -1.
          2    1    6    6  502    0  0.16900740624E+04  0.56293471176E+03 -0.96741584338E+03  0.20271011914E+04  0.00000000000E+00 0. -1.
          3    1    5    5  503    0 -0.86041288952E+02  0.25866602950E+02 -0.61988915957E+01  0.90058929650E+02  0.00000000000E+00 0. -1.
         -4    1    5    5    0  503  0.26480513568E+01  0.45478588801E+01 -0.35692391038E+02  0.36078275657E+02  0.00000000000E+00 0.  1.
         -1    1    6    6    0  502  0.27706405487E+03  0.12640460583E+03 -0.15449148989E+03  0.34148240851E+03  0.00000000000E+00 0.  1.
<mgrwt>
<rscale>  0 0.44324560E+04</rscale>
<asrwt>0</asrwt>
<pdfrwt beam="1">  1        1 0.41928996E+00 0.44324560E+04</pdfrwt>
<pdfrwt beam="2">  1       -1 0.27726030E+00 0.44324560E+04</pdfrwt>
<totfact> 0.32985366E-02</totfact>
</mgrwt>
</event>
<event>
12    1  0.2048318E-007  0.2362173E+04  0.7818608E-02  0.8453803E-01
         -1   -1    0    0    0  501 -0.00000000000E+00  0.00000000000E+00  0.10478206730E+04  0.10478206730E+04  0.00000000000E+00 0.  1.
          1   -1    0    0  501    0  0.00000000000E+00 -0.00000000000E+00 -0.13313012719E+04  0.13313012719E+04  0.00000000000E+00 0. -1.
         23    2    1    2    0    0  0.72922089496E+02 -0.94517987419E+03 -0.46548350989E+03  0.10600424449E+04  0.91282316751E+02 0.  0.
        254    2    1    2    0    0 -0.72922089496E+02  0.94517987419E+03  0.18200291099E+03  0.13190794999E+04  0.89897888838E+03 0.  0.
        -24    2    4    4    0    0  0.19039034817E+03  0.37026967431E+03 -0.30055312233E+03  0.51976008835E+03  0.80437887255E+02 0.  0.
         24    2    4    4    0    0 -0.26331243767E+03  0.57491019988E+03  0.48255603332E+03  0.79931941156E+03  0.78714793038E+02 0.  0.
         11    1    3    3    0    0  0.67385124083E+02 -0.60354076930E+03 -0.25445772388E+03  0.65844585837E+03  0.00000000000E+00 0. -1.
        -11    1    3    3    0    0  0.55369654128E+01 -0.34163910489E+03 -0.21102578600E+03  0.40159658656E+03  0.00000000000E+00 0.  1.
          2    1    6    6  502    0 -0.31754335252E+02  0.11978791974E+03  0.66500385781E+02  0.14064062298E+03  0.00000000000E+00 0. -1.
          1    1    5    5  503    0  0.31667766613E+02  0.60329321197E+02 -0.15814731998E+02  0.69946981254E+02  0.00000000000E+00 0. -1.
         -2    1    5    5    0  503  0.15872258156E+03  0.30994035312E+03 -0.28473839033E+03  0.44981310709E+03  0.00000000000E+00 0.  1.
         -1    1    6    6    0  502 -0.23155810242E+03  0.45512228014E+03  0.41605564754E+03  0.65867878858E+03  0.00000000000E+00 0.  1.
<mgrwt>
<rscale>  0 0.23621727E+04</rscale>
<asrwt>0</asrwt>
<pdfrwt beam="1">  1        1 0.20481558E+00 0.23621727E+04</pdfrwt>
<pdfrwt beam="2">  1       -1 0.16120318E+00 0.23621727E+04</pdfrwt>
<totfact> 0.22108083E+00</totfact>
</mgrwt>
</event>
<event>
12    1  0.2048318E-007  0.1236642E+04  0.7818608E-02  0.9081375E-01
         -2   -1    0    0    0  501 -0.00000000000E+00  0.00000000000E+00  0.12477264088E+03  0.12477264088E+03  0.00000000000E+00 0.  1.
          2   -1    0    0  501    0  0.00000000000E+00 -0.00000000000E+00 -0.30641409119E+04  0.30641409119E+04  0.00000000000E+00 0. -1.
         23    2    1    2    0    0 -0.27591608240E+03 -0.16704601300E+02 -0.62725517993E+03  0.69315338983E+03  0.10297491371E+03 0.  0.
        254    2    1    2    0    0  0.27591608240E+03  0.16704601300E+02 -0.23121130911E+04  0.24957601629E+04  0.89807745588E+03 0.  0.
        -24    2    4    4    0    0  0.53707704353E+02 -0.22296461461E+03 -0.10671144029E+03  0.26492353429E+03  0.78736336304E+02 0.  0.
         24    2    4    4    0    0  0.22220837804E+03  0.23966921591E+03 -0.22054016508E+04  0.22308366287E+04  0.77574004064E+02 0.  0.
         11    1    3    3    0    0 -0.11474993489E+03  0.43798470454E+02 -0.25904169730E+03  0.28668528827E+03  0.00000000000E+00 0.  1.
        -11    1    3    3    0    0 -0.16116614751E+03 -0.60503071755E+02 -0.36821348263E+03  0.40646810156E+03  0.00000000000E+00 0. -1.
          4    1    6    6  502    0  0.49482375056E+01  0.34992669398E+02 -0.16714362594E+03  0.17083899923E+03  0.00000000000E+00 0. -1.
          3    1    5    5  503    0  0.36683082118E+02 -0.14711867398E+03 -0.10967901615E+03  0.18713374717E+03  0.00000000000E+00 0. -1.
         -4    1    5    5    0  503  0.17024622235E+02 -0.75845940634E+02  0.29675758624E+01  0.77789787115E+02  0.00000000000E+00 0.  1.
         -3    1    6    6    0  502  0.21726014054E+03  0.20467654652E+03 -0.20382580249E+04  0.20599976294E+04  0.00000000000E+00 0.  1.
<mgrwt>
<rscale>  0 0.12366422E+04</rscale>
<asrwt>0</asrwt>
<pdfrwt beam="1">  1        2 0.47140624E+00 0.12366422E+04</pdfrwt>
<pdfrwt beam="2">  1       -2 0.19195793E-01 0.12366422E+04</pdfrwt>
<totfact> 0.36388224E+01</totfact>
</mgrwt>
</event>
<event>
12    1  0.2048318E-007  0.4526347E+04  0.7818608E-02  0.7906040E-01
         -2   -1    0    0    0  501 -0.00000000000E+00  0.00000000000E+00  0.17233749769E+04  0.17233749769E+04  0.00000000000E+00 0.  1.
          2   -1    0    0  501    0  0.00000000000E+00 -0.00000000000E+00 -0.29720484586E+04  0.29720484586E+04  0.00000000000E+00 0. -1.
         23    2    1    2    0    0  0.10028877190E+04  0.14507091215E+04 -0.19147104823E+04  0.26047900052E+04  0.92054374481E+02 0.  0.
        254    2    1    2    0    0 -0.10028877190E+04 -0.14507091215E+04  0.66603700065E+03  0.20906334304E+04  0.90377105618E+03 0.  0.
        -24    2    4    4    0    0 -0.57876066523E+03 -0.30269674782E+03 -0.67654334021E+02  0.66143155887E+03  0.79532191002E+02 0.  0.
         24    2    4    4    0    0 -0.42412705377E+03 -0.11480123736E+04  0.73369133467E+03  0.14292018715E+04  0.80615427715E+02 0.  0.
         13    1    3    3    0    0  0.47185302287E+03  0.60590751396E+03 -0.81280069941E+03  0.11182191948E+04  0.00000000000E+00 0. -1.
        -13    1    3    3    0    0  0.53103469613E+03  0.84480160751E+03 -0.11019097829E+04  0.14865708104E+04  0.00000000000E+00 0.  1.
          2    1    6    6  502    0 -0.29573788490E+03 -0.83945222102E+03  0.49398365630E+03  0.10179198302E+04  0.00000000000E+00 0. -1.
          1    1    5    5  503    0 -0.54572635363E+03 -0.28906964601E+03 -0.81892960867E+02  0.62296466218E+03  0.00000000000E+00 0. -1.
         -2    1    5    5    0  503 -0.33034311596E+02 -0.13627101817E+02  0.14238626846E+02  0.38466896691E+02  0.00000000000E+00 0.  1.
         -1    1    6    6    0  502 -0.12838916887E+03 -0.30856015263E+03  0.23970767836E+03  0.41128204135E+03  0.00000000000E+00 0.  1.
<mgrwt>
<rscale>  0 0.45263468E+04</rscale>
<asrwt>0</asrwt>
<pdfrwt beam="1">  1        2 0.45723823E+00 0.45263468E+04</pdfrwt>
<pdfrwt beam="2">  1       -2 0.26513461E+00 0.45263468E+04</pdfrwt>
<totfact> 0.71101516E-02</totfact>
</mgrwt>
</event>
<event>
12    1  0.2048318E-007  0.3021142E+04  0.7818608E-02  0.8237719E-01
          1   -1    0    0  501    0  0.00000000000E+00  0.00000000000E+00  0.29722655569E+04  0.29722655569E+04  0.00000000000E+00 0. -1.
         -1   -1    0    0    0  501 -0.00000000000E+00 -0.00000000000E+00 -0.76770544160E+03  0.76770544160E+03  0.00000000000E+00 0.  1.
         23    2    1    2    0    0  0.35704091293E+02  0.65828816338E+03 -0.48847214927E+03  0.82580886809E+03  0.93472765179E+02 0.  0.
        254    2    1    2    0    0 -0.35704091293E+02 -0.65828816338E+03  0.26930322646E+04  0.29141621304E+04  0.89738512138E+03 0.  0.
        -24    2    4    4    0    0  0.10199321424E+03 -0.83907624264E+03  0.23133359856E+04  0.24642102433E+04  0.79731952197E+02 0.  0.
         24    2    4    4    0    0 -0.13769730553E+03  0.18078807926E+03  0.37969627896E+03  0.44995188709E+03  0.81501895001E+02 0.  0.
         13    1    3    3    0    0  0.98516358628E+01  0.11595541905E+02 -0.26777251447E+02  0.30798255086E+02  0.00000000000E+00 0. -1.
        -13    1    3    3    0    0  0.25852455430E+02  0.64669262147E+03 -0.46169489782E+03  0.79501061301E+03  0.00000000000E+00 0.  1.
          4    1    6    6  502    0 -0.12051111295E+03  0.17374147249E+03  0.37545242050E+03  0.43089853524E+03  0.00000000000E+00 0. -1.
          3    1    5    5  503    0  0.10491610359E+03 -0.71109132356E+03  0.18958247308E+04  0.20275131736E+04  0.00000000000E+00 0. -1.
         -4    1    5    5    0  503 -0.29228893578E+01 -0.12798491908E+03  0.41751125482E+03  0.43669706971E+03  0.00000000000E+00 0.  1.
         -3    1    6    6    0  502 -0.17186192576E+02  0.70466067699E+01  0.42438584545E+01  0.19053351852E+02  0.00000000000E+00 0.  1.
<mgrwt>
<rscale>  0 0.30211418E+04</rscale>
<asrwt>0</asrwt>
<pdfrwt beam="1">  1        1 0.45727162E+00 0.30211418E+04</pdfrwt>
<pdfrwt beam="2">  1       -1 0.11810853E+00 0.30211418E+04</pdfrwt>
<totfact> 0.34214121E-01</totfact>
</mgrwt>
</event>
<event>
12    1  0.2048318E-007  0.3224735E+04  0.7818608E-02  0.8182315E-01
         -2   -1    0    0    0  501 -0.00000000000E+00  0.00000000000E+00  0.14272799375E+04  0.14272799375E+04  0.00000000000E+00 0.  1.
          2   -1    0    0  501    0  0.00000000000E+00 -0.00000000000E+00 -0.18214571866E+04  0.18214571866E+04  0.00000000000E+00 0. -1.
         23    2    1    2    0    0  0.76386582061E+03  0.52095806602E+03 -0.13530247416E+04  0.16412178276E+04  0.89619795991E+02 0.  0.
        254    2    1    2    0    0 -0.76386582061E+03 -0.52095806602E+03  0.95884749245E+03  0.16075192965E+04  0.89991192702E+03 0.  0.
        -24    2    4    4    0    0 -0.29523744877E+03  0.11616385801E+02  0.82616985015E+03  0.88120993396E+03  0.81695990277E+02 0.  0.
         24    2    4    4    0    0 -0.46862837184E+03 -0.53257445182E+03  0.13267764229E+03  0.72630936254E+03  0.81693547597E+02 0.  0.
         13    1    3    3    0    0  0.26153779288E+03  0.12998477219E+03 -0.44598319805E+03  0.53310324614E+03  0.00000000000E+00 0.  1.
        -13    1    3    3    0    0  0.50232802773E+03  0.39097329383E+03 -0.90704154354E+03  0.11081145815E+04  0.00000000000E+00 0. -1.
          2    1    6    6  502    0 -0.27886456195E+03 -0.28098299904E+03  0.10728812145E+03  0.41015561762E+03  0.00000000000E+00 0. -1.
          1    1    5    5  503    0  0.48677670610E+01  0.10259838408E+01  0.27621114005E+02  0.28065525791E+02  0.00000000000E+00 0. -1.
         -2    1    5    5    0  503 -0.30010521583E+03  0.10590401961E+02  0.79854873615E+03  0.85314440817E+03  0.00000000000E+00 0.  1.
         -1    1    6    6    0  502 -0.18976380990E+03 -0.25159145278E+03  0.25389520841E+02  0.31615374492E+03  0.00000000000E+00 0.  1.
<mgrwt>
<rscale>  0 0.32247352E+04</rscale>
<asrwt>0</asrwt>
<pdfrwt beam="1">  1        2 0.28022418E+00 0.32247352E+04</pdfrwt>
<pdfrwt beam="2">  1       -2 0.21958153E+00 0.32247352E+04</pdfrwt>
<totfact> 0.70161590E-01</totfact>
</mgrwt>
</event>
<event>
12    1  0.2048318E-007  0.2421685E+04  0.7818608E-02  0.8431429E-01
          2   -1    0    0  501    0  0.00000000000E+00  0.00000000000E+00  0.46110819091E+04  0.46110819091E+04  0.00000000000E+00 0. -1.
         -2   -1    0    0    0  501 -0.00000000000E+00 -0.00000000000E+00 -0.31796010860E+03  0.31796010860E+03  0.00000000000E+00 0.  1.
         23    2    1    2    0    0  0.91505192581E+02 -0.81625117200E+03  0.31541520726E+04  0.32606521290E+04  0.92400395339E+02 0.  0.
        254    2    1    2    0    0 -0.91505192581E+02  0.81625117200E+03  0.11389697279E+04  0.16683898887E+04  0.90090710044E+03 0.  0.
        -24    2    4    4    0    0 -0.18545995783E+03  0.91568351900E+03  0.61885534021E+03  0.11235561990E+04  0.80776836263E+02 0.  0.
         24    2    4    4    0    0  0.93954765253E+02 -0.99432346999E+02  0.52011438768E+03  0.54483368971E+03  0.87238085872E+02 0.  0.
         13    1    3    3    0    0  0.22887767547E+02 -0.33764260547E+03  0.14713600360E+04  0.15097770479E+04  0.00000000000E+00 0. -1.
        -13    1    3    3    0    0  0.68617425033E+02 -0.47860856653E+03  0.16827920366E+04  0.17508750811E+04  0.00000000000E+00 0.  1.
          4    1    6    6  502    0  0.46940971103E+02 -0.89452111227E+02  0.23644016979E+03  0.25711687782E+03  0.00000000000E+00 0. -1.
          1    1    5    5  503    0 -0.16322265666E+03  0.76944239997E+03  0.55377110728E+03  0.96194889769E+03  0.00000000000E+00 0. -1.
         -2    1    5    5    0  503 -0.22237301169E+02  0.14624111903E+03  0.65084232926E+02  0.16160730130E+03  0.00000000000E+00 0.  1.
         -3    1    6    6    0  502  0.47013794150E+02 -0.99802357726E+01  0.28367421789E+03  0.28771681189E+03  0.00000000000E+00 0.  1.
<mgrwt>
<rscale>  0 0.24216854E+04</rscale>
<asrwt>0</asrwt>
<pdfrwt beam="1">  1        2 0.70939717E+00 0.24216854E+04</pdfrwt>
<pdfrwt beam="2">  1       -2 0.48916943E-01 0.24216854E+04</pdfrwt>
<totfact> 0.34088761E-01</totfact>
</mgrwt>
</event>
<event>
12    1  0.2048318E-007  0.1217694E+04  0.7818608E-02  0.9097509E-01
         -1   -1    0    0    0  501 -0.00000000000E+00  0.00000000000E+00  0.33929835989E+03  0.33929835989E+03  0.00000000000E+00 0.  1.
          1   -1    0    0  501    0  0.00000000000E+00 -0.00000000000E+00 -0.10925321673E+04  0.10925321673E+04  0.00000000000E+00 0. -1.
         23    2    1    2    0    0 -0.25609348041E+03 -0.18489661657E+02 -0.25067548618E+03  0.37013763283E+03  0.90763040763E+02 0.  0.
        254    2    1    2    0    0  0.25609348041E+03  0.18489661657E+02 -0.50255832124E+03  0.10616928944E+04  0.89927815353E+03 0.  0.
        -24    2    4    4    0    0 -0.15612169924E+03  0.61351826091E+02 -0.60075903952E+03  0.62870950939E+03  0.78906223439E+02 0.  0.
         24    2    4    4    0    0  0.41221517965E+03 -0.42862164434E+02  0.98200718276E+02  0.43298338499E+03  0.77927601855E+02 0.  0.
         11    1    3    3    0    0 -0.21504962286E+03 -0.49756926901E+02 -0.20257603685E+03  0.29959830235E+03  0.00000000000E+00 0. -1.
        -11    1    3    3    0    0 -0.41043857558E+02  0.31267265244E+02 -0.48099449327E+02  0.70539330481E+02  0.00000000000E+00 0.  1.
          4    1    6    6  502    0  0.24621865341E+03 -0.30915316616E+02  0.97325713589E+02  0.26655520369E+03  0.00000000000E+00 0. -1.
          3    1    5    5  503    0 -0.14150652179E+03  0.69914308239E+02 -0.44753593369E+03  0.47455296664E+03  0.00000000000E+00 0. -1.
         -4    1    5    5    0  503 -0.14615177448E+02 -0.85624821482E+01 -0.15322310582E+03  0.15415654274E+03  0.00000000000E+00 0.  1.
         -3    1    6    6    0  502  0.16599652624E+03 -0.11946847818E+02  0.87500468684E+00  0.16642818130E+03  0.00000000000E+00 0.  1.
<mgrwt>
<rscale>  0 0.12176935E+04</rscale>
<asrwt>0</asrwt>
<pdfrwt beam="1">  1        1 0.16808187E+00 0.12176935E+04</pdfrwt>
<pdfrwt beam="2">  1       -1 0.52199747E-01 0.12176935E+04</pdfrwt>
<totfact> 0.46918377E+01</totfact>
</mgrwt>
</event>
<event>
12    1  0.2048318E-007  0.1249229E+04  0.7818608E-02  0.9070825E-01
         -1   -1    0    0    0  501 -0.00000000000E+00  0.00000000000E+00  0.12880021305E+04  0.12880021305E+04  0.00000000000E+00 0.  1.
          1   -1    0    0  501    0  0.00000000000E+00 -0.00000000000E+00 -0.30290582199E+03  0.30290582199E+03  0.00000000000E+00 0. -1.
         23    2    1    2    0    0  0.27956839498E+03  0.62523561434E+01  0.25332423713E+03  0.38804953065E+03  0.90618373943E+02 0.  0.
        254    2    1    2    0    0 -0.27956839498E+03 -0.62523561434E+01  0.73177207138E+03  0.12028584218E+04  0.91278718171E+03 0.  0.
        -24    2    4    4    0    0 -0.27928318207E+03 -0.41250957911E+03  0.23539717782E+03  0.55687968496E+03  0.80869670149E+02 0.  0.
         24    2    4    4    0    0 -0.28521290743E+00  0.40625722297E+03  0.49637489356E+03  0.64597873687E+03  0.76521114569E+02 0.  0.
         11    1    3    3    0    0  0.19885977276E+03  0.19128009328E+02  0.12421287890E+03  0.23524440322E+03  0.00000000000E+00 0. -1.
        -11    1    3    3    0    0  0.80708622217E+02 -0.12875653184E+02  0.12911135823E+03  0.15280512743E+03  0.00000000000E+00 0.  1.
          2    1    6    6  502    0  0.97418741113E+01  0.11845761576E+03  0.20060409833E+03  0.23317185746E+03  0.00000000000E+00 0. -1.
          1    1    5    5  503    0 -0.43728196331E+02 -0.11931956722E+03  0.78503735984E+02  0.14937252371E+03  0.00000000000E+00 0. -1.
         -2    1    5    5    0  503 -0.23555498574E+03 -0.29319001189E+03  0.15689344184E+03  0.40750716126E+03  0.00000000000E+00 0.  1.
         -3    1    6    6    0  502 -0.10027087019E+02  0.28779960720E+03  0.29577079523E+03  0.41280687942E+03  0.00000000000E+00 0.  1.
<mgrwt>
<rscale>  0 0.12492291E+04</rscale>
<asrwt>0</asrwt>
<pdfrwt beam="1">  1        1 0.46600896E-01 0.12492291E+04</pdfrwt>
<pdfrwt beam="2">  1       -1 0.19815417E+00 0.12492291E+04</pdfrwt>
<totfact> 0.13235680E+01</totfact>
</mgrwt>
</event>
<event>
12    1  0.2048318E-007  0.3371193E+04  0.7818608E-02  0.8145013E-01
          2   -1    0    0  501    0  0.00000000000E+00  0.00000000000E+00  0.11285141804E+04  0.11285141804E+04  0.00000000000E+00 0. -1.
         -2   -1    0    0    0  501 -0.00000000000E+00 -0.00000000000E+00 -0.25176775606E+04  0.25176775606E+04  0.00000000000E+00 0.  1.
         23    2    1    2    0    0 -0.13995870810E+04  0.67044258380E+03 -0.43648829910E+03  0.16146360175E+04  0.90499603387E+02 0.  0.
        254    2    1    2    0    0  0.13995870810E+04 -0.67044258380E+03 -0.95267508112E+03  0.20315557235E+04  0.90071726522E+03 0.  0.
        -24    2    4    4    0    0  0.82552126213E+03 -0.13489153034E+03 -0.63690528995E+02  0.84261250081E+03  0.79109189444E+02 0.  0.
         24    2    4    4    0    0  0.57406581889E+03 -0.53555105345E+03 -0.88898455213E+03  0.11889432227E+04  0.83222337887E+02 0.  0.
         11    1    3    3    0    0 -0.32996466161E+03  0.17437549399E+03 -0.68102957315E+02  0.37936987704E+03  0.00000000000E+00 0. -1.
        -11    1    3    3    0    0 -0.10696224194E+04  0.49606708980E+03 -0.36838534178E+03  0.12352661404E+04  0.00000000000E+00 0.  1.
          4    1    6    6  502    0  0.22891797270E+03 -0.17741179708E+03 -0.37337380169E+03  0.47253188227E+03  0.00000000000E+00 0. -1.
          3    1    5    5  503    0  0.12034664832E+03 -0.45596028932E+02  0.26114023465E+01  0.12872114449E+03  0.00000000000E+00 0. -1.
         -4    1    5    5    0  503  0.70517461381E+03 -0.89295501413E+02 -0.66301931342E+02  0.71389135632E+03  0.00000000000E+00 0.  1.
         -3    1    6    6    0  502  0.34514784619E+03 -0.35813925637E+03 -0.51561075043E+03  0.71641134040E+03  0.00000000000E+00 0.  1.
<mgrwt>
<rscale>  0 0.33711926E+04</rscale>
<asrwt>0</asrwt>
<pdfrwt beam="1">  1        2 0.17361756E+00 0.33711926E+04</pdfrwt>
<pdfrwt beam="2">  1       -2 0.38733501E+00 0.33711926E+04</pdfrwt>
<totfact> 0.15582957E-01</totfact>
</mgrwt>
</event>
<event>
12    1  0.2048318E-007  0.1943810E+04  0.7818608E-02  0.8633351E-01
          2   -1    0    0  501    0  0.00000000000E+00  0.00000000000E+00  0.88908696649E+03  0.88908696649E+03  0.00000000000E+00 0. -1.
         -2   -1    0    0    0  501 -0.00000000000E+00 -0.00000000000E+00 -0.10624377874E+04  0.10624377874E+04  0.00000000000E+00 0.  1.
         23    2    1    2    0    0  0.60892762205E+03 -0.43183897452E+03  0.74764280602E+02  0.75578820490E+03  0.91369383214E+02 0.  0.
        254    2    1    2    0    0 -0.60892762205E+03  0.43183897452E+03 -0.24811510151E+03  0.11957365490E+04  0.90052598085E+03 0.  0.
        -24    2    4    4    0    0 -0.28623444943E+03  0.47883021073E+03  0.23223175164E+03  0.60955068449E+03  0.80074463710E+02 0.  0.
         24    2    4    4    0    0 -0.32269317263E+03 -0.46991236209E+02 -0.48034685315E+03  0.58618586451E+03  0.80880828845E+02 0.  0.
         13    1    3    3    0    0  0.30507157847E+03 -0.20603102579E+03  0.81985946979E+02  0.37714605537E+03  0.00000000000E+00 0.  1.
        -13    1    3    3    0    0  0.30385604358E+03 -0.22580794873E+03 -0.72216663770E+01  0.37864214953E+03  0.00000000000E+00 0. -1.
          4    1    6    6  502    0 -0.20565397887E+03 -0.62000091617E+02 -0.34725747949E+03  0.40832012863E+03  0.00000000000E+00 0. -1.
          1    1    5    5  503    0 -0.71358110365E+02  0.15597669385E+03  0.37464397685E+02  0.17556847677E+03  0.00000000000E+00 0. -1.
         -2    1    5    5    0  503 -0.21487633906E+03  0.32285351688E+03  0.19476735396E+03  0.43398220772E+03  0.00000000000E+00 0.  1.
         -3    1    6    6    0  502 -0.11703919376E+03  0.15008855407E+02 -0.13308937366E+03  0.17786573587E+03  0.00000000000E+00 0.  1.
<mgrwt>
<rscale>  0 0.19438103E+04</rscale>
<asrwt>0</asrwt>
<pdfrwt beam="1">  1        2 0.13678261E+00 0.19438103E+04</pdfrwt>
<pdfrwt beam="2">  1       -2 0.16345197E+00 0.19438103E+04</pdfrwt>
<totfact> 0.66119157E+00</totfact>
</mgrwt>
</event>
<event>
12    1  0.2048318E-007  0.4915841E+04  0.7818608E-02  0.7841622E-01
          2   -1    0    0  501    0  0.00000000000E+00  0.00000000000E+00  0.19516948301E+04  0.19516948301E+04  0.00000000000E+00 0. -1.
         -2   -1    0    0    0  501 -0.00000000000E+00 -0.00000000000E+00 -0.30954500096E+04  0.30954500096E+04  0.00000000000E+00 0.  1.
         23    2    1    2    0    0 -0.10117717413E+04  0.11402564880E+04  0.13193006732E+04  0.20175796219E+04  0.78780385849E+02 0.  0.
        254    2    1    2    0    0  0.10117717413E+04 -0.11402564880E+04 -0.24630558527E+04  0.30295652179E+04  0.88755527197E+03 0.  0.
        -24    2    4    4    0    0  0.10639218608E+04 -0.62163666063E+03 -0.16609527179E+04  0.20696501552E+04  0.79535968015E+02 0.  0.
         24    2    4    4    0    0 -0.52150119508E+02 -0.51861982741E+03 -0.80210313485E+03  0.95991506268E+03  0.79883216497E+02 0.  0.
         13    1    3    3    0    0 -0.27091306365E+03  0.34932955751E+03  0.35528570977E+03  0.56714457008E+03  0.00000000000E+00 0. -1.
        -13    1    3    3    0    0 -0.74085867765E+03  0.79092693054E+03  0.96401496343E+03  0.14504350518E+04  0.00000000000E+00 0.  1.
          2    1    6    6  502    0 -0.70016351285E+01 -0.32498459367E+03 -0.44335100856E+03  0.54974914808E+03  0.00000000000E+00 0. -1.
          3    1    5    5  503    0  0.75106378208E+02 -0.38335890417E+02 -0.14932713539E+03  0.17149111320E+03  0.00000000000E+00 0. -1.
         -4    1    5    5    0  503  0.98881548259E+03 -0.58330077022E+03 -0.15116255825E+04  0.18981590420E+04  0.00000000000E+00 0.  1.
         -1    1    6    6    0  502 -0.45148484379E+02 -0.19363523374E+03 -0.35875212629E+03  0.41016591460E+03  0.00000000000E+00 0.  1.
<mgrwt>
<rscale>  0 0.49158412E+04</rscale>
<asrwt>0</asrwt>
<pdfrwt beam="1">  1        2 0.30026074E+00 0.49158412E+04</pdfrwt>
<pdfrwt beam="2">  1       -2 0.47622308E+00 0.49158412E+04</pdfrwt>
<totfact> 0.12220574E-02</totfact>
</mgrwt>
</event>
<event>
12    1  0.2048318E-007  0.2081390E+04  0.7818608E-02  0.8569486E-01
          2   -1    0    0  501    0  0.00000000000E+00  0.00000000000E+00  0.22023007664E+04  0.22023007664E+04  0.00000000000E+00 0. -1.
         -2   -1    0    0    0  501 -0.00000000000E+00 -0.00000000000E+00 -0.49177936327E+03  0.49177936327E+03  0.00000000000E+00 0.  1.
         23    2    1    2    0    0 -0.80216970130E+03  0.25920658204E+03  0.71661952800E+03  0.11102702837E+04  0.92153529905E+02 0.  0.
        254    2    1    2    0    0  0.80216970130E+03 -0.25920658204E+03  0.99390187509E+03  0.15838098459E+04  0.89997133783E+03 0.  0.
        -24    2    4    4    0    0  0.22214586890E+03 -0.13203273690E+03  0.94453071125E+03  0.98252000243E+03  0.80161462158E+02 0.  0.
         24    2    4    4    0    0  0.58002383240E+03 -0.12717384515E+03  0.49371163847E+02  0.60128984350E+03  0.80691579716E+02 0.  0.
         13    1    3    3    0    0 -0.11315574209E+03  0.60877541485E+02  0.14137044514E+03  0.19103900069E+03  0.00000000000E+00 0. -1.
        -13    1    3    3    0    0 -0.68901395921E+03  0.19832904056E+03  0.57524908286E+03  0.91923128300E+03  0.00000000000E+00 0.  1.
          2    1    6    6  502    0  0.10765654653E+03  0.79231018517E+01  0.79178297595E+01  0.10823769945E+03  0.00000000000E+00 0. -1.
          1    1    5    5  503    0  0.64882691656E+02 -0.19090438708E+02  0.14682429953E+03  0.16165266301E+03  0.00000000000E+00 0. -1.
         -2    1    5    5    0  503  0.15726317725E+03 -0.11294229819E+03  0.79770641172E+03  0.82086733942E+03  0.00000000000E+00 0.  1.
         -1    1    6    6    0  502  0.47236728587E+03 -0.13509694700E+03  0.41453334088E+02  0.49305214405E+03  0.00000000000E+00 0.  1.
<mgrwt>
<rscale>  0 0.20813900E+04</rscale>
<asrwt>0</asrwt>
<pdfrwt beam="1">  1        2 0.33881550E+00 0.20813900E+04</pdfrwt>
<pdfrwt beam="2">  1       -2 0.75658365E-01 0.20813900E+04</pdfrwt>
<totfact> 0.74413921E+00</totfact>
</mgrwt>
</event>
<event>
12    1  0.2048318E-007  0.1205941E+04  0.7818608E-02  0.9107672E-01
         -1   -1    0    0    0  501 -0.00000000000E+00  0.00000000000E+00  0.43687082345E+03  0.43687082345E+03  0.00000000000E+00 0.  1.
          1   -1    0    0  501    0  0.00000000000E+00 -0.00000000000E+00 -0.83222173827E+03  0.83222173827E+03  0.00000000000E+00 0. -1.
         23    2    1    2    0    0  0.24609846722E+03 -0.34886646852E+02 -0.14932704240E+03  0.30546928486E+03  0.96080095237E+02 0.  0.
        254    2    1    2    0    0 -0.24609846722E+03  0.34886646852E+02 -0.24602387242E+03  0.96362327686E+03  0.89792011906E+03 0.  0.
        -24    2    4    4    0    0 -0.18431977757E+02 -0.40413101110E+03 -0.16410733073E+02  0.41245019397E+03  0.78639928845E+02 0.  0.
         24    2    4    4    0    0 -0.22766648947E+03  0.43901765795E+03 -0.22961313935E+03  0.55117308289E+03  0.80629021605E+02 0.  0.
         13    1    3    3    0    0  0.55356193453E+01  0.55359441756E+01 -0.35374172078E+02  0.36230122959E+02  0.00000000000E+00 0. -1.
        -13    1    3    3    0    0  0.24056284788E+03 -0.40422591027E+02 -0.11395287032E+03  0.26923916190E+03  0.00000000000E+00 0.  1.
          4    1    6    6  502    0 -0.10810934852E+03  0.28312482599E+03 -0.11802431373E+03  0.32523381891E+03  0.00000000000E+00 0. -1.
          3    1    5    5  503    0 -0.33365536323E+02 -0.31083006069E+03 -0.39720299795E+02  0.31512900193E+03  0.00000000000E+00 0. -1.
         -4    1    5    5    0  503  0.14933558567E+02 -0.93300950412E+02  0.23309566722E+02  0.97321192040E+02  0.00000000000E+00 0.  1.
         -3    1    6    6    0  502 -0.11955714094E+03  0.15589283196E+03 -0.11158882561E+03  0.22593926398E+03  0.00000000000E+00 0.  1.
<mgrwt>
<rscale>  0 0.12059410E+04</rscale>
<asrwt>0</asrwt>
<pdfrwt beam="1">  1        1 0.12803411E+00 0.12059410E+04</pdfrwt>
<pdfrwt beam="2">  1       -1 0.67210896E-01 0.12059410E+04</pdfrwt>
<totfact> 0.46011642E+01</totfact>
</mgrwt>
</event>
<event>
12    1  0.2048318E-007  0.2013348E+04  0.7818608E-02  0.8600405E-01
         -1   -1    0    0    0  501 -0.00000000000E+00  0.00000000000E+00  0.93535116981E+03  0.93535116981E+03  0.00000000000E+00 0.  1.
          1   -1    0    0  501    0  0.00000000000E+00 -0.00000000000E+00 -0.10834351085E+04  0.10834351085E+04  0.00000000000E+00 0. -1.
         23    2    1    2    0    0 -0.68122801234E+03 -0.31757250827E+03 -0.34330546311E+03  0.83123169846E+03  0.90352602144E+02 0.  0.
        254    2    1    2    0    0  0.68122801234E+03  0.31757250827E+03  0.19522152445E+03  0.11875545798E+04  0.89847122026E+03 0.  0.
        -24    2    4    4    0    0  0.27520496819E+03 -0.21827005706E+03  0.34034377083E+03  0.49528187491E+03  0.78042686671E+02 0.  0.
         24    2    4    4    0    0  0.40602304414E+03  0.53584256533E+03 -0.14512224637E+03  0.69227270491E+03  0.78734137304E+02 0.  0.
         11    1    3    3    0    0 -0.33329034482E+03 -0.17138350219E+03 -0.12408520122E+03  0.39478082012E+03  0.00000000000E+00 0.  1.
        -11    1    3    3    0    0 -0.34793766752E+03 -0.14618900609E+03 -0.21922026190E+03  0.43645087834E+03  0.00000000000E+00 0. -1.
          2    1    6    6  502    0  0.83724339952E+02  0.16812786240E+03 -0.45633095105E+02  0.19328508112E+03  0.00000000000E+00 0. -1.
          3    1    5    5  503    0  0.24054646121E+03 -0.15225699320E+03  0.28077620364E+03  0.39985005753E+03  0.00000000000E+00 0. -1.
         -4    1    5    5    0  503  0.34658506984E+02 -0.66013063862E+02  0.59567567191E+02  0.95431817376E+02  0.00000000000E+00 0.  1.
         -1    1    6    6    0  502  0.32229870419E+03  0.36771470294E+03 -0.99489151268E+02  0.49898762379E+03  0.00000000000E+00 0.  1.
<mgrwt>
<rscale>  0 0.20133478E+04</rscale>
<asrwt>0</asrwt>
<pdfrwt beam="1">  1        1 0.16668232E+00 0.20133478E+04</pdfrwt>
<pdfrwt beam="2">  1       -1 0.14390018E+00 0.20133478E+04</pdfrwt>
<totfact> 0.47148099E+00</totfact>
</mgrwt>
</event>
<event>
12    1  0.2048318E-007  0.1510968E+04  0.7818608E-02  0.8877192E-01
          2   -1    0    0  501    0  0.00000000000E+00  0.00000000000E+00  0.17459263337E+04  0.17459263337E+04  0.00000000000E+00 0. -1.
         -2   -1    0    0    0  501 -0.00000000000E+00 -0.00000000000E+00 -0.32690743780E+03  0.32690743780E+03  0.00000000000E+00 0.  1.
         23    2    1    2    0    0  0.42362735450E+03  0.14936261880E+03  0.22100952132E+03  0.50823958346E+03  0.87709396875E+02 0.  0.
        254    2    1    2    0    0 -0.42362735450E+03 -0.14936261880E+03  0.11980093746E+04  0.15645941880E+04  0.90053272249E+03 0.  0.
        -24    2    4    4    0    0  0.10266500402E+03  0.22216341564E+03  0.70118013546E+03  0.74715029841E+03  0.81751451083E+02 0.  0.
         24    2    4    4    0    0 -0.52629235852E+03 -0.37152603445E+03  0.49682923911E+03  0.81744388962E+03  0.79749476012E+02 0.  0.
         13    1    3    3    0    0  0.28714806576E+03  0.13788245632E+03  0.13143637432E+03  0.34458831078E+03  0.00000000000E+00 0.  1.
        -13    1    3    3    0    0  0.13647928874E+03  0.11480162488E+02  0.89573147003E+02  0.16365127268E+03  0.00000000000E+00 0. -1.
          4    1    6    6  502    0 -0.10618117555E+03 -0.10213870563E+03  0.82850911407E+02  0.16902967417E+03  0.00000000000E+00 0. -1.
          1    1    5    5  503    0  0.50733393294E+01  0.69446430288E+02  0.28197377110E+03  0.29044406181E+03  0.00000000000E+00 0. -1.
         -2    1    5    5    0  503  0.97591664689E+02  0.15271698536E+03  0.41920636436E+03  0.45670623660E+03  0.00000000000E+00 0.  1.
         -3    1    6    6    0  502 -0.42011118297E+03 -0.26938732882E+03  0.41397832770E+03  0.64841421545E+03  0.00000000000E+00 0.  1.
<mgrwt>
<rscale>  0 0.15109683E+04</rscale>
<asrwt>0</asrwt>
<pdfrwt beam="1">  1        2 0.26860405E+00 0.15109683E+04</pdfrwt>
<pdfrwt beam="2">  1       -2 0.50293453E-01 0.15109683E+04</pdfrwt>
<totfact> 0.33376311E+01</totfact>
</mgrwt>
</event>
<event>
12    1  0.2048318E-007  0.2091628E+04  0.7818608E-02  0.8564940E-01
          2   -1    0    0  501    0  0.00000000000E+00  0.00000000000E+00  0.14391271224E+04  0.14391271224E+04  0.00000000000E+00 0. -1.
         -2   -1    0    0    0  501 -0.00000000000E+00 -0.00000000000E+00 -0.75999309378E+03  0.75999309378E+03  0.00000000000E+00 0.  1.
         23    2    1    2    0    0  0.80546790642E+03 -0.24230340542E+03  0.15871016774E+03  0.86076888771E+03  0.90800177009E+02 0.  0.
        254    2    1    2    0    0 -0.80546790642E+03  0.24230340542E+03  0.52042386092E+03  0.13383513285E+04  0.90158404764E+03 0.  0.
        -24    2    4    4    0    0 -0.44944005494E+02 -0.24866695825E+03 -0.44182650675E+02  0.26858498143E+03  0.79564853258E+02 0.  0.
         24    2    4    4    0    0 -0.76052390093E+03  0.49097036367E+03  0.56460651160E+03  0.10697663471E+04  0.78555856034E+02 0.  0.
         11    1    3    3    0    0  0.44774937308E+03 -0.16170860562E+03  0.12705894460E+03  0.49272015347E+03  0.00000000000E+00 0. -1.
        -11    1    3    3    0    0  0.35771853334E+03 -0.80594799797E+02  0.31651223131E+02  0.36804873424E+03  0.00000000000E+00 0.  1.
          4    1    6    6  502    0 -0.65283218625E+03  0.39932367503E+03  0.50117614498E+03  0.91478237256E+03  0.00000000000E+00 0. -1.
          1    1    5    5  503    0 -0.13132144143E+02 -0.22292530138E+03 -0.30225100338E+02  0.22534795294E+03  0.00000000000E+00 0. -1.
         -2    1    5    5    0  503 -0.31811861352E+02 -0.25741656873E+02 -0.13957550337E+02  0.43237028490E+02  0.00000000000E+00 0.  1.
         -3    1    6    6    0  502 -0.10769171468E+03  0.91646688644E+02  0.63430366617E+02  0.15498397452E+03  0.00000000000E+00 0.  1.
<mgrwt>
<rscale>  0 0.20916278E+04</rscale>
<asrwt>0</asrwt>
<pdfrwt beam="1">  1        2 0.22140417E+00 0.20916278E+04</pdfrwt>
<pdfrwt beam="2">  1       -2 0.11692201E+00 0.20916278E+04</pdfrwt>
<totfact> 0.71778431E+00</totfact>
</mgrwt>
</event>
<event>
12    1  0.2048318E-007  0.1845352E+04  0.7818608E-02  0.8682547E-01
         -1   -1    0    0    0  501 -0.00000000000E+00  0.00000000000E+00  0.23983164084E+03  0.23983164084E+03  0.00000000000E+00 0. -1.
          1   -1    0    0  501    0  0.00000000000E+00 -0.00000000000E+00 -0.35497028727E+04  0.35497028727E+04  0.00000000000E+00 0.  1.
         23    2    1    2    0    0 -0.48323690841E+03 -0.49938076556E+03 -0.13966144966E+04  0.15626334352E+04  0.91608635204E+02 0.  0.
        254    2    1    2    0    0  0.48323690841E+03  0.49938076556E+03 -0.19132567352E+04  0.22269010783E+04  0.90312680118E+03 0.  0.
        -24    2    4    4    0    0 -0.23989209074E+03  0.13441953996E+03 -0.78496945155E+03  0.83552312730E+03  0.79404209330E+02 0.  0.
         24    2    4    4    0    0  0.72312899915E+03  0.36496122560E+03 -0.11282872837E+04  0.13913779510E+04  0.82390305546E+02 0.  0.
         13    1    3    3    0    0 -0.10102891867E+03 -0.10048549345E+03 -0.21076086955E+03  0.25440975008E+03  0.00000000000E+00 0. -1.
        -13    1    3    3    0    0 -0.38220798974E+03 -0.39889527210E+03 -0.11858536271E+04  0.13082236852E+04  0.00000000000E+00 0.  1.
          4    1    6    6  502    0 -0.90902869914E+00  0.45026813355E+01 -0.26700173751E+01  0.53131408007E+01  0.00000000000E+00 0. -1.
          1    1    5    5  503    0 -0.57649410916E+02  0.74822757187E+02 -0.26421127892E+03  0.28058777500E+03  0.00000000000E+00 0. -1.
         -2    1    5    5    0  503 -0.18224267983E+03  0.59596782776E+02 -0.52075817263E+03  0.55493535230E+03  0.00000000000E+00 0.  1.
         -3    1    6    6    0  502  0.72403802785E+03  0.36045854426E+03 -0.11256172663E+04  0.13860648102E+04  0.00000000000E+00 0.  1.
<mgrwt>
<rscale>  0 0.18453521E+04</rscale>
<asrwt>0</asrwt>
<pdfrwt beam="1">  1        1 0.54610812E+00 0.18453521E+04</pdfrwt>
<pdfrwt beam="2">  1       -1 0.36897177E-01 0.18453521E+04</pdfrwt>
<totfact> 0.15232541E+00</totfact>
</mgrwt>
</event>
<event>
12    1  0.2048318E-007  0.1817440E+04  0.7818608E-02  0.8697080E-01
         -2   -1    0    0    0  501 -0.00000000000E+00  0.00000000000E+00  0.66136477762E+03  0.66136477762E+03  0.00000000000E+00 0.  1.
          2   -1    0    0  501    0  0.00000000000E+00 -0.00000000000E+00 -0.12485880780E+04  0.12485880780E+04  0.00000000000E+00 0. -1.
         23    2    1    2    0    0 -0.23596370804E+02 -0.66619531501E+03 -0.37631012801E+03  0.77081578239E+03  0.90413889821E+02 0.  0.
        254    2    1    2    0    0  0.23596370804E+02  0.66619531501E+03 -0.21091317240E+03  0.11391370733E+04  0.89931969785E+03 0.  0.
        -24    2    4    4    0    0  0.32325554337E+03  0.66520454084E+02 -0.30437692926E+03  0.45746569843E+03  0.87809071517E+02 0.  0.
         24    2    4    4    0    0 -0.29965917256E+03  0.59967486093E+03  0.93463756858E+02  0.68167137484E+03  0.80838300958E+02 0.  0.
         13    1    3    3    0    0 -0.72917291895E+01 -0.40716819628E+03 -0.27897012344E+03  0.49362277009E+03  0.00000000000E+00 0. -1.
        -13    1    3    3    0    0 -0.16304641615E+02 -0.25902711873E+03 -0.97340004563E+02  0.27719301229E+03  0.00000000000E+00 0.  1.
          4    1    6    6  502    0 -0.25618842663E+03  0.47244758237E+03  0.10168010780E+03  0.54697172902E+03  0.00000000000E+00 0. -1.
          3    1    5    5  503    0  0.12990158093E+03  0.30361062883E+02 -0.67324721671E+02  0.14942835412E+03  0.00000000000E+00 0. -1.
         -4    1    5    5    0  503  0.19335396243E+03  0.36159391201E+02 -0.23705220759E+03  0.30803734430E+03  0.00000000000E+00 0.  1.
         -3    1    6    6    0  502 -0.43470745934E+02  0.12722727856E+03 -0.82163509416E+01  0.13469964582E+03  0.00000000000E+00 0.  1.
<mgrwt>
<rscale>  0 0.18174402E+04</rscale>
<asrwt>0</asrwt>
<pdfrwt beam="1">  1        2 0.19209047E+00 0.18174402E+04</pdfrwt>
<pdfrwt beam="2">  1       -2 0.10174843E+00 0.18174402E+04</pdfrwt>
<totfact> 0.13244470E+01</totfact>
</mgrwt>
</event>
<event>
12    1  0.2048318E-007  0.1532526E+04  0.7818608E-02  0.8863107E-01
         -1   -1    0    0    0  501 -0.00000000000E+00  0.00000000000E+00  0.77429505788E+03  0.77429505788E+03  0.00000000000E+00 0. -1.
          1   -1    0    0  501    0  0.00000000000E+00 -0.00000000000E+00 -0.75831434876E+03  0.75831434876E+03  0.00000000000E+00 0.  1.
         23    2    1    2    0    0  0.80378127229E+02  0.18239482641E+03 -0.45112074152E+03  0.50140094151E+03  0.90357427344E+02 0.  0.
        254    2    1    2    0    0 -0.80378127229E+02 -0.18239482641E+03  0.46710145064E+03  0.10312084651E+04  0.89748460562E+03 0.  0.
        -24    2    4    4    0    0  0.98991506518E+02  0.96383891948E+02 -0.21514155695E+03  0.26801495058E+03  0.80355156778E+02 0.  0.
         24    2    4    4    0    0 -0.17936963375E+03 -0.27877871836E+03  0.68224300758E+03  0.76319351454E+03  0.84366936199E+02 0.  0.
         11    1    3    3    0    0  0.81461643858E+02  0.10132660565E+03 -0.33869234694E+03  0.36278862483E+03  0.00000000000E+00 0.  1.
        -11    1    3    3    0    0 -0.10835166295E+01  0.81068220764E+02 -0.11242839458E+03  0.13861231668E+03  0.00000000000E+00 0. -1.
          4    1    6    6  502    0 -0.18046342437E+03 -0.24095256382E+03  0.63432547831E+03  0.70213531315E+03  0.00000000000E+00 0. -1.
          3    1    5    5  503    0  0.10460075141E+03  0.68900534394E+02 -0.14023000541E+03  0.18802408158E+03  0.00000000000E+00 0. -1.
         -4    1    5    5    0  503 -0.56092448935E+01  0.27483357554E+02 -0.74911551535E+02  0.79990869004E+02  0.00000000000E+00 0.  1.
         -3    1    6    6    0  502  0.10937906258E+01 -0.37826154534E+02  0.47917529278E+02  0.61058201389E+02  0.00000000000E+00 0.  1.
<mgrwt>
<rscale>  0 0.15325261E+04</rscale>
<asrwt>0</asrwt>
<pdfrwt beam="1">  1        1 0.11666375E+00 0.15325261E+04</pdfrwt>
<pdfrwt beam="2">  1       -1 0.11912232E+00 0.15325261E+04</pdfrwt>
<totfact> 0.14644095E+01</totfact>
</mgrwt>
</event>
<event>
12    1  0.2048318E-007  0.1636309E+04  0.7818608E-02  0.8798547E-01
          1   -1    0    0  501    0  0.00000000000E+00  0.00000000000E+00  0.17348284559E+04  0.17348284559E+04  0.00000000000E+00 0. -1.
         -1   -1    0    0    0  501 -0.00000000000E+00 -0.00000000000E+00 -0.38584608217E+03  0.38584608217E+03  0.00000000000E+00 0.  1.
         23    2    1    2    0    0  0.53475463049E+03  0.11036872252E+03  0.28499221545E+03  0.62347671704E+03  0.96741325599E+02 0.  0.
        254    2    1    2    0    0 -0.53475463049E+03 -0.11036872252E+03  0.10639901583E+04  0.14971978210E+04  0.90076772181E+03 0.  0.
        -24    2    4    4    0    0 -0.58748562345E+03 -0.22965503590E+03  0.11556817422E+04  0.13190631040E+04  0.80289413835E+02 0.  0.
         24    2    4    4    0    0  0.52730992966E+02  0.11928631339E+03 -0.91691583884E+02  0.17813471700E+03  0.79466022074E+02 0.  0.
         13    1    3    3    0    0  0.26474690579E+03  0.56383498868E+02  0.19566418575E+03  0.33399774948E+03  0.00000000000E+00 0. -1.
        -13    1    3    3    0    0  0.27000772469E+03  0.53985223647E+02  0.89328029702E+02  0.28947896756E+03  0.00000000000E+00 0.  1.
          4    1    6    6  502    0  0.70477088016E+02  0.89792350475E+02 -0.86727549927E+02  0.14335743460E+03  0.00000000000E+00 0. -1.
          1    1    5    5  503    0 -0.34685988497E+03 -0.14647141803E+03  0.60882546395E+03  0.71584502628E+03  0.00000000000E+00 0. -1.
         -4    1    5    5    0  503 -0.24062573849E+03 -0.83183617875E+02  0.54685627823E+03  0.60321807777E+03  0.00000000000E+00 0.  1.
         -3    1    6    6    0  502 -0.17746095050E+02  0.29493962914E+02 -0.49640339564E+01  0.34777282398E+02  0.00000000000E+00 0.  1.
<mgrwt>
<rscale>  0 0.16363090E+04</rscale>
<asrwt>0</asrwt>
<pdfrwt beam="1">  1        1 0.26689668E+00 0.16363090E+04</pdfrwt>
<pdfrwt beam="2">  1       -1 0.59360937E-01 0.16363090E+04</pdfrwt>
<totfact> 0.12419071E+01</totfact>
</mgrwt>
</event>
<event>
12    1  0.2048318E-007  0.2762755E+04  0.7818608E-02  0.8314926E-01
         -2   -1    0    0    0  501 -0.00000000000E+00  0.00000000000E+00  0.18063334148E+04  0.18063334148E+04  0.00000000000E+00 0.  1.
          2   -1    0    0  501    0  0.00000000000E+00 -0.00000000000E+00 -0.10563963802E+04  0.10563963802E+04  0.00000000000E+00 0. -1.
         23    2    1    2    0    0  0.13989580227E+03  0.10934201055E+04  0.90989461248E+03  0.14322770488E+04  0.91493039172E+02 0.  0.
        254    2    1    2    0    0 -0.13989580227E+03 -0.10934201055E+04 -0.15995757794E+03  0.14304527462E+04  0.89747995504E+03 0.  0.
        -24    2    4    4    0    0 -0.38527035612E+02 -0.40546079502E+03 -0.50213676714E+03  0.65152649759E+03  0.80390642362E+02 0.  0.
         24    2    4    4    0    0 -0.10136876665E+03 -0.68795931048E+03  0.34217918921E+03  0.77892624858E+03  0.77947825317E+02 0.  0.
         11    1    3    3    0    0  0.97176646741E+02  0.40961155750E+03  0.34535448256E+03  0.54451322053E+03  0.00000000000E+00 0. -1.
        -11    1    3    3    0    0  0.42719155524E+02  0.68380854800E+03  0.56454012991E+03  0.88776382830E+03  0.00000000000E+00 0.  1.
          2    1    6    6  502    0 -0.11007532444E+03 -0.52280284319E+03  0.26661841108E+03  0.59709694944E+03  0.00000000000E+00 0. -1.
          3    1    5    5  503    0  0.15282139517E+02 -0.67733194719E+02 -0.12054465958E+03  0.13911270398E+03  0.00000000000E+00 0. -1.
         -4    1    5    5    0  503 -0.53809175128E+02 -0.33772760030E+03 -0.38159210756E+03  0.51241379361E+03  0.00000000000E+00 0.  1.
         -1    1    6    6    0  502  0.87065577876E+01 -0.16515646729E+03  0.75560778126E+02  0.18182929914E+03  0.00000000000E+00 0.  1.
<mgrwt>
<rscale>  0 0.27627552E+04</rscale>
<asrwt>0</asrwt>
<pdfrwt beam="1">  1        2 0.16252252E+00 0.27627552E+04</pdfrwt>
<pdfrwt beam="2">  1       -2 0.27789745E+00 0.27627552E+04</pdfrwt>
<totfact> 0.87799541E-01</totfact>
</mgrwt>
</event>
<event>
12    1  0.2048318E-007  0.2156042E+04  0.7818608E-02  0.8536950E-01
          3   -1    0    0  501    0  0.00000000000E+00  0.00000000000E+00  0.12378249524E+04  0.12378249524E+04  0.00000000000E+00 0. -1.
         -3   -1    0    0    0  501 -0.00000000000E+00 -0.00000000000E+00 -0.93884816667E+03  0.93884816667E+03  0.00000000000E+00 0.  1.
         23    2    1    2    0    0  0.69738339362E+02  0.88635730899E+03  0.16059542053E+03  0.90787351290E+03  0.89166760354E+02 0.  0.
        254    2    1    2    0    0 -0.69738339362E+02 -0.88635730899E+03  0.13838136524E+03  0.12687996062E+04  0.89454475756E+03 0.  0.
        -24    2    4    4    0    0 -0.46017849736E+03 -0.35461728694E+03 -0.17542797384E+02  0.58629868142E+03  0.76946244064E+02 0.  0.
         24    2    4    4    0    0  0.39044015800E+03 -0.53174002206E+03  0.15592416263E+03  0.68250092478E+03  0.79398991211E+02 0.  0.
         13    1    3    3    0    0  0.37317473669E+02  0.33348074621E+03  0.10324225346E+03  0.35108540960E+03  0.00000000000E+00 0.  1.
        -13    1    3    3    0    0  0.32420865693E+02  0.55287656278E+03  0.57353167067E+02  0.55678810330E+03  0.00000000000E+00 0. -1.
          4    1    6    6  502    0  0.21135026090E+03 -0.35292890100E+03  0.95426988396E+02  0.42229616629E+03  0.00000000000E+00 0. -1.
          1    1    5    5  503    0 -0.37592293577E+03 -0.25842013649E+03 -0.33608216191E+02  0.45741505526E+03  0.00000000000E+00 0. -1.
         -2    1    5    5    0  503 -0.84255561590E+02 -0.96197150444E+02  0.16065418807E+02  0.12888362617E+03  0.00000000000E+00 0.  1.
         -3    1    6    6    0  502  0.17908989710E+03 -0.17881112105E+03  0.60497174232E+02  0.26020475850E+03  0.00000000000E+00 0.  1.
<mgrwt>
<rscale>  0 0.21560424E+04</rscale>
<asrwt>0</asrwt>
<pdfrwt beam="1">  1        3 0.19043461E+00 0.21560424E+04</pdfrwt>
<pdfrwt beam="2">  1       -3 0.14443818E+00 0.21560424E+04</pdfrwt>
<totfact> 0.14438810E-01</totfact>
</mgrwt>
</event>
<event>
12    1  0.2048318E-007  0.1439965E+04  0.7818608E-02  0.8925387E-01
         -2   -1    0    0    0  501 -0.00000000000E+00  0.00000000000E+00  0.87291791545E+03  0.87291791545E+03  0.00000000000E+00 0.  1.
          2   -1    0    0  501    0  0.00000000000E+00 -0.00000000000E+00 -0.59384146084E+03  0.59384146084E+03  0.00000000000E+00 0. -1.
         23    2    1    2    0    0  0.28300721826E+03 -0.26932794297E+03  0.27361602419E+03  0.48576338425E+03  0.92031029186E+02 0.  0.
        254    2    1    2    0    0 -0.28300721826E+03  0.26932794297E+03  0.54604304203E+01  0.98099599204E+03  0.89982925805E+03 0.  0.
        -24    2    4    4    0    0 -0.59063963861E+03  0.99777146563E+02 -0.80469523114E+02  0.60943412073E+03  0.78255617580E+02 0.  0.
         24    2    4    4    0    0  0.30763242035E+03  0.16955079641E+03  0.85929953534E+02  0.37156187131E+03  0.85376159915E+02 0.  0.
         13    1    3    3    0    0  0.17871322281E+03 -0.22641388631E+03  0.19072910707E+03  0.34580233690E+03  0.00000000000E+00 0.  1.
        -13    1    3    3    0    0  0.10429399545E+03 -0.42914056661E+02  0.82886917129E+02  0.13996104736E+03  0.00000000000E+00 0. -1.
          4    1    6    6  502    0  0.56468937732E+02  0.67537530456E+02  0.30569831635E+01  0.88087479784E+02  0.00000000000E+00 0. -1.
          3    1    5    5  503    0 -0.37717032115E+03  0.29800546094E+02 -0.32626557579E+02  0.37974993872E+03  0.00000000000E+00 0. -1.
         -4    1    5    5    0  503 -0.21346931746E+03  0.69976600469E+02 -0.47842965534E+02  0.22968418200E+03  0.00000000000E+00 0.  1.
         -3    1    6    6    0  502  0.25116348262E+03  0.10201326595E+03  0.82872970370E+02  0.28347439152E+03  0.00000000000E+00 0.  1.
<mgrwt>
<rscale>  0 0.14399651E+04</rscale>
<asrwt>0</asrwt>
<pdfrwt beam="1">  1        2 0.91360225E-01 0.14399651E+04</pdfrwt>
<pdfrwt beam="2">  1       -2 0.13429506E+00 0.14399651E+04</pdfrwt>
<totfact> 0.19476976E+01</totfact>
</mgrwt>
</event>
<event>
12    1  0.2048318E-007  0.1804113E+04  0.7818608E-02  0.8704115E-01
          2   -1    0    0  501    0  0.00000000000E+00  0.00000000000E+00  0.15859600532E+04  0.15859600532E+04  0.00000000000E+00 0. -1.
         -2   -1    0    0    0  501 -0.00000000000E+00 -0.00000000000E+00 -0.51306822549E+03  0.51306822549E+03  0.00000000000E+00 0.  1.
         23    2    1    2    0    0  0.27780744252E+03 -0.59598065486E+03  0.60183355947E+03  0.89596903077E+03  0.90481792117E+02 0.  0.
        254    2    1    2    0    0 -0.27780744252E+03  0.59598065486E+03  0.47105826822E+03  0.12030592479E+04  0.89055361759E+03 0.  0.
        -24    2    4    4    0    0 -0.54304519839E+03  0.60015833831E+03  0.43890011363E+03  0.92414601913E+03  0.79526325173E+02 0.  0.
         24    2    4    4    0    0  0.26523775588E+03 -0.41776834507E+01  0.32158154587E+02  0.27891322876E+03  0.79936988252E+02 0.  0.
         11    1    3    3    0    0  0.17425335534E+03 -0.46158009883E+03  0.42955185159E+03  0.65416757233E+03  0.00000000000E+00 0.  1.
        -11    1    3    3    0    0  0.10355408718E+03 -0.13440055603E+03  0.17228170787E+03  0.24180145843E+03  0.00000000000E+00 0. -1.
          2    1    6    6  502    0  0.16426250545E+03 -0.41407835086E+02  0.17604396612E+02  0.17031351762E+03  0.00000000000E+00 0. -1.
          3    1    5    5  503    0 -0.23854093704E+03  0.30108383381E+03  0.24290067352E+03  0.45448211276E+03  0.00000000000E+00 0. -1.
         -4    1    5    5    0  503 -0.30450426135E+03  0.29907450450E+03  0.19599944011E+03  0.46966390637E+03  0.00000000000E+00 0.  1.
         -1    1    6    6    0  502  0.10097525043E+03  0.37230151636E+02  0.14553757976E+02  0.10859971115E+03  0.00000000000E+00 0.  1.
<mgrwt>
<rscale>  0 0.18041128E+04</rscale>
<asrwt>0</asrwt>
<pdfrwt beam="1">  1        2 0.24399385E+00 0.18041128E+04</pdfrwt>
<pdfrwt beam="2">  1       -2 0.78933574E-01 0.18041128E+04</pdfrwt>
<totfact> 0.15267185E+01</totfact>
</mgrwt>
</event>
<event>
12    1  0.2048318E-007  0.1791548E+04  0.7818608E-02  0.8710807E-01
         -2   -1    0    0    0  501 -0.00000000000E+00  0.00000000000E+00  0.80495831405E+03  0.80495831405E+03  0.00000000000E+00 0. -1.
          2   -1    0    0  501    0  0.00000000000E+00 -0.00000000000E+00 -0.99683578206E+03  0.99683578206E+03  0.00000000000E+00 0.  1.
         23    2    1    2    0    0  0.59751295284E+03  0.11750526923E+03  0.19906653071E+03  0.64713922554E+03  0.91282399558E+02 0.  0.
        254    2    1    2    0    0 -0.59751295284E+03 -0.11750526923E+03 -0.39094399872E+03  0.11546548706E+04  0.89975632418E+03 0.  0.
        -24    2    4    4    0    0  0.18381361136E+03  0.15843067586E+03 -0.89471506227E+02  0.26924160957E+03  0.74820927040E+02 0.  0.
         24    2    4    4    0    0 -0.78132656420E+03 -0.27593594508E+03 -0.30147249250E+03  0.88541326101E+03  0.80368733516E+02 0.  0.
         13    1    3    3    0    0  0.23341317233E+03  0.10599466711E+01  0.80484170923E+02  0.24690187175E+03  0.00000000000E+00 0. -1.
        -13    1    3    3    0    0  0.36409978051E+03  0.11644532255E+03  0.11858235979E+03  0.40023735378E+03  0.00000000000E+00 0.  1.
          4    1    6    6  502    0 -0.19755071452E+03 -0.57170970584E+02 -0.11014151953E+03  0.23329371832E+03  0.00000000000E+00 0. -1.
          3    1    5    5  503    0  0.11604823402E+03  0.58459109686E+02 -0.24956315951E+02  0.13231582608E+03  0.00000000000E+00 0. -1.
         -4    1    5    5    0  503  0.67765377339E+02  0.99971566170E+02 -0.64515190276E+02  0.13692578349E+03  0.00000000000E+00 0.  1.
         -3    1    6    6    0  502 -0.58377584968E+03 -0.21876497450E+03 -0.19133097297E+03  0.65211954269E+03  0.00000000000E+00 0.  1.
<mgrwt>
<rscale>  0 0.17915482E+04</rscale>
<asrwt>0</asrwt>
<pdfrwt beam="1">  1        2 0.15335935E+00 0.17915482E+04</pdfrwt>
<pdfrwt beam="2">  1       -2 0.12383974E+00 0.17915482E+04</pdfrwt>
<totfact> 0.11735121E+01</totfact>
</mgrwt>
</event>
<event>
12    1  0.2048318E-007  0.1246270E+04  0.7818608E-02  0.9073294E-01
         -1   -1    0    0    0  501 -0.00000000000E+00  0.00000000000E+00  0.25823225031E+04  0.25823225031E+04  0.00000000000E+00 0.  1.
          1   -1    0    0  501    0  0.00000000000E+00 -0.00000000000E+00 -0.15036735547E+03  0.15036735547E+03  0.00000000000E+00 0. -1.
         23    2    1    2    0    0 -0.21965521297E+03  0.12141117692E+03  0.28332989359E+03  0.38934006891E+03  0.91218277724E+02 0.  0.
        254    2    1    2    0    0  0.21965521297E+03 -0.12141117692E+03  0.21486252540E+04  0.23433497897E+04  0.90094875988E+03 0.  0.
        -24    2    4    4    0    0  0.56328025986E+03 -0.12132601592E+03  0.13192880421E+04  0.14418148405E+04  0.79400522073E+02 0.  0.
         24    2    4    4    0    0 -0.34362504689E+03 -0.85161003272E-01  0.82933721191E+03  0.90153494915E+03  0.82987188071E+02 0.  0.
         13    1    3    3    0    0 -0.20203529888E+03  0.11275667338E+03  0.20675880587E+03  0.31029265732E+03  0.00000000000E+00 0. -1.
        -13    1    3    3    0    0 -0.17619914096E+02  0.86545035459E+01  0.76571087722E+02  0.79047411592E+02  0.00000000000E+00 0.  1.
          2    1    6    6  502    0 -0.23033727036E+03  0.38695741516E+02  0.53385786784E+03  0.58271506037E+03  0.00000000000E+00 0. -1.
          3    1    5    5  503    0  0.10821247034E+03 -0.21704697381E+02  0.33805634329E+03  0.35561654048E+03  0.00000000000E+00 0. -1.
         -4    1    5    5    0  503  0.45506778952E+03 -0.99621318537E+02  0.98123169884E+03  0.10861983000E+04  0.00000000000E+00 0.  1.
         -1    1    6    6    0  502 -0.11328777653E+03 -0.38780902519E+02  0.29547934407E+03  0.31881988878E+03  0.00000000000E+00 0.  1.
<mgrwt>
<rscale>  0 0.12462696E+04</rscale>
<asrwt>0</asrwt>
<pdfrwt beam="1">  1        1 0.23133441E-01 0.12462696E+04</pdfrwt>
<pdfrwt beam="2">  1       -1 0.39728035E+00 0.12462696E+04</pdfrwt>
<totfact> 0.16150255E+00</totfact>
</mgrwt>
</event>
<event>
12    1  0.2048318E-007  0.2130807E+04  0.7818608E-02  0.8547793E-01
         -2   -1    0    0    0  501 -0.00000000000E+00  0.00000000000E+00  0.10593977656E+04  0.10593977656E+04  0.00000000000E+00 0.  1.
          2   -1    0    0  501    0  0.00000000000E+00 -0.00000000000E+00 -0.10714432805E+04  0.10714432805E+04  0.00000000000E+00 0. -1.
         23    2    1    2    0    0 -0.57534773207E+03 -0.53312235691E+03 -0.38762221023E+03  0.87932175865E+03  0.87814105601E+02 0.  0.
        254    2    1    2    0    0  0.57534773207E+03  0.53312235691E+03  0.37557669534E+03  0.12515192875E+04  0.89999900703E+03 0.  0.
        -24    2    4    4    0    0 -0.22025628701E+03  0.18894075940E+03 -0.55122490937E+01  0.30122326569E+03  0.80583052628E+02 0.  0.
         24    2    4    4    0    0  0.79560401907E+03  0.34418159751E+03  0.38108894443E+03  0.95029602181E+03  0.79918822975E+02 0.  0.
         13    1    3    3    0    0 -0.36144969704E+03 -0.38190393786E+03 -0.23300941653E+03  0.57514336424E+03  0.00000000000E+00 0. -1.
        -13    1    3    3    0    0 -0.21389803503E+03 -0.15121841905E+03 -0.15461279370E+03  0.30417839441E+03  0.00000000000E+00 0.  1.
          4    1    6    6  502    0  0.12416575608E+03  0.24907251659E+02  0.45239138198E+02  0.13447708278E+03  0.00000000000E+00 0. -1.
          1    1    5    5  503    0 -0.57257809978E+02  0.76067651418E+02  0.29957684499E+02  0.99810857407E+02  0.00000000000E+00 0. -1.
         -2    1    5    5    0  503 -0.16299847703E+03  0.11287310799E+03 -0.35469933593E+02  0.20141240828E+03  0.00000000000E+00 0.  1.
         -3    1    6    6    0  502  0.67143826300E+03  0.31927434585E+03  0.33584980623E+03  0.81581893903E+03  0.00000000000E+00 0.  1.
<mgrwt>
<rscale>  0 0.21308070E+04</rscale>
<asrwt>0</asrwt>
<pdfrwt beam="1">  1        2 0.16483743E+00 0.21308070E+04</pdfrwt>
<pdfrwt beam="2">  1       -2 0.16298427E+00 0.21308070E+04</pdfrwt>
<totfact> 0.49955229E+00</totfact>
</mgrwt>
</event>
<event>
12    1  0.2048318E-007  0.2028742E+04  0.7818608E-02  0.8593299E-01
          1   -1    0    0  501    0  0.00000000000E+00  0.00000000000E+00  0.11467555248E+04  0.11467555248E+04  0.00000000000E+00 0. -1.
         -1   -1    0    0    0  501 -0.00000000000E+00 -0.00000000000E+00 -0.89726969106E+03  0.89726969106E+03  0.00000000000E+00 0.  1.
         23    2    1    2    0    0 -0.46106408301E+03 -0.43312415415E+03  0.61455321416E+03  0.88441282596E+03  0.65831391750E+02 0.  0.
        254    2    1    2    0    0  0.46106408301E+03  0.43312415415E+03 -0.36506738043E+03  0.11596123899E+04  0.90069422170E+03 0.  0.
        -24    2    4    4    0    0  0.65962185018E+03  0.12117651769E+03 -0.39103285988E+03  0.78038661349E+03  0.79447059949E+02 0.  0.
         24    2    4    4    0    0 -0.19855776718E+03  0.31194763646E+03  0.25965479442E+02  0.37922577641E+03  0.80009178060E+02 0.  0.
         13    1    3    3    0    0 -0.26018129280E+03 -0.21476749868E+03  0.29246138224E+03  0.44648969049E+03  0.00000000000E+00 0.  1.
        -13    1    3    3    0    0 -0.20088279020E+03 -0.21835665547E+03  0.32209183191E+03  0.43792313546E+03  0.00000000000E+00 0. -1.
          2    1    6    6  502    0 -0.20417954791E+03  0.31131721051E+03  0.27642743154E+02  0.37332534684E+03  0.00000000000E+00 0. -1.
          3    1    5    5  503    0  0.61628523605E+03  0.12255082057E+03 -0.38417452827E+03  0.73648914721E+03  0.00000000000E+00 0. -1.
         -4    1    5    5    0  503  0.43336614136E+02 -0.13743028810E+01 -0.68583316075E+01  0.43897466278E+02  0.00000000000E+00 0.  1.
         -1    1    6    6    0  502  0.56217807338E+01  0.63042594103E+00 -0.16772637114E+01  0.59004295643E+01  0.00000000000E+00 0.  1.
<mgrwt>
<rscale>  0 0.20287424E+04</rscale>
<asrwt>0</asrwt>
<pdfrwt beam="1">  1        1 0.17642393E+00 0.20287424E+04</pdfrwt>
<pdfrwt beam="2">  1       -1 0.13804149E+00 0.20287424E+04</pdfrwt>
<totfact> 0.47074438E+00</totfact>
</mgrwt>
</event>
<event>
12    1  0.2048318E-007  0.2317637E+04  0.7818608E-02  0.8470999E-01
         -1   -1    0    0    0  501 -0.00000000000E+00  0.00000000000E+00  0.60818895970E+03  0.60818895970E+03  0.00000000000E+00 0.  1.
          1   -1    0    0  501    0  0.00000000000E+00 -0.00000000000E+00 -0.22079655875E+04  0.22079655875E+04  0.00000000000E+00 0. -1.
         23    2    1    2    0    0 -0.77290753953E+03  0.59359674287E+03 -0.81951589586E+03  0.12766428548E+04  0.92019113521E+02 0.  0.
        254    2    1    2    0    0  0.77290753953E+03 -0.59359674287E+03 -0.78026073193E+03  0.15395116924E+04  0.90085863680E+03 0.  0.
        -24    2    4    4    0    0  0.87450023111E+03 -0.72639645446E+03 -0.70504835724E+03  0.13401306448E+04  0.80339877224E+02 0.  0.
         24    2    4    4    0    0 -0.10159269158E+03  0.13279971159E+03 -0.75212374694E+02  0.19938104760E+03  0.78352169423E+02 0.  0.
         13    1    3    3    0    0 -0.42618783652E+03  0.27692888308E+03 -0.39629024811E+03  0.64449331961E+03  0.00000000000E+00 0.  1.
        -13    1    3    3    0    0 -0.34671970301E+03  0.31666785979E+03 -0.42322564775E+03  0.63214953516E+03  0.00000000000E+00 0. -1.
          2    1    6    6  502    0 -0.58380036542E+02  0.73786187812E+02 -0.83464989190E+02  0.12577374368E+03  0.00000000000E+00 0. -1.
          3    1    5    5  503    0  0.18581242928E+03 -0.12584401100E+03 -0.11222015456E+03  0.25091101424E+03  0.00000000000E+00 0. -1.
         -4    1    5    5    0  503  0.68868780183E+03 -0.60055244346E+03 -0.59282820268E+03  0.10892196306E+04  0.00000000000E+00 0.  1.
         -1    1    6    6    0  502 -0.43212655041E+02  0.59013523778E+02  0.82526144968E+01  0.73607303920E+02  0.00000000000E+00 0.  1.
<mgrwt>
<rscale>  0 0.23176370E+04</rscale>
<asrwt>0</asrwt>
<pdfrwt beam="1">  1        1 0.33968701E+00 0.23176370E+04</pdfrwt>
<pdfrwt beam="2">  1       -1 0.93567532E-01 0.23176370E+04</pdfrwt>
<totfact> 0.21507280E+00</totfact>
</mgrwt>
</event>
<event>
12    1  0.2048318E-007  0.1648743E+04  0.7818608E-02  0.8791151E-01
         -2   -1    0    0    0  501 -0.00000000000E+00  0.00000000000E+00  0.39178737475E+03  0.39178737475E+03  0.00000000000E+00 0.  1.
          2   -1    0    0  501    0  0.00000000000E+00 -0.00000000000E+00 -0.17345838208E+04  0.17345838208E+04  0.00000000000E+00 0. -1.
         23    2    1    2    0    0 -0.17648738020E+03  0.89728041113E+02  0.22067284077E+03  0.31048445785E+03  0.92223528350E+02 0.  0.
        254    2    1    2    0    0  0.17648738020E+03 -0.89728041113E+02 -0.15634692868E+04  0.18158867377E+04  0.90211391551E+03 0.  0.
        -24    2    4    4    0    0  0.52858463670E+03 -0.12061390281E+03 -0.78456697003E+03  0.95701890143E+03  0.79940074550E+02 0.  0.
         24    2    4    4    0    0 -0.35209725649E+03  0.30885861696E+02 -0.77890231677E+03  0.85886783625E+03  0.77709243885E+02 0.  0.
         11    1    3    3    0    0 -0.13679313684E+03  0.68819153204E+02  0.21683793821E+03  0.26545645515E+03  0.00000000000E+00 0.  1.
        -11    1    3    3    0    0 -0.39694243363E+02  0.20908887909E+02  0.38349025627E+01  0.45028002703E+02  0.00000000000E+00 0. -1.
          2    1    6    6  502    0 -0.56716451191E+02 -0.66435154184E+01 -0.19842124240E+03  0.20647489331E+03  0.00000000000E+00 0. -1.
          3    1    5    5  503    0  0.24343430912E+02 -0.24806247173E+02 -0.51483707672E+02  0.62117024100E+02  0.00000000000E+00 0. -1.
         -4    1    5    5    0  503  0.50424120578E+03 -0.95807655637E+02 -0.73308326236E+03  0.89490187733E+03  0.00000000000E+00 0.  1.
         -1    1    6    6    0  502 -0.29538080530E+03  0.37529377115E+02 -0.58048107437E+03  0.65239294294E+03  0.00000000000E+00 0.  1.
<mgrwt>
<rscale>  0 0.16487426E+04</rscale>
<asrwt>0</asrwt>
<pdfrwt beam="1">  1        2 0.26685905E+00 0.16487426E+04</pdfrwt>
<pdfrwt beam="2">  1       -2 0.60274980E-01 0.16487426E+04</pdfrwt>
<totfact> 0.22987499E+01</totfact>
</mgrwt>
</event>
<event>
12    1  0.2048318E-007  0.1914369E+04  0.7818608E-02  0.8647737E-01
          2   -1    0    0  501    0  0.00000000000E+00  0.00000000000E+00  0.15102186363E+04  0.15102186363E+04  0.00000000000E+00 0. -1.
         -2   -1    0    0    0  501 -0.00000000000E+00 -0.00000000000E+00 -0.60666887223E+03  0.60666887223E+03  0.00000000000E+00 0.  1.
         23    2    1    2    0    0 -0.67309489849E+03 -0.30921207351E+03  0.31043706248E+03  0.80905274688E+03  0.97602913325E+02 0.  0.
        254    2    1    2    0    0  0.67309489849E+03  0.30921207351E+03  0.59311270162E+03  0.13078347617E+04  0.89998902121E+03 0.  0.
        -24    2    4    4    0    0  0.14606127855E+03  0.52430168272E+03  0.46217310969E+03  0.71839664343E+03  0.79142923739E+02 0.  0.
         24    2    4    4    0    0  0.52703361994E+03 -0.21508960922E+03  0.13093959194E+03  0.58943811827E+03  0.79146332763E+02 0.  0.
         13    1    3    3    0    0 -0.51108533364E+03 -0.22174409292E+03  0.27604313499E+03  0.62175435131E+03  0.00000000000E+00 0. -1.
        -13    1    3    3    0    0 -0.16200956485E+03 -0.87467980587E+02  0.34393927495E+02  0.18729839556E+03  0.00000000000E+00 0.  1.
          2    1    6    6  502    0  0.12733950447E+03 -0.20336519557E+02  0.14073901125E+02  0.12971891967E+03  0.00000000000E+00 0. -1.
          3    1    5    5  503    0  0.29879323629E+02  0.85545084462E+02  0.11802450315E+03  0.14879690454E+03  0.00000000000E+00 0. -1.
         -4    1    5    5    0  503  0.11618195492E+03  0.43875659826E+03  0.34414860654E+03  0.56959973889E+03  0.00000000000E+00 0.  1.
         -1    1    6    6    0  502  0.39969411546E+03 -0.19475308966E+03  0.11686569081E+03  0.45971919860E+03  0.00000000000E+00 0.  1.
<mgrwt>
<rscale>  0 0.19143695E+04</rscale>
<asrwt>0</asrwt>
<pdfrwt beam="1">  1        2 0.23234133E+00 0.19143695E+04</pdfrwt>
<pdfrwt beam="2">  1       -2 0.93333674E-01 0.19143695E+04</pdfrwt>
<totfact> 0.11382718E+01</totfact>
</mgrwt>
</event>
<event>
12    1  0.2048318E-007  0.2205764E+04  0.7818608E-02  0.8516033E-01
         -2   -1    0    0    0  501 -0.00000000000E+00  0.00000000000E+00  0.12296579220E+04  0.12296579220E+04  0.00000000000E+00 0.  1.
          2   -1    0    0  501    0  0.00000000000E+00 -0.00000000000E+00 -0.98917637432E+03  0.98917637432E+03  0.00000000000E+00 0. -1.
         23    2    1    2    0    0 -0.67807561375E+03 -0.61605023710E+03  0.79419447577E+02  0.92412633095E+03  0.91638388828E+02 0.  0.
        254    2    1    2    0    0  0.67807561375E+03  0.61605023710E+03  0.16106210014E+03  0.12947079654E+04  0.90056831113E+03 0.  0.
        -24    2    4    4    0    0  0.23327303993E+03  0.66895097810E+03 -0.16852454361E+03  0.73253367374E+03  0.79330568491E+02 0.  0.
         24    2    4    4    0    0  0.44480257381E+03 -0.52900741001E+02  0.32958664375E+03  0.56217429168E+03  0.82248163593E+02 0.  0.
         11    1    3    3    0    0 -0.20479483063E+03 -0.13308795895E+03  0.11268784391E+02  0.24450012878E+03  0.00000000000E+00 0.  1.
        -11    1    3    3    0    0 -0.47328078312E+03 -0.48296227815E+03  0.68150663186E+02  0.67962620217E+03  0.00000000000E+00 0. -1.
          4    1    6    6  502    0  0.52384278270E+02 -0.24651994008E+02  0.19036867401E+02  0.60944530017E+02  0.00000000000E+00 0. -1.
          3    1    5    5  503    0  0.15249939674E+02  0.84647092762E+02  0.18358014559E+01  0.86029420201E+02  0.00000000000E+00 0. -1.
         -2    1    5    5    0  503  0.21802310026E+03  0.58430388534E+03 -0.17036034507E+03  0.64650425354E+03  0.00000000000E+00 0.  1.
         -3    1    6    6    0  502  0.39241829554E+03 -0.28248746992E+02  0.31054977635E+03  0.50122976166E+03  0.00000000000E+00 0.  1.
<mgrwt>
<rscale>  0 0.22057639E+04</rscale>
<asrwt>0</asrwt>
<pdfrwt beam="1">  1        2 0.15218098E+00 0.22057639E+04</pdfrwt>
<pdfrwt beam="2">  1       -2 0.18917814E+00 0.22057639E+04</pdfrwt>
<totfact> 0.36703134E+00</totfact>
</mgrwt>
</event>
<event>
12    1  0.2048318E-007  0.1982618E+04  0.7818608E-02  0.8614791E-01
         -1   -1    0    0    0  501 -0.00000000000E+00  0.00000000000E+00  0.29869153523E+03  0.29869153523E+03  0.00000000000E+00 0.  1.
          1   -1    0    0  501    0  0.00000000000E+00 -0.00000000000E+00 -0.32899951832E+04  0.32899951832E+04  0.00000000000E+00 0. -1.
         23    2    1    2    0    0 -0.66171980114E+03  0.26328237621E+02 -0.19438495085E+04  0.20556271631E+04  0.92118676006E+02 0.  0.
        254    2    1    2    0    0  0.66171980114E+03 -0.26328237621E+02 -0.10474541395E+04  0.15330595554E+04  0.90252155359E+03 0.  0.
        -24    2    4    4    0    0  0.17455131987E+03  0.41454045709E+03 -0.45915560978E+03  0.64754071968E+03  0.78569433128E+02 0.  0.
         24    2    4    4    0    0  0.48716848127E+03 -0.44086869471E+03 -0.58829852968E+03  0.88551883568E+03  0.79687597530E+02 0.  0.
         13    1    3    3    0    0 -0.70530435585E+02 -0.18144310103E+02 -0.15886217570E+03  0.17475968986E+03  0.00000000000E+00 0.  1.
        -13    1    3    3    0    0 -0.59118936556E+03  0.44472547723E+02 -0.17849873329E+04  0.18808674732E+04  0.00000000000E+00 0. -1.
          2    1    6    6  502    0  0.40257611513E+03 -0.35812988380E+03 -0.43899714096E+03  0.69501297248E+03  0.00000000000E+00 0. -1.
          1    1    5    5  503    0  0.10744074386E+03  0.33729304799E+03 -0.34653966124E+03  0.49537849214E+03  0.00000000000E+00 0. -1.
         -2    1    5    5    0  503  0.67110576010E+02  0.77247409103E+02 -0.11261594854E+03  0.15216222754E+03  0.00000000000E+00 0.  1.
         -1    1    6    6    0  502  0.84592366144E+02 -0.82738810915E+02 -0.14930138872E+03  0.19050586320E+03  0.00000000000E+00 0.  1.
<mgrwt>
<rscale>  0 0.19826182E+04</rscale>
<asrwt>0</asrwt>
<pdfrwt beam="1">  1        1 0.50615309E+00 0.19826182E+04</pdfrwt>
<pdfrwt beam="2">  1       -1 0.45952545E-01 0.19826182E+04</pdfrwt>
<totfact> 0.15953310E+00</totfact>
</mgrwt>
</event>
<event>
12    1  0.2048318E-007  0.1605504E+04  0.7818608E-02  0.8817174E-01
          1   -1    0    0  501    0  0.00000000000E+00  0.00000000000E+00  0.58045559434E+03  0.58045559434E+03  0.00000000000E+00 0. -1.
         -1   -1    0    0    0  501 -0.00000000000E+00 -0.00000000000E+00 -0.11101810341E+04  0.11101810341E+04  0.00000000000E+00 0.  1.
         23    2    1    2    0    0 -0.23147877424E+03  0.49500459110E+03 -0.21004640730E+03  0.59263269650E+03  0.92098054316E+02 0.  0.
        254    2    1    2    0    0  0.23147877424E+03 -0.49500459110E+03 -0.31967903244E+03  0.10980039319E+04  0.89710979406E+03 0.  0.
        -24    2    4    4    0    0 -0.20545524958E+03 -0.52775192042E+03 -0.31346558278E+03  0.65194587643E+03  0.77709749171E+02 0.  0.
         24    2    4    4    0    0  0.43693402382E+03  0.32747329321E+02 -0.62134496587E+01  0.44605805549E+03  0.83339385414E+02 0.  0.
         13    1    3    3    0    0 -0.12587576806E+03  0.24495642815E+03 -0.15377272130E+03  0.31542734582E+03  0.00000000000E+00 0.  1.
        -13    1    3    3    0    0 -0.10560300618E+03  0.25004816295E+03 -0.56273686003E+02  0.27720535068E+03  0.00000000000E+00 0. -1.
          4    1    6    6  502    0  0.12840701905E+03 -0.25279035244E+02 -0.16786252249E+02  0.13194381542E+03  0.00000000000E+00 0. -1.
          1    1    5    5  503    0 -0.14263500141E+03 -0.26151391557E+03 -0.15460863654E+03  0.33561600402E+03  0.00000000000E+00 0. -1.
         -4    1    5    5    0  503 -0.62820248173E+02 -0.26623800485E+03 -0.15885694624E+03  0.31632987241E+03  0.00000000000E+00 0.  1.
         -3    1    6    6    0  502  0.30852700477E+03  0.58026364565E+02  0.10572802590E+02  0.31411424007E+03  0.00000000000E+00 0.  1.
<mgrwt>
<rscale>  0 0.16055040E+04</rscale>
<asrwt>0</asrwt>
<pdfrwt beam="1">  1        1 0.89300860E-01 0.16055040E+04</pdfrwt>
<pdfrwt beam="2">  1       -1 0.17079708E+00 0.16055040E+04</pdfrwt>
<totfact> 0.83635122E+00</totfact>
</mgrwt>
</event>
<event>
12    1  0.2048318E-007  0.1919511E+04  0.7818608E-02  0.8645205E-01
          2   -1    0    0  501    0  0.00000000000E+00  0.00000000000E+00  0.60269506393E+03  0.60269506393E+03  0.00000000000E+00 0. -1.
         -2   -1    0    0    0  501 -0.00000000000E+00 -0.00000000000E+00 -0.15283521158E+04  0.15283521158E+04  0.00000000000E+00 0.  1.
         23    2    1    2    0    0  0.53702533612E+03  0.18448109908E+03 -0.88923156728E+03  0.10590191296E+04  0.91428928998E+02 0.  0.
        254    2    1    2    0    0 -0.53702533612E+03 -0.18448109908E+03 -0.36425484558E+02  0.10720280501E+04  0.90856361181E+03 0.  0.
        -24    2    4    4    0    0  0.18742230719E+03 -0.46326021923E+02 -0.22491369595E+03  0.30667452767E+03  0.78675750776E+02 0.  0.
         24    2    4    4    0    0 -0.72444764331E+03 -0.13815507716E+03  0.18848821139E+03  0.76535352241E+03  0.79542411323E+02 0.  0.
         13    1    3    3    0    0  0.39557686704E+03  0.10380556180E+03 -0.68524212087E+03  0.79800590011E+03  0.00000000000E+00 0.  1.
        -13    1    3    3    0    0  0.14144846908E+03  0.80675537286E+02 -0.20398944641E+03  0.26101322949E+03  0.00000000000E+00 0. -1.
          2    1    6    6  502    0 -0.41484583851E+03 -0.11755535316E+03  0.12058028004E+03  0.44772305583E+03  0.00000000000E+00 0. -1.
          3    1    5    5  503    0  0.15681440895E+03 -0.67429113410E+01 -0.18539102951E+03  0.24291162905E+03  0.00000000000E+00 0. -1.
         -4    1    5    5    0  503  0.30607898240E+02 -0.39583110582E+02 -0.39522666439E+02  0.63762898621E+02  0.00000000000E+00 0.  1.
         -1    1    6    6    0  502 -0.30960180480E+03 -0.20599723998E+02  0.67907931352E+02  0.31763046659E+03  0.00000000000E+00 0.  1.
<mgrwt>
<rscale>  0 0.19195106E+04</rscale>
<asrwt>0</asrwt>
<pdfrwt beam="1">  1        2 0.92722318E-01 0.19195106E+04</pdfrwt>
<pdfrwt beam="2">  1       -2 0.23513109E+00 0.19195106E+04</pdfrwt>
<totfact> 0.36616508E+00</totfact>
</mgrwt>
</event>
<event>
12    1  0.2048318E-007  0.2371913E+04  0.7818608E-02  0.8450094E-01
          2   -1    0    0  501    0  0.00000000000E+00  0.00000000000E+00  0.20956384603E+04  0.20956384603E+04  0.00000000000E+00 0. -1.
         -2   -1    0    0    0  501 -0.00000000000E+00 -0.00000000000E+00 -0.67115263580E+03  0.67115263580E+03  0.00000000000E+00 0.  1.
         23    2    1    2    0    0  0.54119977149E+03  0.42943711237E+03  0.14737615950E+04  0.16301519156E+04  0.90047780479E+02 0.  0.
        254    2    1    2    0    0 -0.54119977149E+03 -0.42943711237E+03 -0.49275770521E+02  0.11366391805E+04  0.90122533196E+03 0.  0.
        -24    2    4    4    0    0 -0.75629087961E+03 -0.46579911067E+03 -0.97619609793E+02  0.89762248238E+03  0.85157657159E+02 0.  0.
         24    2    4    4    0    0  0.21509110811E+03  0.36361998297E+02  0.48343839272E+02  0.23901669813E+03  0.84885072187E+02 0.  0.
         11    1    3    3    0    0  0.12679895447E+03  0.12163195364E+03  0.46263120776E+03  0.49487366205E+03  0.00000000000E+00 0. -1.
        -11    1    3    3    0    0  0.41440081702E+03  0.30780515873E+03  0.10111303873E+04  0.11352782535E+04  0.00000000000E+00 0.  1.
          2    1    6    6  502    0  0.95262734480E+02  0.58438667152E+02  0.30715592475E+02  0.11590303715E+03  0.00000000000E+00 0. -1.
          3    1    5    5  503    0 -0.32514065115E+03 -0.19777356345E+03 -0.84231605494E+02  0.38977658831E+03  0.00000000000E+00 0. -1.
         -4    1    5    5    0  503 -0.43115022846E+03 -0.26802554722E+03 -0.13388004299E+02  0.50784589407E+03  0.00000000000E+00 0.  1.
         -1    1    6    6    0  502  0.11982837363E+03 -0.22076668855E+02  0.17628246797E+02  0.12311366098E+03  0.00000000000E+00 0.  1.
<mgrwt>
<rscale>  0 0.23719134E+04</rscale>
<asrwt>0</asrwt>
<pdfrwt beam="1">  1        2 0.32240591E+00 0.23719134E+04</pdfrwt>
<pdfrwt beam="2">  1       -2 0.10325425E+00 0.23719134E+04</pdfrwt>
<totfact> 0.40751482E+00</totfact>
</mgrwt>
</event>
<event>
12    1  0.2048318E-007  0.1235429E+04  0.7818608E-02  0.9082398E-01
         -3   -1    0    0    0  501 -0.00000000000E+00  0.00000000000E+00  0.60612082150E+03  0.60612082150E+03  0.00000000000E+00 0.  1.
          3   -1    0    0  501    0  0.00000000000E+00 -0.00000000000E+00 -0.62953024981E+03  0.62953024981E+03  0.00000000000E+00 0. -1.
         23    2    1    2    0    0  0.24041535814E+03  0.38375327086E+02 -0.13942670913E+03  0.29250409790E+03  0.82744364812E+02 0.  0.
        254    2    1    2    0    0 -0.24041535814E+03 -0.38375327086E+02  0.11601728082E+03  0.94314697342E+03  0.90376655938E+03 0.  0.
        -24    2    4    4    0    0 -0.30543713646E+03  0.17830251678E+03 -0.29495734766E+03  0.46735882343E+03  0.79629147191E+02 0.  0.
         24    2    4    4    0    0  0.65021778316E+02 -0.21667784387E+03  0.41097462848E+03  0.47578814999E+03  0.79354260979E+02 0.  0.
         13    1    3    3    0    0  0.14893517538E+03  0.59758507345E+02 -0.10802833919E+03  0.19344996183E+03  0.00000000000E+00 0. -1.
        -13    1    3    3    0    0  0.91480182765E+02 -0.21383180259E+02 -0.31398369943E+02  0.99054136066E+02  0.00000000000E+00 0.  1.
          2    1    6    6  502    0  0.23502388225E+02 -0.17740053574E+03  0.27276239483E+03  0.32622482488E+03  0.00000000000E+00 0. -1.
          3    1    5    5  503    0 -0.31083707561E+02  0.47354631731E+02 -0.30005996003E+02  0.64101621027E+02  0.00000000000E+00 0. -1.
         -4    1    5    5    0  503 -0.27435342890E+03  0.13094788505E+03 -0.26495135165E+03  0.40325720240E+03  0.00000000000E+00 0.  1.
         -1    1    6    6    0  502  0.41519390091E+02 -0.39277308128E+02  0.13821223365E+03  0.14956332511E+03  0.00000000000E+00 0.  1.
<mgrwt>
<rscale>  0 0.12354293E+04</rscale>
<asrwt>0</asrwt>
<pdfrwt beam="1">  1        3 0.96850808E-01 0.12354293E+04</pdfrwt>
<pdfrwt beam="2">  1       -3 0.93249357E-01 0.12354293E+04</pdfrwt>
<totfact> 0.24995724E+00</totfact>
</mgrwt>
</event>
<event>
12    1  0.2048318E-007  0.2664266E+04  0.7818608E-02  0.8346693E-01
          1   -1    0    0  501    0  0.00000000000E+00  0.00000000000E+00  0.14943997445E+04  0.14943997445E+04  0.00000000000E+00 0. -1.
         -1   -1    0    0    0  501 -0.00000000000E+00 -0.00000000000E+00 -0.11874859352E+04  0.11874859352E+04  0.00000000000E+00 0.  1.
         23    2    1    2    0    0  0.97407673324E+03 -0.16215075300E+03 -0.51164947849E+03  0.11157438608E+04  0.89335463633E+02 0.  0.
        254    2    1    2    0    0 -0.97407673324E+03  0.16215075300E+03  0.81856328781E+03  0.15661418189E+04  0.89868570249E+03 0.  0.
        -24    2    4    4    0    0  0.10929595975E+03  0.20297023337E+03  0.20042469002E+03  0.31575448219E+03  0.79926930374E+02 0.  0.
         24    2    4    4    0    0 -0.10833726930E+04 -0.40819480371E+02  0.61813859779E+03  0.12503873367E+04  0.77527697464E+02 0.  0.
         11    1    3    3    0    0  0.24898577353E+03 -0.33481534655E+01 -0.13896757473E+03  0.28516155487E+03  0.00000000000E+00 0. -1.
        -11    1    3    3    0    0  0.72509095971E+03 -0.15880259953E+03 -0.37268190375E+03  0.83058230589E+03  0.00000000000E+00 0.  1.
          2    1    6    6  502    0 -0.42882303984E+03  0.21980823203E+01  0.28277189014E+03  0.51366718108E+03  0.00000000000E+00 0. -1.
          1    1    5    5  503    0  0.33423471942E+02  0.24519049999E+02  0.73225946804E+01  0.42094330762E+02  0.00000000000E+00 0. -1.
         -2    1    5    5    0  503  0.75872487811E+02  0.17845118337E+03  0.19310209534E+03  0.27366015142E+03  0.00000000000E+00 0.  1.
         -1    1    6    6    0  502 -0.65454965315E+03 -0.43017562691E+02  0.33536670765E+03  0.73672015565E+03  0.00000000000E+00 0.  1.
<mgrwt>
<rscale>  0 0.26642663E+04</rscale>
<asrwt>0</asrwt>
<pdfrwt beam="1">  1        1 0.22990765E+00 0.26642663E+04</pdfrwt>
<pdfrwt beam="2">  1       -1 0.18269014E+00 0.26642663E+04</pdfrwt>
<totfact> 0.11509124E+00</totfact>
</mgrwt>
</event>
<event>
12    1  0.2048318E-007  0.2741529E+04  0.7818608E-02  0.8321655E-01
          1   -1    0    0  501    0  0.00000000000E+00  0.00000000000E+00  0.13096373554E+04  0.13096373554E+04  0.00000000000E+00 0. -1.
         -1   -1    0    0    0  501 -0.00000000000E+00 -0.00000000000E+00 -0.14347448680E+04  0.14347448680E+04  0.00000000000E+00 0.  1.
         23    2    1    2    0    0  0.71201914344E+03 -0.87342493839E+03  0.42205395989E+03  0.12064595694E+04  0.87021628371E+02 0.  0.
        254    2    1    2    0    0 -0.71201914344E+03  0.87342493839E+03 -0.54716147249E+03  0.15379226540E+04  0.89217600790E+03 0.  0.
        -24    2    4    4    0    0 -0.73746159675E+02  0.69612002161E+03 -0.50980233583E+03  0.86962324108E+03  0.79527223305E+02 0.  0.
         24    2    4    4    0    0 -0.63827298376E+03  0.17730491678E+03 -0.37359136663E+02  0.66829941292E+03  0.79993530372E+02 0.  0.
         11    1    3    3    0    0  0.41447682897E+03 -0.45194060669E+03  0.20292111777E+03  0.64592440252E+03  0.00000000000E+00 0.  1.
        -11    1    3    3    0    0  0.29754231447E+03 -0.42148433170E+03  0.21913284212E+03  0.56053516684E+03  0.00000000000E+00 0. -1.
          2    1    6    6  502    0 -0.53841878126E+03  0.12943504582E+03 -0.53735639219E+02  0.55635935691E+03  0.00000000000E+00 0. -1.
          1    1    5    5  503    0 -0.27246104937E+02  0.52778061872E+03 -0.35905273990E+03  0.63891595830E+03  0.00000000000E+00 0. -1.
         -2    1    5    5    0  503 -0.46500054737E+02  0.16833940289E+03 -0.15074959593E+03  0.23070728278E+03  0.00000000000E+00 0.  1.
         -1    1    6    6    0  502 -0.99854202499E+02  0.47869870964E+02  0.16376502555E+02  0.11194005601E+03  0.00000000000E+00 0.  1.
<mgrwt>
<rscale>  0 0.27415291E+04</rscale>
<asrwt>0</asrwt>
<pdfrwt beam="1">  1        1 0.20148267E+00 0.27415291E+04</pdfrwt>
<pdfrwt beam="2">  1       -1 0.22072998E+00 0.27415291E+04</pdfrwt>
<totfact> 0.84295433E-01</totfact>
</mgrwt>
</event>
<event>
12    1  0.2048318E-007  0.1348975E+04  0.7818608E-02  0.8991605E-01
         -3   -1    0    0    0  501 -0.00000000000E+00  0.00000000000E+00  0.14421101804E+03  0.14421101804E+03  0.00000000000E+00 0.  1.
          3   -1    0    0  501    0  0.00000000000E+00 -0.00000000000E+00 -0.31546354391E+04  0.31546354391E+04  0.00000000000E+00 0. -1.
         23    2    1    2    0    0  0.21485116307E+03  0.29742663953E+03 -0.83724747607E+03  0.91864679493E+03  0.91131605186E+02 0.  0.
        254    2    1    2    0    0 -0.21485116307E+03 -0.29742663953E+03 -0.21731769450E+04  0.23801996622E+04  0.89890420492E+03 0.  0.
        -24    2    4    4    0    0  0.18659316316E+03 -0.64248251347E+02 -0.68139149018E+02  0.22308192834E+03  0.78598707269E+02 0.  0.
         24    2    4    4    0    0 -0.40144432623E+03 -0.23317838819E+03 -0.21050377960E+04  0.21571177339E+04  0.80268845404E+02 0.  0.
         11    1    3    3    0    0  0.90408517179E+02  0.18635504655E+03 -0.39547236356E+03  0.44643061464E+03  0.00000000000E+00 0.  1.
        -11    1    3    3    0    0  0.12444264589E+03  0.11107159298E+03 -0.44177511251E+03  0.47221618028E+03  0.00000000000E+00 0. -1.
          2    1    6    6  502    0 -0.15970084201E+03 -0.10001482778E+03 -0.68144472169E+03  0.70701784520E+03  0.00000000000E+00 0. -1.
          1    1    5    5  503    0  0.50961919810E+02  0.15927694374E+02 -0.28900977782E+02  0.60713056549E+02  0.00000000000E+00 0. -1.
         -2    1    5    5    0  503  0.13563124335E+03 -0.80175945721E+02 -0.39238171236E+02  0.16236887180E+03  0.00000000000E+00 0.  1.
         -1    1    6    6    0  502 -0.24174348422E+03 -0.13316356041E+03 -0.14235930743E+04  0.14500998887E+04  0.00000000000E+00 0.  1.
<mgrwt>
<rscale>  0 0.13489747E+04</rscale>
<asrwt>0</asrwt>
<pdfrwt beam="1">  1        3 0.48532853E+00 0.13489747E+04</pdfrwt>
<pdfrwt beam="2">  1       -3 0.22186311E-01 0.13489747E+04</pdfrwt>
<totfact> 0.20073562E-01</totfact>
</mgrwt>
</event>
<event>
12    1  0.2048318E-007  0.2377369E+04  0.7818608E-02  0.8448025E-01
          2   -1    0    0  501    0  0.00000000000E+00  0.00000000000E+00  0.86784228833E+03  0.86784228833E+03  0.00000000000E+00 0. -1.
         -2   -1    0    0    0  501 -0.00000000000E+00 -0.00000000000E+00 -0.16281430144E+04  0.16281430144E+04  0.00000000000E+00 0.  1.
         23    2    1    2    0    0 -0.36717552527E+03  0.67290014753E+03 -0.10252746076E+04  0.12832788772E+04  0.89466087134E+02 0.  0.
        254    2    1    2    0    0  0.36717552527E+03 -0.67290014753E+03  0.26497388162E+03  0.12127064255E+04  0.90157264905E+03 0.  0.
        -24    2    4    4    0    0 -0.19072481932E+03 -0.32428398645E+03  0.37893265206E+03  0.54001014054E+03  0.80529103515E+02 0.  0.
         24    2    4    4    0    0  0.55790034459E+03 -0.34861616108E+03 -0.11395877044E+03  0.67269628493E+03  0.82144191092E+02 0.  0.
         13    1    3    3    0    0 -0.15375830144E+03  0.36530461671E+03 -0.56041750371E+03  0.68640866596E+03  0.00000000000E+00 0. -1.
        -13    1    3    3    0    0 -0.21341722383E+03  0.30759553083E+03 -0.46485710394E+03  0.59687021127E+03  0.00000000000E+00 0.  1.
          2    1    6    6  502    0  0.30273348762E+03 -0.14191404448E+03 -0.66611054164E+02  0.34091669522E+03  0.00000000000E+00 0. -1.
          1    1    5    5  503    0 -0.81015700140E+02 -0.19895515915E+03  0.17773084137E+03  0.27880988324E+03  0.00000000000E+00 0. -1.
         -2    1    5    5    0  503 -0.10970911918E+03 -0.12532882730E+03  0.20120181070E+03  0.26120025730E+03  0.00000000000E+00 0.  1.
         -3    1    6    6    0  502  0.25516685697E+03 -0.20670211661E+03 -0.47347716280E+02  0.33177958970E+03  0.00000000000E+00 0.  1.
<mgrwt>
<rscale>  0 0.23773694E+04</rscale>
<asrwt>0</asrwt>
<pdfrwt beam="1">  1        2 0.13351420E+00 0.23773694E+04</pdfrwt>
<pdfrwt beam="2">  1       -2 0.25048354E+00 0.23773694E+04</pdfrwt>
<totfact> 0.17732695E+00</totfact>
</mgrwt>
</event>
<event>
12    1  0.2048318E-007  0.1858114E+04  0.7818608E-02  0.8675991E-01
          2   -1    0    0  501    0  0.00000000000E+00  0.00000000000E+00  0.16904186887E+04  0.16904186887E+04  0.00000000000E+00 0. -1.
         -2   -1    0    0    0  501 -0.00000000000E+00 -0.00000000000E+00 -0.51061118596E+03  0.51061118596E+03  0.00000000000E+00 0.  1.
         23    2    1    2    0    0 -0.66755441726E+03 -0.18457201333E+03  0.62971521490E+03  0.94047630180E+03  0.90877358334E+02 0.  0.
        254    2    1    2    0    0  0.66755441726E+03  0.18457201333E+03  0.55009228780E+03  0.12605535728E+04  0.89816371379E+03 0.  0.
        -24    2    4    4    0    0  0.60285023572E+03  0.26045135282E+03 -0.33713487023E+02  0.66243139758E+03  0.80096463143E+02 0.  0.
         24    2    4    4    0    0  0.64704181546E+02 -0.75879339490E+02  0.58380577482E+03  0.59812217525E+03  0.83526334388E+02 0.  0.
         13    1    3    3    0    0 -0.12520208576E+03 -0.64009396841E+02  0.97562142623E+02  0.17114653615E+03  0.00000000000E+00 0.  1.
        -13    1    3    3    0    0 -0.54235233150E+03 -0.12056261649E+03  0.53215307228E+03  0.76932976565E+03  0.00000000000E+00 0. -1.
          2    1    6    6  502    0  0.66183365236E+02 -0.92227536497E+02  0.50005112268E+03  0.51277410388E+03  0.00000000000E+00 0. -1.
          3    1    5    5  503    0  0.57961523766E+03  0.24439631360E+03 -0.47845465257E+02  0.63085067201E+03  0.00000000000E+00 0. -1.
         -4    1    5    5    0  503  0.23234998059E+02  0.16055039217E+02  0.14131978234E+02  0.31580725576E+02  0.00000000000E+00 0.  1.
         -1    1    6    6    0  502 -0.14791836908E+01  0.16348197006E+02  0.83754652143E+02  0.85348071363E+02  0.00000000000E+00 0.  1.
<mgrwt>
<rscale>  0 0.18581138E+04</rscale>
<asrwt>0</asrwt>
<pdfrwt beam="1">  1        2 0.26006441E+00 0.18581138E+04</pdfrwt>
<pdfrwt beam="2">  1       -2 0.78555568E-01 0.18581138E+04</pdfrwt>
<totfact> 0.13433939E+01</totfact>
</mgrwt>
</event>
<event>
12    1  0.2048318E-007  0.4447683E+04  0.7818608E-02  0.7919861E-01
          2   -1    0    0  501    0  0.00000000000E+00  0.00000000000E+00  0.30398994375E+04  0.30398994375E+04  0.00000000000E+00 0.  1.
         -2   -1    0    0    0  501 -0.00000000000E+00 -0.00000000000E+00 -0.16268533640E+04  0.16268533640E+04  0.00000000000E+00 0. -1.
         23    2    1    2    0    0 -0.17953121579E+04  0.11449446822E+04  0.56397763553E+03  0.22046742861E+04  0.92053597013E+02 0.  0.
        254    2    1    2    0    0  0.17953121579E+04 -0.11449446822E+04  0.84906843796E+03  0.24620785155E+04  0.89825905757E+03 0.  0.
        -24    2    4    4    0    0  0.13602435944E+03 -0.42823687591E+03  0.37691552987E+03  0.59229673833E+03  0.82829109183E+02 0.  0.
         24    2    4    4    0    0  0.16592877985E+04 -0.71670780626E+03  0.47215290809E+03  0.18697817772E+04  0.79053449396E+02 0.  0.
         11    1    3    3    0    0 -0.66269278803E+03  0.47484947513E+03  0.20755520761E+03  0.84126269354E+03  0.00000000000E+00 0. -1.
        -11    1    3    3    0    0 -0.11326193699E+04  0.67009520704E+03  0.35642242792E+03  0.13634115925E+04  0.00000000000E+00 0.  1.
          2    1    6    6  502    0  0.20152891731E+03 -0.10459647934E+03  0.38142246065E+02  0.23023717975E+03  0.00000000000E+00 0. -1.
          3    1    5    5  503    0  0.79553615763E+02 -0.21250667619E+03  0.24162550800E+03  0.33146757205E+03  0.00000000000E+00 0. -1.
         -4    1    5    5    0  503  0.56470743674E+02 -0.21573019972E+03  0.13529002187E+03  0.26082916628E+03  0.00000000000E+00 0.  1.
         -1    1    6    6    0  502  0.14577588812E+04 -0.61211132692E+03  0.43401066203E+03  0.16395445974E+04  0.00000000000E+00 0.  1.
<mgrwt>
<rscale>  0 0.44476828E+04</rscale>
<asrwt>0</asrwt>
<pdfrwt beam="1">  1        2 0.46767684E+00 0.44476828E+04</pdfrwt>
<pdfrwt beam="2">  1       -2 0.25028513E+00 0.44476828E+04</pdfrwt>
<totfact> 0.79978769E-02</totfact>
</mgrwt>
</event>
<event>
12    1  0.2048318E-007  0.2224024E+04  0.7818608E-02  0.8508495E-01
         -1   -1    0    0    0  501 -0.00000000000E+00  0.00000000000E+00  0.60879001613E+03  0.60879001613E+03  0.00000000000E+00 0.  1.
          1   -1    0    0  501    0  0.00000000000E+00 -0.00000000000E+00 -0.20311934294E+04  0.20311934294E+04  0.00000000000E+00 0. -1.
         23    2    1    2    0    0 -0.59179616042E+03 -0.12915256347E+03  0.23925346189E+03  0.65686243273E+03  0.85574274006E+02 0.  0.
        254    2    1    2    0    0  0.59179616042E+03  0.12915256347E+03 -0.16616568752E+04  0.19831210128E+04  0.89708544771E+03 0.  0.
        -24    2    4    4    0    0  0.39517989285E+03 -0.56130724545E+02 -0.16518521214E+04  0.17012681394E+04  0.79875183522E+02 0.  0.
         24    2    4    4    0    0  0.19661626756E+03  0.18528328802E+03 -0.98047537426E+01  0.28185287345E+03  0.79731145660E+02 0.  0.
         13    1    3    3    0    0 -0.23553984804E+03 -0.32458743223E+02  0.53913312787E+02  0.24380163109E+03  0.00000000000E+00 0. -1.
        -13    1    3    3    0    0 -0.35625631237E+03 -0.96693820250E+02  0.18534014911E+03  0.41306080164E+03  0.00000000000E+00 0.  1.
          2    1    6    6  502    0  0.12296617654E+03  0.16198631196E+03 -0.18027109517E+02  0.20416959252E+03  0.00000000000E+00 0. -1.
          1    1    5    5  503    0  0.39405243135E+03 -0.63633491216E+02 -0.16289594564E+04  0.16771509921E+04  0.00000000000E+00 0. -1.
         -2    1    5    5    0  503  0.11274615009E+01  0.75027666714E+01 -0.22892665053E+02  0.24117147228E+02  0.00000000000E+00 0.  1.
         -1    1    6    6    0  502  0.73650091024E+02  0.23296976063E+02  0.82223557741E+01  0.77683280930E+02  0.00000000000E+00 0.  1.
<mgrwt>
<rscale>  0 0.22240236E+04</rscale>
<asrwt>0</asrwt>
<pdfrwt beam="1">  1        1 0.31249131E+00 0.22240236E+04</pdfrwt>
<pdfrwt beam="2">  1       -1 0.93660000E-01 0.22240236E+04</pdfrwt>
<totfact> 0.28539463E+00</totfact>
</mgrwt>
</event>
<event>
12    1  0.2048318E-007  0.2444403E+04  0.7818608E-02  0.8423064E-01
          2   -1    0    0  501    0  0.00000000000E+00  0.00000000000E+00  0.10319742657E+04  0.10319742657E+04  0.00000000000E+00 0. -1.
         -2   -1    0    0    0  501 -0.00000000000E+00 -0.00000000000E+00 -0.14474938511E+04  0.14474938511E+04  0.00000000000E+00 0.  1.
         23    2    1    2    0    0  0.93728727361E+03 -0.48306345591E+03 -0.16061528241E+03  0.10703637794E+04  0.89574636424E+02 0.  0.
        254    2    1    2    0    0 -0.93728727361E+03  0.48306345591E+03 -0.25490430299E+03  0.14091043374E+04  0.89930033603E+03 0.  0.
        -24    2    4    4    0    0 -0.42002474005E+03  0.48762955205E+03 -0.51154078906E+03  0.82591306882E+03  0.79088912514E+02 0.  0.
         24    2    4    4    0    0 -0.51726253356E+03 -0.45660961386E+01  0.25663648607E+03  0.58319126862E+03  0.81660222557E+02 0.  0.
         13    1    3    3    0    0  0.80313192949E+02 -0.62956006494E+02 -0.34168766017E+02  0.10761585518E+03  0.00000000000E+00 0.  1.
        -13    1    3    3    0    0  0.85697408066E+03 -0.42010744942E+03 -0.12644651639E+03  0.96274792417E+03  0.00000000000E+00 0. -1.
          4    1    6    6  502    0 -0.43958625068E+03  0.15028279586E+02  0.24110142374E+03  0.50158929166E+03  0.00000000000E+00 0. -1.
          3    1    5    5  503    0 -0.34140771880E+03  0.38164385140E+03 -0.44359926470E+03  0.67748916405E+03  0.00000000000E+00 0. -1.
         -4    1    5    5    0  503 -0.78617021253E+02  0.10598570065E+03 -0.67941524359E+02  0.14842390476E+03  0.00000000000E+00 0.  1.
         -3    1    6    6    0  502 -0.77676282878E+02 -0.19594375724E+02  0.15535062328E+02  0.81601976957E+02  0.00000000000E+00 0.  1.
<mgrwt>
<rscale>  0 0.24444029E+04</rscale>
<asrwt>0</asrwt>
<pdfrwt beam="1">  1        2 0.15876527E+00 0.24444029E+04</pdfrwt>
<pdfrwt beam="2">  1       -2 0.22269136E+00 0.24444029E+04</pdfrwt>
<totfact> 0.20458375E+00</totfact>
</mgrwt>
</event>
<event>
12    1  0.2048318E-007  0.2163201E+04  0.7818608E-02  0.8533902E-01
          1   -1    0    0  501    0  0.00000000000E+00  0.00000000000E+00  0.17290900479E+04  0.17290900479E+04  0.00000000000E+00 0. -1.
         -1   -1    0    0    0  501 -0.00000000000E+00 -0.00000000000E+00 -0.67657560256E+03  0.67657560256E+03  0.00000000000E+00 0.  1.
         23    2    1    2    0    0  0.59067826457E+03  0.40959913118E+03  0.10209790204E+04  0.12525636697E+04  0.99223616724E+02 0.  0.
        254    2    1    2    0    0 -0.59067826457E+03 -0.40959913118E+03  0.31535424907E+02  0.11531019807E+04  0.90109790499E+03 0.  0.
        -24    2    4    4    0    0 -0.47529508628E+03 -0.10204552061E+03  0.41328499271E+03  0.64301832132E+03  0.79682928094E+02 0.  0.
         24    2    4    4    0    0 -0.11538317829E+03 -0.30755361058E+03 -0.38174956780E+03  0.51008365938E+03  0.80932724169E+02 0.  0.
         13    1    3    3    0    0  0.36768977211E+03  0.27009821200E+03  0.56551712312E+03  0.72660747944E+03  0.00000000000E+00 0.  1.
        -13    1    3    3    0    0  0.22298849247E+03  0.13950091918E+03  0.45546189727E+03  0.52595619027E+03  0.00000000000E+00 0. -1.
          4    1    6    6  502    0 -0.84141625472E+02 -0.21113098949E+03 -0.31608470356E+03  0.38931433018E+03  0.00000000000E+00 0. -1.
          1    1    5    5  503    0 -0.40945246165E+03 -0.11389195052E+03  0.34473686644E+03  0.54723505172E+03  0.00000000000E+00 0. -1.
         -2    1    5    5    0  503 -0.65842624636E+02  0.11846429915E+02  0.68548126267E+02  0.95783269601E+02  0.00000000000E+00 0.  1.
         -3    1    6    6    0  502 -0.31241552818E+02 -0.96422621086E+02 -0.65664864241E+02  0.12076932920E+03  0.00000000000E+00 0.  1.
<mgrwt>
<rscale>  0 0.21632015E+04</rscale>
<asrwt>0</asrwt>
<pdfrwt beam="1">  1        1 0.26601385E+00 0.21632015E+04</pdfrwt>
<pdfrwt beam="2">  1       -1 0.10408856E+00 0.21632015E+04</pdfrwt>
<totfact> 0.36178031E+00</totfact>
</mgrwt>
</event>
<event>
12    1  0.2048318E-007  0.1934760E+04  0.7818608E-02  0.8637745E-01
         -2   -1    0    0    0  501 -0.00000000000E+00  0.00000000000E+00  0.56953119377E+03  0.56953119377E+03  0.00000000000E+00 0. -1.
          2   -1    0    0  501    0  0.00000000000E+00 -0.00000000000E+00 -0.16431482349E+04  0.16431482349E+04  0.00000000000E+00 0.  1.
         23    2    1    2    0    0  0.26489664603E+03 -0.34996239411E+03  0.28020474648E+03  0.52833450125E+03  0.89323764423E+02 0.  0.
        254    2    1    2    0    0 -0.26489664603E+03  0.34996239411E+03 -0.13538217877E+04  0.16843449275E+04  0.90085542213E+03 0.  0.
        -24    2    4    4    0    0 -0.37167627868E+03  0.58368500952E+03 -0.11586892484E+04  0.13517520281E+04  0.76428559067E+02 0.  0.
         24    2    4    4    0    0  0.10677963265E+03 -0.23372261541E+03 -0.19513253928E+03  0.33259289939E+03  0.80704262193E+02 0.  0.
         13    1    3    3    0    0  0.15376509958E+03 -0.22341936060E+03  0.22086112875E+03  0.34977071738E+03  0.00000000000E+00 0. -1.
        -13    1    3    3    0    0  0.11113154645E+03 -0.12654303351E+03  0.59343617727E+02  0.17856378387E+03  0.00000000000E+00 0.  1.
          2    1    6    6  502    0  0.50264240944E+02 -0.15835287331E+03 -0.81693050215E+02  0.18513746475E+03  0.00000000000E+00 0. -1.
          3    1    5    5  503    0 -0.26728936621E+03  0.47771830469E+03 -0.90619435175E+03  0.10587004237E+04  0.00000000000E+00 0. -1.
         -4    1    5    5    0  503 -0.10438691247E+03  0.10596670483E+03 -0.25249489662E+03  0.29305160441E+03  0.00000000000E+00 0.  1.
         -1    1    6    6    0  502  0.56515391706E+02 -0.75369742102E+02 -0.11343948906E+03  0.14745543463E+03  0.00000000000E+00 0.  1.
<mgrwt>
<rscale>  0 0.19347601E+04</rscale>
<asrwt>0</asrwt>
<pdfrwt beam="1">  1        2 0.25279204E+00 0.19347601E+04</pdfrwt>
<pdfrwt beam="2">  1       -2 0.87620183E-01 0.19347601E+04</pdfrwt>
<totfact> 0.11074994E+01</totfact>
</mgrwt>
</event>
<event>
12    1  0.2048318E-007  0.3055095E+04  0.7818608E-02  0.8228171E-01
         -2   -1    0    0    0  501 -0.00000000000E+00  0.00000000000E+00  0.86972067773E+03  0.86972067773E+03  0.00000000000E+00 0.  1.
          2   -1    0    0  501    0  0.00000000000E+00 -0.00000000000E+00 -0.26829318803E+04  0.26829318803E+04  0.00000000000E+00 0. -1.
         23    2    1    2    0    0 -0.12751287367E+04 -0.42203221279E+03 -0.40469848299E+03  0.14057773610E+04  0.91458421308E+02 0.  0.
        254    2    1    2    0    0  0.12751287367E+04  0.42203221279E+03 -0.14085127196E+04  0.21468751971E+04  0.90614598541E+03 0.  0.
        -24    2    4    4    0    0  0.67678833589E+03  0.28892934386E+03 -0.13322457080E+04  0.15240664076E+04  0.79857192111E+02 0.  0.
         24    2    4    4    0    0  0.59834040077E+03  0.13310286894E+03 -0.76267011663E+02  0.62280878947E+03  0.79665063015E+02 0.  0.
         13    1    3    3    0    0 -0.97381521233E+03 -0.34929559575E+03 -0.34115869657E+03  0.10893634551E+04  0.00000000000E+00 0. -1.
        -13    1    3    3    0    0 -0.30131352433E+03 -0.72736617041E+02 -0.63539786421E+02  0.31641390593E+03  0.00000000000E+00 0.  1.
          2    1    6    6  502    0  0.39300017562E+03  0.98609751294E+02 -0.13778196698E+02  0.40541689628E+03  0.00000000000E+00 0. -1.
          3    1    5    5  503    0  0.59668579325E+03  0.23717516860E+03 -0.12004743855E+04  0.13614054307E+04  0.00000000000E+00 0. -1.
         -4    1    5    5    0  503  0.80102542637E+02  0.51754175256E+02 -0.13177132242E+03  0.16266097690E+03  0.00000000000E+00 0.  1.
         -1    1    6    6    0  502  0.20534022515E+03  0.34493117644E+02 -0.62488814965E+02  0.21739189319E+03  0.00000000000E+00 0.  1.
<mgrwt>
<rscale>  0 0.30550950E+04</rscale>
<asrwt>0</asrwt>
<pdfrwt beam="1">  1        2 0.41275875E+00 0.30550950E+04</pdfrwt>
<pdfrwt beam="2">  1       -2 0.13380318E+00 0.30550950E+04</pdfrwt>
<totfact> 0.93457940E-01</totfact>
</mgrwt>
</event>
<event>
12    1  0.2048318E-007  0.1455157E+04  0.7818608E-02  0.8914833E-01
         -2   -1    0    0    0  501 -0.00000000000E+00  0.00000000000E+00  0.21551603960E+03  0.21551603960E+03  0.00000000000E+00 0.  1.
          2   -1    0    0  501    0  0.00000000000E+00 -0.00000000000E+00 -0.24562910624E+04  0.24562910624E+04  0.00000000000E+00 0. -1.
         23    2    1    2    0    0  0.14913854037E+03 -0.24576190086E+02 -0.14567218240E+04  0.14673527458E+04  0.90770670786E+02 0.  0.
        254    2    1    2    0    0 -0.14913854037E+03  0.24576190086E+02 -0.78405319877E+03  0.12044543562E+04  0.90173420936E+03 0.  0.
        -24    2    4    4    0    0 -0.30631082339E+03 -0.11212683702E+03  0.50975009690E+02  0.34009840821E+03  0.81668399963E+02 0.  0.
         24    2    4    4    0    0  0.15717228301E+03  0.13670302711E+03 -0.83502820846E+03  0.86435594799E+03  0.80301007008E+02 0.  0.
         13    1    3    3    0    0  0.12345960140E+02 -0.11809081260E+02 -0.55149851053E+03  0.55176306894E+03  0.00000000000E+00 0. -1.
        -13    1    3    3    0    0  0.13679258023E+03 -0.12767108826E+02 -0.90522331347E+03  0.91558967684E+03  0.00000000000E+00 0.  1.
          2    1    6    6  502    0  0.53811223551E+01 -0.64986828929E+01 -0.97771072342E+02  0.98134458495E+02  0.00000000000E+00 0. -1.
          3    1    5    5  503    0 -0.36378880391E+02  0.54492075795E+00 -0.16443151211E+02  0.39926145555E+02  0.00000000000E+00 0. -1.
         -4    1    5    5    0  503 -0.26993194300E+03 -0.11267175778E+03  0.67418160901E+02  0.30017226266E+03  0.00000000000E+00 0.  1.
         -1    1    6    6    0  502  0.15179116066E+03  0.14320171000E+03 -0.73725713612E+03  0.76622148949E+03  0.00000000000E+00 0.  1.
<mgrwt>
<rscale>  0 0.14551565E+04</rscale>
<asrwt>0</asrwt>
<pdfrwt beam="1">  1        2 0.37789092E+00 0.14551565E+04</pdfrwt>
<pdfrwt beam="2">  1       -2 0.33156315E-01 0.14551565E+04</pdfrwt>
<totfact> 0.30468148E+01</totfact>
</mgrwt>
</event>
<event>
12    1  0.2048318E-007  0.1655476E+04  0.7818608E-02  0.8787173E-01
         -2   -1    0    0    0  501 -0.00000000000E+00  0.00000000000E+00  0.13800780722E+04  0.13800780722E+04  0.00000000000E+00 0.  1.
          2   -1    0    0  501    0  0.00000000000E+00 -0.00000000000E+00 -0.49645761593E+03  0.49645761593E+03  0.00000000000E+00 0. -1.
         23    2    1    2    0    0 -0.17131447912E+03 -0.44673172933E+03 -0.51038565101E+02  0.49096221591E+03  0.97575988745E+02 0.  0.
        254    2    1    2    0    0  0.17131447912E+03  0.44673172933E+03  0.93465902141E+03  0.13855734722E+04  0.90405114454E+03 0.  0.
        -24    2    4    4    0    0 -0.25022689078E+03  0.30701986683E+03  0.82872513554E+03  0.92193057231E+03  0.79346924269E+02 0.  0.
         24    2    4    4    0    0  0.42154136990E+03  0.13971186251E+03  0.10593388587E+03  0.46364289994E+03  0.80785019821E+02 0.  0.
         11    1    3    3    0    0 -0.11982971923E+03 -0.18485938802E+03 -0.65742979282E+01  0.22039822219E+03  0.00000000000E+00 0.  1.
        -11    1    3    3    0    0 -0.51484759882E+02 -0.26187234131E+03 -0.44464267173E+02  0.27056399373E+03  0.00000000000E+00 0. -1.
          2    1    6    6  502    0  0.32047507039E+03  0.13661888030E+03  0.64157207511E+02  0.35423881276E+03  0.00000000000E+00 0. -1.
          1    1    5    5  503    0 -0.42441569172E+02  0.55601332256E+02  0.22643764968E+03  0.23699536733E+03  0.00000000000E+00 0. -1.
         -2    1    5    5    0  503 -0.20778532161E+03  0.25141853457E+03  0.60228748586E+03  0.68493520498E+03  0.00000000000E+00 0.  1.
         -1    1    6    6    0  502  0.10106629951E+03  0.30929822088E+01  0.41776678355E+02  0.10940408717E+03  0.00000000000E+00 0.  1.
<mgrwt>
<rscale>  0 0.16554761E+04</rscale>
<asrwt>0</asrwt>
<pdfrwt beam="1">  1        2 0.76378095E-01 0.16554761E+04</pdfrwt>
<pdfrwt beam="2">  1       -2 0.21231970E+00 0.16554761E+04</pdfrwt>
<totfact> 0.65542651E+00</totfact>
</mgrwt>
</event>
<event>
12    1  0.2048318E-007  0.3351559E+04  0.7818608E-02  0.8149899E-01
          1   -1    0    0  501    0  0.00000000000E+00  0.00000000000E+00  0.26440878234E+04  0.26440878234E+04  0.00000000000E+00 0. -1.
         -1   -1    0    0    0  501 -0.00000000000E+00 -0.00000000000E+00 -0.10620814386E+04  0.10620814386E+04  0.00000000000E+00 0.  1.
         23    2    1    2    0    0  0.34433545685E+03  0.14228655536E+04  0.15871059304E+03  0.14754499597E+04  0.93006670960E+02 0.  0.
        254    2    1    2    0    0 -0.34433545685E+03 -0.14228655536E+04  0.14232957918E+04  0.22307193023E+04  0.89845667927E+03 0.  0.
        -24    2    4    4    0    0 -0.34340145560E+03 -0.12504391034E+04  0.15352606292E+04  0.20110067302E+04  0.74835544263E+02 0.  0.
         24    2    4    4    0    0 -0.93400125113E+00 -0.17242645021E+03 -0.11196483737E+03  0.21971257210E+03  0.77496686655E+02 0.  0.
         13    1    3    3    0    0  0.20409825956E+03  0.78132282746E+03  0.13165084061E+03  0.81820132247E+03  0.00000000000E+00 0. -1.
        -13    1    3    3    0    0  0.14023719728E+03  0.64154272611E+03  0.27059752437E+02  0.65724863722E+03  0.00000000000E+00 0.  1.
          2    1    6    6  502    0 -0.26033547561E+02 -0.19598545529E+02 -0.30887843287E+02  0.44898857985E+02  0.00000000000E+00 0. -1.
          1    1    5    5  503    0 -0.50922163543E+02 -0.22848758096E+03  0.23750283195E+03  0.33347749036E+03  0.00000000000E+00 0. -1.
         -2    1    5    5    0  503 -0.29247929205E+03 -0.10219515224E+04  0.12977577972E+04  0.16775292399E+04  0.00000000000E+00 0.  1.
         -1    1    6    6    0  502  0.25099546310E+02 -0.15282790468E+03 -0.81076994083E+02  0.17481371412E+03  0.00000000000E+00 0.  1.
<mgrwt>
<rscale>  0 0.33515588E+04</rscale>
<asrwt>0</asrwt>
<pdfrwt beam="1">  1        1 0.40678274E+00 0.33515588E+04</pdfrwt>
<pdfrwt beam="2">  1       -1 0.16339715E+00 0.33515588E+04</pdfrwt>
<totfact> 0.24443918E-01</totfact>
</mgrwt>
</event>
<event>
12    1  0.2048318E-007  0.2816980E+04  0.7818608E-02  0.8298016E-01
         -2   -1    0    0    0  501 -0.00000000000E+00  0.00000000000E+00  0.20614101542E+04  0.20614101542E+04  0.00000000000E+00 0.  1.
          2   -1    0    0  501    0  0.00000000000E+00 -0.00000000000E+00 -0.96237232243E+03  0.96237232243E+03  0.00000000000E+00 0. -1.
         23    2    1    2    0    0  0.72269371344E+03  0.97068347861E+02 -0.61291312936E+03  0.95680574181E+03  0.90034747835E+02 0.  0.
        254    2    1    2    0    0 -0.72269371344E+03 -0.97068347861E+02  0.17119509611E+04  0.20669767348E+04  0.89994903267E+03 0.  0.
        -24    2    4    4    0    0 -0.23474056192E+03  0.34976524136E+03  0.10191954574E+04  0.11056695814E+04  0.79416543926E+02 0.  0.
         24    2    4    4    0    0 -0.48795315151E+03 -0.44683358922E+03  0.69275550371E+03  0.96130715338E+03  0.80266560160E+02 0.  0.
         13    1    3    3    0    0  0.60163709026E+03  0.11410947256E+03 -0.50474754096E+03  0.79357308435E+03  0.00000000000E+00 0.  1.
        -13    1    3    3    0    0  0.12105662318E+03 -0.17041124699E+02 -0.10816558840E+03  0.16323265746E+03  0.00000000000E+00 0. -1.
          2    1    6    6  502    0 -0.13085840289E+03 -0.10122175131E+03  0.22127363948E+03  0.27628208063E+03  0.00000000000E+00 0. -1.
          3    1    5    5  503    0 -0.22763448300E+03  0.34351419346E+03  0.10147090091E+04  0.10951957963E+04  0.00000000000E+00 0. -1.
         -4    1    5    5    0  503 -0.71060789286E+01  0.62510479010E+01  0.44864482690E+01  0.10473785164E+02  0.00000000000E+00 0.  1.
         -3    1    6    6    0  502 -0.35709474862E+03 -0.34561183791E+03  0.47148186423E+03  0.68502507275E+03  0.00000000000E+00 0.  1.
<mgrwt>
<rscale>  0 0.28169800E+04</rscale>
<asrwt>0</asrwt>
<pdfrwt beam="1">  1        2 0.14805728E+00 0.28169800E+04</pdfrwt>
<pdfrwt beam="2">  1       -2 0.31714002E+00 0.28169800E+04</pdfrwt>
<totfact> 0.57740386E-01</totfact>
</mgrwt>
</event>
<event>
12    1  0.2048318E-007  0.1790857E+04  0.7818608E-02  0.8711177E-01
         -2   -1    0    0    0  501 -0.00000000000E+00  0.00000000000E+00  0.47539420971E+03  0.47539420971E+03  0.00000000000E+00 0.  1.
          2   -1    0    0  501    0  0.00000000000E+00 -0.00000000000E+00 -0.16865829855E+04  0.16865829855E+04  0.00000000000E+00 0. -1.
         23    2    1    2    0    0 -0.42245016041E+03 -0.23539439005E+02  0.16804851161E+03  0.46421800011E+03  0.90773377976E+02 0.  0.
        254    2    1    2    0    0  0.42245016041E+03  0.23539439005E+02 -0.13792372874E+04  0.16977591951E+04  0.89502656182E+03 0.  0.
        -24    2    4    4    0    0  0.44580880657E+03 -0.10722494819E+03 -0.19706207152E+03  0.50546875332E+03  0.80140620276E+02 0.  0.
         24    2    4    4    0    0 -0.23358646157E+02  0.13076438719E+03 -0.11821752159E+04  0.11922904418E+04  0.79832983279E+02 0.  0.
         11    1    3    3    0    0 -0.30968633184E+03 -0.31791330477E+02  0.16211969628E+03  0.35099730589E+03  0.00000000000E+00 0.  1.
        -11    1    3    3    0    0 -0.11276382857E+03  0.82518914721E+01  0.59288153264E+01  0.11322069422E+03  0.00000000000E+00 0. -1.
          2    1    6    6  502    0  0.23986934889E+02  0.28893569051E+02 -0.18251381264E+03  0.18633706873E+03  0.00000000000E+00 0. -1.
          1    1    5    5  503    0  0.26899940789E+03 -0.81334537299E+02 -0.81286454241E+02  0.29254653655E+03  0.00000000000E+00 0. -1.
         -2    1    5    5    0  503  0.17680939868E+03 -0.25890410889E+02 -0.11577561728E+03  0.21292221677E+03  0.00000000000E+00 0.  1.
         -1    1    6    6    0  502 -0.47345581047E+02  0.10187081814E+03 -0.99966140321E+03  0.10059533730E+04  0.00000000000E+00 0.  1.
<mgrwt>
<rscale>  0 0.17908565E+04</rscale>
<asrwt>0</asrwt>
<pdfrwt beam="1">  1        2 0.25947431E+00 0.17908565E+04</pdfrwt>
<pdfrwt beam="2">  1       -2 0.73137570E-01 0.17908565E+04</pdfrwt>
<totfact> 0.15911363E+01</totfact>
</mgrwt>
</event>
<event>
12    1  0.2048318E-007  0.3501501E+04  0.7818608E-02  0.8113434E-01
          1   -1    0    0  501    0  0.00000000000E+00  0.00000000000E+00  0.22898216898E+04  0.22898216898E+04  0.00000000000E+00 0. -1.
         -1   -1    0    0    0  501 -0.00000000000E+00 -0.00000000000E+00 -0.13385879184E+04  0.13385879184E+04  0.00000000000E+00 0.  1.
         23    2    1    2    0    0  0.58450928861E+03  0.13556185992E+04  0.11710359425E+04  0.18864245238E+04  0.88991068977E+02 0.  0.
        254    2    1    2    0    0 -0.58450928861E+03 -0.13556185992E+04 -0.21980217115E+03  0.17419850844E+04  0.89824614931E+03 0.  0.
        -24    2    4    4    0    0  0.11904227669E+03 -0.80391199465E+03 -0.21760783669E+03  0.84512195418E+03  0.80202170015E+02 0.  0.
         24    2    4    4    0    0 -0.70355156530E+03 -0.55170660456E+03 -0.21943344595E+01  0.89686313020E+03  0.70665951140E+02 0.  0.
         13    1    3    3    0    0  0.33160549525E+03  0.79007359603E+03  0.73431786859E+03  0.11284508070E+04  0.00000000000E+00 0.  1.
        -13    1    3    3    0    0  0.25290379336E+03  0.56554500318E+03  0.43671807391E+03  0.75797371682E+03  0.00000000000E+00 0. -1.
          4    1    6    6  502    0 -0.48898029525E+03 -0.37037103751E+03  0.29656477298E+02  0.61413023148E+03  0.00000000000E+00 0. -1.
          1    1    5    5  503    0  0.10363052267E+01 -0.19530914498E+03 -0.73270486670E+02  0.20860321248E+03  0.00000000000E+00 0. -1.
         -2    1    5    5    0  503  0.11800597146E+03 -0.60860284967E+03 -0.14433735002E+03  0.63651874170E+03  0.00000000000E+00 0.  1.
         -3    1    6    6    0  502 -0.21457127005E+03 -0.18133556705E+03 -0.31850811758E+02  0.28273289872E+03  0.00000000000E+00 0.  1.
<mgrwt>
<rscale>  0 0.35015012E+04</rscale>
<asrwt>0</asrwt>
<pdfrwt beam="1">  1        1 0.35228026E+00 0.35015012E+04</pdfrwt>
<pdfrwt beam="2">  1       -1 0.20593660E+00 0.35015012E+04</pdfrwt>
<totfact> 0.21138943E-01</totfact>
</mgrwt>
</event>
<event>
12    1  0.2048318E-007  0.1917761E+04  0.7818608E-02  0.8646066E-01
         -2   -1    0    0    0  501 -0.00000000000E+00  0.00000000000E+00  0.40808727624E+03  0.40808727624E+03  0.00000000000E+00 0.  1.
          2   -1    0    0  501    0  0.00000000000E+00 -0.00000000000E+00 -0.22530770599E+04  0.22530770599E+04  0.00000000000E+00 0. -1.
         23    2    1    2    0    0  0.40269949675E+03  0.51328649572E+03 -0.22355314701E+03  0.69566225726E+03  0.91323903069E+02 0.  0.
        254    2    1    2    0    0 -0.40269949675E+03 -0.51328649572E+03 -0.16214366367E+04  0.19655020789E+04  0.89917281101E+03 0.  0.
        -24    2    4    4    0    0 -0.32565897821E+03 -0.32823998021E+03 -0.17181668360E+03  0.49989348005E+03  0.81100332499E+02 0.  0.
         24    2    4    4    0    0 -0.77040518537E+02 -0.18504651551E+03 -0.14496199531E+04  0.14656085989E+04  0.80206622526E+02 0.  0.
         11    1    3    3    0    0  0.32308132529E+03  0.44544431529E+03 -0.21473576300E+03  0.59068911340E+03  0.00000000000E+00 0. -1.
        -11    1    3    3    0    0  0.79618171462E+02  0.67842180430E+02 -0.88173840086E+01  0.10497314387E+03  0.00000000000E+00 0.  1.
          2    1    6    6  502    0 -0.66689447769E+02 -0.14790731152E+03 -0.13316660732E+04  0.13415135429E+04  0.00000000000E+00 0. -1.
          3    1    5    5  503    0 -0.27144449281E+03 -0.31029631295E+03 -0.15356215803E+03  0.43994005374E+03  0.00000000000E+00 0. -1.
         -4    1    5    5    0  503 -0.54214485404E+02 -0.17943667266E+02 -0.18254525572E+02  0.59953426311E+02  0.00000000000E+00 0.  1.
         -1    1    6    6    0  502 -0.10351070769E+02 -0.37139203982E+02 -0.11795387991E+03  0.12409505600E+03  0.00000000000E+00 0.  1.
<mgrwt>
<rscale>  0 0.19177613E+04</rscale>
<asrwt>0</asrwt>
<pdfrwt beam="1">  1        2 0.34662723E+00 0.19177613E+04</pdfrwt>
<pdfrwt beam="2">  1       -2 0.62782659E-01 0.19177613E+04</pdfrwt>
<totfact> 0.10603406E+01</totfact>
</mgrwt>
</event>
<event>
12    1  0.2048318E-007  0.3326533E+04  0.7818608E-02  0.8156177E-01
          2   -1    0    0  501    0  0.00000000000E+00  0.00000000000E+00  0.16001664940E+04  0.16001664940E+04  0.00000000000E+00 0. -1.
         -2   -1    0    0    0  501 -0.00000000000E+00 -0.00000000000E+00 -0.17288550309E+04  0.17288550309E+04  0.00000000000E+00 0.  1.
         23    2    1    2    0    0 -0.58829713421E+03  0.12813932939E+04 -0.68879682509E+03  0.15718515449E+04  0.90630685421E+02 0.  0.
        254    2    1    2    0    0  0.58829713421E+03 -0.12813932939E+04  0.56010828817E+03  0.17571699800E+04  0.88648900307E+03 0.  0.
        -24    2    4    4    0    0  0.39625391649E+03 -0.35018033660E+03  0.59849570603E+03  0.80251018303E+03  0.78626008840E+02 0.  0.
         24    2    4    4    0    0  0.19204321771E+03 -0.93121295727E+03 -0.38387417853E+02  0.95465979700E+03  0.76573917845E+02 0.  0.
         11    1    3    3    0    0 -0.22756548184E+03  0.58106523024E+03 -0.27392269454E+03  0.68151044959E+03  0.00000000000E+00 0.  1.
        -11    1    3    3    0    0 -0.36073165237E+03  0.70032806363E+03 -0.41487413055E+03  0.89034109527E+03  0.00000000000E+00 0. -1.
          4    1    6    6  502    0  0.74872373945E+01 -0.16745537192E+03  0.53031735029E+01  0.16770654119E+03  0.00000000000E+00 0. -1.
          3    1    5    5  503    0  0.19103126357E+03 -0.12845793647E+03  0.22232311014E+03  0.32003429568E+03  0.00000000000E+00 0. -1.
         -4    1    5    5    0  503  0.20522265292E+03 -0.22172240012E+03  0.37617259588E+03  0.48247588736E+03  0.00000000000E+00 0.  1.
         -3    1    6    6    0  502  0.18455598032E+03 -0.76375758535E+03 -0.43690591356E+02  0.78695325581E+03  0.00000000000E+00 0.  1.
<mgrwt>
<rscale>  0 0.33265333E+04</rscale>
<asrwt>0</asrwt>
<pdfrwt beam="1">  1        2 0.24617946E+00 0.33265333E+04</pdfrwt>
<pdfrwt beam="2">  1       -2 0.26597769E+00 0.33265333E+04</pdfrwt>
<totfact> 0.47658788E-01</totfact>
</mgrwt>
</event>
<event>
12    1  0.2048318E-007  0.1774664E+04  0.7818608E-02  0.8719890E-01
         -2   -1    0    0    0  501 -0.00000000000E+00  0.00000000000E+00  0.79835360078E+03  0.79835360078E+03  0.00000000000E+00 0.  1.
          2   -1    0    0  501    0  0.00000000000E+00 -0.00000000000E+00 -0.98622762724E+03  0.98622762724E+03  0.00000000000E+00 0. -1.
         23    2    1    2    0    0  0.58414596890E+03  0.12679753355E+03  0.20172202806E+03  0.63743679475E+03  0.91267536350E+02 0.  0.
        254    2    1    2    0    0 -0.58414596890E+03 -0.12679753355E+03 -0.38959605453E+03  0.11471444333E+04  0.89824892851E+03 0.  0.
        -24    2    4    4    0    0 -0.78251613191E+03 -0.95866568248E+02 -0.46560637224E+03  0.91914129906E+03  0.80681708902E+02 0.  0.
         24    2    4    4    0    0  0.19837016301E+03 -0.30930965304E+02  0.76010317716E+02  0.22800313421E+03  0.76814156408E+02 0.  0.
         11    1    3    3    0    0  0.19651296504E+03  0.64553082467E+02  0.10996592391E+03  0.23425829826E+03  0.00000000000E+00 0. -1.
        -11    1    3    3    0    0  0.38763300387E+03  0.62244451085E+02  0.91756104147E+02  0.40317849648E+03  0.00000000000E+00 0.  1.
          2    1    6    6  502    0  0.47568902367E+02 -0.23704622734E+02 -0.10244541510E+02  0.54126335938E+02  0.00000000000E+00 0. -1.
          1    1    5    5  503    0 -0.28218295330E+03 -0.70923726179E+02 -0.15434864093E+03  0.32936438336E+03  0.00000000000E+00 0. -1.
         -2    1    5    5    0  503 -0.50033317861E+03 -0.24942842069E+02 -0.31125773131E+03  0.58977691570E+03  0.00000000000E+00 0.  1.
         -1    1    6    6    0  502  0.15080126064E+03 -0.72263425697E+01  0.86254859225E+02  0.17387679827E+03  0.00000000000E+00 0.  1.
<mgrwt>
<rscale>  0 0.17746643E+04</rscale>
<asrwt>0</asrwt>
<pdfrwt beam="1">  1        2 0.15172733E+00 0.17746643E+04</pdfrwt>
<pdfrwt beam="2">  1       -2 0.12282363E+00 0.17746643E+04</pdfrwt>
<totfact> 0.12186649E+01</totfact>
</mgrwt>
</event>
<event>
12    1  0.2048318E-007  0.3211481E+04  0.7818608E-02  0.8185792E-01
          2   -1    0    0  501    0  0.00000000000E+00  0.00000000000E+00  0.23673485543E+04  0.23673485543E+04  0.00000000000E+00 0.  1.
         -2   -1    0    0    0  501 -0.00000000000E+00 -0.00000000000E+00 -0.10891523026E+04  0.10891523026E+04  0.00000000000E+00 0. -1.
         23    2    1    2    0    0  0.84638953248E+02 -0.12737909033E+04 -0.21545810497E+03  0.12979579139E+04  0.92550167792E+02 0.  0.
        254    2    1    2    0    0 -0.84638953248E+02  0.12737909033E+04  0.14936543567E+04  0.21585429430E+04  0.89364270373E+03 0.  0.
        -24    2    4    4    0    0  0.26177666037E+03  0.99551921813E+03  0.13189093509E+04  0.16748861500E+04  0.78333938983E+02 0.  0.
         24    2    4    4    0    0 -0.34641561362E+03  0.27827168516E+03  0.17474500583E+03  0.48365679306E+03  0.77130851740E+02 0.  0.
         13    1    3    3    0    0  0.87195355140E+02 -0.10110027687E+04 -0.20300386232E+03  0.10348624046E+04  0.00000000000E+00 0. -1.
        -13    1    3    3    0    0 -0.25564018928E+01 -0.26278813456E+03 -0.12454242653E+02  0.26309550931E+03  0.00000000000E+00 0.  1.
          4    1    6    6  502    0 -0.28388940053E+03  0.18936781117E+03  0.14641056204E+03  0.37133463657E+03  0.00000000000E+00 0. -1.
          1    1    5    5  503    0  0.25010952082E+03  0.86525491005E+03  0.11737989734E+04  0.14795353533E+04  0.00000000000E+00 0. -1.
         -2    1    5    5    0  503  0.11667139546E+02  0.13026430808E+03  0.14511037745E+03  0.19535079664E+03  0.00000000000E+00 0.  1.
         -3    1    6    6    0  502 -0.62526213091E+02  0.88903873987E+02  0.28334443785E+02  0.11232215649E+03  0.00000000000E+00 0.  1.
<mgrwt>
<rscale>  0 0.32114814E+04</rscale>
<asrwt>0</asrwt>
<pdfrwt beam="1">  1        2 0.36420747E+00 0.32114814E+04</pdfrwt>
<pdfrwt beam="2">  1       -2 0.16756189E+00 0.32114814E+04</pdfrwt>
<totfact> 0.77457923E-01</totfact>
</mgrwt>
</event>
<event>
12    1  0.2048318E-007  0.1374057E+04  0.7818608E-02  0.8972815E-01
         -1   -1    0    0    0  501 -0.00000000000E+00  0.00000000000E+00  0.42489241511E+03  0.42489241511E+03  0.00000000000E+00 0.  1.
          1   -1    0    0  501    0  0.00000000000E+00 -0.00000000000E+00 -0.11108883344E+04  0.11108883344E+04  0.00000000000E+00 0. -1.
         23    2    1    2    0    0  0.33034969443E+03  0.19163292732E+03 -0.18029546505E+03  0.43215994802E+03  0.91660605001E+02 0.  0.
        254    2    1    2    0    0 -0.33034969443E+03 -0.19163292732E+03 -0.50570045425E+03  0.11036208015E+04  0.90354403580E+03 0.  0.
        -24    2    4    4    0    0  0.10969065741E+03 -0.28249130264E+01  0.20313276173E+03  0.24455451027E+03  0.80647189328E+02 0.  0.
         24    2    4    4    0    0 -0.44004035184E+03 -0.18880801429E+03 -0.70883321598E+03  0.85906629124E+03  0.79160515097E+02 0.  0.
         11    1    3    3    0    0  0.17891071287E+03  0.15468399827E+03 -0.99528506709E+02  0.25659716707E+03  0.00000000000E+00 0.  1.
        -11    1    3    3    0    0  0.15143898156E+03  0.36948929049E+02 -0.80766958345E+02  0.17556278095E+03  0.00000000000E+00 0. -1.
          2    1    6    6  502    0 -0.92946001292E+02 -0.57416465641E+02 -0.21666910426E+03  0.24265430230E+03  0.00000000000E+00 0. -1.
          1    1    5    5  503    0 -0.33103889512E+01  0.34975341484E+00 -0.59785455400E+01  0.68428071165E+01  0.00000000000E+00 0. -1.
         -2    1    5    5    0  503  0.11300104636E+03 -0.31746664412E+01  0.20911130727E+03  0.23771170315E+03  0.00000000000E+00 0.  1.
         -1    1    6    6    0  502 -0.34709435055E+03 -0.13139154865E+03 -0.49216411172E+03  0.61641198894E+03  0.00000000000E+00 0.  1.
<mgrwt>
<rscale>  0 0.13740568E+04</rscale>
<asrwt>0</asrwt>
<pdfrwt beam="1">  1        1 0.17090590E+00 0.13740568E+04</pdfrwt>
<pdfrwt beam="2">  1       -1 0.65368065E-01 0.13740568E+04</pdfrwt>
<totfact> 0.28840673E+01</totfact>
</mgrwt>
</event>
<event>
12    1  0.2048318E-007  0.1983629E+04  0.7818608E-02  0.8614313E-01
         -2   -1    0    0    0  501 -0.00000000000E+00  0.00000000000E+00  0.10225342173E+04  0.10225342173E+04  0.00000000000E+00 0.  1.
          2   -1    0    0  501    0  0.00000000000E+00 -0.00000000000E+00 -0.96201735390E+03  0.96201735390E+03  0.00000000000E+00 0. -1.
         23    2    1    2    0    0 -0.31843630579E+03 -0.66422279092E+03 -0.24455366713E+03  0.78176869016E+03  0.93606580893E+02 0.  0.
        254    2    1    2    0    0  0.31843630579E+03  0.66422279092E+03  0.30507053051E+03  0.12027828810E+04  0.90056928301E+03 0.  0.
        -24    2    4    4    0    0  0.36499199352E+03  0.80040306924E+03  0.32464458116E+02  0.88403008567E+03  0.81185114052E+02 0.  0.
         24    2    4    4    0    0 -0.46555687734E+02 -0.13618027832E+03  0.27260607239E+03  0.31875279536E+03  0.81097309353E+02 0.  0.
         11    1    3    3    0    0 -0.11962529923E+03 -0.32958222345E+03 -0.14901288179E+03  0.38097177477E+03  0.00000000000E+00 0. -1.
        -11    1    3    3    0    0 -0.19881100656E+03 -0.33464056747E+03 -0.95540785340E+02  0.40079691539E+03  0.00000000000E+00 0.  1.
          4    1    6    6  502    0 -0.15177789170E+02 -0.10662189089E+03  0.24483315499E+03  0.26747311394E+03  0.00000000000E+00 0. -1.
          3    1    5    5  503    0  0.34347217666E+03  0.78378827630E+03  0.36620590184E+02  0.85652686229E+03  0.00000000000E+00 0. -1.
         -4    1    5    5    0  503  0.21519816864E+02  0.16614792938E+02 -0.41561320682E+01  0.27503223375E+02  0.00000000000E+00 0.  1.
         -3    1    6    6    0  502 -0.31377898563E+02 -0.29558387427E+02  0.27772917406E+02  0.51279681422E+02  0.00000000000E+00 0.  1.
<mgrwt>
<rscale>  0 0.19836287E+04</rscale>
<asrwt>0</asrwt>
<pdfrwt beam="1">  1        2 0.14800267E+00 0.19836287E+04</pdfrwt>
<pdfrwt beam="2">  1       -2 0.15731296E+00 0.19836287E+04</pdfrwt>
<totfact> 0.65404338E+00</totfact>
</mgrwt>
</event>
<event>
12    1  0.2048318E-007  0.1582806E+04  0.7818608E-02  0.8831181E-01
          1   -1    0    0  501    0  0.00000000000E+00  0.00000000000E+00  0.14267060201E+04  0.14267060201E+04  0.00000000000E+00 0. -1.
         -1   -1    0    0    0  501 -0.00000000000E+00 -0.00000000000E+00 -0.43899614490E+03  0.43899614490E+03  0.00000000000E+00 0.  1.
         23    2    1    2    0    0 -0.29356249744E+03 -0.43400485180E+03  0.24456822698E+03  0.58545766748E+03  0.91694664346E+02 0.  0.
        254    2    1    2    0    0  0.29356249744E+03  0.43400485180E+03  0.74314164819E+03  0.12802444975E+04  0.90123654654E+03 0.  0.
        -24    2    4    4    0    0  0.22788640746E+02  0.46178399207E+03  0.85532837105E+03  0.97584963554E+03  0.83259302114E+02 0.  0.
         24    2    4    4    0    0  0.27077385669E+03 -0.27779140271E+02 -0.11218672286E+03  0.30439486196E+03  0.77331811689E+02 0.  0.
         11    1    3    3    0    0 -0.26066385705E+03 -0.31970719747E+03  0.17926555590E+03  0.44977158427E+03  0.00000000000E+00 0.  1.
        -11    1    3    3    0    0 -0.32898640387E+02 -0.11429765433E+03  0.65302671075E+02  0.13568608320E+03  0.00000000000E+00 0. -1.
          4    1    6    6  502    0  0.20241229740E+03 -0.35624796050E+02 -0.11503264151E+03  0.23552573711E+03  0.00000000000E+00 0. -1.
          3    1    5    5  503    0  0.52911499256E+02  0.34931818929E+03  0.63712467262E+03  0.72852637055E+03  0.00000000000E+00 0. -1.
         -4    1    5    5    0  503 -0.30122858510E+02  0.11246580278E+03  0.21820369842E+03  0.24732326499E+03  0.00000000000E+00 0.  1.
         -3    1    6    6    0  502  0.68361559295E+02  0.78456557788E+01  0.28459186492E+01  0.68869124845E+02  0.00000000000E+00 0.  1.
<mgrwt>
<rscale>  0 0.15828057E+04</rscale>
<asrwt>0</asrwt>
<pdfrwt beam="1">  1        1 0.21949323E+00 0.15828057E+04</pdfrwt>
<pdfrwt beam="2">  1       -1 0.67537869E-01 0.15828057E+04</pdfrwt>
<totfact> 0.15697542E+01</totfact>
</mgrwt>
</event>
<event>
12    1  0.2048318E-007  0.1020256E+04  0.7818608E-02  0.9286604E-01
          2   -1    0    0  501    0  0.00000000000E+00  0.00000000000E+00  0.99747857844E+03  0.99747857844E+03  0.00000000000E+00 0. -1.
         -2   -1    0    0    0  501 -0.00000000000E+00 -0.00000000000E+00 -0.26088820702E+03  0.26088820702E+03  0.00000000000E+00 0.  1.
         23    2    1    2    0    0 -0.42169238857E+02  0.34761994478E+02  0.32490096377E+02  0.11010229873E+03  0.89890315707E+02 0.  0.
        254    2    1    2    0    0  0.42169238857E+02 -0.34761994478E+02  0.70410027505E+03  0.11482644867E+04  0.90541012430E+03 0.  0.
        -24    2    4    4    0    0 -0.88500197884E+02  0.21217861769E+03  0.80504362942E+03  0.84092784148E+03  0.78818389195E+02 0.  0.
         24    2    4    4    0    0  0.13066943674E+03 -0.24694061217E+03 -0.10094335437E+03  0.30733664525E+03  0.78816781744E+02 0.  0.
         11    1    3    3    0    0  0.15870072738E+02  0.10909940160E+00  0.39084913461E+02  0.42184138864E+02  0.00000000000E+00 0. -1.
        -11    1    3    3    0    0 -0.58039311595E+02  0.34652895077E+02 -0.65948170848E+01  0.67918159869E+02  0.00000000000E+00 0.  1.
          4    1    6    6  502    0  0.86211912848E+02 -0.90015433618E+02 -0.23719327693E+02  0.12687741609E+03  0.00000000000E+00 0. -1.
          1    1    5    5  503    0 -0.36137916694E+02  0.25729519208E+02  0.93335236236E+02  0.10334129622E+03  0.00000000000E+00 0. -1.
         -2    1    5    5    0  503 -0.52362281190E+02  0.18644909848E+03  0.71170839318E+03  0.73758654526E+03  0.00000000000E+00 0.  1.
         -3    1    6    6    0  502  0.44457523893E+02 -0.15692517855E+03 -0.77224026674E+02  0.18045922916E+03  0.00000000000E+00 0.  1.
<mgrwt>
<rscale>  0 0.10202557E+04</rscale>
<asrwt>0</asrwt>
<pdfrwt beam="1">  1        2 0.15345824E+00 0.10202557E+04</pdfrwt>
<pdfrwt beam="2">  1       -2 0.40136648E-01 0.10202557E+04</pdfrwt>
<totfact> 0.14801013E+02</totfact>
</mgrwt>
</event>
<event>
12    1  0.2265228E-007  0.2727057E+04  0.7818608E-02  0.8326279E-01
         -1   -1    0    0    0  501 -0.00000000000E+00  0.00000000000E+00  0.12400492437E+04  0.12400492437E+04  0.00000000000E+00 0.  1.
          1   -1    0    0  501    0  0.00000000000E+00 -0.00000000000E+00 -0.14993033651E+04  0.14993033651E+04  0.00000000000E+00 0. -1.
         23    2    1    2    0    0 -0.94550397707E+03 -0.15877927157E+03  0.63127630637E+03  0.11514136201E+04  0.89749216527E+02 0.  0.
        254    2    1    2    0    0  0.94550397707E+03  0.15877927157E+03 -0.89053042771E+03  0.15879389887E+04  0.89962056524E+03 0.  0.
        -24    2    4    4    0    0  0.10189422571E+04 -0.91484547312E+02 -0.59494076058E+03  0.11861392908E+04  0.79744359296E+02 0.  0.
         24    2    4    4    0    0 -0.73438280057E+02  0.25026381888E+03 -0.29558966713E+03  0.40179969789E+03  0.77746934913E+02 0.  0.
         11    1    3    3    0    0 -0.50262429778E+03 -0.10514865232E+03  0.29004112443E+03  0.58975526929E+03  0.00000000000E+00 0. -1.
        -11    1    3    3    0    0 -0.44287967930E+03 -0.53630619247E+02  0.34123518195E+03  0.56165835083E+03  0.00000000000E+00 0.  1.
          4    1    6    6  502    0  0.15719614639E+02  0.27306430670E+02 -0.42747465186E+02  0.53104549901E+02  0.00000000000E+00 0. -1.
          3    1    5    5  503    0  0.74227367065E+02 -0.22598563636E+02 -0.61721527043E+02  0.99146074054E+02  0.00000000000E+00 0. -1.
         -4    1    5    5    0  503  0.94471489007E+03 -0.68885983675E+02 -0.53321923354E+03  0.10869932168E+04  0.00000000000E+00 0.  1.
         -3    1    6    6    0  502 -0.89157894696E+02  0.22295738821E+03 -0.25284220195E+03  0.34869514799E+03  0.00000000000E+00 0.  1.
<mgrwt>
<rscale>  0 0.27270570E+04</rscale>
<asrwt>0</asrwt>
<pdfrwt beam="1">  1        1 0.23066206E+00 0.27270570E+04</pdfrwt>
<pdfrwt beam="2">  1       -1 0.19077681E+00 0.27270570E+04</pdfrwt>
<totfact> 0.99555092E-01</totfact>
</mgrwt>
</event>
<event>
12    1  0.2048318E-007  0.2450223E+04  0.7818608E-02  0.8420936E-01
         -2   -1    0    0    0  501 -0.00000000000E+00  0.00000000000E+00  0.12356667197E+04  0.12356667197E+04  0.00000000000E+00 0.  1.
          2   -1    0    0  501    0  0.00000000000E+00 -0.00000000000E+00 -0.12146468507E+04  0.12146468507E+04  0.00000000000E+00 0. -1.
         23    2    1    2    0    0 -0.14067750661E+03  0.10306281956E+04 -0.18184023861E+03  0.10597090841E+04  0.89066447624E+02 0.  0.
        254    2    1    2    0    0  0.14067750661E+03 -0.10306281956E+04  0.20286010761E+03  0.13906044864E+04  0.90035769328E+03 0.  0.
        -24    2    4    4    0    0  0.12789619001E+03 -0.11765147191E+04  0.25175687569E+03  0.12125879536E+04  0.80272667864E+02 0.  0.
         24    2    4    4    0    0  0.12781316606E+02  0.14588652349E+03 -0.48896768074E+02  0.17801653274E+03  0.88615755990E+02 0.  0.
         11    1    3    3    0    0 -0.75109008420E+02  0.81721037686E+03 -0.14809362380E+03  0.83390999790E+03  0.00000000000E+00 0. -1.
        -11    1    3    3    0    0 -0.65568498195E+02  0.21341781872E+03 -0.33746614807E+02  0.22579908617E+03  0.00000000000E+00 0.  1.
          4    1    6    6  502    0  0.10894526612E+02  0.12368693854E+03 -0.73926723698E+02  0.14450712768E+03  0.00000000000E+00 0. -1.
          3    1    5    5  503    0  0.11791237774E+03 -0.83154540518E+03  0.15367620446E+03  0.85380762793E+03  0.00000000000E+00 0. -1.
         -4    1    5    5    0  503  0.99838122701E+01 -0.34496931389E+03  0.98080671222E+02  0.35878032569E+03  0.00000000000E+00 0.  1.
         -3    1    6    6    0  502  0.18867899940E+01  0.22199584956E+02  0.25029955624E+02  0.33509405056E+02  0.00000000000E+00 0.  1.
<mgrwt>
<rscale>  0 0.24502234E+04</rscale>
<asrwt>0</asrwt>
<pdfrwt beam="1">  1        2 0.18686875E+00 0.24502234E+04</pdfrwt>
<pdfrwt beam="2">  1       -2 0.19010257E+00 0.24502234E+04</pdfrwt>
<totfact> 0.25726116E+00</totfact>
</mgrwt>
</event>
<event>
12    1  0.2048318E-007  0.1995429E+04  0.7818608E-02  0.8608761E-01
         -3   -1    0    0    0  501 -0.00000000000E+00  0.00000000000E+00  0.37294640151E+04  0.37294640151E+04  0.00000000000E+00 0.  1.
          3   -1    0    0  501    0  0.00000000000E+00 -0.00000000000E+00 -0.26691073383E+03  0.26691073383E+03  0.00000000000E+00 0. -1.
         23    2    1    2    0    0 -0.75900362067E+03 -0.19795010966E+03  0.16644969936E+04  0.18424099087E+04  0.93023049060E+02 0.  0.
        254    2    1    2    0    0  0.75900362067E+03  0.19795010966E+03  0.17980562876E+04  0.21539648402E+04  0.88954335331E+03 0.  0.
        -24    2    4    4    0    0  0.24281534983E+03  0.23272159713E+03  0.15246438310E+04  0.15633891112E+04  0.80796446084E+02 0.  0.
         24    2    4    4    0    0  0.51618827084E+03 -0.34771487462E+02  0.27341245660E+03  0.59057572903E+03  0.79786797141E+02 0.  0.
         11    1    3    3    0    0 -0.53106471001E+03 -0.12936715114E+03  0.10574815674E+04  0.11903918898E+04  0.00000000000E+00 0. -1.
        -11    1    3    3    0    0 -0.22793891066E+03 -0.68582958522E+02  0.60701542627E+03  0.65201801886E+03  0.00000000000E+00 0.  1.
          4    1    6    6  502    0  0.10732081744E+03 -0.38564480158E+02  0.70968079963E+02  0.13431844758E+03  0.00000000000E+00 0. -1.
          1    1    5    5  503    0  0.14741308539E+03  0.16965403337E+03  0.85482210607E+03  0.88387439255E+03  0.00000000000E+00 0. -1.
         -2    1    5    5    0  503  0.95402264442E+02  0.63067563759E+02  0.66982172494E+03  0.67951471865E+03  0.00000000000E+00 0.  1.
         -3    1    6    6    0  502  0.40886745340E+03  0.37929926965E+01  0.20244437664E+03  0.45625728145E+03  0.00000000000E+00 0.  1.
<mgrwt>
<rscale>  0 0.19954288E+04</rscale>
<asrwt>0</asrwt>
<pdfrwt beam="1">  1        3 0.41063192E-01 0.19954288E+04</pdfrwt>
<pdfrwt beam="2">  1       -3 0.57376366E+00 0.19954288E+04</pdfrwt>
<totfact> 0.18003050E-02</totfact>
</mgrwt>
</event>
<event>
12    1  0.2048318E-007  0.1496429E+04  0.7818608E-02  0.8886831E-01
          1   -1    0    0  501    0  0.00000000000E+00  0.00000000000E+00  0.11911867138E+04  0.11911867138E+04  0.00000000000E+00 0. -1.
         -1   -1    0    0    0  501 -0.00000000000E+00 -0.00000000000E+00 -0.46997227356E+03  0.46997227356E+03  0.00000000000E+00 0.  1.
         23    2    1    2    0    0 -0.11427443236E+03  0.10334161386E+03  0.72874040861E+03  0.74935547541E+03  0.82054313298E+02 0.  0.
        254    2    1    2    0    0  0.11427443236E+03 -0.10334161386E+03 -0.75259683326E+01  0.91180351199E+03  0.89866059735E+03 0.  0.
        -24    2    4    4    0    0  0.36271127264E+03  0.22610281441E+03  0.15354421933E+03  0.46184782470E+03  0.83938286262E+02 0.  0.
         24    2    4    4    0    0 -0.24843684028E+03 -0.32944442828E+03 -0.16107018766E+03  0.44995568729E+03  0.79132927653E+02 0.  0.
         13    1    3    3    0    0  0.28912010972E+01 -0.10580627733E+02  0.38380372732E+02  0.39916935479E+02  0.00000000000E+00 0.  1.
        -13    1    3    3    0    0 -0.11716563346E+03  0.11392224160E+03  0.69036003588E+03  0.70943853993E+03  0.00000000000E+00 0. -1.
          2    1    6    6  502    0 -0.20842052823E+03 -0.25104203906E+03 -0.94808256123E+02  0.33977908616E+03  0.00000000000E+00 0. -1.
          3    1    5    5  503    0  0.27085001282E+03  0.12423086747E+03  0.95633419978E+02  0.31295173572E+03  0.00000000000E+00 0. -1.
         -4    1    5    5    0  503  0.91861259829E+02  0.10187194694E+03  0.57910799353E+02  0.14889608898E+03  0.00000000000E+00 0.  1.
         -1    1    6    6    0  502 -0.40016312054E+02 -0.78402389218E+02 -0.66261931541E+02  0.11017660113E+03  0.00000000000E+00 0.  1.
<mgrwt>
<rscale>  0 0.14964287E+04</rscale>
<asrwt>0</asrwt>
<pdfrwt beam="1">  1        1 0.18325949E+00 0.14964287E+04</pdfrwt>
<pdfrwt beam="2">  1       -1 0.72303427E-01 0.14964287E+04</pdfrwt>
<totfact> 0.20253489E+01</totfact>
</mgrwt>
</event>
<event>
12    1  0.2048318E-007  0.1361843E+04  0.7818608E-02  0.8981911E-01
         -1   -1    0    0    0  501 -0.00000000000E+00  0.00000000000E+00  0.93004308651E+03  0.93004308651E+03  0.00000000000E+00 0.  1.
          1   -1    0    0  501    0  0.00000000000E+00 -0.00000000000E+00 -0.49852979603E+03  0.49852979603E+03  0.00000000000E+00 0. -1.
         23    2    1    2    0    0 -0.16278039121E+03  0.32093383498E+03  0.23500846662E+03  0.43976113849E+03  0.93085430351E+02 0.  0.
        254    2    1    2    0    0  0.16278039121E+03 -0.32093383498E+03  0.19650482386E+03  0.98881174406E+03  0.89979916492E+03 0.  0.
        -24    2    4    4    0    0  0.35387193784E+03 -0.53710216330E+03  0.23136163886E+03  0.68790163840E+03  0.77307011069E+02 0.  0.
         24    2    4    4    0    0 -0.19109154663E+03  0.21616832832E+03 -0.34856815003E+02  0.30091010566E+03  0.78020310027E+02 0.  0.
         11    1    3    3    0    0 -0.12132545218E+03  0.27075005673E+03  0.22822786637E+03  0.37431726858E+03  0.00000000000E+00 0.  1.
        -11    1    3    3    0    0 -0.41454939027E+02  0.50183778253E+02  0.67806002494E+01  0.65443869913E+02  0.00000000000E+00 0. -1.
          2    1    6    6  502    0 -0.82657582468E+02  0.50470118354E+02  0.11509986225E+02  0.97529424120E+02  0.00000000000E+00 0. -1.
          1    1    5    5  503    0  0.16110677074E+03 -0.18242696039E+03  0.10334432328E+03  0.26441451664E+03  0.00000000000E+00 0. -1.
         -2    1    5    5    0  503  0.19276516710E+03 -0.35467520291E+03  0.12801731558E+03  0.42348712176E+03  0.00000000000E+00 0.  1.
         -1    1    6    6    0  502 -0.10843396416E+03  0.16569820996E+03 -0.46366801228E+02  0.20338068154E+03  0.00000000000E+00 0.  1.
<mgrwt>
<rscale>  0 0.13618431E+04</rscale>
<asrwt>0</asrwt>
<pdfrwt beam="1">  1        1 0.76696892E-01 0.13618431E+04</pdfrwt>
<pdfrwt beam="2">  1       -1 0.14308355E+00 0.13618431E+04</pdfrwt>
<totfact> 0.17228397E+01</totfact>
</mgrwt>
</event>
<event>
12    1  0.2048318E-007  0.1381259E+04  0.7818608E-02  0.8967497E-01
         -2   -1    0    0    0  501 -0.00000000000E+00  0.00000000000E+00  0.17981693925E+04  0.17981693925E+04  0.00000000000E+00 0.  1.
          2   -1    0    0  501    0  0.00000000000E+00 -0.00000000000E+00 -0.26525255441E+03  0.26525255441E+03  0.00000000000E+00 0. -1.
         23    2    1    2    0    0  0.37705984776E+03  0.45658608225E+02  0.31627408012E+03  0.50265699670E+03  0.91520081284E+02 0.  0.
        254    2    1    2    0    0 -0.37705984776E+03 -0.45658608225E+02  0.12166427579E+04  0.15607649502E+04  0.90083782776E+03 0.  0.
        -24    2    4    4    0    0  0.28455758812E+01 -0.10034729194E+03  0.11574235565E+04  0.11644287218E+04  0.78659281988E+02 0.  0.
         24    2    4    4    0    0 -0.37990542364E+03  0.54688683712E+02  0.59219201435E+02  0.39633622839E+03  0.79098097809E+02 0.  0.
         11    1    3    3    0    0  0.29942997558E+03  0.55036651870E+02  0.20646512338E+03  0.36785213129E+03  0.00000000000E+00 0. -1.
        -11    1    3    3    0    0  0.77629872186E+02 -0.93780436441E+01  0.10980895674E+03  0.13480486541E+03  0.00000000000E+00 0.  1.
          4    1    6    6  502    0 -0.33703646640E+03  0.22101730627E+02  0.45899079492E+02  0.34086477037E+03  0.00000000000E+00 0. -1.
          3    1    5    5  503    0  0.71325244391E+01 -0.35627595770E+02  0.82135200329E+03  0.82215528448E+03  0.00000000000E+00 0. -1.
         -4    1    5    5    0  503 -0.42869485578E+01 -0.64719696167E+02  0.33607155320E+03  0.34227343729E+03  0.00000000000E+00 0.  1.
         -3    1    6    6    0  502 -0.42868957240E+02  0.32586953085E+02  0.13320121943E+02  0.55471458019E+02  0.00000000000E+00 0.  1.
<mgrwt>
<rscale>  0 0.13812589E+04</rscale>
<asrwt>0</asrwt>
<pdfrwt beam="1">  1        2 0.40808087E-01 0.13812589E+04</pdfrwt>
<pdfrwt beam="2">  1       -2 0.27664144E+00 0.13812589E+04</pdfrwt>
<totfact> 0.54369025E+00</totfact>
</mgrwt>
</event>
<event>
12    1  0.2048318E-007  0.1856317E+04  0.7818608E-02  0.8676911E-01
          1   -1    0    0  501    0  0.00000000000E+00  0.00000000000E+00  0.57468316692E+03  0.57468316692E+03  0.00000000000E+00 0. -1.
         -1   -1    0    0    0  501 -0.00000000000E+00 -0.00000000000E+00 -0.14990496836E+04  0.14990496836E+04  0.00000000000E+00 0.  1.
         23    2    1    2    0    0 -0.35871182365E+03 -0.40565529574E+03 -0.85825728857E+03  0.10188513265E+04  0.90675579998E+02 0.  0.
        254    2    1    2    0    0  0.35871182365E+03  0.40565529574E+03 -0.66109228158E+02  0.10548815240E+04  0.90286998416E+03 0.  0.
        -24    2    4    4    0    0  0.48981873799E+03  0.96522193486E+02  0.27001106089E+03  0.57324432116E+03  0.80399930413E+02 0.  0.
         24    2    4    4    0    0 -0.13110691434E+03  0.30913310225E+03 -0.33612028904E+03  0.48163720287E+03  0.79026885210E+02 0.  0.
         13    1    3    3    0    0 -0.22116852019E+03 -0.21939544669E+03 -0.41679424807E+03  0.52035307396E+03  0.00000000000E+00 0. -1.
        -13    1    3    3    0    0 -0.13754330346E+03 -0.18625984904E+03 -0.44146304051E+03  0.49849825258E+03  0.00000000000E+00 0.  1.
          2    1    6    6  502    0 -0.73090161233E+02  0.25383366482E+03 -0.24490174123E+03  0.36020905585E+03  0.00000000000E+00 0. -1.
          3    1    5    5  503    0  0.33742317726E+03  0.96620025862E+02  0.21284955837E+03  0.41048113775E+03  0.00000000000E+00 0. -1.
         -4    1    5    5    0  503  0.15239556073E+03 -0.97832375647E-01  0.57161502518E+02  0.16276318341E+03  0.00000000000E+00 0.  1.
         -1    1    6    6    0  502 -0.58016753112E+02  0.55299437437E+02 -0.91218547819E+02  0.12142814702E+03  0.00000000000E+00 0.  1.
<mgrwt>
<rscale>  0 0.18563175E+04</rscale>
<asrwt>0</asrwt>
<pdfrwt beam="1">  1        1 0.88412795E-01 0.18563175E+04</pdfrwt>
<pdfrwt beam="2">  1       -1 0.23062303E+00 0.18563175E+04</pdfrwt>
<totfact> 0.31993354E+00</totfact>
</mgrwt>
</event>
<event>
12    1  0.2048318E-007  0.2228495E+04  0.7818608E-02  0.8506661E-01
         -3   -1    0    0    0  501 -0.00000000000E+00  0.00000000000E+00  0.18722001133E+04  0.18722001133E+04  0.00000000000E+00 0.  1.
          3   -1    0    0  501    0  0.00000000000E+00 -0.00000000000E+00 -0.66314873797E+03  0.66314873797E+03  0.00000000000E+00 0. -1.
         23    2    1    2    0    0  0.64946264977E+03  0.51512462591E+03  0.25811849566E+02  0.83403414645E+03  0.88269996038E+02 0.  0.
        254    2    1    2    0    0 -0.64946264977E+03 -0.51512462591E+03  0.11832395258E+04  0.17013147048E+04  0.89847695342E+03 0.  0.
        -24    2    4    4    0    0 -0.26730301744E+03  0.20466026633E+02 -0.65290889178E+02  0.28757256870E+03  0.81026666494E+02 0.  0.
         24    2    4    4    0    0 -0.38215963233E+03 -0.53559065254E+03  0.12485304150E+04  0.14137421361E+04  0.83278440845E+02 0.  0.
         13    1    3    3    0    0  0.38960082162E+03  0.25440269464E+03  0.23924468944E+02  0.46592049908E+03  0.00000000000E+00 0.  1.
        -13    1    3    3    0    0  0.25986182814E+03  0.26072193127E+03  0.18873806226E+01  0.36811364736E+03  0.00000000000E+00 0. -1.
          4    1    6    6  502    0 -0.66841722584E+01 -0.20523542668E+02  0.77855228028E+02  0.80791896213E+02  0.00000000000E+00 0. -1.
          3    1    5    5  503    0 -0.55415238792E+02 -0.83376276421E+01 -0.46668267426E+02  0.72926620034E+02  0.00000000000E+00 0. -1.
         -4    1    5    5    0  503 -0.21188777865E+03  0.28803654275E+02 -0.18622621753E+02  0.21464594867E+03  0.00000000000E+00 0.  1.
         -3    1    6    6    0  502 -0.37547546007E+03 -0.51506710988E+03  0.11706751869E+04  0.13329502399E+04  0.00000000000E+00 0.  1.
<mgrwt>
<rscale>  0 0.22284947E+04</rscale>
<asrwt>0</asrwt>
<pdfrwt beam="1">  1        3 0.10202288E+00 0.22284947E+04</pdfrwt>
<pdfrwt beam="2">  1       -3 0.28803079E+00 0.22284947E+04</pdfrwt>
<totfact> 0.88146862E-02</totfact>
</mgrwt>
</event>
<event>
12    1  0.2917838E-007  0.2249812E+04  0.7818608E-02  0.8497977E-01
         -2   -1    0    0    0  501 -0.00000000000E+00  0.00000000000E+00  0.12233648355E+04  0.12233648355E+04  0.00000000000E+00 0. -1.
          2   -1    0    0  501    0  0.00000000000E+00 -0.00000000000E+00 -0.10343711689E+04  0.10343711689E+04  0.00000000000E+00 0.  1.
         23    2    1    2    0    0  0.59823922347E+03 -0.65071043011E+03  0.39838822715E+03  0.97374338275E+03  0.90270502134E+02 0.  0.
        254    2    1    2    0    0 -0.59823922347E+03  0.65071043011E+03 -0.20939456052E+03  0.12839926216E+04  0.90745619072E+03 0.  0.
        -24    2    4    4    0    0 -0.49291433363E+03 -0.92894935550E+02 -0.38199455240E+02  0.50948556788E+03  0.80760981631E+02 0.  0.
         24    2    4    4    0    0 -0.10532488984E+03  0.74360536566E+03 -0.17119510528E+03  0.77450705375E+03  0.80691635034E+02 0.  0.
         13    1    3    3    0    0  0.25142545003E+03 -0.33041373222E+03  0.21201487022E+03  0.46619555613E+03  0.00000000000E+00 0. -1.
        -13    1    3    3    0    0  0.34681377344E+03 -0.32029669790E+03  0.18637335693E+03  0.50754782661E+03  0.00000000000E+00 0.  1.
          2    1    6    6  502    0 -0.11038625848E+03  0.71934223493E+03 -0.15277227370E+03  0.74362473374E+03  0.00000000000E+00 0. -1.
          1    1    5    5  503    0 -0.49147939512E+03 -0.83619204869E+02 -0.35967651460E+02  0.49983781290E+03  0.00000000000E+00 0. -1.
         -2    1    5    5    0  503 -0.14349385098E+01 -0.92757306809E+01 -0.22318037794E+01  0.96477549877E+01  0.00000000000E+00 0.  1.
         -1    1    6    6    0  502  0.50613686420E+01  0.24263130733E+02 -0.18422831580E+02  0.30882320006E+02  0.00000000000E+00 0.  1.
<mgrwt>
<rscale>  0 0.22498118E+04</rscale>
<asrwt>0</asrwt>
<pdfrwt beam="1">  1        2 0.15913403E+00 0.22498118E+04</pdfrwt>
<pdfrwt beam="2">  1       -2 0.18820997E+00 0.22498118E+04</pdfrwt>
<totfact> 0.34733957E+00</totfact>
</mgrwt>
</event>
<event>
12    1  0.2048318E-007  0.1577403E+04  0.7818608E-02  0.8834551E-01
         -1   -1    0    0    0  501 -0.00000000000E+00  0.00000000000E+00  0.26966957832E+03  0.26966957832E+03  0.00000000000E+00 0.  1.
          1   -1    0    0  501    0  0.00000000000E+00 -0.00000000000E+00 -0.23067131492E+04  0.23067131492E+04  0.00000000000E+00 0. -1.
         23    2    1    2    0    0 -0.68581882085E+01 -0.46589175277E+03 -0.10644463122E+04  0.11657575666E+04  0.94035059753E+02 0.  0.
        254    2    1    2    0    0  0.68581882085E+01  0.46589175277E+03 -0.97259725873E+03  0.14106251610E+04  0.90929409823E+03 0.  0.
        -24    2    4    4    0    0  0.81922565601E+01 -0.24428424669E+03 -0.84017355714E+02  0.27032048771E+03  0.79198129793E+02 0.  0.
         24    2    4    4    0    0 -0.13340683517E+01  0.71017599946E+03 -0.88857990301E+03  0.11403046733E+04  0.79804598263E+02 0.  0.
         11    1    3    3    0    0  0.31845767259E+02 -0.13554204956E+03 -0.25285135569E+03  0.28865136093E+03  0.00000000000E+00 0.  1.
        -11    1    3    3    0    0 -0.38703955468E+02 -0.33034970321E+03 -0.81159495649E+03  0.87710620565E+03  0.00000000000E+00 0. -1.
          2    1    6    6  502    0  0.26049258861E+02  0.29935185320E+03 -0.42174880453E+03  0.51784375059E+03  0.00000000000E+00 0. -1.
          1    1    5    5  503    0 -0.26060440386E+02 -0.39838302596E+02 -0.29395814084E+02  0.55949537911E+02  0.00000000000E+00 0. -1.
         -2    1    5    5    0  503  0.34252696946E+02 -0.20444594410E+03 -0.54621541630E+02  0.21437094980E+03  0.00000000000E+00 0.  1.
         -1    1    6    6    0  502 -0.27383327213E+02  0.41082414626E+03 -0.46683109849E+03  0.62246092269E+03  0.00000000000E+00 0.  1.
<mgrwt>
<rscale>  0 0.15774034E+04</rscale>
<asrwt>0</asrwt>
<pdfrwt beam="1">  1        1 0.35487896E+00 0.15774034E+04</pdfrwt>
<pdfrwt beam="2">  1       -1 0.41487626E-01 0.15774034E+04</pdfrwt>
<totfact> 0.10095917E+01</totfact>
</mgrwt>
</event>
<event>
12    1  0.2048318E-007  0.2213895E+04  0.7818608E-02  0.8512667E-01
          1   -1    0    0  501    0  0.00000000000E+00  0.00000000000E+00  0.28214992191E+04  0.28214992191E+04  0.00000000000E+00 0. -1.
         -1   -1    0    0    0  501 -0.00000000000E+00 -0.00000000000E+00 -0.43428447083E+03  0.43428447083E+03  0.00000000000E+00 0.  1.
         23    2    1    2    0    0 -0.84897909981E+03  0.18024094237E+03  0.14517782988E+04  0.16941992077E+04  0.96945435944E+02 0.  0.
        254    2    1    2    0    0  0.84897909981E+03 -0.18024094237E+03  0.93543644950E+03  0.15615844822E+04  0.90014023058E+03 0.  0.
        -24    2    4    4    0    0  0.33319855536E+03  0.29824194584E+03  0.66228087107E+03  0.80277220148E+03  0.76535741480E+02 0.  0.
         24    2    4    4    0    0  0.51578054445E+03 -0.47848288821E+03  0.27315557843E+03  0.75881228070E+03  0.78782377323E+02 0.  0.
         13    1    3    3    0    0 -0.23232088513E+03  0.86813149150E+02  0.46034324646E+03  0.52290096681E+03  0.00000000000E+00 0. -1.
        -13    1    3    3    0    0 -0.61665821468E+03  0.93427793218E+02  0.99143505230E+03  0.11712982409E+04  0.00000000000E+00 0.  1.
          2    1    6    6  502    0  0.89770921802E+02 -0.95761534720E+02  0.83406074653E+02  0.15551740489E+03  0.00000000000E+00 0. -1.
          1    1    5    5  503    0 -0.50816870878E+00  0.31058652626E+01 -0.13934100995E+01  0.34418347100E+01  0.00000000000E+00 0. -1.
         -2    1    5    5    0  503  0.33370672407E+03  0.29513608058E+03  0.66367428117E+03  0.79933036677E+03  0.00000000000E+00 0.  1.
         -1    1    6    6    0  502  0.42600962265E+03 -0.38272135349E+03  0.18974950377E+03  0.60329487582E+03  0.00000000000E+00 0.  1.
<mgrwt>
<rscale>  0 0.22138955E+04</rscale>
<asrwt>0</asrwt>
<pdfrwt beam="1">  1        1 0.43407679E+00 0.22138955E+04</pdfrwt>
<pdfrwt beam="2">  1       -1 0.66812997E-01 0.22138955E+04</pdfrwt>
<totfact> 0.16632895E+00</totfact>
</mgrwt>
</event>
<event>
12    1  0.2048318E-007  0.1226757E+04  0.7818608E-02  0.9089753E-01
         -2   -1    0    0    0  501 -0.00000000000E+00  0.00000000000E+00  0.20631577203E+03  0.20631577203E+03  0.00000000000E+00 0.  1.
          2   -1    0    0  501    0  0.00000000000E+00 -0.00000000000E+00 -0.18235797196E+04  0.18235797196E+04  0.00000000000E+00 0. -1.
         23    2    1    2    0    0  0.74272914123E+02 -0.20516641131E+03 -0.66511722318E+03  0.70585623739E+03  0.90787582825E+02 0.  0.
        254    2    1    2    0    0 -0.74272914123E+02  0.20516641131E+03 -0.95214672436E+03  0.13240392542E+04  0.89380469895E+03 0.  0.
        -24    2    4    4    0    0 -0.27469528120E+03 -0.27151592577E+03 -0.35959450376E+03  0.53357834353E+03  0.78862196793E+02 0.  0.
         24    2    4    4    0    0  0.20042236707E+03  0.47668233708E+03 -0.59255222059E+03  0.79046091068E+03  0.79467864359E+02 0.  0.
         11    1    3    3    0    0  0.27341650309E+02 -0.17532419889E+03 -0.55176405500E+03  0.57959443834E+03  0.00000000000E+00 0. -1.
        -11    1    3    3    0    0  0.46931263814E+02 -0.29842212418E+02 -0.11335316818E+03  0.12626179906E+03  0.00000000000E+00 0.  1.
          2    1    6    6  502    0  0.11235130595E+03  0.33081893840E+03 -0.43929231774E+03  0.56128577960E+03  0.00000000000E+00 0. -1.
          1    1    5    5  503    0 -0.10145553258E+03 -0.14366379826E+03 -0.12915895770E+03  0.21820758094E+03  0.00000000000E+00 0. -1.
         -2    1    5    5    0  503 -0.17323974862E+03 -0.12785212751E+03 -0.23043554606E+03  0.31537076259E+03  0.00000000000E+00 0.  1.
         -1    1    6    6    0  502  0.88071061121E+02  0.14586339868E+03 -0.15325990286E+03  0.22917513108E+03  0.00000000000E+00 0.  1.
<mgrwt>
<rscale>  0 0.12267571E+04</rscale>
<asrwt>0</asrwt>
<pdfrwt beam="1">  1        2 0.28055072E+00 0.12267571E+04</pdfrwt>
<pdfrwt beam="2">  1       -2 0.31740889E-01 0.12267571E+04</pdfrwt>
<totfact> 0.76096488E+01</totfact>
</mgrwt>
</event>
<event>
12    1  0.2048318E-007  0.1518258E+04  0.7818608E-02  0.8872401E-01
         -2   -1    0    0    0  501 -0.00000000000E+00  0.00000000000E+00  0.19980790439E+03  0.19980790439E+03  0.00000000000E+00 0.  1.
          2   -1    0    0  501    0  0.00000000000E+00 -0.00000000000E+00 -0.28841562361E+04  0.28841562361E+04  0.00000000000E+00 0. -1.
         23    2    1    2    0    0  0.44924600027E+03  0.17799626646E+03 -0.75851817994E+03  0.90456495661E+03  0.96867392857E+02 0.  0.
        254    2    1    2    0    0 -0.44924600027E+03 -0.17799626646E+03 -0.19258301518E+04  0.21793991839E+04  0.89858465912E+03 0.  0.
        -24    2    4    4    0    0  0.19621561322E+02  0.31067726320E+03 -0.44412977443E+03  0.54833233348E+03  0.80695253063E+02 0.  0.
         24    2    4    4    0    0 -0.46886756159E+03 -0.48867352965E+03 -0.14817003773E+04  0.16310668504E+04  0.79400588040E+02 0.  0.
         13    1    3    3    0    0  0.38512787017E+03  0.14666070359E+03 -0.69988597418E+03  0.81220269343E+03  0.00000000000E+00 0. -1.
        -13    1    3    3    0    0  0.64118130104E+02  0.31335562864E+02 -0.58632205756E+02  0.92362263181E+02  0.00000000000E+00 0.  1.
          4    1    6    6  502    0 -0.44397628070E+03 -0.44554743802E+03 -0.14081870155E+04  0.15422769298E+04  0.00000000000E+00 0. -1.
          3    1    5    5  503    0  0.33775558749E+02  0.29594054018E+03 -0.39189352920E+03  0.49224194247E+03  0.00000000000E+00 0. -1.
         -4    1    5    5    0  503 -0.14153997427E+02  0.14736723014E+02 -0.52236245233E+02  0.56090391017E+02  0.00000000000E+00 0.  1.
         -3    1    6    6    0  502 -0.24891280895E+02 -0.43126091636E+02 -0.73513361808E+02  0.88789920648E+02  0.00000000000E+00 0.  1.
<mgrwt>
<rscale>  0 0.15182585E+04</rscale>
<asrwt>0</asrwt>
<pdfrwt beam="1">  1        2 0.44371632E+00 0.15182585E+04</pdfrwt>
<pdfrwt beam="2">  1       -2 0.30739679E-01 0.15182585E+04</pdfrwt>
<totfact> 0.19537020E+01</totfact>
</mgrwt>
</event>
<event>
12    1  0.2048318E-007  0.2200436E+04  0.7818608E-02  0.8518246E-01
         -1   -1    0    0    0  501 -0.00000000000E+00  0.00000000000E+00  0.14513302230E+04  0.14513302230E+04  0.00000000000E+00 0.  1.
          1   -1    0    0  501    0  0.00000000000E+00 -0.00000000000E+00 -0.83404872629E+03  0.83404872629E+03  0.00000000000E+00 0. -1.
         23    2    1    2    0    0  0.21922458542E+03  0.87948197393E+03  0.13842908155E+03  0.92213881401E+03  0.98129610044E+02 0.  0.
        254    2    1    2    0    0 -0.21922458542E+03 -0.87948197393E+03  0.47885241521E+03  0.13632401353E+04  0.89865236309E+03 0.  0.
        -24    2    4    4    0    0  0.21956960469E+03 -0.29015291734E+02 -0.81604583549E+02  0.25058060750E+03  0.84134620346E+02 0.  0.
         24    2    4    4    0    0 -0.43879419010E+03 -0.85046668220E+03  0.56045699876E+03  0.11126595278E+04  0.89806784909E+02 0.  0.
         11    1    3    3    0    0  0.17249222089E+03  0.55538595440E+03  0.12241166608E+03  0.59429936952E+03  0.00000000000E+00 0. -1.
        -11    1    3    3    0    0  0.46732364525E+02  0.32409601953E+03  0.16017415471E+02  0.32783944450E+03  0.00000000000E+00 0.  1.
          2    1    6    6  502    0 -0.46669680331E+02 -0.12202118036E+03  0.10943016120E+03  0.17041768599E+03  0.00000000000E+00 0. -1.
          1    1    5    5  503    0  0.11204509126E+02 -0.12689898370E+02  0.12821836910E+02  0.21236149537E+02  0.00000000000E+00 0. -1.
         -2    1    5    5    0  503  0.20836509556E+03 -0.16325393364E+02 -0.94426420459E+02  0.22934445796E+03  0.00000000000E+00 0.  1.
         -1    1    6    6    0  502 -0.39212450977E+03 -0.72844550184E+03  0.45102683756E+03  0.94224184184E+03  0.00000000000E+00 0.  1.
<mgrwt>
<rscale>  0 0.22004364E+04</rscale>
<asrwt>0</asrwt>
<pdfrwt beam="1">  1        1 0.12831519E+00 0.22004364E+04</pdfrwt>
<pdfrwt beam="2">  1       -1 0.22328157E+00 0.22004364E+04</pdfrwt>
<totfact> 0.19707136E+00</totfact>
</mgrwt>
</event>
<event>
12    1  0.2048318E-007  0.1923302E+04  0.7818608E-02  0.8643344E-01
         -1   -1    0    0    0  501 -0.00000000000E+00  0.00000000000E+00  0.72650484639E+03  0.72650484639E+03  0.00000000000E+00 0.  1.
          1   -1    0    0  501    0  0.00000000000E+00 -0.00000000000E+00 -0.12729061368E+04  0.12729061368E+04  0.00000000000E+00 0. -1.
         23    2    1    2    0    0 -0.68211729470E+03  0.21175896805E+03  0.14077618706E+02  0.72084873285E+03  0.96430555435E+02 0.  0.
        254    2    1    2    0    0  0.68211729470E+03 -0.21175896805E+03 -0.56047890909E+03  0.12785622503E+04  0.90025493951E+03 0.  0.
        -24    2    4    4    0    0  0.24981645972E+03 -0.45939760430E+03 -0.66498503620E+01  0.52936244245E+03  0.82011905120E+02 0.  0.
         24    2    4    4    0    0  0.43230083498E+03  0.24763863625E+03 -0.55382905873E+03  0.74919980786E+03  0.79779820201E+02 0.  0.
         13    1    3    3    0    0 -0.37054114013E+03  0.65796198460E+02 -0.30831553911E+01  0.37635007920E+03  0.00000000000E+00 0.  1.
        -13    1    3    3    0    0 -0.31157615457E+03  0.14596276959E+03  0.17160774098E+02  0.34449865366E+03  0.00000000000E+00 0. -1.
          4    1    6    6  502    0  0.30368860404E+03  0.16557254843E+03 -0.43536354142E+03  0.55604177021E+03  0.00000000000E+00 0. -1.
          3    1    5    5  503    0  0.15209917995E+03 -0.19773318233E+03 -0.15082097503E+02  0.24992007042E+03  0.00000000000E+00 0. -1.
         -4    1    5    5    0  503  0.97717279773E+02 -0.26166442198E+03  0.84322471407E+01  0.27944237203E+03  0.00000000000E+00 0.  1.
         -3    1    6    6    0  502  0.12861223094E+03  0.82066087820E+02 -0.11846551732E+03  0.19315803766E+03  0.00000000000E+00 0.  1.
<mgrwt>
<rscale>  0 0.19233018E+04</rscale>
<asrwt>0</asrwt>
<pdfrwt beam="1">  1        1 0.19583172E+00 0.19233018E+04</pdfrwt>
<pdfrwt beam="2">  1       -1 0.11176998E+00 0.19233018E+04</pdfrwt>
<totfact> 0.64911096E+00</totfact>
</mgrwt>
</event>
<event>
12    1  0.2048318E-007  0.3282609E+04  0.7818608E-02  0.8167335E-01
          2   -1    0    0  501    0  0.00000000000E+00  0.00000000000E+00  0.24632639739E+04  0.24632639739E+04  0.00000000000E+00 0. -1.
         -2   -1    0    0    0  501 -0.00000000000E+00 -0.00000000000E+00 -0.10936226245E+04  0.10936226245E+04  0.00000000000E+00 0.  1.
         23    2    1    2    0    0  0.10678212928E+04 -0.10703135598E+04  0.84503794042E+03  0.17345442295E+04  0.93494030340E+02 0.  0.
        254    2    1    2    0    0 -0.10678212928E+04  0.10703135598E+04  0.52460340904E+03  0.18223423690E+04  0.87172790670E+03 0.  0.
        -24    2    4    4    0    0 -0.23377043009E+03  0.45445173328E+03  0.58506134493E+03  0.78084942439E+03  0.79082579434E+02 0.  0.
         24    2    4    4    0    0 -0.83405086271E+03  0.61586182648E+03 -0.60457935894E+02  0.10414929446E+04  0.78267238673E+02 0.  0.
         13    1    3    3    0    0  0.69063507745E+03 -0.62817033972E+03  0.52573178246E+03  0.10714330091E+04  0.00000000000E+00 0. -1.
        -13    1    3    3    0    0  0.37718621535E+03 -0.44214322004E+03  0.31930615796E+03  0.66311122038E+03  0.00000000000E+00 0.  1.
          2    1    6    6  502    0 -0.50503789055E+03  0.41623289300E+03 -0.52712870837E+02  0.65657576780E+03  0.00000000000E+00 0. -1.
          1    1    5    5  503    0 -0.13330094380E+03  0.17554330951E+03  0.26187801807E+03  0.34229328285E+03  0.00000000000E+00 0. -1.
         -2    1    5    5    0  503 -0.10046948629E+03  0.27890842377E+03  0.32318332686E+03  0.43855614154E+03  0.00000000000E+00 0.  1.
         -1    1    6    6    0  502 -0.32901297217E+03  0.19962893347E+03 -0.77450650569E+01  0.38491717676E+03  0.00000000000E+00 0.  1.
<mgrwt>
<rscale>  0 0.32826095E+04</rscale>
<asrwt>0</asrwt>
<pdfrwt beam="1">  1        2 0.37896369E+00 0.32826095E+04</pdfrwt>
<pdfrwt beam="2">  1       -2 0.16824964E+00 0.32826095E+04</pdfrwt>
<totfact> 0.67063122E-01</totfact>
</mgrwt>
</event>
<event>
12    1  0.2048318E-007  0.2286099E+04  0.7818608E-02  0.8483422E-01
          1   -1    0    0  501    0  0.00000000000E+00  0.00000000000E+00  0.19319837160E+04  0.19319837160E+04  0.00000000000E+00 0. -1.
         -1   -1    0    0    0  501 -0.00000000000E+00 -0.00000000000E+00 -0.67628010069E+03  0.67628010069E+03  0.00000000000E+00 0.  1.
         23    2    1    2    0    0  0.44396025137E+03 -0.71340583966E+03 -0.61462990786E+01  0.84516453545E+03  0.90646114861E+02 0.  0.
        254    2    1    2    0    0 -0.44396025137E+03  0.71340583966E+03  0.12618499144E+04  0.17630992812E+04  0.90011403288E+03 0.  0.
        -24    2    4    4    0    0 -0.64190621021E+03  0.42038598946E+03  0.11475215065E+04  0.13827469538E+04  0.80097237397E+02 0.  0.
         24    2    4    4    0    0  0.19794595885E+03  0.29301985021E+03  0.11432840787E+03  0.38035232745E+03  0.80954758438E+02 0.  0.
         13    1    3    3    0    0  0.34656098362E+03 -0.50251243808E+03  0.24104690988E+02  0.61090449493E+03  0.00000000000E+00 0. -1.
        -13    1    3    3    0    0  0.97399267745E+02 -0.21089340158E+03 -0.30250990067E+02  0.23426004052E+03  0.00000000000E+00 0.  1.
          4    1    6    6  502    0  0.75518828428E+02  0.56232679265E+02  0.47883325232E+02  0.10563153175E+03  0.00000000000E+00 0. -1.
          3    1    5    5  503    0 -0.80658359938E+02  0.60566735379E+02  0.10772273661E+03  0.14757468769E+03  0.00000000000E+00 0. -1.
         -4    1    5    5    0  503 -0.56124785027E+03  0.35981925408E+03  0.10397987699E+04  0.12351722661E+04  0.00000000000E+00 0.  1.
         -3    1    6    6    0  502  0.12242713042E+03  0.23678717094E+03  0.66445082642E+02  0.27472079570E+03  0.00000000000E+00 0.  1.
<mgrwt>
<rscale>  0 0.22860990E+04</rscale>
<asrwt>0</asrwt>
<pdfrwt beam="1">  1        1 0.29722826E+00 0.22860990E+04</pdfrwt>
<pdfrwt beam="2">  1       -1 0.10404309E+00 0.22860990E+04</pdfrwt>
<totfact> 0.26080550E+00</totfact>
</mgrwt>
</event>
<event>
12    1  0.2048318E-007  0.1295010E+04  0.7818608E-02  0.9033532E-01
          2   -1    0    0  501    0  0.00000000000E+00  0.00000000000E+00  0.16966397496E+04  0.16966397496E+04  0.00000000000E+00 0. -1.
         -2   -1    0    0    0  501 -0.00000000000E+00 -0.00000000000E+00 -0.24711346056E+03  0.24711346056E+03  0.00000000000E+00 0.  1.
         23    2    1    2    0    0  0.29240117304E+03  0.72124093520E+02  0.18896950847E+03  0.36663787397E+03  0.89518292208E+02 0.  0.
        254    2    1    2    0    0 -0.29240117304E+03 -0.72124093520E+02  0.12605567806E+04  0.15771153362E+04  0.89865958835E+03 0.  0.
        -24    2    4    4    0    0  0.21657892076E+03 -0.12504739752E+03  0.59320316592E+02  0.26899708693E+03  0.79355228389E+02 0.  0.
         24    2    4    4    0    0 -0.50898009380E+03  0.52923303996E+02  0.12012364640E+04  0.13081182493E+04  0.79641067677E+02 0.  0.
         11    1    3    3    0    0  0.21758807299E+02  0.33791448036E+02  0.32434738022E+02  0.51646102331E+02  0.00000000000E+00 0. -1.
        -11    1    3    3    0    0  0.27064236574E+03  0.38332645484E+02  0.15653477044E+03  0.31499177164E+03  0.00000000000E+00 0.  1.
          2    1    6    6  502    0 -0.35559103898E+03  0.64285421784E+02  0.90139086638E+03  0.97112465547E+03  0.00000000000E+00 0. -1.
          1    1    5    5  503    0  0.32182544475E+02 -0.56054726370E+02  0.24145196819E+02  0.68998833662E+02  0.00000000000E+00 0. -1.
         -2    1    5    5    0  503  0.18439637629E+03 -0.68992671147E+02  0.35175119773E+02  0.19999825327E+03  0.00000000000E+00 0.  1.
         -1    1    6    6    0  502 -0.15338905482E+03 -0.11362117788E+02  0.29984559761E+03  0.33699359380E+03  0.00000000000E+00 0.  1.
<mgrwt>
<rscale>  0 0.12950097E+04</rscale>
<asrwt>0</asrwt>
<pdfrwt beam="1">  1        2 0.26102149E+00 0.12950097E+04</pdfrwt>
<pdfrwt beam="2">  1       -2 0.38017456E-01 0.12950097E+04</pdfrwt>
<totfact> 0.63062319E+01</totfact>
</mgrwt>
</event>
<event>
12    1  0.2048318E-007  0.1270967E+04  0.7818608E-02  0.9052911E-01
          1   -1    0    0  501    0  0.00000000000E+00  0.00000000000E+00  0.13229726672E+04  0.13229726672E+04  0.00000000000E+00 0. -1.
         -1   -1    0    0    0  501 -0.00000000000E+00 -0.00000000000E+00 -0.30525158641E+03  0.30525158641E+03  0.00000000000E+00 0.  1.
         23    2    1    2    0    0 -0.54737775297E+02  0.19972354676E+03  0.54694611944E+03  0.59180778510E+03  0.90557593610E+02 0.  0.
        254    2    1    2    0    0  0.54737775297E+02 -0.19972354676E+03  0.47077496131E+03  0.10364164685E+04  0.89980237426E+03 0.  0.
        -24    2    4    4    0    0 -0.86253946877E+02 -0.53332084257E+03  0.22288673947E+03  0.58993540836E+03  0.80463798869E+02 0.  0.
         24    2    4    4    0    0  0.14099172217E+03  0.33359729581E+03  0.24788822184E+03  0.44648106011E+03  0.82042336708E+02 0.  0.
         11    1    3    3    0    0 -0.27886166521E+02  0.11953693573E+03  0.43204544352E+03  0.44914361017E+03  0.00000000000E+00 0. -1.
        -11    1    3    3    0    0 -0.26851608776E+02  0.80186611035E+02  0.11490067592E+03  0.14266417493E+03  0.00000000000E+00 0.  1.
          2    1    6    6  502    0  0.60141987260E+02  0.21916095964E+03  0.12109082059E+03  0.25751033318E+03  0.00000000000E+00 0. -1.
          3    1    5    5  503    0 -0.10075410059E+02 -0.30887932316E+03  0.13296629575E+03  0.33643422235E+03  0.00000000000E+00 0. -1.
         -4    1    5    5    0  503 -0.76178536818E+02 -0.22444151941E+03  0.89920443722E+02  0.25350118601E+03  0.00000000000E+00 0.  1.
         -1    1    6    6    0  502  0.80849734913E+02  0.11443633617E+03  0.12679740125E+03  0.18897072693E+03  0.00000000000E+00 0.  1.
<mgrwt>
<rscale>  0 0.12709674E+04</rscale>
<asrwt>0</asrwt>
<pdfrwt beam="1">  1        1 0.20353425E+00 0.12709674E+04</pdfrwt>
<pdfrwt beam="2">  1       -1 0.46961783E-01 0.12709674E+04</pdfrwt>
<totfact> 0.38758682E+01</totfact>
</mgrwt>
</event>
<event>
12    1  0.2048318E-007  0.1769580E+04  0.7818608E-02  0.8722646E-01
          2   -1    0    0  501    0  0.00000000000E+00  0.00000000000E+00  0.17358109552E+04  0.17358109552E+04  0.00000000000E+00 0. -1.
         -2   -1    0    0    0  501 -0.00000000000E+00 -0.00000000000E+00 -0.45100150948E+03  0.45100150948E+03  0.00000000000E+00 0.  1.
         23    2    1    2    0    0  0.47945008012E+03 -0.38737662377E+03  0.21229589715E+03  0.65799116620E+03  0.89161644673E+02 0.  0.
        254    2    1    2    0    0 -0.47945008012E+03  0.38737662377E+03  0.10725135486E+04  0.15288212985E+04  0.89837421095E+03 0.  0.
        -24    2    4    4    0    0 -0.48083455546E+03  0.52546987090E+03  0.11467909470E+04  0.13523920061E+04  0.80710638412E+02 0.  0.
         24    2    4    4    0    0  0.13844753379E+01 -0.13809324713E+03 -0.74277398420E+02  0.17642929238E+03  0.80861001847E+02 0.  0.
         13    1    3    3    0    0  0.34337630603E+03 -0.22448659125E+03  0.14969656363E+03  0.43670422296E+03  0.00000000000E+00 0. -1.
        -13    1    3    3    0    0  0.13607377409E+03 -0.16289003252E+03  0.62599333526E+02  0.22128694324E+03  0.00000000000E+00 0.  1.
          2    1    6    6  502    0 -0.18034197604E+02 -0.71085956729E+02  0.15987121503E+01  0.73355309336E+02  0.00000000000E+00 0. -1.
          1    1    5    5  503    0 -0.34226899765E+03  0.42406901905E+03  0.85983269988E+03  0.10179856931E+04  0.00000000000E+00 0. -1.
         -2    1    5    5    0  503 -0.13856555780E+03  0.10140085185E+03  0.28695824714E+03  0.33440631299E+03  0.00000000000E+00 0.  1.
         -1    1    6    6    0  502  0.19418672942E+02 -0.67007290400E+02 -0.75876110571E+02  0.10307398305E+03  0.00000000000E+00 0.  1.
<mgrwt>
<rscale>  0 0.17695800E+04</rscale>
<asrwt>0</asrwt>
<pdfrwt beam="1">  1        2 0.26704784E+00 0.17695800E+04</pdfrwt>
<pdfrwt beam="2">  1       -2 0.69384849E-01 0.17695800E+04</pdfrwt>
<totfact> 0.16797757E+01</totfact>
</mgrwt>
</event>
<event>
12    1  0.2048318E-007  0.2374661E+04  0.7818608E-02  0.8449052E-01
          2   -1    0    0  501    0  0.00000000000E+00  0.00000000000E+00  0.31738898607E+04  0.31738898607E+04  0.00000000000E+00 0.  1.
         -2   -1    0    0    0  501 -0.00000000000E+00 -0.00000000000E+00 -0.44417204460E+03  0.44417204460E+03  0.00000000000E+00 0. -1.
         23    2    1    2    0    0  0.93841104883E+03  0.36826668875E+03  0.98878160801E+03  0.14150052008E+04  0.91186618593E+02 0.  0.
        254    2    1    2    0    0 -0.93841104883E+03 -0.36826668875E+03  0.17409362081E+04  0.22030567045E+04  0.89797790166E+03 0.  0.
        -24    2    4    4    0    0 -0.96626091085E+03 -0.46457354607E+03  0.10597933979E+04  0.15099064879E+04  0.84657122514E+02 0.  0.
         24    2    4    4    0    0  0.27849862018E+02  0.96306857321E+02  0.68114281019E+03  0.69315021658E+03  0.80318548839E+02 0.  0.
         11    1    3    3    0    0  0.49315031479E+03  0.24135324729E+03  0.54905451577E+03  0.77647246200E+03  0.00000000000E+00 0. -1.
        -11    1    3    3    0    0  0.44526073404E+03  0.12691344146E+03  0.43972709224E+03  0.63853273882E+03  0.00000000000E+00 0.  1.
          4    1    6    6  502    0  0.47777192189E+02  0.75676297367E+02  0.60855864011E+03  0.61510420298E+03  0.00000000000E+00 0. -1.
          1    1    5    5  503    0 -0.90578504232E+03 -0.43065734479E+03  0.10173755414E+04  0.14286235627E+04  0.00000000000E+00 0. -1.
         -2    1    5    5    0  503 -0.60475868529E+02 -0.33916201287E+02  0.42417856435E+02  0.81282925197E+02  0.00000000000E+00 0.  1.
         -3    1    6    6    0  502 -0.19927330170E+02  0.20630559954E+02  0.72584170084E+02  0.78046013598E+02  0.00000000000E+00 0.  1.
<mgrwt>
<rscale>  0 0.23746605E+04</rscale>
<asrwt>0</asrwt>
<pdfrwt beam="1">  1        2 0.48829073E+00 0.23746605E+04</pdfrwt>
<pdfrwt beam="2">  1       -2 0.68334163E-01 0.23746605E+04</pdfrwt>
<totfact> 0.23830877E+00</totfact>
</mgrwt>
</event>
<event>
12    1  0.2048318E-007  0.1099639E+04  0.7818608E-02  0.9205543E-01
         -1   -1    0    0    0  501 -0.00000000000E+00  0.00000000000E+00  0.35943704519E+03  0.35943704519E+03  0.00000000000E+00 0.  1.
          1   -1    0    0  501    0  0.00000000000E+00 -0.00000000000E+00 -0.84104209105E+03  0.84104209105E+03  0.00000000000E+00 0. -1.
         23    2    1    2    0    0 -0.17349518267E+03  0.60909016882E+02 -0.96677471294E+02  0.22695833442E+03  0.91395105763E+02 0.  0.
        254    2    1    2    0    0  0.17349518267E+03 -0.60909016882E+02 -0.38492757456E+03  0.97352080182E+03  0.87507886912E+03 0.  0.
        -24    2    4    4    0    0 -0.16018536417E+03 -0.24805400118E+03 -0.48292212250E+03  0.57138814389E+03  0.77977536434E+02 0.  0.
         24    2    4    4    0    0  0.33368054684E+03  0.18714498430E+03  0.97994547938E+02  0.40213265793E+03  0.75774604320E+02 0.  0.
         11    1    3    3    0    0 -0.14835326187E+03  0.11511668568E+02 -0.59701735098E+02  0.16032936722E+03  0.00000000000E+00 0.  1.
        -11    1    3    3    0    0 -0.25141920803E+02  0.49397348314E+02 -0.36975736196E+02  0.66628967194E+02  0.00000000000E+00 0. -1.
          4    1    6    6  502    0  0.10498593559E+03  0.22989122421E+02  0.14149694542E+02  0.10840092378E+03  0.00000000000E+00 0. -1.
          1    1    5    5  503    0 -0.11236852544E+01 -0.54479344354E+02 -0.97401373455E+02  0.11160774696E+03  0.00000000000E+00 0. -1.
         -2    1    5    5    0  503 -0.15906167892E+03 -0.19357465683E+03 -0.38552074904E+03  0.45978039694E+03  0.00000000000E+00 0.  1.
         -3    1    6    6    0  502  0.22869461125E+03  0.16415586188E+03  0.83844853397E+02  0.29373173415E+03  0.00000000000E+00 0.  1.
<mgrwt>
<rscale>  0 0.10996394E+04</rscale>
<asrwt>0</asrwt>
<pdfrwt beam="1">  1        1 0.12939109E+00 0.10996394E+04</pdfrwt>
<pdfrwt beam="2">  1       -1 0.55298008E-01 0.10996394E+04</pdfrwt>
<totfact> 0.67140220E+01</totfact>
</mgrwt>
</event>
<event>
12    1  0.2048318E-007  0.3515096E+04  0.7818608E-02  0.8110222E-01
         -2   -1    0    0    0  501 -0.00000000000E+00  0.00000000000E+00  0.19795395331E+04  0.19795395331E+04  0.00000000000E+00 0.  1.
          2   -1    0    0  501    0  0.00000000000E+00 -0.00000000000E+00 -0.15604509290E+04  0.15604509290E+04  0.00000000000E+00 0. -1.
         23    2    1    2    0    0  0.14990177810E+04  0.39139862757E+03  0.74179197656E+03  0.17201621760E+04  0.91953150943E+02 0.  0.
        254    2    1    2    0    0 -0.14990177810E+04 -0.39139862757E+03 -0.32270337242E+03  0.18198282861E+04  0.89854901414E+03 0.  0.
        -24    2    4    4    0    0 -0.13393875119E+04 -0.60504867570E+03 -0.12145229901E+03  0.14769460029E+04  0.81092709692E+02 0.  0.
         24    2    4    4    0    0 -0.15963026912E+03  0.21365004813E+03 -0.20125107341E+03  0.34288228319E+03  0.77059066256E+02 0.  0.
         11    1    3    3    0    0  0.35958999777E+03  0.85622686304E+02  0.13507422438E+03  0.39354956105E+03  0.00000000000E+00 0. -1.
        -11    1    3    3    0    0  0.11394277832E+04  0.30577594127E+03  0.60671775217E+03  0.13266126150E+04  0.00000000000E+00 0.  1.
          2    1    6    6  502    0 -0.35765468412E+02  0.38019932763E+02 -0.81706349983E+02  0.96956751418E+02  0.00000000000E+00 0. -1.
          3    1    5    5  503    0 -0.33847975459E+03 -0.15815457157E+03  0.41564401147E+01  0.37362907913E+03  0.00000000000E+00 0. -1.
         -4    1    5    5    0  503 -0.10009077573E+04 -0.44689410413E+03 -0.12560873913E+03  0.11033169237E+04  0.00000000000E+00 0.  1.
         -1    1    6    6    0  502 -0.12386480071E+03  0.17563011537E+03 -0.11954472343E+03  0.24592553177E+03  0.00000000000E+00 0.  1.
<mgrwt>
<rscale>  0 0.35150956E+04</rscale>
<asrwt>0</asrwt>
<pdfrwt beam="1">  1        2 0.24006937E+00 0.35150956E+04</pdfrwt>
<pdfrwt beam="2">  1       -2 0.30454454E+00 0.35150956E+04</pdfrwt>
<totfact> 0.28708614E-01</totfact>
</mgrwt>
</event>
<event>
12    1  0.2048318E-007  0.1499872E+04  0.7818608E-02  0.8884538E-01
          1   -1    0    0  501    0  0.00000000000E+00  0.00000000000E+00  0.13399913698E+04  0.13399913698E+04  0.00000000000E+00 0. -1.
         -1   -1    0    0    0  501 -0.00000000000E+00 -0.00000000000E+00 -0.41970708874E+03  0.41970708874E+03  0.00000000000E+00 0.  1.
         23    2    1    2    0    0  0.94567272909E+02  0.70025971724E+02  0.83397005174E+03  0.84733032382E+03  0.92822543856E+02 0.  0.
        254    2    1    2    0    0 -0.94567272909E+02 -0.70025971724E+02  0.86314229280E+02  0.91236813467E+03  0.90062137504E+03 0.  0.
        -24    2    4    4    0    0  0.18112978904E+03 -0.40488787907E+03 -0.41347588978E+02  0.45267597809E+03  0.80397281874E+02 0.  0.
         24    2    4    4    0    0 -0.27569706195E+03  0.33486190734E+03  0.12766181826E+03  0.45969215658E+03  0.82933539819E+02 0.  0.
         11    1    3    3    0    0  0.11306622537E+03  0.65953448329E+02  0.73466383678E+03  0.74623373131E+03  0.00000000000E+00 0. -1.
        -11    1    3    3    0    0 -0.18498952458E+02  0.40725233949E+01  0.99306214958E+02  0.10109659251E+03  0.00000000000E+00 0.  1.
          2    1    6    6  502    0 -0.25581475685E+03  0.26323229750E+03  0.10077656540E+03  0.38064202133E+03  0.00000000000E+00 0. -1.
          1    1    5    5  503    0  0.16810633148E+03 -0.39952465968E+03 -0.29820048366E+02  0.43447546267E+03  0.00000000000E+00 0. -1.
         -2    1    5    5    0  503  0.13023457557E+02 -0.53632193827E+01 -0.11527540612E+02  0.18200515417E+02  0.00000000000E+00 0.  1.
         -1    1    6    6    0  502 -0.19882305100E+02  0.71629609842E+02  0.26885252854E+02  0.79050135251E+02  0.00000000000E+00 0.  1.
<mgrwt>
<rscale>  0 0.14998718E+04</rscale>
<asrwt>0</asrwt>
<pdfrwt beam="1">  1        1 0.20615252E+00 0.14998718E+04</pdfrwt>
<pdfrwt beam="2">  1       -1 0.64570322E-01 0.14998718E+04</pdfrwt>
<totfact> 0.19928265E+01</totfact>
</mgrwt>
</event>
<event>
12    1  0.2048318E-007  0.2379743E+04  0.7818608E-02  0.8447127E-01
         -2   -1    0    0    0  501 -0.00000000000E+00  0.00000000000E+00  0.22709345287E+04  0.22709345287E+04  0.00000000000E+00 0.  1.
          2   -1    0    0  501    0  0.00000000000E+00 -0.00000000000E+00 -0.62344110661E+03  0.62344110661E+03  0.00000000000E+00 0. -1.
         23    2    1    2    0    0 -0.97336812040E+03 -0.42915243960E+02  0.35026676551E+03  0.10393672886E+04  0.91161052770E+02 0.  0.
        254    2    1    2    0    0  0.97336812040E+03  0.42915243960E+02  0.12972266566E+04  0.18550083467E+04  0.89942856969E+03 0.  0.
        -24    2    4    4    0    0  0.36905825985E+02  0.17508636545E+03 -0.53708294578E+02  0.20388874771E+03  0.81662507774E+02 0.  0.
         24    2    4    4    0    0  0.93646229441E+03 -0.13217112149E+03  0.13509349511E+04  0.16511195990E+04  0.82096612908E+02 0.  0.
         11    1    3    3    0    0 -0.18561313471E+03  0.63343312060E+00  0.10453790699E+03  0.21302772357E+03  0.00000000000E+00 0. -1.
        -11    1    3    3    0    0 -0.78775498569E+03 -0.43548677080E+02  0.24572885852E+03  0.82633956499E+03  0.00000000000E+00 0.  1.
          2    1    6    6  502    0  0.27796106991E+03 -0.15982516375E+02  0.44971737340E+03  0.52892675595E+03  0.00000000000E+00 0. -1.
          1    1    5    5  503    0  0.41235442928E+02  0.29264770442E+02 -0.94781142404E+01  0.51445341792E+02  0.00000000000E+00 0. -1.
         -2    1    5    5    0  503 -0.43296169430E+01  0.14582159501E+03 -0.44230180338E+02  0.15244340591E+03  0.00000000000E+00 0.  1.
         -3    1    6    6    0  502  0.65850122450E+03 -0.11618860512E+03  0.90121757775E+03  0.11221928431E+04  0.00000000000E+00 0.  1.
<mgrwt>
<rscale>  0 0.23797428E+04</rscale>
<asrwt>0</asrwt>
<pdfrwt beam="1">  1        2 0.95914018E-01 0.23797428E+04</pdfrwt>
<pdfrwt beam="2">  1       -2 0.34937454E+00 0.23797428E+04</pdfrwt>
<totfact> 0.66991143E-01</totfact>
</mgrwt>
</event>
<event>
12    1  0.2048318E-007  0.1214680E+04  0.7818608E-02  0.9100103E-01
         -2   -1    0    0    0  501 -0.00000000000E+00  0.00000000000E+00  0.90417998089E+03  0.90417998089E+03  0.00000000000E+00 0.  1.
          2   -1    0    0  501    0  0.00000000000E+00 -0.00000000000E+00 -0.40795197315E+03  0.40795197315E+03  0.00000000000E+00 0. -1.
         23    2    1    2    0    0  0.19031084297E+03  0.17957314874E+03  0.77143775698E+02  0.28656351044E+03  0.87765315972E+02 0.  0.
        254    2    1    2    0    0 -0.19031084297E+03 -0.17957314874E+03  0.41908423204E+03  0.10255684436E+04  0.89871814618E+03 0.  0.
        -24    2    4    4    0    0 -0.51653459826E+03 -0.22785136544E+03  0.14333856560E+03  0.58799134876E+03  0.80396802745E+02 0.  0.
         24    2    4    4    0    0  0.32622375530E+03  0.48278216702E+02  0.27574566644E+03  0.43757709484E+03  0.81763785635E+02 0.  0.
         13    1    3    3    0    0  0.19896579032E+03  0.16638682103E+03  0.67252411800E+02  0.26794560422E+03  0.00000000000E+00 0. -1.
        -13    1    3    3    0    0 -0.86549473523E+01  0.13186327705E+02  0.98913638979E+01  0.18617906213E+02  0.00000000000E+00 0.  1.
          2    1    6    6  502    0  0.10744006082E+03 -0.20512599467E+02  0.10532579761E+03  0.15184747956E+03  0.00000000000E+00 0. -1.
          1    1    5    5  503    0 -0.10409475970E+03 -0.28848932760E+02  0.56458368130E+02  0.12188325255E+03  0.00000000000E+00 0. -1.
         -2    1    5    5    0  503 -0.41243983856E+03 -0.19900243268E+03  0.86880197468E+02  0.46610809621E+03  0.00000000000E+00 0.  1.
         -1    1    6    6    0  502  0.21878369447E+03  0.68790816169E+02  0.17041986883E+03  0.28572961528E+03  0.00000000000E+00 0.  1.
<mgrwt>
<rscale>  0 0.12146802E+04</rscale>
<asrwt>0</asrwt>
<pdfrwt beam="1">  1        2 0.62761842E-01 0.12146802E+04</pdfrwt>
<pdfrwt beam="2">  1       -2 0.13910461E+00 0.12146802E+04</pdfrwt>
<totfact> 0.27973590E+01</totfact>
</mgrwt>
</event>
<event>
12    1  0.2048318E-007  0.1310149E+04  0.7818608E-02  0.9021555E-01
          2   -1    0    0  501    0  0.00000000000E+00  0.00000000000E+00  0.17596557172E+04  0.17596557172E+04  0.00000000000E+00 0. -1.
         -2   -1    0    0    0  501 -0.00000000000E+00 -0.00000000000E+00 -0.24386750909E+03  0.24386750909E+03  0.00000000000E+00 0.  1.
         23    2    1    2    0    0  0.25535582337E+03  0.20704091154E+03  0.51477518637E+03  0.61753770405E+03  0.91031795783E+02 0.  0.
        254    2    1    2    0    0 -0.25535582337E+03 -0.20704091154E+03  0.10010130218E+04  0.13859855223E+04  0.90047557580E+03 0.  0.
        -24    2    4    4    0    0 -0.28201100411E+03  0.12470928800E+03 -0.98730690881E+01  0.31866210305E+03  0.79783741903E+02 0.  0.
         24    2    4    4    0    0  0.26655180748E+02 -0.33175019954E+03  0.10108860909E+04  0.10673234192E+04  0.80745891311E+02 0.  0.
         13    1    3    3    0    0  0.21357300052E+03  0.12102935028E+03  0.36840093761E+03  0.44269716626E+03  0.00000000000E+00 0.  1.
        -13    1    3    3    0    0  0.41782822843E+02  0.86011561262E+02  0.14637424876E+03  0.17484053779E+03  0.00000000000E+00 0. -1.
          2    1    6    6  502    0  0.18506618784E+02 -0.60515431871E+02  0.11523084387E+03  0.13146391068E+03  0.00000000000E+00 0. -1.
          1    1    5    5  503    0 -0.23575518636E+02  0.13033079594E+02  0.22732184698E+02  0.35247956873E+02  0.00000000000E+00 0. -1.
         -2    1    5    5    0  503 -0.25843548548E+03  0.11167620841E+03 -0.32605253786E+02  0.28341414618E+03  0.00000000000E+00 0.  1.
         -3    1    6    6    0  502  0.81485619647E+01 -0.27123476767E+03  0.89565524699E+03  0.93585950854E+03  0.00000000000E+00 0.  1.
<mgrwt>
<rscale>  0 0.13101494E+04</rscale>
<asrwt>0</asrwt>
<pdfrwt beam="1">  1        2 0.27071626E+00 0.13101494E+04</pdfrwt>
<pdfrwt beam="2">  1       -2 0.37518079E-01 0.13101494E+04</pdfrwt>
<totfact> 0.59632000E+01</totfact>
</mgrwt>
</event>
<event>
12    1  0.2048318E-007  0.1119369E+04  0.7818608E-02  0.9186517E-01
         -2   -1    0    0    0  501 -0.00000000000E+00  0.00000000000E+00  0.31132928721E+03  0.31132928721E+03  0.00000000000E+00 0. -1.
          2   -1    0    0  501    0  0.00000000000E+00 -0.00000000000E+00 -0.10061586015E+04  0.10061586015E+04  0.00000000000E+00 0.  1.
         23    2    1    2    0    0  0.98835598326E+02  0.52518951084E+02  0.47913827702E+02  0.15147764149E+03  0.90127827372E+02 0.  0.
        254    2    1    2    0    0 -0.98835598326E+02 -0.52518951084E+02 -0.74274314202E+03  0.11660102472E+04  0.89184404799E+03 0.  0.
        -24    2    4    4    0    0  0.17154209514E+03  0.33449761055E+03 -0.49143577993E+03  0.62446040896E+03  0.84417620732E+02 0.  0.
         24    2    4    4    0    0 -0.27037769346E+03 -0.38701656164E+03 -0.25130736209E+03  0.54154983829E+03  0.85058338815E+02 0.  0.
         11    1    3    3    0    0  0.10841172864E+03  0.40040905314E+02  0.61302469272E+02  0.13082190086E+03  0.00000000000E+00 0. -1.
        -11    1    3    3    0    0 -0.95761303135E+01  0.12478045769E+02 -0.13388641570E+02  0.20655740633E+02  0.00000000000E+00 0.  1.
          4    1    6    6  502    0 -0.87469034131E+02 -0.14384904689E+03 -0.13500822095E+03  0.21580222415E+03  0.00000000000E+00 0. -1.
          3    1    5    5  503    0  0.16196682612E+02  0.11230100291E+03 -0.12815452714E+03  0.17116492225E+03  0.00000000000E+00 0. -1.
         -4    1    5    5    0  503  0.15534541253E+03  0.22219660764E+03 -0.36328125279E+03  0.45329548671E+03  0.00000000000E+00 0.  1.
         -3    1    6    6    0  502 -0.18290865933E+03 -0.24316751475E+03 -0.11629914115E+03  0.32574761414E+03  0.00000000000E+00 0.  1.
<mgrwt>
<rscale>  0 0.11193688E+04</rscale>
<asrwt>0</asrwt>
<pdfrwt beam="1">  1        2 0.15479363E+00 0.11193688E+04</pdfrwt>
<pdfrwt beam="2">  1       -2 0.47896814E-01 0.11193688E+04</pdfrwt>
<totfact> 0.10220189E+02</totfact>
</mgrwt>
</event>
<event>
12    1  0.2048318E-007  0.1826056E+04  0.7818608E-02  0.8692565E-01
         -2   -1    0    0    0  501 -0.00000000000E+00  0.00000000000E+00  0.42519353113E+03  0.42519353113E+03  0.00000000000E+00 0. -1.
          2   -1    0    0  501    0  0.00000000000E+00 -0.00000000000E+00 -0.19605664111E+04  0.19605664111E+04  0.00000000000E+00 0.  1.
         23    2    1    2    0    0 -0.42942313341E+03 -0.48264506789E+03 -0.27020010631E+03  0.70479305609E+03  0.79841501743E+02 0.  0.
        254    2    1    2    0    0  0.42942313341E+03  0.48264506789E+03 -0.12651727736E+04  0.16809668861E+04  0.89868628340E+03 0.  0.
        -24    2    4    4    0    0 -0.34472831487E+02 -0.23216115254E+03 -0.33803872379E+03  0.41920658760E+03  0.79854914979E+02 0.  0.
         24    2    4    4    0    0  0.46389596490E+03  0.71480622043E+03 -0.92713404983E+03  0.12617602985E+04  0.79461345889E+02 0.  0.
         11    1    3    3    0    0 -0.32852269851E+03 -0.31421991697E+03 -0.18739543990E+03  0.49170964049E+03  0.00000000000E+00 0.  1.
        -11    1    3    3    0    0 -0.10090043490E+03 -0.16842515092E+03 -0.82804666414E+02  0.21308341560E+03  0.00000000000E+00 0. -1.
          4    1    6    6  502    0  0.40578668025E+03  0.65348525736E+03 -0.80681874535E+03  0.11147476393E+04  0.00000000000E+00 0. -1.
          3    1    5    5  503    0 -0.50449637238E+02 -0.21443573874E+03 -0.27869475770E+03  0.35524445093E+03  0.00000000000E+00 0. -1.
         -4    1    5    5    0  503  0.15976805751E+02 -0.17725413802E+02 -0.59343966085E+02  0.63962136668E+02  0.00000000000E+00 0.  1.
         -3    1    6    6    0  502  0.58109284654E+02  0.61320963064E+02 -0.12031530448E+03  0.14701265920E+03  0.00000000000E+00 0.  1.
<mgrwt>
<rscale>  0 0.18260560E+04</rscale>
<asrwt>0</asrwt>
<pdfrwt beam="1">  1        2 0.30162560E+00 0.18260560E+04</pdfrwt>
<pdfrwt beam="2">  1       -2 0.65414390E-01 0.18260560E+04</pdfrwt>
<totfact> 0.14256241E+01</totfact>
</mgrwt>
</event>
<event>
12    1  0.2048318E-007  0.3171253E+04  0.7818608E-02  0.8196451E-01
         -2   -1    0    0    0  501 -0.00000000000E+00  0.00000000000E+00  0.73514419675E+03  0.73514419675E+03  0.00000000000E+00 0.  1.
          2   -1    0    0  501    0  0.00000000000E+00 -0.00000000000E+00 -0.34200250971E+04  0.34200250971E+04  0.00000000000E+00 0. -1.
         23    2    1    2    0    0 -0.11657111549E+03 -0.14498801422E+04 -0.11377102021E+04  0.18488069801E+04  0.89227203247E+02 0.  0.
        254    2    1    2    0    0  0.11657111549E+03  0.14498801422E+04 -0.15471706983E+04  0.23063623138E+04  0.89990482895E+03 0.  0.
        -24    2    4    4    0    0 -0.53497459035E+01 -0.53115009530E+02  0.49864043187E+02  0.10844781863E+03  0.80154117443E+02 0.  0.
         24    2    4    4    0    0  0.12192086140E+03  0.15029951518E+04 -0.15970347415E+04  0.21979144952E+04  0.80305915356E+02 0.  0.
         13    1    3    3    0    0 -0.19371991936E+02 -0.17563531185E+03 -0.10329680742E+03  0.20467844846E+03  0.00000000000E+00 0.  1.
        -13    1    3    3    0    0 -0.97199123557E+02 -0.12742448304E+04 -0.10344133947E+04  0.16441285316E+04  0.00000000000E+00 0. -1.
          4    1    6    6  502    0  0.42933082257E+02  0.99380365512E+03 -0.10610773425E+04  0.14544325633E+04  0.00000000000E+00 0. -1.
          3    1    5    5  503    0  0.33123128025E+02 -0.22511082525E+02  0.43082501046E+02  0.58821699593E+02  0.00000000000E+00 0. -1.
         -4    1    5    5    0  503 -0.38472873928E+02 -0.30603927005E+02  0.67815421412E+01  0.49626119033E+02  0.00000000000E+00 0.  1.
         -3    1    6    6    0  502  0.78987779140E+02  0.50919149663E+03 -0.53595739905E+03  0.74348193192E+03  0.00000000000E+00 0.  1.
<mgrwt>
<rscale>  0 0.31712531E+04</rscale>
<asrwt>0</asrwt>
<pdfrwt beam="1">  1        2 0.52615769E+00 0.31712531E+04</pdfrwt>
<pdfrwt beam="2">  1       -2 0.11309911E+00 0.31712531E+04</pdfrwt>
<totfact> 0.47828270E-01</totfact>
</mgrwt>
</event>
<event>
12    1  0.2048318E-007  0.1477859E+04  0.7818608E-02  0.8899311E-01
         -1   -1    0    0    0  501 -0.00000000000E+00  0.00000000000E+00  0.79261169567E+03  0.79261169567E+03  0.00000000000E+00 0.  1.
          1   -1    0    0  501    0  0.00000000000E+00 -0.00000000000E+00 -0.68888330642E+03  0.68888330642E+03  0.00000000000E+00 0. -1.
         23    2    1    2    0    0  0.48342777329E+02 -0.23665860534E+02 -0.42254020943E+03  0.43585877732E+03  0.92388030110E+02 0.  0.
        254    2    1    2    0    0 -0.48342777329E+02  0.23665860534E+02  0.52626859868E+03  0.10456362248E+04  0.90194200452E+03 0.  0.
        -24    2    4    4    0    0  0.11327434070E+03  0.22457925813E+03  0.68410847755E+03  0.73316582638E+03  0.79125220212E+02 0.  0.
         24    2    4    4    0    0 -0.16161711803E+03 -0.20091339760E+03 -0.15783987887E+03  0.31247039839E+03  0.78981240368E+02 0.  0.
         11    1    3    3    0    0  0.28246273627E+02 -0.29556384391E+02 -0.40873799662E+03  0.41077753312E+03  0.00000000000E+00 0. -1.
        -11    1    3    3    0    0  0.20096503701E+02  0.58905238573E+01 -0.13802212808E+02  0.25081244202E+02  0.00000000000E+00 0.  1.
          2    1    6    6  502    0 -0.92089612599E+02 -0.14423033141E+03 -0.13980225116E+03  0.22096957862E+03  0.00000000000E+00 0. -1.
          1    1    5    5  503    0  0.38804708896E+01  0.90736032505E+02  0.23649951590E+03  0.25333792979E+03  0.00000000000E+00 0. -1.
         -2    1    5    5    0  503  0.10939386981E+03  0.13384322563E+03  0.44760896165E+03  0.47982789660E+03  0.00000000000E+00 0.  1.
         -1    1    6    6    0  502 -0.69527505432E+02 -0.56683066189E+02 -0.18037627715E+02  0.91500819766E+02  0.00000000000E+00 0.  1.
<mgrwt>
<rscale>  0 0.14778592E+04</rscale>
<asrwt>0</asrwt>
<pdfrwt beam="1">  1        1 0.10598205E+00 0.14778592E+04</pdfrwt>
<pdfrwt beam="2">  1       -1 0.12194026E+00 0.14778592E+04</pdfrwt>
<totfact> 0.16103800E+01</totfact>
</mgrwt>
</event>
<event>
12    1  0.2048318E-007  0.1535790E+04  0.7818608E-02  0.8860996E-01
         -2   -1    0    0    0  501 -0.00000000000E+00  0.00000000000E+00  0.10404203894E+04  0.10404203894E+04  0.00000000000E+00 0.  1.
          2   -1    0    0  501    0  0.00000000000E+00 -0.00000000000E+00 -0.56675402853E+03  0.56675402853E+03  0.00000000000E+00 0. -1.
         23    2    1    2    0    0  0.34240595484E+03 -0.35574849322E+03  0.22758355518E+03  0.55120342739E+03  0.90731005945E+02 0.  0.
        254    2    1    2    0    0 -0.34240595484E+03  0.35574849322E+03  0.24608280567E+03  0.10559709905E+04  0.90039944316E+03 0.  0.
        -24    2    4    4    0    0 -0.57777440305E+01  0.20663477218E+02 -0.30972414850E+03  0.32062475334E+03  0.80067613161E+02 0.  0.
         24    2    4    4    0    0 -0.33662821081E+03  0.33508501600E+03  0.55580695417E+03  0.73534623718E+03  0.78817497880E+02 0.  0.
         13    1    3    3    0    0  0.15556688806E+03 -0.22118534786E+03  0.14307888534E+03  0.30593395071E+03  0.00000000000E+00 0.  1.
        -13    1    3    3    0    0  0.18683906678E+03 -0.13456314535E+03  0.84504669844E+02  0.24526947667E+03  0.00000000000E+00 0. -1.
          4    1    6    6  502    0 -0.19752182712E+03  0.23936700503E+03  0.39328396713E+03  0.50098274829E+03  0.00000000000E+00 0. -1.
          3    1    5    5  503    0 -0.14584899724E+02  0.21185736963E+02 -0.31068690537E+03  0.31174975208E+03  0.00000000000E+00 0. -1.
         -4    1    5    5    0  503  0.88071556930E+01 -0.52225974483E+00  0.96275687637E+00  0.88750012645E+01  0.00000000000E+00 0.  1.
         -3    1    6    6    0  502 -0.13910638369E+03  0.95718010971E+02  0.16252298704E+03  0.23436348889E+03  0.00000000000E+00 0.  1.
<mgrwt>
<rscale>  0 0.15357896E+04</rscale>
<asrwt>0</asrwt>
<pdfrwt beam="1">  1        2 0.87192928E-01 0.15357896E+04</pdfrwt>
<pdfrwt beam="2">  1       -2 0.16006467E+00 0.15357896E+04</pdfrwt>
<totfact> 0.12867491E+01</totfact>
</mgrwt>
</event>
<event>
12    1  0.2048318E-007  0.3007038E+04  0.7818608E-02  0.8241724E-01
         -2   -1    0    0    0  501 -0.00000000000E+00  0.00000000000E+00  0.99448016829E+03  0.99448016829E+03  0.00000000000E+00 0.  1.
          2   -1    0    0  501    0  0.00000000000E+00 -0.00000000000E+00 -0.22731170364E+04  0.22731170364E+04  0.00000000000E+00 0. -1.
         23    2    1    2    0    0  0.10018403228E+04 -0.89107645317E+03 -0.29613988876E+03  0.13760967935E+04  0.90786968102E+02 0.  0.
        254    2    1    2    0    0 -0.10018403228E+04  0.89107645317E+03 -0.98249697939E+03  0.18915004112E+04  0.90264733604E+03 0.  0.
        -24    2    4    4    0    0 -0.95835178184E+03  0.46240465833E+03 -0.98731723743E+03  0.14534265796E+04  0.73466246016E+02 0.  0.
         24    2    4    4    0    0 -0.43488540983E+02  0.42867179484E+03  0.48202580398E+01  0.43807383156E+03  0.78960028616E+02 0.  0.
         13    1    3    3    0    0  0.76465101072E+03 -0.69173967870E+03 -0.18917568942E+03  0.10483236107E+04  0.00000000000E+00 0.  1.
        -13    1    3    3    0    0  0.23718931211E+03 -0.19933677447E+03 -0.10696419934E+03  0.32777318282E+03  0.00000000000E+00 0. -1.
          2    1    6    6  502    0  0.92219021692E+01  0.14224670136E+03  0.30287965854E+02  0.14572758285E+03  0.00000000000E+00 0. -1.
          3    1    5    5  503    0 -0.84468219407E+02  0.43260133464E+02 -0.61451279687E+02  0.11306006816E+03  0.00000000000E+00 0. -1.
         -4    1    5    5    0  503 -0.87388356244E+03  0.41914452486E+03 -0.92586595774E+03  0.13403665115E+04  0.00000000000E+00 0.  1.
         -1    1    6    6    0  502 -0.52710443152E+02  0.28642509348E+03 -0.25467707814E+02  0.29234624871E+03  0.00000000000E+00 0.  1.
<mgrwt>
<rscale>  0 0.30070383E+04</rscale>
<asrwt>0</asrwt>
<pdfrwt beam="1">  1        2 0.34971031E+00 0.30070383E+04</pdfrwt>
<pdfrwt beam="2">  1       -2 0.15299695E+00 0.30070383E+04</pdfrwt>
<totfact> 0.11418019E+00</totfact>
</mgrwt>
</event>
<event>
12    1  0.2048318E-007  0.1940456E+04  0.7818608E-02  0.8634977E-01
         -2   -1    0    0    0  501 -0.00000000000E+00  0.00000000000E+00  0.43079424372E+03  0.43079424372E+03  0.00000000000E+00 0.  1.
          2   -1    0    0  501    0  0.00000000000E+00 -0.00000000000E+00 -0.21851313860E+04  0.21851313860E+04  0.00000000000E+00 0. -1.
         23    2    1    2    0    0  0.60487307471E+03 -0.46053480285E+03 -0.74958702055E+03  0.10693133099E+04  0.59887496199E+02 0.  0.
        254    2    1    2    0    0 -0.60487307471E+03  0.46053480285E+03 -0.10047501217E+04  0.15466123198E+04  0.89695212777E+03 0.  0.
        -24    2    4    4    0    0 -0.69482809753E+03  0.60865184367E+03 -0.98898437612E+03  0.13556035906E+04  0.79547764172E+02 0.  0.
         24    2    4    4    0    0  0.89955022816E+02 -0.14811704082E+03 -0.15765745581E+02  0.19100872916E+03  0.78773167837E+02 0.  0.
         11    1    3    3    0    0  0.35491639706E+03 -0.23544861396E+03 -0.43405819194E+03  0.60811858441E+03  0.00000000000E+00 0. -1.
        -11    1    3    3    0    0  0.24995667766E+03 -0.22508618889E+03 -0.31552882861E+03  0.46119472549E+03  0.00000000000E+00 0.  1.
          2    1    6    6  502    0 -0.82695755226E+00 -0.57121283372E+02 -0.24536094175E+02  0.62173505533E+02  0.00000000000E+00 0. -1.
          3    1    5    5  503    0 -0.19447163220E+03  0.17434925944E+03 -0.22896474367E+03  0.34733518947E+03  0.00000000000E+00 0. -1.
         -4    1    5    5    0  503 -0.50035646533E+03  0.43430258424E+03 -0.76001963245E+03  0.10082684012E+04  0.00000000000E+00 0.  1.
         -1    1    6    6    0  502  0.90781980368E+02 -0.90995757449E+02  0.87703485939E+01  0.12883522363E+03  0.00000000000E+00 0.  1.
<mgrwt>
<rscale>  0 0.19404556E+04</rscale>
<asrwt>0</asrwt>
<pdfrwt beam="1">  1        2 0.33617406E+00 0.19404556E+04</pdfrwt>
<pdfrwt beam="2">  1       -2 0.66276038E-01 0.19404556E+04</pdfrwt>
<totfact> 0.10288887E+01</totfact>
</mgrwt>
</event>
<event>
12    1  0.2048318E-007  0.3096208E+04  0.7818608E-02  0.8216779E-01
         -1   -1    0    0    0  501 -0.00000000000E+00  0.00000000000E+00  0.13327750536E+04  0.13327750536E+04  0.00000000000E+00 0.  1.
          1   -1    0    0  501    0  0.00000000000E+00 -0.00000000000E+00 -0.17982224105E+04  0.17982224105E+04  0.00000000000E+00 0. -1.
         23    2    1    2    0    0 -0.12839163294E+04  0.40862818548E+03 -0.64810055958E+03  0.14991764663E+04  0.10989816632E+03 0.  0.
        254    2    1    2    0    0  0.12839163294E+04 -0.40862818548E+03  0.18265320268E+03  0.16318209978E+04  0.90225242673E+03 0.  0.
        -24    2    4    4    0    0  0.10496256822E+04 -0.93552165204E+02 -0.20200040901E+03  0.10758832792E+04  0.79085934304E+02 0.  0.
         24    2    4    4    0    0  0.23429064727E+03 -0.31507602027E+03  0.38465361169E+03  0.55593771860E+03  0.83326706550E+02 0.  0.
         13    1    3    3    0    0 -0.49723767046E+03  0.15037235574E+03 -0.30907995376E+03  0.60447296392E+03  0.00000000000E+00 0.  1.
        -13    1    3    3    0    0 -0.78667865898E+03  0.25825582974E+03 -0.33902060583E+03  0.89470350243E+03  0.00000000000E+00 0. -1.
          4    1    6    6  502    0  0.82694341263E+02 -0.18049862042E+03  0.18324845569E+03  0.27018161034E+03  0.00000000000E+00 0. -1.
          3    1    5    5  503    0  0.89826447190E+03 -0.77933654516E+02 -0.20073159532E+03  0.92371309904E+03  0.00000000000E+00 0. -1.
         -4    1    5    5    0  503  0.15136121027E+03 -0.15618510688E+02 -0.12688136920E+01  0.15217018019E+03  0.00000000000E+00 0.  1.
         -3    1    6    6    0  502  0.15159630601E+03 -0.13457739985E+03  0.20140515600E+03  0.28575610826E+03  0.00000000000E+00 0.  1.
<mgrwt>
<rscale>  0 0.30962080E+04</rscale>
<asrwt>0</asrwt>
<pdfrwt beam="1">  1        1 0.27664960E+00 0.30962080E+04</pdfrwt>
<pdfrwt beam="2">  1       -1 0.20504232E+00 0.30962080E+04</pdfrwt>
<totfact> 0.47922732E-01</totfact>
</mgrwt>
</event>
<event>
12    1  0.2048318E-007  0.2547277E+04  0.7818608E-02  0.8386334E-01
         -2   -1    0    0    0  501 -0.00000000000E+00  0.00000000000E+00  0.62756194528E+03  0.62756194528E+03  0.00000000000E+00 0. -1.
          2   -1    0    0  501    0  0.00000000000E+00 -0.00000000000E+00 -0.25848529025E+04  0.25848529025E+04  0.00000000000E+00 0.  1.
         23    2    1    2    0    0 -0.20702730775E+03 -0.94735062964E+03 -0.16984576783E+03  0.98845296277E+03  0.88646224544E+02 0.  0.
        254    2    1    2    0    0  0.20702730775E+03  0.94735062964E+03 -0.17874451894E+04  0.22239618850E+04  0.90039582367E+03 0.  0.
        -24    2    4    4    0    0 -0.11334912731E+03  0.58998928753E+03 -0.33595101864E+03  0.69318300474E+03  0.81879222409E+02 0.  0.
         24    2    4    4    0    0  0.32037643507E+03  0.35736134211E+03 -0.14514941708E+04  0.15307788803E+04  0.78105464560E+02 0.  0.
         13    1    3    3    0    0 -0.74487661453E+02 -0.43217967960E+03 -0.11697860913E+03  0.45388509797E+03  0.00000000000E+00 0.  1.
        -13    1    3    3    0    0 -0.13253964630E+03 -0.51517095004E+03 -0.52867158707E+02  0.53456786480E+03  0.00000000000E+00 0. -1.
          4    1    6    6  502    0  0.93681000071E+02  0.65860438293E+02 -0.28181799452E+03  0.30419584011E+03  0.00000000000E+00 0. -1.
          3    1    5    5  503    0 -0.85942314726E+02  0.29077879771E+03 -0.20114148657E+03  0.36386300757E+03  0.00000000000E+00 0. -1.
         -4    1    5    5    0  503 -0.27406812587E+02  0.29921048982E+03 -0.13480953207E+03  0.32931999716E+03  0.00000000000E+00 0.  1.
         -3    1    6    6    0  502  0.22669543499E+03  0.29150090381E+03 -0.11696761763E+04  0.12265830402E+04  0.00000000000E+00 0.  1.
<mgrwt>
<rscale>  0 0.25472772E+04</rscale>
<asrwt>0</asrwt>
<pdfrwt beam="1">  1        2 0.39766968E+00 0.25472772E+04</pdfrwt>
<pdfrwt beam="2">  1       -2 0.96547991E-01 0.25472772E+04</pdfrwt>
<totfact> 0.24758692E+00</totfact>
</mgrwt>
</event>
<event>
12    1  0.2048318E-007  0.1463871E+04  0.7818608E-02  0.8908840E-01
         -1   -1    0    0    0  501 -0.00000000000E+00  0.00000000000E+00  0.82081003238E+03  0.82081003238E+03  0.00000000000E+00 0.  1.
          1   -1    0    0  501    0  0.00000000000E+00 -0.00000000000E+00 -0.65268412955E+03  0.65268412955E+03  0.00000000000E+00 0. -1.
         23    2    1    2    0    0  0.20382597274E+03  0.15045254763E+03 -0.31960850669E+03  0.41793227801E+03  0.91306052388E+02 0.  0.
        254    2    1    2    0    0 -0.20382597274E+03 -0.15045254763E+03  0.48773440952E+03  0.10555618839E+04  0.90119090114E+03 0.  0.
        -24    2    4    4    0    0  0.30044887323E+03 -0.22563422689E+03  0.66997475638E+02  0.38998295340E+03  0.80110626200E+02 0.  0.
         24    2    4    4    0    0 -0.50427484597E+03  0.75181679260E+02  0.42073693388E+03  0.66557893052E+03  0.77655264133E+02 0.  0.
         13    1    3    3    0    0  0.56172392958E+02 -0.68198093377E+00 -0.88235267144E+02  0.10460050285E+03  0.00000000000E+00 0. -1.
        -13    1    3    3    0    0  0.14765357979E+03  0.15113452857E+03 -0.23137323955E+03  0.31333177516E+03  0.00000000000E+00 0.  1.
          4    1    6    6  502    0 -0.32951455225E+03  0.69595897511E+02  0.23616126577E+03  0.41133389423E+03  0.00000000000E+00 0. -1.
          3    1    5    5  503    0  0.11712574155E+03 -0.11747972858E+03  0.61927965477E+02  0.17707342790E+03  0.00000000000E+00 0. -1.
         -2    1    5    5    0  503  0.18332313168E+03 -0.10815449831E+03  0.50695101609E+01  0.21290952550E+03  0.00000000000E+00 0.  1.
         -3    1    6    6    0  502 -0.17476029372E+03  0.55857817489E+01  0.18457566811E+03  0.25424503629E+03  0.00000000000E+00 0.  1.
<mgrwt>
<rscale>  0 0.14638711E+04</rscale>
<asrwt>0</asrwt>
<pdfrwt beam="1">  1        1 0.10041294E+00 0.14638711E+04</pdfrwt>
<pdfrwt beam="2">  1       -1 0.12627847E+00 0.14638711E+04</pdfrwt>
<totfact> 0.16027087E+01</totfact>
</mgrwt>
</event>
<event>
12    1  0.2048318E-007  0.1835339E+04  0.7818608E-02  0.8687729E-01
         -1   -1    0    0    0  501 -0.00000000000E+00  0.00000000000E+00  0.41131508883E+03  0.41131508883E+03  0.00000000000E+00 0.  1.
          1   -1    0    0  501    0  0.00000000000E+00 -0.00000000000E+00 -0.20473766711E+04  0.20473766711E+04  0.00000000000E+00 0. -1.
         23    2    1    2    0    0 -0.25697578130E+03  0.13744412134E+03  0.21952868561E+03  0.37674310580E+03  0.93888685662E+02 0.  0.
        254    2    1    2    0    0  0.25697578130E+03 -0.13744412134E+03 -0.18555902679E+04  0.20819486541E+04  0.89797968660E+03 0.  0.
        -24    2    4    4    0    0 -0.50928275329E+02 -0.29335107782E+03 -0.15454893465E+03  0.34437952929E+03  0.77867470164E+02 0.  0.
         24    2    4    4    0    0  0.30790405663E+03  0.15590695648E+03 -0.17010413332E+04  0.17375691248E+04  0.80578899774E+02 0.  0.
         11    1    3    3    0    0 -0.16992431543E+03  0.47819146134E+02  0.95539156726E+02  0.20072038805E+03  0.00000000000E+00 0. -1.
        -11    1    3    3    0    0 -0.87051465872E+02  0.89624975201E+02  0.12398952889E+03  0.17602271775E+03  0.00000000000E+00 0.  1.
          2    1    6    6  502    0 -0.11538320502E+01 -0.27097868511E+01 -0.24848409379E+01  0.38534020897E+01  0.00000000000E+00 0. -1.
          3    1    5    5  503    0 -0.31020614694E+02 -0.13216313409E+03 -0.11326938348E+03  0.17680307063E+03  0.00000000000E+00 0. -1.
         -4    1    5    5    0  503 -0.19907660635E+02 -0.16118794372E+03 -0.41279551168E+02  0.16757645866E+03  0.00000000000E+00 0.  1.
         -1    1    6    6    0  502  0.30905788868E+03  0.15861674333E+03 -0.16985564923E+04  0.17337157228E+04  0.00000000000E+00 0.  1.
<mgrwt>
<rscale>  0 0.18353386E+04</rscale>
<asrwt>0</asrwt>
<pdfrwt beam="1">  1        1 0.31498101E+00 0.18353386E+04</pdfrwt>
<pdfrwt beam="2">  1       -1 0.63279247E-01 0.18353386E+04</pdfrwt>
<totfact> 0.65946149E+00</totfact>
</mgrwt>
</event>
<event>
12    1  0.2048318E-007  0.1812899E+04  0.7818608E-02  0.8699470E-01
          1   -1    0    0  501    0  0.00000000000E+00  0.00000000000E+00  0.94978695838E+03  0.94978695838E+03  0.00000000000E+00 0. -1.
         -1   -1    0    0    0  501 -0.00000000000E+00 -0.00000000000E+00 -0.86508925994E+03  0.86508925994E+03  0.00000000000E+00 0.  1.
         23    2    1    2    0    0  0.59196015540E+02 -0.65928131898E+03 -0.12229849586E+03  0.67915825684E+03  0.90238516894E+02 0.  0.
        254    2    1    2    0    0 -0.59196015540E+02  0.65928131898E+03  0.20699619430E+03  0.11357179615E+04  0.89936190589E+03 0.  0.
        -24    2    4    4    0    0 -0.10964654680E+03  0.58144463638E+03 -0.26113178932E+03  0.65166306714E+03  0.79841789085E+02 0.  0.
         24    2    4    4    0    0  0.50450531261E+02  0.77836682601E+02  0.46812798362E+03  0.48405489434E+03  0.81003249468E+02 0.  0.
         11    1    3    3    0    0  0.27799308898E+02 -0.50228411016E+02 -0.13795195209E+01  0.57424715259E+02  0.00000000000E+00 0. -1.
        -11    1    3    3    0    0  0.31396706642E+02 -0.60905290796E+03 -0.12091897634E+03  0.62173354158E+03  0.00000000000E+00 0.  1.
          4    1    6    6  502    0  0.35752842298E+02  0.73933880092E+02  0.45906284874E+03  0.46635092307E+03  0.00000000000E+00 0. -1.
          3    1    5    5  503    0 -0.15890158323E+02  0.22266592483E+03 -0.13004216915E+03  0.25834778297E+03  0.00000000000E+00 0. -1.
         -4    1    5    5    0  503 -0.93756388478E+02  0.35877871155E+03 -0.13108962017E+03  0.39331528417E+03  0.00000000000E+00 0.  1.
         -3    1    6    6    0  502  0.14697688963E+02  0.39028025091E+01  0.90651348814E+01  0.17703971269E+02  0.00000000000E+00 0.  1.
<mgrwt>
<rscale>  0 0.18128988E+04</rscale>
<asrwt>0</asrwt>
<pdfrwt beam="1">  1        1 0.14612107E+00 0.18128988E+04</pdfrwt>
<pdfrwt beam="2">  1       -1 0.13309065E+00 0.18128988E+04</pdfrwt>
<totfact> 0.74678869E+00</totfact>
</mgrwt>
</event>
<event>
12    1  0.2048318E-007  0.1517192E+04  0.7818608E-02  0.8873101E-01
         -1   -1    0    0    0  501 -0.00000000000E+00  0.00000000000E+00  0.99409180501E+03  0.99409180501E+03  0.00000000000E+00 0. -1.
          1   -1    0    0  501    0  0.00000000000E+00 -0.00000000000E+00 -0.57888777561E+03  0.57888777561E+03  0.00000000000E+00 0.  1.
         23    2    1    2    0    0 -0.37709142615E+03 -0.20398071913E+02  0.45170815967E+03  0.59575838402E+03  0.90960241915E+02 0.  0.
        254    2    1    2    0    0  0.37709142615E+03  0.20398071913E+02 -0.36504130273E+02  0.97722119660E+03  0.90056354053E+03 0.  0.
        -24    2    4    4    0    0  0.59269361645E+03 -0.10869665840E+03 -0.22998849377E+03  0.65006565529E+03  0.81178583353E+02 0.  0.
         24    2    4    4    0    0 -0.21560219029E+03  0.12909473031E+03  0.19348436350E+03  0.32715554131E+03  0.80279483272E+02 0.  0.
         11    1    3    3    0    0 -0.15291082847E+03 -0.42990520316E+02  0.23111299651E+03  0.28043381297E+03  0.00000000000E+00 0. -1.
        -11    1    3    3    0    0 -0.22418059769E+03  0.22592448403E+02  0.22059516316E+03  0.31532457106E+03  0.00000000000E+00 0.  1.
          4    1    6    6  502    0  0.32946945066E+01  0.18051280888E+02  0.12869965591E+02  0.22412937512E+02  0.00000000000E+00 0. -1.
          3    1    5    5  503    0  0.60668372513E+02  0.10498285849E+02 -0.36272978934E+02  0.71460439615E+02  0.00000000000E+00 0. -1.
         -4    1    5    5    0  503  0.53202524393E+03 -0.11919494425E+03 -0.19371551484E+03  0.57860521568E+03  0.00000000000E+00 0.  1.
         -3    1    6    6    0  502 -0.21889688480E+03  0.11104344943E+03  0.18061439791E+03  0.30474260380E+03  0.00000000000E+00 0.  1.
<mgrwt>
<rscale>  0 0.15171916E+04</rscale>
<asrwt>0</asrwt>
<pdfrwt beam="1">  1        1 0.89059658E-01 0.15171916E+04</pdfrwt>
<pdfrwt beam="2">  1       -1 0.15293720E+00 0.15171916E+04</pdfrwt>
<totfact> 0.11532476E+01</totfact>
</mgrwt>
</event>
<event>
12    1  0.2048318E-007  0.4814445E+04  0.7818608E-02  0.7857786E-01
         -1   -1    0    0    0  501 -0.00000000000E+00  0.00000000000E+00  0.20414597198E+04  0.20414597198E+04  0.00000000000E+00 0.  1.
          1   -1    0    0  501    0  0.00000000000E+00 -0.00000000000E+00 -0.28385180748E+04  0.28385180748E+04  0.00000000000E+00 0. -1.
         23    2    1    2    0    0  0.10008526454E+04 -0.20621066440E+04 -0.76111217084E+03  0.24170106646E+04  0.93053679633E+02 0.  0.
        254    2    1    2    0    0 -0.10008526454E+04  0.20621066440E+04 -0.35946184167E+02  0.24629671300E+04  0.90051381238E+03 0.  0.
        -24    2    4    4    0    0  0.41011951554E+02  0.41589134560E+03 -0.26323912609E+03  0.49992199339E+03  0.77327682301E+02 0.  0.
         24    2    4    4    0    0 -0.10418645970E+04  0.16462152983E+04  0.22729294192E+03  0.19630451366E+04  0.79859125115E+02 0.  0.
         11    1    3    3    0    0  0.33995904790E+03 -0.74453804573E+03 -0.22951212859E+03  0.85004992380E+03  0.00000000000E+00 0.  1.
        -11    1    3    3    0    0  0.66089359752E+03 -0.13175685982E+04 -0.53160004225E+03  0.15669607408E+04  0.00000000000E+00 0. -1.
          2    1    6    6  502    0 -0.57275050515E+03  0.92838463257E+03  0.16510546078E+03  0.11032683175E+04  0.00000000000E+00 0. -1.
          1    1    5    5  503    0  0.48209789399E+01  0.13838567170E+03 -0.13014222678E+03  0.19002851144E+03  0.00000000000E+00 0. -1.
         -2    1    5    5    0  503  0.36190972614E+02  0.27750567390E+03 -0.13309689931E+03  0.30989348194E+03  0.00000000000E+00 0.  1.
         -1    1    6    6    0  502 -0.46911409182E+03  0.71783066578E+03  0.62187481140E+02  0.85977681912E+03  0.00000000000E+00 0.  1.
<mgrwt>
<rscale>  0 0.48144451E+04</rscale>
<asrwt>0</asrwt>
<pdfrwt beam="1">  1        1 0.43669509E+00 0.48144451E+04</pdfrwt>
<pdfrwt beam="2">  1       -1 0.31407073E+00 0.48144451E+04</pdfrwt>
<totfact> 0.15331521E-02</totfact>
</mgrwt>
</event>
<event>
12    1  0.2048318E-007  0.3655588E+04  0.7818608E-02  0.8077876E-01
         -2   -1    0    0    0  501 -0.00000000000E+00  0.00000000000E+00  0.12300303937E+04  0.12300303937E+04  0.00000000000E+00 0.  1.
          2   -1    0    0  501    0  0.00000000000E+00 -0.00000000000E+00 -0.27160557193E+04  0.27160557193E+04  0.00000000000E+00 0. -1.
         23    2    1    2    0    0  0.38910759387E+03  0.10563461532E+04 -0.20964796022E+04  0.23813516925E+04  0.91308520628E+02 0.  0.
        254    2    1    2    0    0 -0.38910759387E+03 -0.10563461532E+04  0.61045427668E+03  0.15647344205E+04  0.89914819009E+03 0.  0.
        -24    2    4    4    0    0 -0.66577583785E+02 -0.92707589461E+03  0.73406396135E+03  0.11874672453E+04  0.85593634042E+02 0.  0.
         24    2    4    4    0    0 -0.32253001008E+03 -0.12927025861E+03 -0.12360968467E+03  0.37726717524E+03  0.79465465458E+02 0.  0.
         13    1    3    3    0    0  0.16489889763E+03  0.46118536324E+03 -0.81803672828E+03  0.95345040486E+03  0.00000000000E+00 0.  1.
        -13    1    3    3    0    0  0.22420869624E+03  0.59516078998E+03 -0.12784428739E+04  0.14279012877E+04  0.00000000000E+00 0. -1.
          4    1    6    6  502    0 -0.10476349874E+03 -0.33703499469E+02 -0.17849670564E+01  0.11006590140E+03  0.00000000000E+00 0. -1.
          1    1    5    5  503    0  0.17853435665E+02 -0.86343523219E+02  0.77810138026E+02  0.11759407615E+03  0.00000000000E+00 0. -1.
         -2    1    5    5    0  503 -0.84431019450E+02 -0.84073237139E+03  0.65625382332E+03  0.10698731691E+04  0.00000000000E+00 0.  1.
         -3    1    6    6    0  502 -0.21776651135E+03 -0.95566759143E+02 -0.12182471761E+03  0.26720127383E+03  0.00000000000E+00 0.  1.
<mgrwt>
<rscale>  0 0.36555881E+04</rscale>
<asrwt>0</asrwt>
<pdfrwt beam="1">  1        2 0.41785473E+00 0.36555881E+04</pdfrwt>
<pdfrwt beam="2">  1       -2 0.18923544E+00 0.36555881E+04</pdfrwt>
<totfact> 0.33046243E-01</totfact>
</mgrwt>
</event>
<event>
12    1  0.2048318E-007  0.2378041E+04  0.7818608E-02  0.8447771E-01
         -2   -1    0    0    0  501 -0.00000000000E+00  0.00000000000E+00  0.19967654005E+04  0.19967654005E+04  0.00000000000E+00 0. -1.
          2   -1    0    0  501    0  0.00000000000E+00 -0.00000000000E+00 -0.70803006090E+03  0.70803006090E+03  0.00000000000E+00 0.  1.
         23    2    1    2    0    0  0.51507981555E+03  0.12260316505E+03 -0.43344391649E+03  0.68997705037E+03  0.88633790569E+02 0.  0.
        254    2    1    2    0    0 -0.51507981555E+03 -0.12260316505E+03  0.17221792561E+04  0.20148184111E+04  0.90180545956E+03 0.  0.
        -24    2    4    4    0    0 -0.41293287142E+03 -0.44815703318E+03  0.14356120541E+04  0.15616674459E+04  0.80404969081E+02 0.  0.
         24    2    4    4    0    0 -0.10214694413E+03  0.32555386813E+03  0.28656720198E+03  0.45315096512E+03  0.82496767743E+02 0.  0.
         13    1    3    3    0    0  0.19645858255E+03  0.35591415720E+02 -0.21811146763E+03  0.29569466658E+03  0.00000000000E+00 0.  1.
        -13    1    3    3    0    0  0.31862123299E+03  0.87011749331E+02 -0.21533244886E+03  0.39428238379E+03  0.00000000000E+00 0. -1.
          2    1    6    6  502    0 -0.92323566682E+02  0.31993277070E+03  0.25438738121E+03  0.41903885077E+03  0.00000000000E+00 0. -1.
          3    1    5    5  503    0 -0.25919926458E+03 -0.32577499206E+03  0.91694392020E+03  0.10070252018E+04  0.00000000000E+00 0. -1.
         -4    1    5    5    0  503 -0.15373360683E+03 -0.12238204112E+03  0.51866813393E+03  0.55464224416E+03  0.00000000000E+00 0.  1.
         -1    1    6    6    0  502 -0.98233774480E+01  0.56210974285E+01  0.32179820768E+02  0.34112114350E+02  0.00000000000E+00 0.  1.
<mgrwt>
<rscale>  0 0.23780412E+04</rscale>
<asrwt>0</asrwt>
<pdfrwt beam="1">  1        2 0.10892770E+00 0.23780412E+04</pdfrwt>
<pdfrwt beam="2">  1       -2 0.30719467E+00 0.23780412E+04</pdfrwt>
<totfact> 0.10449544E+00</totfact>
</mgrwt>
</event>
<event>
12    1  0.2048318E-007  0.2530654E+04  0.7818608E-02  0.8392146E-01
         -1   -1    0    0    0  501 -0.00000000000E+00  0.00000000000E+00  0.66509272812E+03  0.66509272812E+03  0.00000000000E+00 0.  1.
          1   -1    0    0  501    0  0.00000000000E+00 -0.00000000000E+00 -0.24072616460E+04  0.24072616460E+04  0.00000000000E+00 0. -1.
         23    2    1    2    0    0 -0.68414833908E+03  0.47821684347E+03  0.11374204276E+03  0.84749537655E+03  0.92524925000E+02 0.  0.
        254    2    1    2    0    0  0.68414833908E+03 -0.47821684347E+03 -0.18559109607E+04  0.22248589976E+04  0.89935630650E+03 0.  0.
        -24    2    4    4    0    0  0.10199200399E+03 -0.52494888233E+03 -0.13238789543E+04  0.14302077560E+04  0.82855547457E+02 0.  0.
         24    2    4    4    0    0  0.58215633508E+03  0.46732038856E+02 -0.53203200639E+03  0.79465124163E+03  0.85572531017E+02 0.  0.
         13    1    3    3    0    0 -0.66344699877E+03  0.45299136582E+03  0.12492461375E+03  0.81300015794E+03  0.00000000000E+00 0.  1.
        -13    1    3    3    0    0 -0.20701340306E+02  0.25225477653E+02 -0.11182570996E+02  0.34495218615E+02  0.00000000000E+00 0. -1.
          4    1    6    6  502    0  0.48396046675E+03  0.22663656272E+02 -0.47536383889E+03  0.67875043574E+03  0.00000000000E+00 0. -1.
          3    1    5    5  503    0  0.65667853866E+02 -0.39076495300E+03 -0.88060854970E+03  0.96565052339E+03  0.00000000000E+00 0. -1.
         -4    1    5    5    0  503  0.36324150128E+02 -0.13418392932E+03 -0.44327040457E+03  0.46455723257E+03  0.00000000000E+00 0.  1.
         -3    1    6    6    0  502  0.98195868329E+02  0.24068382584E+02 -0.56668167501E+02  0.11590080589E+03  0.00000000000E+00 0.  1.
<mgrwt>
<rscale>  0 0.25306538E+04</rscale>
<asrwt>0</asrwt>
<pdfrwt beam="1">  1        1 0.37034795E+00 0.25306538E+04</pdfrwt>
<pdfrwt beam="2">  1       -1 0.10232196E+00 0.25306538E+04</pdfrwt>
<totfact> 0.12575491E+00</totfact>
</mgrwt>
</event>
<event>
12    1  0.2048318E-007  0.4127994E+04  0.7818608E-02  0.7979212E-01
         -2   -1    0    0    0  501 -0.00000000000E+00  0.00000000000E+00  0.98907590629E+03  0.98907590629E+03  0.00000000000E+00 0.  1.
          2   -1    0    0  501    0  0.00000000000E+00 -0.00000000000E+00 -0.43071350640E+04  0.43071350640E+04  0.00000000000E+00 0. -1.
         23    2    1    2    0    0 -0.16593492023E+04  0.87429425940E+03 -0.83148924635E+03  0.20541711835E+04  0.10205222631E+03 0.  0.
        254    2    1    2    0    0  0.16593492023E+04 -0.87429425940E+03 -0.24865699114E+04  0.32420397868E+04  0.89997879315E+03 0.  0.
        -24    2    4    4    0    0  0.10289739205E+04 -0.53104777466E+02 -0.13876252821E+04  0.17302408643E+04  0.81376154005E+02 0.  0.
         24    2    4    4    0    0  0.63037528185E+03 -0.82118948193E+03 -0.10989446292E+04  0.15117989225E+04  0.78304041541E+02 0.  0.
         11    1    3    3    0    0 -0.57942489998E+03  0.34346004513E+03 -0.33733864656E+03  0.75332289211E+03  0.00000000000E+00 0. -1.
        -11    1    3    3    0    0 -0.10799243023E+04  0.53083421426E+03 -0.49415059979E+03  0.13008482913E+04  0.00000000000E+00 0.  1.
          2    1    6    6  502    0  0.52873197853E+03 -0.63783267392E+03 -0.87001559097E+03  0.12013805199E+04  0.00000000000E+00 0. -1.
          1    1    5    5  503    0  0.73633992814E+02 -0.31070769337E+01 -0.13832405832E+03  0.15673277875E+03  0.00000000000E+00 0. -1.
         -2    1    5    5    0  503  0.95533992765E+03 -0.49997700532E+02 -0.12493012238E+04  0.15735080855E+04  0.00000000000E+00 0.  1.
         -1    1    6    6    0  502  0.10164330331E+03 -0.18335680801E+03 -0.22892903825E+03  0.31041840265E+03  0.00000000000E+00 0.  1.
<mgrwt>
<rscale>  0 0.41279940E+04</rscale>
<asrwt>0</asrwt>
<pdfrwt beam="1">  1        2 0.66263616E+00 0.41279940E+04</pdfrwt>
<pdfrwt beam="2">  1       -2 0.15216552E+00 0.41279940E+04</pdfrwt>
<totfact> 0.41837454E-02</totfact>
</mgrwt>
</event>
<event>
12    1  0.2048318E-007  0.1720469E+04  0.7818608E-02  0.8749776E-01
          1   -1    0    0  501    0  0.00000000000E+00  0.00000000000E+00  0.86213191388E+03  0.86213191388E+03  0.00000000000E+00 0. -1.
         -1   -1    0    0    0  501 -0.00000000000E+00 -0.00000000000E+00 -0.85834077085E+03  0.85834077085E+03  0.00000000000E+00 0.  1.
         23    2    1    2    0    0 -0.39845676219E+03  0.47374873576E+03 -0.29941221141E+01  0.62547288439E+03  0.89452268680E+02 0.  0.
        254    2    1    2    0    0  0.39845676219E+03 -0.47374873576E+03  0.67852651403E+01  0.10949998003E+04  0.90320145425E+03 0.  0.
        -24    2    4    4    0    0  0.46184435168E+03  0.12579194771E+03 -0.26027334114E+02  0.48605492659E+03  0.80300375190E+02 0.  0.
         24    2    4    4    0    0 -0.63387589488E+02 -0.59954068347E+03  0.32812599254E+02  0.60894487375E+03  0.79184436357E+02 0.  0.
         13    1    3    3    0    0 -0.19999656774E+03  0.25173850534E+03  0.42229725608E+02  0.32427496342E+03  0.00000000000E+00 0. -1.
        -13    1    3    3    0    0 -0.19846019445E+03  0.22201023042E+03 -0.45223847722E+02  0.30119792097E+03  0.00000000000E+00 0.  1.
          2    1    6    6  502    0 -0.28375118765E+02 -0.13121815370E+03 -0.22307299514E+02  0.13609175889E+03  0.00000000000E+00 0. -1.
          1    1    5    5  503    0  0.27423513953E+03  0.45440548689E+02  0.12943231478E+02  0.27827555131E+03  0.00000000000E+00 0. -1.
         -2    1    5    5    0  503  0.18760921215E+03  0.80351399022E+02 -0.38970565591E+02  0.20777937528E+03  0.00000000000E+00 0.  1.
         -1    1    6    6    0  502 -0.35012470723E+02 -0.46832252977E+03  0.55119898768E+02  0.47285311486E+03  0.00000000000E+00 0.  1.
<mgrwt>
<rscale>  0 0.17204685E+04</rscale>
<asrwt>0</asrwt>
<pdfrwt beam="1">  1        1 0.13263568E+00 0.17204685E+04</pdfrwt>
<pdfrwt beam="2">  1       -1 0.13205243E+00 0.17204685E+04</pdfrwt>
<totfact> 0.90589655E+00</totfact>
</mgrwt>
</event>
<event>
12    1  0.2048318E-007  0.2032349E+04  0.7818608E-02  0.8591644E-01
          1   -1    0    0  501    0  0.00000000000E+00  0.00000000000E+00  0.90619393610E+03  0.90619393610E+03  0.00000000000E+00 0. -1.
         -1   -1    0    0    0  501 -0.00000000000E+00 -0.00000000000E+00 -0.11395028423E+04  0.11395028423E+04  0.00000000000E+00 0.  1.
         23    2    1    2    0    0 -0.59277260696E+03 -0.45315081452E+03 -0.44623301733E+03  0.87357054744E+03  0.85302821422E+02 0.  0.
        254    2    1    2    0    0  0.59277260696E+03  0.45315081452E+03  0.21292411112E+03  0.11721262310E+04  0.87853184346E+03 0.  0.
        -24    2    4    4    0    0  0.16410125424E+03  0.96477980163E+02  0.49990279920E+03  0.54073645524E+03  0.79094140581E+02 0.  0.
         24    2    4    4    0    0  0.42867135272E+03  0.35667283436E+03 -0.28697868808E+03  0.63138977573E+03  0.72949585826E+02 0.  0.
         13    1    3    3    0    0 -0.33122483099E+03 -0.22906159899E+03 -0.19620394382E+03  0.44796773585E+03  0.00000000000E+00 0. -1.
        -13    1    3    3    0    0 -0.26154777597E+03 -0.22408921554E+03 -0.25002907351E+03  0.42560281159E+03  0.00000000000E+00 0.  1.
          2    1    6    6  502    0  0.13040105496E+03  0.93851096627E+02 -0.11841692938E+03  0.19958715549E+03  0.00000000000E+00 0. -1.
          1    1    5    5  503    0  0.98757693118E+02  0.97110947264E+02  0.30012700855E+03  0.33054476140E+03  0.00000000000E+00 0. -1.
         -2    1    5    5    0  503  0.65343561125E+02 -0.63296710172E+00  0.19977579065E+03  0.21019169384E+03  0.00000000000E+00 0.  1.
         -1    1    6    6    0  502  0.29827029776E+03  0.26282173773E+03 -0.16856175870E+03  0.43180262024E+03  0.00000000000E+00 0.  1.
<mgrwt>
<rscale>  0 0.20323490E+04</rscale>
<asrwt>0</asrwt>
<pdfrwt beam="1">  1        1 0.13941445E+00 0.20323490E+04</pdfrwt>
<pdfrwt beam="2">  1       -1 0.17530813E+00 0.20323490E+04</pdfrwt>
<totfact> 0.37437641E+00</totfact>
</mgrwt>
</event>
<event>
12    1  0.2048318E-007  0.2085460E+04  0.7818608E-02  0.8567676E-01
         -2   -1    0    0    0  501 -0.00000000000E+00  0.00000000000E+00  0.90386059938E+03  0.90386059938E+03  0.00000000000E+00 0.  1.
          2   -1    0    0  501    0  0.00000000000E+00 -0.00000000000E+00 -0.12029348761E+04  0.12029348761E+04  0.00000000000E+00 0. -1.
         23    2    1    2    0    0 -0.68970153457E+03 -0.48190095708E+03 -0.20623309527E+03  0.87118135632E+03  0.92239507710E+02 0.  0.
        254    2    1    2    0    0  0.68970153457E+03  0.48190095708E+03 -0.92841181447E+02  0.12356141192E+04  0.90011445231E+03 0.  0.
        -24    2    4    4    0    0  0.29793937207E+03  0.63480270903E+03  0.17907384266E+03  0.72838441731E+03  0.82061375954E+02 0.  0.
         24    2    4    4    0    0  0.39176216249E+03 -0.15290175195E+03 -0.27191502411E+03  0.50722970185E+03  0.80545964440E+02 0.  0.
         13    1    3    3    0    0 -0.98336936930E+02 -0.88703463431E+02 -0.63318484345E+02  0.14679130781E+03  0.00000000000E+00 0. -1.
        -13    1    3    3    0    0 -0.59136459764E+03 -0.39319749365E+03 -0.14291461093E+03  0.72439004851E+03  0.00000000000E+00 0.  1.
          2    1    6    6  502    0  0.14476411077E+03 -0.71843015286E+02 -0.61984692080E+02  0.17309005941E+03  0.00000000000E+00 0. -1.
          3    1    5    5  503    0  0.24716305576E+03  0.49241630661E+03  0.10847714828E+03  0.56154313000E+03  0.00000000000E+00 0. -1.
         -4    1    5    5    0  503  0.50776316315E+02  0.14238640242E+03  0.70596694388E+02  0.16684128731E+03  0.00000000000E+00 0.  1.
         -1    1    6    6    0  502  0.24699805172E+03 -0.81058736662E+02 -0.20993033203E+03  0.33413964244E+03  0.00000000000E+00 0.  1.
<mgrwt>
<rscale>  0 0.20854596E+04</rscale>
<asrwt>0</asrwt>
<pdfrwt beam="1">  1        2 0.18506690E+00 0.20854596E+04</pdfrwt>
<pdfrwt beam="2">  1       -2 0.13905548E+00 0.20854596E+04</pdfrwt>
<totfact> 0.63628851E+00</totfact>
</mgrwt>
</event>
<event>
12    1  0.2048318E-007  0.2191285E+04  0.7818608E-02  0.8522064E-01
          1   -1    0    0  501    0  0.00000000000E+00  0.00000000000E+00  0.17807309056E+04  0.17807309056E+04  0.00000000000E+00 0. -1.
         -1   -1    0    0    0  501 -0.00000000000E+00 -0.00000000000E+00 -0.67412322643E+03  0.67412322643E+03  0.00000000000E+00 0.  1.
         23    2    1    2    0    0  0.19832473695E+03 -0.80043452566E+03  0.88842425543E+03  0.12155823430E+04  0.91184668521E+02 0.  0.
        254    2    1    2    0    0 -0.19832473695E+03  0.80043452566E+03  0.21818342371E+03  0.12392717890E+04  0.89897854788E+03 0.  0.
        -24    2    4    4    0    0  0.18896785792E+03  0.17672770342E+03  0.39568330773E+03  0.47968580304E+03  0.81189021026E+02 0.  0.
         24    2    4    4    0    0 -0.38729259487E+03  0.62370682223E+03 -0.17749988402E+03  0.75958598599E+03  0.80367326297E+02 0.  0.
         11    1    3    3    0    0  0.66603982746E+02 -0.12636304476E+03  0.15196038335E+03  0.20855615001E+03  0.00000000000E+00 0. -1.
        -11    1    3    3    0    0  0.13172075421E+03 -0.67407148090E+03  0.73646387208E+03  0.10070261930E+04  0.00000000000E+00 0.  1.
          2    1    6    6  502    0 -0.66892146282E+01  0.13687636736E+02 -0.17090578810E+02  0.22895084098E+02  0.00000000000E+00 0. -1.
          1    1    5    5  503    0 -0.32468134103E+01  0.27752663193E+02  0.43357144610E+02  0.51580947067E+02  0.00000000000E+00 0. -1.
         -2    1    5    5    0  503  0.19221467133E+03  0.14897504023E+03  0.35232616312E+03  0.42810485597E+03  0.00000000000E+00 0.  1.
         -1    1    6    6    0  502 -0.38060338024E+03  0.61001918550E+03 -0.16040930521E+03  0.73669090189E+03  0.00000000000E+00 0.  1.
<mgrwt>
<rscale>  0 0.21912846E+04</rscale>
<asrwt>0</asrwt>
<pdfrwt beam="1">  1        1 0.27395860E+00 0.21912846E+04</pdfrwt>
<pdfrwt beam="2">  1       -1 0.10371127E+00 0.21912846E+04</pdfrwt>
<totfact> 0.33563674E+00</totfact>
</mgrwt>
</event>
<event>
12    1  0.2048318E-007  0.2514521E+04  0.7818608E-02  0.8397830E-01
         -2   -1    0    0    0  501 -0.00000000000E+00  0.00000000000E+00  0.65154763079E+03  0.65154763079E+03  0.00000000000E+00 0.  1.
          2   -1    0    0  501    0  0.00000000000E+00 -0.00000000000E+00 -0.24260766589E+04  0.24260766589E+04  0.00000000000E+00 0. -1.
         23    2    1    2    0    0  0.75326243507E+03 -0.22791990784E+03  0.15566111406E+03  0.80733831705E+03  0.90625577337E+02 0.  0.
        254    2    1    2    0    0 -0.75326243507E+03  0.22791990784E+03 -0.19301901421E+04  0.22702859726E+04  0.89956246707E+03 0.  0.
        -24    2    4    4    0    0 -0.84668846187E+02 -0.59427114367E+02 -0.12932781691E+04  0.12998703902E+04  0.79963824167E+02 0.  0.
         24    2    4    4    0    0 -0.66859358888E+03  0.28734702221E+03 -0.63691197304E+03  0.97041558243E+03  0.80398028310E+02 0.  0.
         11    1    3    3    0    0  0.48497790159E+03 -0.19063340933E+03  0.11158046272E+03  0.53291168259E+03  0.00000000000E+00 0. -1.
        -11    1    3    3    0    0  0.26828453348E+03 -0.37286498507E+02  0.44080651335E+02  0.27442663445E+03  0.00000000000E+00 0.  1.
          2    1    6    6  502    0 -0.21951882860E+03  0.57651193721E+02 -0.21865826723E+03  0.31515649140E+03  0.00000000000E+00 0. -1.
          3    1    5    5  503    0 -0.24511667433E+02  0.18998112545E+02 -0.37833597653E+03  0.37960487518E+03  0.00000000000E+00 0. -1.
         -4    1    5    5    0  503 -0.60157178753E+02 -0.78425226912E+02 -0.91494219255E+03  0.92026551499E+03  0.00000000000E+00 0.  1.
         -1    1    6    6    0  502 -0.44907476029E+03  0.22969582848E+03 -0.41825370581E+03  0.65525909103E+03  0.00000000000E+00 0.  1.
<mgrwt>
<rscale>  0 0.25145214E+04</rscale>
<asrwt>0</asrwt>
<pdfrwt beam="1">  1        2 0.37324256E+00 0.25145214E+04</pdfrwt>
<pdfrwt beam="2">  1       -2 0.10023810E+00 0.25145214E+04</pdfrwt>
<totfact> 0.28096932E+00</totfact>
</mgrwt>
</event>
<event>
12    1  0.2048318E-007  0.2212948E+04  0.7818608E-02  0.8513058E-01
          2   -1    0    0  501    0  0.00000000000E+00  0.00000000000E+00  0.17227476171E+04  0.17227476171E+04  0.00000000000E+00 0. -1.
         -2   -1    0    0    0  501 -0.00000000000E+00 -0.00000000000E+00 -0.71065847429E+03  0.71065847429E+03  0.00000000000E+00 0.  1.
         23    2    1    2    0    0 -0.83371105464E+03 -0.11478283754E+03  0.83455684720E+03  0.11888366148E+04  0.92726172467E+02 0.  0.
        254    2    1    2    0    0  0.83371105464E+03  0.11478283754E+03  0.17753229565E+03  0.12445694766E+04  0.89954779958E+03 0.  0.
        -24    2    4    4    0    0  0.22902118851E+03  0.10597540897E+03  0.49182571114E+03  0.55850302014E+03  0.79696933917E+02 0.  0.
         24    2    4    4    0    0  0.60468986613E+03  0.88074285747E+01 -0.31429341549E+03  0.68606645649E+03  0.78609329563E+02 0.  0.
         11    1    3    3    0    0 -0.60098315262E+03 -0.60996972178E+02  0.64679591932E+03  0.88501205732E+03  0.00000000000E+00 0.  1.
        -11    1    3    3    0    0 -0.23272790203E+03 -0.53785865364E+02  0.18776092788E+03  0.30382455749E+03  0.00000000000E+00 0. -1.
          2    1    6    6  502    0  0.33568132937E+01  0.29742889794E+01 -0.12389125499E+02  0.13175925814E+02  0.00000000000E+00 0. -1.
          1    1    5    5  503    0  0.22126005105E+03  0.11284438461E+03  0.43652020914E+03  0.50223476415E+03  0.00000000000E+00 0. -1.
         -2    1    5    5    0  503  0.77611374585E+01 -0.68689756468E+01  0.55305502002E+02  0.56268255995E+02  0.00000000000E+00 0.  1.
         -1    1    6    6    0  502  0.60133305284E+03  0.58331395953E+01 -0.30190428999E+03  0.67289053067E+03  0.00000000000E+00 0.  1.
<mgrwt>
<rscale>  0 0.22129484E+04</rscale>
<asrwt>0</asrwt>
<pdfrwt beam="1">  1        2 0.26503809E+00 0.22129484E+04</pdfrwt>
<pdfrwt beam="2">  1       -2 0.10933207E+00 0.22129484E+04</pdfrwt>
<totfact> 0.57995278E+00</totfact>
</mgrwt>
</event>
<event>
12    1  0.2048318E-007  0.1674648E+04  0.7818608E-02  0.8775957E-01
          2   -1    0    0  501    0  0.00000000000E+00  0.00000000000E+00  0.87239029017E+03  0.87239029017E+03  0.00000000000E+00 0. -1.
         -2   -1    0    0    0  501 -0.00000000000E+00 -0.00000000000E+00 -0.80366679377E+03  0.80366679377E+03  0.00000000000E+00 0.  1.
         23    2    1    2    0    0  0.53751244001E+03  0.12683489537E+03  0.23868657797E+03  0.60870854698E+03  0.92455929104E+02 0.  0.
        254    2    1    2    0    0 -0.53751244001E+03 -0.12683489537E+03 -0.16996308157E+03  0.10673485370E+04  0.89740667280E+03 0.  0.
        -24    2    4    4    0    0 -0.59549267395E+03 -0.20968205276E+02 -0.45087926071E+03  0.75146625011E+03  0.79738491040E+02 0.  0.
         24    2    4    4    0    0  0.57980233942E+02 -0.10586669009E+03  0.28091617914E+03  0.31588228684E+03  0.79361551397E+02 0.  0.
         13    1    3    3    0    0  0.80614638738E+02  0.52012852839E+02  0.55250131234E+02  0.11070968269E+03  0.00000000000E+00 0. -1.
        -13    1    3    3    0    0  0.45689780127E+03  0.74822042530E+02  0.18343644673E+03  0.49799886430E+03  0.00000000000E+00 0.  1.
          2    1    6    6  502    0 -0.11878089853E+02 -0.59352714344E+02  0.11756568338E+03  0.13223283869E+03  0.00000000000E+00 0. -1.
          3    1    5    5  503    0 -0.12031024097E+03 -0.99573041093E+01 -0.54007914677E+02  0.13225186893E+03  0.00000000000E+00 0. -1.
         -4    1    5    5    0  503 -0.47518243297E+03 -0.11010901167E+02 -0.39687134604E+03  0.61921438118E+03  0.00000000000E+00 0.  1.
         -1    1    6    6    0  502  0.69858323796E+02 -0.46513975749E+02  0.16335049576E+03  0.18364944815E+03  0.00000000000E+00 0.  1.
<mgrwt>
<rscale>  0 0.16746476E+04</rscale>
<asrwt>0</asrwt>
<pdfrwt beam="1">  1        2 0.13421389E+00 0.16746476E+04</pdfrwt>
<pdfrwt beam="2">  1       -2 0.12364104E+00 0.16746476E+04</pdfrwt>
<totfact> 0.14388073E+01</totfact>
</mgrwt>
</event>
<event>
12    1  0.2048318E-007  0.3255251E+04  0.7818608E-02  0.8174376E-01
         -1   -1    0    0    0  501 -0.00000000000E+00  0.00000000000E+00  0.13864514020E+04  0.13864514020E+04  0.00000000000E+00 0.  1.
          1   -1    0    0  501    0  0.00000000000E+00 -0.00000000000E+00 -0.19107514170E+04  0.19107514170E+04  0.00000000000E+00 0. -1.
         23    2    1    2    0    0 -0.57355952166E+03  0.59352746847E+03  0.10286893195E+04  0.13217824559E+04  0.87531503064E+02 0.  0.
        254    2    1    2    0    0  0.57355952166E+03 -0.59352746847E+03 -0.15529893346E+04  0.19754203631E+04  0.89959121662E+03 0.  0.
        -24    2    4    4    0    0 -0.22590410971E+03 -0.99362831035E+02 -0.48294277353E+03  0.54892096928E+03  0.84704598664E+02 0.  0.
         24    2    4    4    0    0  0.79946363137E+03 -0.49416463744E+03 -0.10700465610E+04  0.14264993938E+04  0.80994388977E+02 0.  0.
         11    1    3    3    0    0 -0.28571619399E+03  0.23463507958E+03  0.44293193576E+03  0.57695412624E+03  0.00000000000E+00 0.  1.
        -11    1    3    3    0    0 -0.28784332767E+03  0.35889238890E+03  0.58575738373E+03  0.74482832968E+03  0.00000000000E+00 0. -1.
          2    1    6    6  502    0  0.29524388056E+03 -0.13898969865E+03 -0.35420776979E+03  0.48161211522E+03  0.00000000000E+00 0. -1.
          1    1    5    5  503    0 -0.12052441043E+03 -0.61779848459E+02 -0.34924663139E+03  0.37458789719E+03  0.00000000000E+00 0. -1.
         -2    1    5    5    0  503 -0.10537969929E+03 -0.37582982576E+02 -0.13369614213E+03  0.17433307208E+03  0.00000000000E+00 0.  1.
         -1    1    6    6    0  502  0.50421975081E+03 -0.35517493879E+03 -0.71583879124E+03  0.94488727862E+03  0.00000000000E+00 0.  1.
<mgrwt>
<rscale>  0 0.32552505E+04</rscale>
<asrwt>0</asrwt>
<pdfrwt beam="1">  1        1 0.29396175E+00 0.32552505E+04</pdfrwt>
<pdfrwt beam="2">  1       -1 0.21330022E+00 0.32552505E+04</pdfrwt>
<totfact> 0.34837867E-01</totfact>
</mgrwt>
</event>
<event>
12    1  0.2048318E-007  0.1433769E+04  0.7818608E-02  0.8929731E-01
          2   -1    0    0  501    0  0.00000000000E+00  0.00000000000E+00  0.51734668060E+03  0.51734668060E+03  0.00000000000E+00 0. -1.
         -2   -1    0    0    0  501 -0.00000000000E+00 -0.00000000000E+00 -0.99338230167E+03  0.99338230167E+03  0.00000000000E+00 0.  1.
         23    2    1    2    0    0 -0.13604265011E+03  0.32349859178E+03 -0.40787809344E+03  0.54567878589E+03  0.90784672352E+02 0.  0.
        254    2    1    2    0    0  0.13604265011E+03 -0.32349859178E+03 -0.68157527632E+02  0.96505019638E+03  0.89639137180E+03 0.  0.
        -24    2    4    4    0    0 -0.40379088333E+02 -0.15196029892E+03 -0.46137763430E+03  0.49439530753E+03  0.82674031315E+02 0.  0.
         24    2    4    4    0    0  0.17642173844E+03 -0.17153829286E+03  0.39322010666E+03  0.47065488886E+03  0.79648957362E+02 0.  0.
         13    1    3    3    0    0 -0.39328306322E+02  0.18343411521E+03 -0.25724292763E+03  0.31838453812E+03  0.00000000000E+00 0.  1.
        -13    1    3    3    0    0 -0.96714343784E+02  0.14006447657E+03 -0.15063516581E+03  0.22729424777E+03  0.00000000000E+00 0. -1.
          2    1    6    6  502    0  0.50236367379E+02 -0.84834449695E+02  0.20923133303E+03  0.23129705399E+03  0.00000000000E+00 0. -1.
          3    1    5    5  503    0 -0.39283451311E+02 -0.16242834925E+03 -0.43510109907E+03  0.46608918095E+03  0.00000000000E+00 0. -1.
         -4    1    5    5    0  503 -0.10956370217E+01  0.10468050333E+02 -0.26276535227E+02  0.28306126577E+02  0.00000000000E+00 0.  1.
         -1    1    6    6    0  502  0.12618537106E+03 -0.86703843168E+02  0.18398877363E+03  0.23935783487E+03  0.00000000000E+00 0.  1.
<mgrwt>
<rscale>  0 0.14337685E+04</rscale>
<asrwt>0</asrwt>
<pdfrwt beam="1">  1        2 0.79591797E-01 0.14337685E+04</pdfrwt>
<pdfrwt beam="2">  1       -2 0.15282805E+00 0.14337685E+04</pdfrwt>
<totfact> 0.16364464E+01</totfact>
</mgrwt>
</event>
<event>
12    1  0.2048318E-007  0.1450286E+04  0.7818608E-02  0.8918202E-01
         -2   -1    0    0    0  501 -0.00000000000E+00  0.00000000000E+00  0.29574240254E+03  0.29574240254E+03  0.00000000000E+00 0.  1.
          2   -1    0    0  501    0  0.00000000000E+00 -0.00000000000E+00 -0.17780084745E+04  0.17780084745E+04  0.00000000000E+00 0. -1.
         23    2    1    2    0    0  0.35288364990E+03 -0.64645647709E+02 -0.95784737912E+02  0.38193971759E+03  0.89427634001E+02 0.  0.
        254    2    1    2    0    0 -0.35288364990E+03  0.64645647709E+02 -0.13864813340E+04  0.16918111594E+04  0.90066007985E+03 0.  0.
        -24    2    4    4    0    0 -0.14899012681E+03 -0.10059766390E+03  0.71093663442E+02  0.20867828232E+03  0.78577151016E+02 0.  0.
         24    2    4    4    0    0 -0.20389352309E+03  0.16524331161E+03 -0.14575749975E+04  0.14831328771E+04  0.79248578125E+02 0.  0.
         11    1    3    3    0    0  0.88123862799E+02 -0.11816832917E+02 -0.65152790601E+02  0.11022857551E+03  0.00000000000E+00 0. -1.
        -11    1    3    3    0    0  0.26475978710E+03 -0.52828814792E+02 -0.30631947311E+02  0.27171114209E+03  0.00000000000E+00 0.  1.
          4    1    6    6  502    0 -0.11161345686E+03  0.13406450217E+03 -0.10238742466E+04  0.10386285801E+04  0.00000000000E+00 0. -1.
          1    1    5    5  503    0 -0.82456264550E+02 -0.39720041802E+02 -0.35777307367E+01  0.91594309002E+02  0.00000000000E+00 0. -1.
         -2    1    5    5    0  503 -0.66533862258E+02 -0.60877622094E+02  0.74671394179E+02  0.11708397332E+03  0.00000000000E+00 0.  1.
         -3    1    6    6    0  502 -0.92280066230E+02  0.31178809433E+02 -0.43370075086E+03  0.44450429703E+03  0.00000000000E+00 0.  1.
<mgrwt>
<rscale>  0 0.14502862E+04</rscale>
<asrwt>0</asrwt>
<pdfrwt beam="1">  1        2 0.27353977E+00 0.14502862E+04</pdfrwt>
<pdfrwt beam="2">  1       -2 0.45498831E-01 0.14502862E+04</pdfrwt>
<totfact> 0.39423429E+01</totfact>
</mgrwt>
</event>
<event>
12    1  0.2048318E-007  0.1244780E+04  0.7818608E-02  0.9074539E-01
          1   -1    0    0  501    0  0.00000000000E+00  0.00000000000E+00  0.11122162919E+04  0.11122162919E+04  0.00000000000E+00 0. -1.
         -1   -1    0    0    0  501 -0.00000000000E+00 -0.00000000000E+00 -0.34828621033E+03  0.34828621033E+03  0.00000000000E+00 0.  1.
         23    2    1    2    0    0 -0.20401676707E+03  0.17304481942E+03  0.31142882242E+03  0.42049472456E+03  0.90887574383E+02 0.  0.
        254    2    1    2    0    0  0.20401676707E+03 -0.17304481942E+03  0.45250125914E+03  0.10400077777E+04  0.89738031921E+03 0.  0.
        -24    2    4    4    0    0 -0.34781581809E+03 -0.19935631290E+02  0.15725012334E+03  0.38997903702E+03  0.77348402182E+02 0.  0.
         24    2    4    4    0    0  0.55183258516E+03 -0.15310918813E+03  0.29525113580E+03  0.65002874064E+03  0.86037811114E+02 0.  0.
         11    1    3    3    0    0 -0.59719124802E+02  0.10913590668E+03  0.12746927234E+03  0.17811635351E+03  0.00000000000E+00 0.  1.
        -11    1    3    3    0    0 -0.14429764226E+03  0.63908912734E+02  0.18395955008E+03  0.24237837106E+03  0.00000000000E+00 0. -1.
          4    1    6    6  502    0  0.38153735896E+03 -0.10095091114E+03  0.24669457600E+03  0.46542459816E+03  0.00000000000E+00 0. -1.
          3    1    5    5  503    0 -0.23214580630E+03 -0.39365314260E+02  0.76484170133E+02  0.24757045792E+03  0.00000000000E+00 0. -1.
         -4    1    5    5    0  503 -0.11567001179E+03  0.19429682970E+02  0.80765953204E+02  0.14240857911E+03  0.00000000000E+00 0.  1.
         -3    1    6    6    0  502  0.17029522620E+03 -0.52158276986E+02  0.48556559805E+02  0.18460414249E+03  0.00000000000E+00 0.  1.
<mgrwt>
<rscale>  0 0.12447805E+04</rscale>
<asrwt>0</asrwt>
<pdfrwt beam="1">  1        1 0.17111020E+00 0.12447805E+04</pdfrwt>
<pdfrwt beam="2">  1       -1 0.53582494E-01 0.12447805E+04</pdfrwt>
<totfact> 0.43031358E+01</totfact>
</mgrwt>
</event>
<event>
12    1  0.2048318E-007  0.3157432E+04  0.7818608E-02  0.8200151E-01
         -2   -1    0    0    0  501 -0.00000000000E+00  0.00000000000E+00  0.16641370645E+04  0.16641370645E+04  0.00000000000E+00 0. -1.
          2   -1    0    0  501    0  0.00000000000E+00 -0.00000000000E+00 -0.14976794713E+04  0.14976794713E+04  0.00000000000E+00 0.  1.
         23    2    1    2    0    0  0.54997843568E+03 -0.10922591776E+04 -0.69981355216E+03  0.14138263922E+04  0.11687458484E+03 0.  0.
        254    2    1    2    0    0 -0.54997843568E+03  0.10922591776E+04  0.86627114530E+03  0.17479901437E+04  0.89974299349E+03 0.  0.
        -24    2    4    4    0    0 -0.20045120116E+02  0.51392442798E+03  0.80321335973E+03  0.95701759458E+03  0.78808949767E+02 0.  0.
         24    2    4    4    0    0 -0.52993331557E+03  0.57833474966E+03  0.63057785564E+02  0.79097254909E+03  0.79755172131E+02 0.  0.
         11    1    3    3    0    0  0.71764940239E+02 -0.24660668573E+03 -0.13761638590E+03  0.29138176635E+03  0.00000000000E+00 0.  1.
        -11    1    3    3    0    0  0.47821349544E+03 -0.84565249190E+03 -0.56219716626E+03  0.11224446258E+04  0.00000000000E+00 0. -1.
          2    1    6    6  502    0 -0.63847939701E+02  0.68194702552E+02  0.33832963068E+02  0.99356661830E+02  0.00000000000E+00 0. -1.
          1    1    5    5  503    0  0.21785458477E+02  0.34168052610E+03  0.50547091209E+03  0.61050882966E+03  0.00000000000E+00 0. -1.
         -2    1    5    5    0  503 -0.41830578593E+02  0.17224390187E+03  0.29774244764E+03  0.34650876492E+03  0.00000000000E+00 0.  1.
         -1    1    6    6    0  502 -0.46608537587E+03  0.51014004711E+03  0.29224822497E+02  0.69161588726E+03  0.00000000000E+00 0.  1.
<mgrwt>
<rscale>  0 0.31574318E+04</rscale>
<asrwt>0</asrwt>
<pdfrwt beam="1">  1        2 0.23041223E+00 0.31574318E+04</pdfrwt>
<pdfrwt beam="2">  1       -2 0.25602109E+00 0.31574318E+04</pdfrwt>
<totfact> 0.63494057E-01</totfact>
</mgrwt>
</event>
<event>
12    1  0.2048318E-007  0.1950358E+04  0.7818608E-02  0.8630188E-01
         -1   -1    0    0    0  501 -0.00000000000E+00  0.00000000000E+00  0.72852668884E+03  0.72852668884E+03  0.00000000000E+00 0.  1.
          1   -1    0    0  501    0  0.00000000000E+00 -0.00000000000E+00 -0.13053389555E+04  0.13053389555E+04  0.00000000000E+00 0. -1.
         23    2    1    2    0    0 -0.58335234744E+03 -0.45990060947E+03 -0.41322147531E+03  0.85506646226E+03  0.92618223806E+02 0.  0.
        254    2    1    2    0    0  0.58335234744E+03  0.45990060947E+03 -0.16359079132E+03  0.11787991820E+04  0.90055373673E+03 0.  0.
        -24    2    4    4    0    0  0.78969385920E+03  0.30218125938E+03 -0.26392837066E+03  0.88927682131E+03  0.78899780078E+02 0.  0.
         24    2    4    4    0    0 -0.20634151176E+03  0.15771935008E+03  0.10033757935E+03  0.28952236073E+03  0.79393668955E+02 0.  0.
         11    1    3    3    0    0 -0.29234204599E+03 -0.25111563167E+03 -0.26358736238E+03  0.46690601831E+03  0.00000000000E+00 0. -1.
        -11    1    3    3    0    0 -0.29101030144E+03 -0.20878497780E+03 -0.14963411293E+03  0.38816044396E+03  0.00000000000E+00 0.  1.
          2    1    6    6  502    0 -0.16060391753E+03  0.14785604020E+03  0.10548651209E+03  0.24245088406E+03  0.00000000000E+00 0. -1.
          1    1    5    5  503    0  0.39651782577E+03  0.13952334881E+03 -0.17071568467E+03  0.45369262282E+03  0.00000000000E+00 0. -1.
         -4    1    5    5    0  503  0.39317603343E+03  0.16265791058E+03 -0.93212685992E+02  0.43558419848E+03  0.00000000000E+00 0.  1.
         -1    1    6    6    0  502 -0.45737594226E+02  0.98633098866E+01 -0.51489327469E+01  0.47071476670E+02  0.00000000000E+00 0.  1.
<mgrwt>
<rscale>  0 0.19503582E+04</rscale>
<asrwt>0</asrwt>
<pdfrwt beam="1">  1        1 0.20082138E+00 0.19503582E+04</pdfrwt>
<pdfrwt beam="2">  1       -1 0.11208103E+00 0.19503582E+04</pdfrwt>
<totfact> 0.60977564E+00</totfact>
</mgrwt>
</event>
<event>
12    1  0.2048318E-007  0.2934700E+04  0.7818608E-02  0.8262627E-01
          2   -1    0    0  501    0  0.00000000000E+00  0.00000000000E+00  0.87024543228E+03  0.87024543228E+03  0.00000000000E+00 0. -1.
         -2   -1    0    0    0  501 -0.00000000000E+00 -0.00000000000E+00 -0.24741487175E+04  0.24741487175E+04  0.00000000000E+00 0.  1.
         23    2    1    2    0    0  0.11630931665E+04  0.36616262976E+02 -0.31608513791E+00  0.11671822669E+04  0.90486903740E+02 0.  0.
        254    2    1    2    0    0 -0.11630931665E+04 -0.36616262976E+02 -0.16035872001E+04  0.21772118828E+04  0.90257033511E+03 0.  0.
        -24    2    4    4    0    0 -0.29887085303E+03 -0.89389866118E+02 -0.11547953010E+04  0.11988295120E+04  0.79534122618E+02 0.  0.
         24    2    4    4    0    0 -0.86422231345E+03  0.52773603142E+02 -0.44879189904E+03  0.97838237080E+03  0.78438731431E+02 0.  0.
         11    1    3    3    0    0  0.80885597597E+03  0.12985247944E+00  0.32903177491E+02  0.80952493835E+03  0.00000000000E+00 0. -1.
        -11    1    3    3    0    0  0.35423719050E+03  0.36486410496E+02 -0.33219262629E+02  0.35765732859E+03  0.00000000000E+00 0.  1.
          4    1    6    6  502    0 -0.43898564667E+02  0.12294490672E+02 -0.41369584202E+02  0.61560384808E+02  0.00000000000E+00 0. -1.
          3    1    5    5  503    0 -0.19505372880E+03 -0.52695375685E+02 -0.59680473683E+03  0.63007829168E+03  0.00000000000E+00 0. -1.
         -4    1    5    5    0  503 -0.10381712423E+03 -0.36694490433E+02 -0.55799056418E+03  0.56875122033E+03  0.00000000000E+00 0.  1.
         -3    1    6    6    0  502 -0.82032374878E+03  0.40479112470E+02 -0.40742231484E+03  0.91682198599E+03  0.00000000000E+00 0.  1.
<mgrwt>
<rscale>  0 0.29347004E+04</rscale>
<asrwt>0</asrwt>
<pdfrwt beam="1">  1        2 0.13388391E+00 0.29347004E+04</pdfrwt>
<pdfrwt beam="2">  1       -2 0.38063826E+00 0.29347004E+04</pdfrwt>
<totfact> 0.26216042E-01</totfact>
</mgrwt>
</event>
<event>
12    1  0.2048318E-007  0.1369448E+04  0.7818608E-02  0.8976236E-01
         -2   -1    0    0    0  501 -0.00000000000E+00  0.00000000000E+00  0.26132757673E+03  0.26132757673E+03  0.00000000000E+00 0.  1.
          2   -1    0    0  501    0  0.00000000000E+00 -0.00000000000E+00 -0.17940961191E+04  0.17940961191E+04  0.00000000000E+00 0. -1.
         23    2    1    2    0    0  0.14603561870E+03 -0.35382519922E+03 -0.46770616305E+03  0.61115317616E+03  0.90777068925E+02 0.  0.
        254    2    1    2    0    0 -0.14603561870E+03  0.35382519922E+03 -0.10650623794E+04  0.14442705197E+04  0.89724065258E+03 0.  0.
        -24    2    4    4    0    0  0.28381710815E+03 -0.13128631382E+03 -0.33875409454E+03  0.46757139123E+03  0.77977062364E+02 0.  0.
         24    2    4    4    0    0 -0.42985272685E+03  0.48511151304E+03 -0.72630828481E+03  0.97669912848E+03  0.79441274651E+02 0.  0.
         13    1    3    3    0    0  0.44779551049E+01 -0.10894655891E+03 -0.10696366781E+03  0.15274367749E+03  0.00000000000E+00 0.  1.
        -13    1    3    3    0    0  0.14155766360E+03 -0.24487864031E+03 -0.36074249523E+03  0.45840949867E+03  0.00000000000E+00 0. -1.
          4    1    6    6  502    0 -0.36422439974E+03  0.38785478384E+03 -0.55288372066E+03  0.76731424806E+03  0.00000000000E+00 0. -1.
          3    1    5    5  503    0  0.72124282938E+02 -0.34847722392E+01 -0.10398010033E+03  0.12659351125E+03  0.00000000000E+00 0. -1.
         -4    1    5    5    0  503  0.21169282521E+03 -0.12780154158E+03 -0.23477399421E+03  0.34097787998E+03  0.00000000000E+00 0.  1.
         -3    1    6    6    0  502 -0.65628327114E+02  0.97256729197E+02 -0.17342456416E+03  0.20938488042E+03  0.00000000000E+00 0.  1.
<mgrwt>
<rscale>  0 0.13694478E+04</rscale>
<asrwt>0</asrwt>
<pdfrwt beam="1">  1        2 0.27601478E+00 0.13694478E+04</pdfrwt>
<pdfrwt beam="2">  1       -2 0.40204243E-01 0.13694478E+04</pdfrwt>
<totfact> 0.49659857E+01</totfact>
</mgrwt>
</event>
<event>
12    1  0.2048318E-007  0.2497899E+04  0.7818608E-02  0.8403734E-01
         -1   -1    0    0    0  501 -0.00000000000E+00  0.00000000000E+00  0.15571884879E+04  0.15571884879E+04  0.00000000000E+00 0.  1.
          1   -1    0    0  501    0  0.00000000000E+00 -0.00000000000E+00 -0.10017250555E+04  0.10017250555E+04  0.00000000000E+00 0. -1.
         23    2    1    2    0    0 -0.25889277823E+03 -0.52125097093E+03 -0.69579950371E+03  0.91177881359E+03  0.92063077543E+02 0.  0.
        254    2    1    2    0    0  0.25889277823E+03  0.52125097093E+03  0.12512629361E+04  0.16471347298E+04  0.89925849306E+03 0.  0.
        -24    2    4    4    0    0 -0.28942212825E+03 -0.13964686662E+02  0.38729993224E+03  0.48956857987E+03  0.75604074565E+02 0.  0.
         24    2    4    4    0    0  0.54831490647E+03  0.53521565759E+03  0.86396300391E+03  0.11575661499E+04  0.80139144553E+02 0.  0.
         13    1    3    3    0    0 -0.38597807079E+02 -0.17061362167E+03 -0.19541625175E+03  0.26227144346E+03  0.00000000000E+00 0. -1.
        -13    1    3    3    0    0 -0.22029497115E+03 -0.35063734926E+03 -0.50038325196E+03  0.64950737013E+03  0.00000000000E+00 0.  1.
          2    1    6    6  502    0 -0.27088513407E+00  0.12982910676E+02  0.13844742543E+02  0.18981734496E+02  0.00000000000E+00 0. -1.
          3    1    5    5  503    0 -0.15971305834E+03 -0.12812018317E+02  0.27366395985E+03  0.31711886059E+03  0.00000000000E+00 0. -1.
         -4    1    5    5    0  503 -0.12970906991E+03 -0.11526683456E+01  0.11363597239E+03  0.17244971928E+03  0.00000000000E+00 0.  1.
         -3    1    6    6    0  502  0.54858579161E+03  0.52223274692E+03  0.85011826137E+03  0.11385844154E+04  0.00000000000E+00 0.  1.
<mgrwt>
<rscale>  0 0.24978989E+04</rscale>
<asrwt>0</asrwt>
<pdfrwt beam="1">  1        1 0.15411155E+00 0.24978989E+04</pdfrwt>
<pdfrwt beam="2">  1       -1 0.23956746E+00 0.24978989E+04</pdfrwt>
<totfact> 0.10937354E+00</totfact>
</mgrwt>
</event>
<event>
12    1  0.2048318E-007  0.2134207E+04  0.7818608E-02  0.8546323E-01
         -2   -1    0    0    0  501 -0.00000000000E+00  0.00000000000E+00  0.65545110714E+03  0.65545110714E+03  0.00000000000E+00 0.  1.
          2   -1    0    0  501    0  0.00000000000E+00 -0.00000000000E+00 -0.17372910816E+04  0.17372910816E+04  0.00000000000E+00 0. -1.
         23    2    1    2    0    0 -0.15752846940E+03 -0.85962975824E+03 -0.48870644957E+03  0.10055096393E+04  0.91853693264E+02 0.  0.
        254    2    1    2    0    0  0.15752846940E+03  0.85962975824E+03 -0.59313352492E+03  0.13872325495E+04  0.89934877996E+03 0.  0.
        -24    2    4    4    0    0  0.25724065211E+02  0.10163787894E+04 -0.56277945667E+03  0.11646067528E+04  0.76815368468E+02 0.  0.
         24    2    4    4    0    0  0.13180440418E+03 -0.15674903112E+03 -0.30354068254E+02  0.22262579668E+03  0.81842630502E+02 0.  0.
         11    1    3    3    0    0 -0.15096169199E+03 -0.66013886631E+03 -0.40516117850E+03  0.78913138059E+03  0.00000000000E+00 0. -1.
        -11    1    3    3    0    0 -0.65667774012E+01 -0.19949089193E+03 -0.83545271064E+02  0.21637825872E+03  0.00000000000E+00 0.  1.
          4    1    6    6  502    0  0.25524238675E+02 -0.88126648904E+02  0.29870701890E+01  0.91797143721E+02  0.00000000000E+00 0. -1.
          3    1    5    5  503    0  0.51869878979E+02  0.56833805277E+03 -0.30697639209E+03  0.64802247790E+03  0.00000000000E+00 0. -1.
         -4    1    5    5    0  503 -0.26145813768E+02  0.44804073659E+03 -0.25580306458E+03  0.51658427489E+03  0.00000000000E+00 0.  1.
         -3    1    6    6    0  502  0.10628016551E+03 -0.68622382212E+02 -0.33341138443E+02  0.13082865295E+03  0.00000000000E+00 0.  1.
<mgrwt>
<rscale>  0 0.21342065E+04</rscale>
<asrwt>0</asrwt>
<pdfrwt beam="1">  1        2 0.26727555E+00 0.21342065E+04</pdfrwt>
<pdfrwt beam="2">  1       -2 0.10083863E+00 0.21342065E+04</pdfrwt>
<totfact> 0.69576837E+00</totfact>
</mgrwt>
</event>
<event>
12    1  0.2048318E-007  0.1874566E+04  0.7818608E-02  0.8667621E-01
          2   -1    0    0  501    0  0.00000000000E+00  0.00000000000E+00  0.16493541635E+04  0.16493541635E+04  0.00000000000E+00 0. -1.
         -2   -1    0    0    0  501 -0.00000000000E+00 -0.00000000000E+00 -0.53263231456E+03  0.53263231456E+03  0.00000000000E+00 0.  1.
         23    2    1    2    0    0 -0.64818872395E+03 -0.24498462880E+03  0.21339414940E+03  0.73046311664E+03  0.88731119480E+02 0.  0.
        254    2    1    2    0    0  0.64818872395E+03  0.24498462880E+03  0.90332769953E+03  0.14515233614E+04  0.90041826156E+03 0.  0.
        -24    2    4    4    0    0  0.19608836556E+03  0.51963803619E+03  0.65142699117E+03  0.86018142412E+03  0.84146430840E+02 0.  0.
         24    2    4    4    0    0  0.45210035840E+03 -0.27465340740E+03  0.25190070836E+03  0.59134193728E+03  0.80013071785E+02 0.  0.
         11    1    3    3    0    0 -0.43913952347E+03 -0.12456205497E+03  0.12208038745E+03  0.47250698155E+03  0.00000000000E+00 0.  1.
        -11    1    3    3    0    0 -0.20904920049E+03 -0.12042257382E+03  0.91313761954E+02  0.25795613510E+03  0.00000000000E+00 0. -1.
          2    1    6    6  502    0  0.67355627171E+02 -0.51374596686E+02  0.73177876728E+02  0.11194253588E+03  0.00000000000E+00 0. -1.
          3    1    5    5  503    0  0.91535438111E+02  0.13719742542E+03  0.20513509174E+03  0.26321526520E+03  0.00000000000E+00 0. -1.
         -4    1    5    5    0  503  0.10455292745E+03  0.38244061077E+03  0.44629189943E+03  0.59696615892E+03  0.00000000000E+00 0.  1.
         -1    1    6    6    0  502  0.38474473123E+03 -0.22327881071E+03  0.17872283163E+03  0.47939940140E+03  0.00000000000E+00 0.  1.
<mgrwt>
<rscale>  0 0.18745659E+04</rscale>
<asrwt>0</asrwt>
<pdfrwt beam="1">  1        2 0.25374679E+00 0.18745659E+04</pdfrwt>
<pdfrwt beam="2">  1       -2 0.81943434E-01 0.18745659E+04</pdfrwt>
<totfact> 0.12859803E+01</totfact>
</mgrwt>
</event>
<event>
12    1  0.2048318E-007  0.2848714E+04  0.7818608E-02  0.8288302E-01
          1   -1    0    0  501    0  0.00000000000E+00  0.00000000000E+00  0.35773481394E+04  0.35773481394E+04  0.00000000000E+00 0. -1.
         -1   -1    0    0    0  501 -0.00000000000E+00 -0.00000000000E+00 -0.56712209391E+03  0.56712209391E+03  0.00000000000E+00 0.  1.
         23    2    1    2    0    0  0.68424957126E+03  0.20279626155E+03 -0.19096901207E+03  0.74368935519E+03  0.85328154709E+02 0.  0.
        254    2    1    2    0    0 -0.68424957126E+03 -0.20279626155E+03  0.32011950576E+04  0.34007808781E+04  0.89907562808E+03 0.  0.
        -24    2    4    4    0    0 -0.71043880840E+03  0.18208037367E+03  0.23384450918E+04  0.24520400280E+04  0.79361757569E+02 0.  0.
         24    2    4    4    0    0  0.26189237145E+02 -0.38487663522E+03  0.86274996572E+03  0.94874085009E+03  0.83401419653E+02 0.  0.
         11    1    3    3    0    0  0.52725705876E+03  0.18822265640E+03 -0.16690479010E+03  0.58419601450E+03  0.00000000000E+00 0. -1.
        -11    1    3    3    0    0  0.15699251250E+03  0.14573605157E+02 -0.24064221978E+02  0.15949334070E+03  0.00000000000E+00 0.  1.
          2    1    6    6  502    0  0.23618981951E+02 -0.36838603829E+03  0.76301424506E+03  0.84761835025E+03  0.00000000000E+00 0. -1.
          1    1    5    5  503    0 -0.59389479303E+03  0.12332393407E+03  0.18853541776E+04  0.19805252316E+04  0.00000000000E+00 0. -1.
         -4    1    5    5    0  503 -0.11654401537E+03  0.58756439599E+02  0.45309091426E+03  0.47151479647E+03  0.00000000000E+00 0.  1.
         -1    1    6    6    0  502  0.25702551940E+01 -0.16490596936E+02  0.99735720657E+02  0.10112249984E+03  0.00000000000E+00 0.  1.
<mgrwt>
<rscale>  0 0.28487142E+04</rscale>
<asrwt>0</asrwt>
<pdfrwt beam="1">  1        1 0.55036124E+00 0.28487142E+04</pdfrwt>
<pdfrwt beam="2">  1       -1 0.87249555E-01 0.28487142E+04</pdfrwt>
<totfact> 0.24175303E-01</totfact>
</mgrwt>
</event>
<event>
12    1  0.2048318E-007  0.2668290E+04  0.7818608E-02  0.8345368E-01
         -2   -1    0    0    0  501 -0.00000000000E+00  0.00000000000E+00  0.86048487855E+03  0.86048487855E+03  0.00000000000E+00 0.  1.
          2   -1    0    0  501    0  0.00000000000E+00 -0.00000000000E+00 -0.20685353250E+04  0.20685353250E+04  0.00000000000E+00 0. -1.
         23    2    1    2    0    0 -0.47042014961E+03 -0.80532818654E+03 -0.13290182197E+04  0.16264231049E+04  0.95467704120E+02 0.  0.
        254    2    1    2    0    0  0.47042014961E+03  0.80532818654E+03  0.12096777333E+03  0.13025970986E+04  0.90126433081E+03 0.  0.
        -24    2    4    4    0    0  0.26886082809E+03  0.87521965686E+03 -0.16854038297E+03  0.93420217613E+03  0.77667577286E+02 0.  0.
         24    2    4    4    0    0  0.20155932152E+03 -0.69891470325E+02  0.28950815629E+03  0.36839492250E+03  0.79930398762E+02 0.  0.
         11    1    3    3    0    0 -0.19810337243E+03 -0.28895348830E+03 -0.56675205063E+03  0.66629344245E+03  0.00000000000E+00 0. -1.
        -11    1    3    3    0    0 -0.27231677718E+03 -0.51637469824E+03 -0.76226616911E+03  0.96012966244E+03  0.00000000000E+00 0.  1.
          4    1    6    6  502    0  0.76360729661E+02  0.11888998914E+02  0.11533109427E+03  0.13882928594E+03  0.00000000000E+00 0. -1.
          1    1    5    5  503    0  0.14488321323E+03  0.57198924206E+03 -0.13140464931E+03  0.60450808130E+03  0.00000000000E+00 0. -1.
         -2    1    5    5    0  503  0.12397761486E+03  0.30323041481E+03 -0.37135733661E+02  0.32969409483E+03  0.00000000000E+00 0.  1.
         -3    1    6    6    0  502  0.12519859185E+03 -0.81780469240E+02  0.17417706202E+03  0.22956563655E+03  0.00000000000E+00 0.  1.
<mgrwt>
<rscale>  0 0.26682904E+04</rscale>
<asrwt>0</asrwt>
<pdfrwt beam="1">  1        2 0.31823620E+00 0.26682904E+04</pdfrwt>
<pdfrwt beam="2">  1       -2 0.13238229E+00 0.26682904E+04</pdfrwt>
<totfact> 0.22319913E+00</totfact>
</mgrwt>
</event>
<event>
12    1  0.2424632E-007  0.2441777E+04  0.7818608E-02  0.8424027E-01
          2   -1    0    0  501    0  0.00000000000E+00  0.00000000000E+00  0.10981207339E+04  0.10981207339E+04  0.00000000000E+00 0. -1.
         -2   -1    0    0    0  501 -0.00000000000E+00 -0.00000000000E+00 -0.13573811934E+04  0.13573811934E+04  0.00000000000E+00 0.  1.
         23    2    1    2    0    0 -0.66879087327E+03 -0.36245378110E+03  0.62018427873E+03  0.98552307457E+03  0.89292862729E+02 0.  0.
        254    2    1    2    0    0  0.66879087327E+03  0.36245378110E+03 -0.87944473822E+03  0.14699788527E+04  0.89931129432E+03 0.  0.
        -24    2    4    4    0    0 -0.20332812009E+03  0.18433872171E+02 -0.27225765742E+03  0.35023528773E+03  0.82815413312E+02 0.  0.
         24    2    4    4    0    0  0.87211899335E+03  0.34401990893E+03 -0.60718708079E+03  0.11197435649E+04  0.78792536581E+02 0.  0.
         13    1    3    3    0    0 -0.42430065580E+03 -0.19746459438E+03  0.42207284599E+03  0.63021329712E+03  0.00000000000E+00 0.  1.
        -13    1    3    3    0    0 -0.24449021746E+03 -0.16498918672E+03  0.19811143274E+03  0.35530977745E+03  0.00000000000E+00 0. -1.
          2    1    6    6  502    0  0.61920791904E+03  0.27140141671E+03 -0.46611570856E+03  0.82118270182E+03  0.00000000000E+00 0. -1.
          3    1    5    5  503    0 -0.15876496437E+03 -0.19933140710E+02 -0.18009219677E+03  0.24090837127E+03  0.00000000000E+00 0. -1.
         -4    1    5    5    0  503 -0.44563155719E+02  0.38367012881E+02 -0.92165460654E+02  0.10932691646E+03  0.00000000000E+00 0.  1.
         -1    1    6    6    0  502  0.25291107431E+03  0.72618492219E+02 -0.14107137224E+03  0.29856086312E+03  0.00000000000E+00 0.  1.
<mgrwt>
<rscale>  0 0.24417768E+04</rscale>
<asrwt>0</asrwt>
<pdfrwt beam="1">  1        2 0.16894165E+00 0.24417768E+04</pdfrwt>
<pdfrwt beam="2">  1       -2 0.20882788E+00 0.24417768E+04</pdfrwt>
<totfact> 0.22806882E+00</totfact>
</mgrwt>
</event>
<event>
12    1  0.2048318E-007  0.1217030E+04  0.7818608E-02  0.9098080E-01
         -2   -1    0    0    0  501 -0.00000000000E+00  0.00000000000E+00  0.13582551066E+03  0.13582551066E+03  0.00000000000E+00 0.  1.
          2   -1    0    0  501    0  0.00000000000E+00 -0.00000000000E+00 -0.27262200947E+04  0.27262200947E+04  0.00000000000E+00 0. -1.
         23    2    1    2    0    0 -0.19853499242E+03  0.47939246196E+02 -0.20088369887E+03  0.30058743358E+03  0.91017746686E+02 0.  0.
        254    2    1    2    0    0  0.19853499242E+03 -0.47939246196E+02 -0.23895108851E+04  0.25614581718E+04  0.89977296077E+03 0.  0.
        -24    2    4    4    0    0 -0.31039328588E+03  0.17098509036E+03 -0.95545534607E+03  0.10222270485E+04  0.80456990335E+02 0.  0.
         24    2    4    4    0    0  0.50892827830E+03 -0.21892433655E+03 -0.14340555391E+04  0.15392311233E+04  0.76034887417E+02 0.  0.
         11    1    3    3    0    0 -0.85749076123E+02 -0.21766221620E+02 -0.58672905404E+02  0.10615640484E+03  0.00000000000E+00 0.  1.
        -11    1    3    3    0    0 -0.11278591630E+03  0.69705467815E+02 -0.14221079347E+03  0.19443102874E+03  0.00000000000E+00 0. -1.
          2    1    6    6  502    0  0.38759565681E+03 -0.13031691206E+03 -0.10579527598E+04  0.11342296649E+04  0.00000000000E+00 0. -1.
          3    1    5    5  503    0 -0.22546774856E+03  0.92948787722E+02 -0.57245156696E+03  0.62223466578E+03  0.00000000000E+00 0. -1.
         -4    1    5    5    0  503 -0.84925537318E+02  0.78036302635E+02 -0.38300377911E+03  0.39999238272E+03  0.00000000000E+00 0.  1.
         -1    1    6    6    0  502  0.12133262150E+03 -0.88607424488E+02 -0.37610277924E+03  0.40500145835E+03  0.00000000000E+00 0.  1.
<mgrwt>
<rscale>  0 0.12170296E+04</rscale>
<asrwt>0</asrwt>
<pdfrwt beam="1">  1        2 0.41941846E+00 0.12170296E+04</pdfrwt>
<pdfrwt beam="2">  1       -2 0.20896233E-01 0.12170296E+04</pdfrwt>
<totfact> 0.50413584E+01</totfact>
</mgrwt>
</event>
<event>
12    1  0.2048318E-007  0.1662391E+04  0.7818608E-02  0.8783110E-01
          2   -1    0    0  501    0  0.00000000000E+00  0.00000000000E+00  0.14062866477E+04  0.14062866477E+04  0.00000000000E+00 0. -1.
         -2   -1    0    0    0  501 -0.00000000000E+00 -0.00000000000E+00 -0.49128400150E+03  0.49128400150E+03  0.00000000000E+00 0.  1.
         23    2    1    2    0    0  0.21838953648E+03  0.46053922146E+03  0.22820194050E+01  0.51789381901E+03  0.91752035466E+02 0.  0.
        254    2    1    2    0    0 -0.21838953648E+03 -0.46053922146E+03  0.91272062679E+03  0.13796768302E+04  0.90036595286E+03 0.  0.
        -24    2    4    4    0    0 -0.26370335365E+03  0.14569071379E+03  0.63356103656E+03  0.70598769976E+03  0.79080986034E+02 0.  0.
         24    2    4    4    0    0  0.45313817179E+02 -0.60622993525E+03  0.27915959023E+03  0.67368913044E+03  0.79742656298E+02 0.  0.
         11    1    3    3    0    0  0.14909829450E+03  0.21245618373E+03  0.15144489683E+02  0.25999478263E+03  0.00000000000E+00 0. -1.
        -11    1    3    3    0    0  0.69291241977E+02  0.24808303773E+03 -0.12862470278E+02  0.25789903638E+03  0.00000000000E+00 0.  1.
          2    1    6    6  502    0  0.25065996825E+02 -0.72952734493E+02  0.55624386330E+02  0.95102460648E+02  0.00000000000E+00 0. -1.
          3    1    5    5  503    0  0.15901459280E+01  0.16027334915E+02  0.29213700293E+02  0.33359321237E+02  0.00000000000E+00 0. -1.
         -4    1    5    5    0  503 -0.26529349958E+03  0.12966337888E+03  0.60434733626E+03  0.67262837852E+03  0.00000000000E+00 0.  1.
         -3    1    6    6    0  502  0.20247820354E+02 -0.53327720076E+03  0.22353520390E+03  0.57858666979E+03  0.00000000000E+00 0.  1.
<mgrwt>
<rscale>  0 0.16623912E+04</rscale>
<asrwt>0</asrwt>
<pdfrwt beam="1">  1        2 0.21635179E+00 0.16623912E+04</pdfrwt>
<pdfrwt beam="2">  1       -2 0.75582155E-01 0.16623912E+04</pdfrwt>
<totfact> 0.21497324E+01</totfact>
</mgrwt>
</event>
<event>
12    1  0.2048318E-007  0.2740471E+04  0.7818608E-02  0.8321992E-01
          1   -1    0    0  501    0  0.00000000000E+00  0.00000000000E+00  0.28113741510E+04  0.28113741510E+04  0.00000000000E+00 0. -1.
         -1   -1    0    0    0  501 -0.00000000000E+00 -0.00000000000E+00 -0.66783922569E+03  0.66783922569E+03  0.00000000000E+00 0.  1.
         23    2    1    2    0    0  0.52162253811E+03 -0.10386660413E+04  0.48458417417E+03  0.12625924838E+04  0.91655554972E+02 0.  0.
        254    2    1    2    0    0 -0.52162253811E+03  0.10386660413E+04  0.16589507511E+04  0.22166208929E+04  0.90020740420E+03 0.  0.
        -24    2    4    4    0    0 -0.14705579479E+03  0.43107795745E+01 -0.56735750987E+02  0.17696608506E+03  0.80337165866E+02 0.  0.
         24    2    4    4    0    0 -0.37456674333E+03  0.10343552617E+04  0.17156865021E+04  0.20396548078E+04  0.80128078546E+02 0.  0.
         11    1    3    3    0    0  0.79014799312E+01 -0.56564085439E+02  0.16433380574E+02  0.59430506844E+02  0.00000000000E+00 0.  1.
        -11    1    3    3    0    0  0.51372105818E+03 -0.98210195582E+03  0.46815079359E+03  0.12031619770E+04  0.00000000000E+00 0. -1.
          4    1    6    6  502    0 -0.21843081560E+03  0.71322976716E+03  0.11619110340E+04  0.13807410955E+04  0.00000000000E+00 0. -1.
          1    1    5    5  503    0 -0.56988031968E+02  0.21739717395E+02 -0.59468796872E+02  0.85186788303E+02  0.00000000000E+00 0. -1.
         -2    1    5    5    0  503 -0.90067762822E+02 -0.17428937821E+02  0.27330458848E+01  0.91779296756E+02  0.00000000000E+00 0.  1.
         -3    1    6    6    0  502 -0.15613592773E+03  0.32112549452E+03  0.55377546812E+03  0.65891371229E+03  0.00000000000E+00 0.  1.
<mgrwt>
<rscale>  0 0.27404714E+04</rscale>
<asrwt>0</asrwt>
<pdfrwt beam="1">  1        1 0.43251909E+00 0.27404714E+04</pdfrwt>
<pdfrwt beam="2">  1       -1 0.10274450E+00 0.27404714E+04</pdfrwt>
<totfact> 0.63697680E-01</totfact>
</mgrwt>
</event>
<event>
12    1  0.2048318E-007  0.2981381E+04  0.7818608E-02  0.8249068E-01
          2   -1    0    0  501    0  0.00000000000E+00  0.00000000000E+00  0.26356888545E+04  0.26356888545E+04  0.00000000000E+00 0. -1.
         -2   -1    0    0    0  501 -0.00000000000E+00 -0.00000000000E+00 -0.84310352214E+03  0.84310352214E+03  0.00000000000E+00 0.  1.
         23    2    1    2    0    0  0.11996810624E+04  0.53594921456E+03  0.42527904099E+03  0.13841679923E+04  0.92642086589E+02 0.  0.
        254    2    1    2    0    0 -0.11996810624E+04 -0.53594921456E+03  0.13673062914E+04  0.20946243843E+04  0.88963397248E+03 0.  0.
        -24    2    4    4    0    0  0.12552306257E+03  0.12341919728E+02  0.10881239584E+03  0.18500650263E+03  0.80491653662E+02 0.  0.
         24    2    4    4    0    0 -0.13252041249E+04 -0.54829113428E+03  0.12584938955E+04  0.19096178817E+04  0.77745921403E+02 0.  0.
         11    1    3    3    0    0  0.32003939250E+03  0.15580864392E+03  0.74130165956E+02  0.36358881690E+03  0.00000000000E+00 0.  1.
        -11    1    3    3    0    0  0.87964166988E+03  0.38014057063E+03  0.35114887503E+03  0.10205791754E+04  0.00000000000E+00 0. -1.
          2    1    6    6  502    0 -0.41856313093E+02 -0.18750702681E+02  0.23669003145E+02  0.51611641193E+02  0.00000000000E+00 0. -1.
          1    1    5    5  503    0  0.86696902636E+02  0.26378660264E+02  0.11144262917E+03  0.14363720354E+03  0.00000000000E+00 0. -1.
         -2    1    5    5    0  503  0.38826159931E+02 -0.14036740536E+02 -0.26302333349E+01  0.41369299091E+02  0.00000000000E+00 0.  1.
         -1    1    6    6    0  502 -0.12833478119E+04 -0.52954043160E+03  0.12348248924E+04  0.18580062405E+04  0.00000000000E+00 0.  1.
<mgrwt>
<rscale>  0 0.29813813E+04</rscale>
<asrwt>0</asrwt>
<pdfrwt beam="1">  1        2 0.40549059E+00 0.29813813E+04</pdfrwt>
<pdfrwt beam="2">  1       -2 0.12970824E+00 0.29813813E+04</pdfrwt>
<totfact> 0.10853755E+00</totfact>
</mgrwt>
</event>
<event>
12    1  0.2048318E-007  0.2122956E+04  0.7818608E-02  0.8551198E-01
         -2   -1    0    0    0  501 -0.00000000000E+00  0.00000000000E+00  0.10138783703E+04  0.10138783703E+04  0.00000000000E+00 0.  1.
          2   -1    0    0  501    0  0.00000000000E+00 -0.00000000000E+00 -0.11113127486E+04  0.11113127486E+04  0.00000000000E+00 0. -1.
         23    2    1    2    0    0  0.59434603861E+03  0.46180595618E+03  0.39039294926E+03  0.85283075792E+03  0.91660744346E+02 0.  0.
        254    2    1    2    0    0 -0.59434603861E+03 -0.46180595618E+03 -0.48782732760E+03  0.12723603609E+04  0.90244857567E+03 0.  0.
        -24    2    4    4    0    0 -0.54644402561E+03 -0.71107204348E+03 -0.31044945452E+03  0.95251026611E+03  0.81684876777E+02 0.  0.
         24    2    4    4    0    0 -0.47902013000E+02  0.24926608731E+03 -0.17737787307E+03  0.31985009481E+03  0.80081134872E+02 0.  0.
         11    1    3    3    0    0  0.48457116927E+03  0.33497930426E+03  0.32507382152E+03  0.67282489684E+03  0.00000000000E+00 0.  1.
        -11    1    3    3    0    0  0.10977486934E+03  0.12682665192E+03  0.65319127741E+02  0.18000586108E+03  0.00000000000E+00 0. -1.
          4    1    6    6  502    0 -0.22998700945E+02  0.22495818246E+03 -0.17311979097E+03  0.28479042492E+03  0.00000000000E+00 0. -1.
          3    1    5    5  503    0 -0.50204831371E+03 -0.64610636508E+03 -0.30639926569E+03  0.87371989465E+03  0.00000000000E+00 0. -1.
         -4    1    5    5    0  503 -0.44395711899E+02 -0.64965678404E+02 -0.40501888276E+01  0.78790371462E+02  0.00000000000E+00 0.  1.
         -3    1    6    6    0  502 -0.24903312055E+02  0.24307904846E+02 -0.42580820997E+01  0.35059669885E+02  0.00000000000E+00 0.  1.
<mgrwt>
<rscale>  0 0.21229564E+04</rscale>
<asrwt>0</asrwt>
<pdfrwt beam="1">  1        2 0.17097119E+00 0.21229564E+04</pdfrwt>
<pdfrwt beam="2">  1       -2 0.15598129E+00 0.21229564E+04</pdfrwt>
<totfact> 0.53222381E+00</totfact>
</mgrwt>
</event>
<event>
12    1  0.2048318E-007  0.2162750E+04  0.7818608E-02  0.8534094E-01
         -1   -1    0    0    0  501 -0.00000000000E+00  0.00000000000E+00  0.15675282668E+04  0.15675282668E+04  0.00000000000E+00 0.  1.
          1   -1    0    0  501    0  0.00000000000E+00 -0.00000000000E+00 -0.74599753343E+03  0.74599753343E+03  0.00000000000E+00 0. -1.
         23    2    1    2    0    0  0.85071322289E+03 -0.24999901294E+03  0.24079932348E+03  0.92326952911E+03  0.90718328470E+02 0.  0.
        254    2    1    2    0    0 -0.85071322289E+03  0.24999901294E+03  0.58073140990E+03  0.13902562711E+04  0.89963939160E+03 0.  0.
        -24    2    4    4    0    0 -0.39014688497E+03  0.46533590668E+03 -0.27002830251E+01  0.61242449840E+03  0.79400105893E+02 0.  0.
         24    2    4    4    0    0 -0.46056633792E+03 -0.21533689374E+03  0.58343169293E+03  0.77783177274E+03  0.78347922344E+02 0.  0.
         13    1    3    3    0    0  0.78766165421E+03 -0.22985022294E+03  0.19679099323E+03  0.84378237805E+03  0.00000000000E+00 0. -1.
        -13    1    3    3    0    0  0.63051568685E+02 -0.20148790001E+02  0.44008330248E+02  0.79487151058E+02  0.00000000000E+00 0.  1.
          2    1    6    6  502    0 -0.17394559272E+03 -0.11075464214E+03  0.19410885346E+03  0.28319941203E+03  0.00000000000E+00 0. -1.
          1    1    5    5  503    0 -0.21637337249E+03  0.24372262956E+03  0.37061020959E+02  0.32801170064E+03  0.00000000000E+00 0. -1.
         -2    1    5    5    0  503 -0.17377351248E+03  0.22161327712E+03 -0.39761303985E+02  0.28441279776E+03  0.00000000000E+00 0.  1.
         -1    1    6    6    0  502 -0.28662074520E+03 -0.10458225161E+03  0.38932283947E+03  0.49463236071E+03  0.00000000000E+00 0.  1.
<mgrwt>
<rscale>  0 0.21627503E+04</rscale>
<asrwt>0</asrwt>
<pdfrwt beam="1">  1        1 0.11476885E+00 0.21627503E+04</pdfrwt>
<pdfrwt beam="2">  1       -1 0.24115819E+00 0.21627503E+04</pdfrwt>
<totfact> 0.17995837E+00</totfact>
</mgrwt>
</event>
<event>
12    1  0.2048318E-007  0.1832179E+04  0.7818608E-02  0.8689372E-01
          2   -1    0    0  501    0  0.00000000000E+00  0.00000000000E+00  0.15269369999E+04  0.15269369999E+04  0.00000000000E+00 0. -1.
         -2   -1    0    0    0  501 -0.00000000000E+00 -0.00000000000E+00 -0.54960999492E+03  0.54960999492E+03  0.00000000000E+00 0.  1.
         23    2    1    2    0    0  0.58000466227E+03 -0.36222989042E+03  0.26176634947E+03  0.73778965666E+03  0.90532060572E+02 0.  0.
        254    2    1    2    0    0 -0.58000466227E+03  0.36222989042E+03  0.71556065551E+03  0.13387573382E+04  0.90145896025E+03 0.  0.
        -24    2    4    4    0    0 -0.30275004320E+03  0.47213155576E+03  0.77529221157E+01  0.56644901535E+03  0.78984711109E+02 0.  0.
         24    2    4    4    0    0 -0.27725461907E+03 -0.10990166534E+03  0.70780773339E+03  0.77230832281E+03  0.80745638873E+02 0.  0.
         13    1    3    3    0    0  0.86377672819E+02 -0.21688364991E+02  0.47723712531E+02  0.10103979550E+03  0.00000000000E+00 0.  1.
        -13    1    3    3    0    0  0.49362698945E+03 -0.34054152542E+03  0.21404263694E+03  0.63674986115E+03  0.00000000000E+00 0. -1.
          2    1    6    6  502    0 -0.55696637988E+02  0.91457162699E+01  0.15553283748E+03  0.16545761736E+03  0.00000000000E+00 0. -1.
          3    1    5    5  503    0 -0.11174835567E+03  0.14087895012E+03 -0.29664269838E+02  0.18224857335E+03  0.00000000000E+00 0. -1.
         -4    1    5    5    0  503 -0.19100168753E+03  0.33125260564E+03  0.37417191953E+02  0.38420044201E+03  0.00000000000E+00 0.  1.
         -1    1    6    6    0  502 -0.22155798108E+03 -0.11904738161E+03  0.55227489591E+03  0.60685070545E+03  0.00000000000E+00 0.  1.
<mgrwt>
<rscale>  0 0.18321789E+04</rscale>
<asrwt>0</asrwt>
<pdfrwt beam="1">  1        2 0.23491338E+00 0.18321789E+04</pdfrwt>
<pdfrwt beam="2">  1       -2 0.84555384E-01 0.18321789E+04</pdfrwt>
<totfact> 0.14074133E+01</totfact>
</mgrwt>
</event>
<event>
12    1  0.2048318E-007  0.2425554E+04  0.7818608E-02  0.8429998E-01
          2   -1    0    0  501    0  0.00000000000E+00  0.00000000000E+00  0.13294960304E+04  0.13294960304E+04  0.00000000000E+00 0. -1.
         -2   -1    0    0    0  501 -0.00000000000E+00 -0.00000000000E+00 -0.11063049122E+04  0.11063049122E+04  0.00000000000E+00 0.  1.
         23    2    1    2    0    0 -0.67906875555E+03  0.51311689122E+03  0.69869253296E+03  0.11050132747E+04  0.91976969575E+02 0.  0.
        254    2    1    2    0    0  0.67906875555E+03 -0.51311689122E+03 -0.47550141484E+03  0.13307876679E+04  0.90579848896E+03 0.  0.
        -24    2    4    4    0    0  0.46388727874E+03  0.18179287117E+03 -0.26133031344E+03  0.56829447680E+03  0.80156249020E+02 0.  0.
         24    2    4    4    0    0  0.21518147682E+03 -0.69490976239E+03 -0.21417110140E+03  0.76249319106E+03  0.79523329362E+02 0.  0.
         13    1    3    3    0    0 -0.16889136368E+03  0.11927969882E+03  0.22200291068E+03  0.30337638607E+03  0.00000000000E+00 0. -1.
        -13    1    3    3    0    0 -0.51017739187E+03  0.39383719240E+03  0.47668962228E+03  0.80163688868E+03  0.00000000000E+00 0.  1.
          4    1    6    6  502    0  0.15378781470E+03 -0.52989843220E+03 -0.19580135958E+03  0.58547520256E+03  0.00000000000E+00 0. -1.
          3    1    5    5  503    0  0.14051664826E+03  0.35043138804E+02 -0.41509017967E+02  0.15065174605E+03  0.00000000000E+00 0. -1.
         -4    1    5    5    0  503  0.32337063047E+03  0.14674973237E+03 -0.21982129547E+03  0.41764273075E+03  0.00000000000E+00 0.  1.
         -3    1    6    6    0  502  0.61393662114E+02 -0.16501133019E+03 -0.18369741815E+02  0.17701798850E+03  0.00000000000E+00 0.  1.
<mgrwt>
<rscale>  0 0.24255539E+04</rscale>
<asrwt>0</asrwt>
<pdfrwt beam="1">  1        2 0.20453785E+00 0.24255539E+04</pdfrwt>
<pdfrwt beam="2">  1       -2 0.17020076E+00 0.24255539E+04</pdfrwt>
<totfact> 0.30294703E+00</totfact>
</mgrwt>
</event>
<event>
12    1  0.2048318E-007  0.2442865E+04  0.7818608E-02  0.8423628E-01
          3   -1    0    0  501    0  0.00000000000E+00  0.00000000000E+00  0.11247769909E+04  0.11247769909E+04  0.00000000000E+00 0. -1.
         -3   -1    0    0    0  501 -0.00000000000E+00 -0.00000000000E+00 -0.13263937115E+04  0.13263937115E+04  0.00000000000E+00 0.  1.
         23    2    1    2    0    0  0.68826879702E+03 -0.78798613966E+03 -0.21570295430E+03  0.10720055002E+04  0.89621061983E+02 0.  0.
        254    2    1    2    0    0 -0.68826879702E+03  0.78798613966E+03  0.14086233722E+02  0.13791652022E+04  0.89847767904E+03 0.  0.
        -24    2    4    4    0    0 -0.41789109213E+03  0.16165602639E+03 -0.37427676124E+03  0.58983333604E+03  0.83991871911E+02 0.  0.
         24    2    4    4    0    0 -0.27037770489E+03  0.62633011327E+03  0.38836299496E+03  0.78933186616E+03  0.82616372443E+02 0.  0.
         11    1    3    3    0    0  0.81093125252E+02 -0.92292330319E+02  0.36724246843E+01  0.12291239117E+03  0.00000000000E+00 0. -1.
        -11    1    3    3    0    0  0.60717567177E+03 -0.69569380934E+03 -0.21937537899E+03  0.94909310905E+03  0.00000000000E+00 0.  1.
          4    1    6    6  502    0 -0.67810725446E+02  0.16599968286E+03  0.61733266072E+02  0.18964489272E+03  0.00000000000E+00 0. -1.
          3    1    5    5  503    0 -0.17237430855E+01  0.12517096009E+02 -0.42563597529E+01  0.13332875949E+02  0.00000000000E+00 0. -1.
         -4    1    5    5    0  503 -0.41616734904E+03  0.14913893038E+03 -0.37002040148E+03  0.57650046009E+03  0.00000000000E+00 0.  1.
         -3    1    6    6    0  502 -0.20256697944E+03  0.46033043041E+03  0.32662972889E+03  0.59968697344E+03  0.00000000000E+00 0.  1.
<mgrwt>
<rscale>  0 0.24428648E+04</rscale>
<asrwt>0</asrwt>
<pdfrwt beam="1">  1        3 0.17304261E+00 0.24428648E+04</pdfrwt>
<pdfrwt beam="2">  1       -3 0.20406057E+00 0.24428648E+04</pdfrwt>
<totfact> 0.71324702E-02</totfact>
</mgrwt>
</event>
<event>
12    1  0.2048318E-007  0.2387169E+04  0.7818608E-02  0.8444323E-01
          2   -1    0    0  501    0  0.00000000000E+00  0.00000000000E+00  0.34475577965E+04  0.34475577965E+04  0.00000000000E+00 0. -1.
         -2   -1    0    0    0  501 -0.00000000000E+00 -0.00000000000E+00 -0.41323272773E+03  0.41323272773E+03  0.00000000000E+00 0.  1.
         23    2    1    2    0    0 -0.41258502372E+03  0.67225180235E+03  0.23552656515E+04  0.24855012561E+04  0.91056672476E+02 0.  0.
        254    2    1    2    0    0  0.41258502372E+03 -0.67225180235E+03  0.67905941722E+03  0.13752892680E+04  0.89897162976E+03 0.  0.
        -24    2    4    4    0    0  0.38544752541E+03 -0.37025713191E+03 -0.87162388059E+02  0.54732592591E+03  0.79424484296E+02 0.  0.
         24    2    4    4    0    0  0.27137498303E+02 -0.30199467044E+03  0.76622180528E+03  0.82796334213E+03  0.80561878296E+02 0.  0.
         11    1    3    3    0    0 -0.17712013052E+03  0.22386124066E+03  0.76416717988E+03  0.81574314249E+03  0.00000000000E+00 0. -1.
        -11    1    3    3    0    0 -0.23546489320E+03  0.44839056168E+03  0.15910984716E+04  0.16697581137E+04  0.00000000000E+00 0.  1.
          2    1    6    6  502    0 -0.18467078122E+02 -0.20444721498E+03  0.52955705118E+03  0.56795278601E+03  0.00000000000E+00 0. -1.
          1    1    5    5  503    0  0.17342816353E+03 -0.11442159456E+03 -0.42372701946E+02  0.21204969954E+03  0.00000000000E+00 0. -1.
         -2    1    5    5    0  503  0.21201936188E+03 -0.25583553735E+03 -0.44789686113E+02  0.33527622637E+03  0.00000000000E+00 0.  1.
         -1    1    6    6    0  502  0.45604576425E+02 -0.97547455461E+02  0.23666475410E+03  0.26001055611E+03  0.00000000000E+00 0.  1.
<mgrwt>
<rscale>  0 0.23871688E+04</rscale>
<asrwt>0</asrwt>
<pdfrwt beam="1">  1        2 0.53039349E+00 0.23871688E+04</pdfrwt>
<pdfrwt beam="2">  1       -2 0.63574268E-01 0.23871688E+04</pdfrwt>
<totfact> 0.18258943E+00</totfact>
</mgrwt>
</event>
<event>
12    1  0.2048318E-007  0.2406513E+04  0.7818608E-02  0.8437069E-01
          2   -1    0    0  501    0  0.00000000000E+00  0.00000000000E+00  0.16415603783E+04  0.16415603783E+04  0.00000000000E+00 0. -1.
         -2   -1    0    0    0  501 -0.00000000000E+00 -0.00000000000E+00 -0.88198152648E+03  0.88198152648E+03  0.00000000000E+00 0.  1.
         23    2    1    2    0    0  0.42229551217E+03 -0.93809962211E+03  0.23336849579E+03  0.10585194865E+04  0.87397070591E+02 0.  0.
        254    2    1    2    0    0 -0.42229551217E+03  0.93809962211E+03  0.52621035600E+03  0.14650224182E+04  0.90057145555E+03 0.  0.
        -24    2    4    4    0    0 -0.35106596404E+03  0.96437530042E+02 -0.12752413467E+03  0.39397302054E+03  0.80030167304E+02 0.  0.
         24    2    4    4    0    0 -0.71229548135E+02  0.84166209207E+03  0.65373449068E+03  0.10710493977E+04  0.79431116362E+02 0.  0.
         13    1    3    3    0    0  0.14533105996E+03 -0.42781397333E+03  0.10704308451E+03  0.46433192299E+03  0.00000000000E+00 0.  1.
        -13    1    3    3    0    0  0.27696445221E+03 -0.51028564878E+03  0.12632541128E+03  0.59418756355E+03  0.00000000000E+00 0. -1.
          2    1    6    6  502    0 -0.65066872973E+02  0.31550197631E+03  0.24209678569E+03  0.40297152338E+03  0.00000000000E+00 0. -1.
          3    1    5    5  503    0 -0.19754590266E+03  0.44104777393E+02 -0.11123948215E+03  0.23096284861E+03  0.00000000000E+00 0. -1.
         -4    1    5    5    0  503 -0.15352006138E+03  0.52332752649E+02 -0.16284652526E+02  0.16301017193E+03  0.00000000000E+00 0.  1.
         -1    1    6    6    0  502 -0.61626751621E+01  0.52616011576E+03  0.41163770498E+03  0.66807787431E+03  0.00000000000E+00 0.  1.
<mgrwt>
<rscale>  0 0.24065128E+04</rscale>
<asrwt>0</asrwt>
<pdfrwt beam="1">  1        2 0.25254775E+00 0.24065128E+04</pdfrwt>
<pdfrwt beam="2">  1       -2 0.13568947E+00 0.24065128E+04</pdfrwt>
<totfact> 0.37001553E+00</totfact>
</mgrwt>
</event>
<event>
12    1  0.2048318E-007  0.1652800E+04  0.7818608E-02  0.8788752E-01
         -2   -1    0    0    0  501 -0.00000000000E+00  0.00000000000E+00  0.27664626915E+03  0.27664626915E+03  0.00000000000E+00 0.  1.
          2   -1    0    0  501    0  0.00000000000E+00 -0.00000000000E+00 -0.24686286789E+04  0.24686286789E+04  0.00000000000E+00 0. -1.
         23    2    1    2    0    0 -0.13793064194E+03  0.35158676582E+03 -0.49953346238E+02  0.39189398425E+03  0.91909967913E+02 0.  0.
        254    2    1    2    0    0  0.13793064194E+03 -0.35158676582E+03 -0.21420290635E+04  0.23533809638E+04  0.89859631424E+03 0.  0.
        -24    2    4    4    0    0  0.12784503141E+03 -0.24405121486E+03 -0.21918319874E+04  0.22104783053E+04  0.78622705972E+02 0.  0.
         24    2    4    4    0    0  0.10085610532E+02 -0.10753555096E+03  0.49802923884E+02  0.14290265846E+03  0.79216313399E+02 0.  0.
         13    1    3    3    0    0 -0.10373574339E+03  0.22522326887E+03  0.94345537443E+01  0.24814438559E+03  0.00000000000E+00 0. -1.
        -13    1    3    3    0    0 -0.34194898548E+02  0.12636349695E+03 -0.59387899983E+02  0.14374959865E+03  0.00000000000E+00 0.  1.
          2    1    6    6  502    0  0.65889626414E+01 -0.11653227465E+03  0.29449282416E+02  0.12037626717E+03  0.00000000000E+00 0. -1.
          3    1    5    5  503    0  0.63641763072E+02 -0.75976251293E+02 -0.55418639282E+03  0.56297888304E+03  0.00000000000E+00 0. -1.
         -4    1    5    5    0  503  0.64203268336E+02 -0.16807496357E+03 -0.16376455945E+04  0.16474994223E+04  0.00000000000E+00 0.  1.
         -1    1    6    6    0  502  0.34966478906E+01  0.89967236895E+01  0.20353641467E+02  0.22526391291E+02  0.00000000000E+00 0.  1.
<mgrwt>
<rscale>  0 0.16527999E+04</rscale>
<asrwt>0</asrwt>
<pdfrwt beam="1">  1        2 0.37978902E+00 0.16527999E+04</pdfrwt>
<pdfrwt beam="2">  1       -2 0.42560965E-01 0.16527999E+04</pdfrwt>
<totfact> 0.18172627E+01</totfact>
</mgrwt>
</event>
<event>
12    1  0.2048318E-007  0.1399399E+04  0.7818608E-02  0.8954254E-01
         -1   -1    0    0    0  501 -0.00000000000E+00  0.00000000000E+00  0.22654876002E+03  0.22654876002E+03  0.00000000000E+00 0.  1.
          1   -1    0    0  501    0  0.00000000000E+00 -0.00000000000E+00 -0.21610339003E+04  0.21610339003E+04  0.00000000000E+00 0. -1.
         23    2    1    2    0    0 -0.30534068959E+02 -0.25056005610E+03 -0.33184042638E+02  0.26898117215E+03  0.86816007771E+02 0.  0.
        254    2    1    2    0    0  0.30534068959E+02  0.25056005610E+03 -0.19013010976E+04  0.21186014881E+04  0.89989651109E+03 0.  0.
        -24    2    4    4    0    0 -0.22492138627E+03  0.31781874271E+03 -0.17664655869E+04  0.18106284747E+04  0.79852491527E+02 0.  0.
         24    2    4    4    0    0  0.25545545523E+03 -0.67258686619E+02 -0.13483551070E+03  0.30797301344E+03  0.82979163240E+02 0.  0.
         11    1    3    3    0    0  0.13505742200E+02 -0.16553259477E+03 -0.46090588486E+02  0.17235947131E+03  0.00000000000E+00 0.  1.
        -11    1    3    3    0    0 -0.44039811159E+02 -0.85027461322E+02  0.12906545848E+02  0.96621700831E+02  0.00000000000E+00 0. -1.
          4    1    6    6  502    0  0.18349148638E+03 -0.14820268558E+02 -0.11398729565E+03  0.21652221480E+03  0.00000000000E+00 0. -1.
          1    1    5    5  503    0 -0.15359931652E+03  0.16820439411E+03 -0.11452016988E+04  0.11676353880E+04  0.00000000000E+00 0. -1.
         -4    1    5    5    0  503 -0.71322069752E+02  0.14961434860E+03 -0.62126388810E+03  0.64299308674E+03  0.00000000000E+00 0.  1.
         -3    1    6    6    0  502  0.71963968852E+02 -0.52438418061E+02 -0.20848215053E+02  0.91450798644E+02  0.00000000000E+00 0.  1.
<mgrwt>
<rscale>  0 0.13993992E+04</rscale>
<asrwt>0</asrwt>
<pdfrwt beam="1">  1        1 0.33246677E+00 0.13993992E+04</pdfrwt>
<pdfrwt beam="2">  1       -1 0.34853654E-01 0.13993992E+04</pdfrwt>
<totfact> 0.17684258E+01</totfact>
</mgrwt>
</event>
<event>
12    1  0.2048318E-007  0.2372112E+04  0.7818608E-02  0.8450019E-01
         -1   -1    0    0    0  501 -0.00000000000E+00  0.00000000000E+00  0.46827019483E+03  0.46827019483E+03  0.00000000000E+00 0.  1.
          1   -1    0    0  501    0  0.00000000000E+00 -0.00000000000E+00 -0.30040973772E+04  0.30040973772E+04  0.00000000000E+00 0. -1.
         23    2    1    2    0    0 -0.53460639353E+02  0.10118087170E+04 -0.11422872547E+04  0.15295500060E+04  0.89934024186E+02 0.  0.
        254    2    1    2    0    0  0.53460639353E+02 -0.10118087170E+04 -0.13935399276E+04  0.19428175660E+04  0.89775923567E+03 0.  0.
        -24    2    4    4    0    0  0.79789962958E+02  0.10294082721E+02  0.85725231964E+02  0.14275728154E+03  0.80984070707E+02 0.  0.
         24    2    4    4    0    0 -0.26329323605E+02 -0.10221027997E+04 -0.14792651596E+04  0.18000602845E+04  0.81266530433E+02 0.  0.
         11    1    3    3    0    0 -0.69555465388E+02  0.90079161397E+03 -0.10413084200E+04  0.13786176845E+04  0.00000000000E+00 0. -1.
        -11    1    3    3    0    0  0.16094826035E+02  0.11101710304E+03 -0.10097883472E+03  0.15093232143E+03  0.00000000000E+00 0.  1.
          2    1    6    6  502    0  0.22955830126E+02 -0.22846629130E+03 -0.36332760708E+03  0.42980317177E+03  0.00000000000E+00 0. -1.
          1    1    5    5  503    0 -0.14111359743E+02 -0.96967917918E+01  0.66101217129E+01  0.18353527015E+02  0.00000000000E+00 0. -1.
         -2    1    5    5    0  503  0.93901322701E+02  0.19990874513E+02  0.79115110251E+02  0.12440375452E+03  0.00000000000E+00 0.  1.
         -1    1    6    6    0  502 -0.49285153731E+02 -0.79363650843E+03 -0.11159375525E+04  0.13702571127E+04  0.00000000000E+00 0.  1.
<mgrwt>
<rscale>  0 0.23721124E+04</rscale>
<asrwt>0</asrwt>
<pdfrwt beam="1">  1        1 0.46216882E+00 0.23721124E+04</pdfrwt>
<pdfrwt beam="2">  1       -1 0.72041570E-01 0.23721124E+04</pdfrwt>
<totfact> 0.10371639E+00</totfact>
</mgrwt>
</event>
<event>
12    1  0.2048318E-007  0.1859701E+04  0.7818608E-02  0.8675180E-01
          1   -1    0    0  501    0  0.00000000000E+00  0.00000000000E+00  0.15097075367E+04  0.15097075367E+04  0.00000000000E+00 0. -1.
         -1   -1    0    0    0  501 -0.00000000000E+00 -0.00000000000E+00 -0.57270848398E+03  0.57270848398E+03  0.00000000000E+00 0.  1.
         23    2    1    2    0    0  0.68747456112E+03 -0.81122920344E+02  0.52669780924E+03  0.87467179107E+03  0.91858366161E+02 0.  0.
        254    2    1    2    0    0 -0.68747456112E+03  0.81122920344E+02  0.41030124349E+03  0.12077442296E+04  0.90060913463E+03 0.  0.
        -24    2    4    4    0    0 -0.35187842894E+03  0.29897166948E+03 -0.17017050641E+03  0.49820911139E+03  0.77793505602E+02 0.  0.
         24    2    4    4    0    0 -0.33559613218E+03 -0.21784874914E+03  0.58047174990E+03  0.70953511823E+03  0.80061164971E+02 0.  0.
         13    1    3    3    0    0  0.43679790427E+03 -0.92368275490E+02  0.35860450320E+03  0.57264430252E+03  0.00000000000E+00 0. -1.
        -13    1    3    3    0    0  0.25067665686E+03  0.11245355146E+02  0.16809330604E+03  0.30202748855E+03  0.00000000000E+00 0.  1.
          4    1    6    6  502    0 -0.24933510815E+03 -0.19729507616E+03  0.47711063360E+03  0.57334797455E+03  0.00000000000E+00 0. -1.
          3    1    5    5  503    0 -0.11559067995E+03  0.66757089319E+02 -0.21973371912E+02  0.13527950081E+03  0.00000000000E+00 0. -1.
         -4    1    5    5    0  503 -0.23628774898E+03  0.23221458017E+03 -0.14819713450E+03  0.36292961058E+03  0.00000000000E+00 0.  1.
         -3    1    6    6    0  502 -0.86261024037E+02 -0.20553672981E+02  0.10336111630E+03  0.13618714368E+03  0.00000000000E+00 0.  1.
<mgrwt>
<rscale>  0 0.18597014E+04</rscale>
<asrwt>0</asrwt>
<pdfrwt beam="1">  1        1 0.23226270E+00 0.18597014E+04</pdfrwt>
<pdfrwt beam="2">  1       -1 0.88108999E-01 0.18597014E+04</pdfrwt>
<totfact> 0.76538702E+00</totfact>
</mgrwt>
</event>
<event>
12    1  0.2048318E-007  0.1520505E+04  0.7818608E-02  0.8870931E-01
         -2   -1    0    0    0  501 -0.00000000000E+00  0.00000000000E+00  0.23284989117E+03  0.23284989117E+03  0.00000000000E+00 0.  1.
          2   -1    0    0  501    0  0.00000000000E+00 -0.00000000000E+00 -0.24822173068E+04  0.24822173068E+04  0.00000000000E+00 0. -1.
         23    2    1    2    0    0  0.41707909853E+03  0.18458819383E+03 -0.10367702946E+04  0.11374584834E+04  0.10436178410E+03 0.  0.
        254    2    1    2    0    0 -0.41707909853E+03 -0.18458819383E+03 -0.12125971210E+04  0.15776087145E+04  0.90023869201E+03 0.  0.
        -24    2    4    4    0    0  0.23414617672E+03 -0.11975028426E+03 -0.11594875382E+03  0.29822571081E+03  0.79560658790E+02 0.  0.
         24    2    4    4    0    0 -0.65122527525E+03 -0.64837909568E+02 -0.10966483672E+04  0.12793830037E+04  0.76713201739E+02 0.  0.
         11    1    3    3    0    0  0.28112580800E+03  0.10589072120E+03 -0.78711951996E+03  0.84249730175E+03  0.00000000000E+00 0. -1.
        -11    1    3    3    0    0  0.13595329054E+03  0.78697472626E+02 -0.24965077463E+03  0.29496118165E+03  0.00000000000E+00 0.  1.
          2    1    6    6  502    0 -0.61893793918E+03 -0.60549074155E+02 -0.10021600760E+04  0.11794385023E+04  0.00000000000E+00 0. -1.
          1    1    5    5  503    0  0.18060604085E+03 -0.83047653167E+02 -0.12166529863E+03  0.23306200801E+03  0.00000000000E+00 0. -1.
         -2    1    5    5    0  503  0.53540135869E+02 -0.36702631093E+02  0.57165448180E+01  0.65163702800E+02  0.00000000000E+00 0.  1.
         -1    1    6    6    0  502 -0.32287336075E+02 -0.42888354133E+01 -0.94488291212E+02  0.99944501380E+02  0.00000000000E+00 0.  1.
<mgrwt>
<rscale>  0 0.15205052E+04</rscale>
<asrwt>0</asrwt>
<pdfrwt beam="1">  1        2 0.38187957E+00 0.15205052E+04</pdfrwt>
<pdfrwt beam="2">  1       -2 0.35823061E-01 0.15205052E+04</pdfrwt>
<totfact> 0.25258742E+01</totfact>
</mgrwt>
</event>
<event>
12    1  0.2048318E-007  0.1624839E+04  0.7818608E-02  0.8805432E-01
          1   -1    0    0  501    0  0.00000000000E+00  0.00000000000E+00  0.11593801260E+04  0.11593801260E+04  0.00000000000E+00 0. -1.
         -1   -1    0    0    0  501 -0.00000000000E+00 -0.00000000000E+00 -0.56929174956E+03  0.56929174956E+03  0.00000000000E+00 0.  1.
         23    2    1    2    0    0  0.59236534908E+02 -0.43911706360E+03 -0.15757116522E+03  0.47952297719E+03  0.93706194705E+02 0.  0.
        254    2    1    2    0    0 -0.59236534908E+02  0.43911706360E+03  0.74765954165E+03  0.12491488984E+04  0.89724323205E+03 0.  0.
        -24    2    4    4    0    0 -0.10355246324E+03 -0.34401351901E+02 -0.16734479405E+03  0.21466078614E+03  0.78539209021E+02 0.  0.
         24    2    4    4    0    0  0.44315928331E+02  0.47351841551E+03  0.91500433571E+03  0.10344881122E+04  0.82153080590E+02 0.  0.
         11    1    3    3    0    0  0.76119285179E+02 -0.21395239208E+03 -0.80453467590E+02  0.24092017786E+03  0.00000000000E+00 0. -1.
        -11    1    3    3    0    0 -0.16882750271E+02 -0.22516467152E+03 -0.77117697633E+02  0.23860279933E+03  0.00000000000E+00 0.  1.
          4    1    6    6  502    0  0.67045025274E+02  0.37172530074E+03  0.69497237154E+03  0.79098756743E+03  0.00000000000E+00 0. -1.
          1    1    5    5  503    0 -0.10764861508E+03 -0.47526631557E+02 -0.16124962225E+03  0.19962075472E+03  0.00000000000E+00 0. -1.
         -2    1    5    5    0  503  0.40961518442E+01  0.13125279655E+02 -0.60951718014E+01  0.15040031425E+02  0.00000000000E+00 0.  1.
         -3    1    6    6    0  502 -0.22729096944E+02  0.10179311476E+03  0.22003196417E+03  0.24350054480E+03  0.00000000000E+00 0.  1.
<mgrwt>
<rscale>  0 0.16248391E+04</rscale>
<asrwt>0</asrwt>
<pdfrwt beam="1">  1        1 0.17836617E+00 0.16248391E+04</pdfrwt>
<pdfrwt beam="2">  1       -1 0.87583346E-01 0.16248391E+04</pdfrwt>
<totfact> 0.14060609E+01</totfact>
</mgrwt>
</event>
<event>
12    1  0.2048318E-007  0.1544673E+04  0.7818608E-02  0.8855278E-01
          2   -1    0    0  501    0  0.00000000000E+00  0.00000000000E+00  0.70907353498E+03  0.70907353498E+03  0.00000000000E+00 0. -1.
         -2   -1    0    0    0  501 -0.00000000000E+00 -0.00000000000E+00 -0.84124332187E+03  0.84124332187E+03  0.00000000000E+00 0.  1.
         23    2    1    2    0    0  0.29904766546E+03  0.40631499664E+03 -0.42205056429E+02  0.51430660511E+03  0.90601515193E+02 0.  0.
        254    2    1    2    0    0 -0.29904766546E+03 -0.40631499664E+03 -0.89964730460E+02  0.10360102517E+04  0.90039003009E+03 0.  0.
        -24    2    4    4    0    0 -0.44832595165E+03 -0.42011175828E+03 -0.36153509761E+03  0.71652205748E+03  0.72153888920E+02 0.  0.
         24    2    4    4    0    0  0.14927828618E+03  0.13796761636E+02  0.27157036715E+03  0.31948819427E+03  0.76471462671E+02 0.  0.
         11    1    3    3    0    0  0.17710743452E+03  0.21427170420E+03 -0.65580273528E+02  0.28562244110E+03  0.00000000000E+00 0.  1.
        -11    1    3    3    0    0  0.12194023094E+03  0.19204329245E+03  0.23375217098E+02  0.22868416401E+03  0.00000000000E+00 0. -1.
          4    1    6    6  502    0 -0.78843505351E+01  0.69828037476E+01  0.11964492932E+02  0.15939624295E+02  0.00000000000E+00 0. -1.
          3    1    5    5  503    0 -0.66757903973E+02 -0.44482650620E+02 -0.72124177595E+02  0.10787595164E+03  0.00000000000E+00 0. -1.
         -2    1    5    5    0  503 -0.38156804767E+03 -0.37562910766E+03 -0.28941092002E+03  0.60864610584E+03  0.00000000000E+00 0.  1.
         -3    1    6    6    0  502  0.15716263672E+03  0.68139578881E+01  0.25960587422E+03  0.30354856997E+03  0.00000000000E+00 0.  1.
<mgrwt>
<rscale>  0 0.15446726E+04</rscale>
<asrwt>0</asrwt>
<pdfrwt beam="1">  1        2 0.10908824E+00 0.15446726E+04</pdfrwt>
<pdfrwt beam="2">  1       -2 0.12942205E+00 0.15446726E+04</pdfrwt>
<totfact> 0.17043957E+01</totfact>
</mgrwt>
</event>
<event>
12    1  0.2048318E-007  0.1442203E+04  0.7818608E-02  0.8923824E-01
         -2   -1    0    0    0  501 -0.00000000000E+00  0.00000000000E+00  0.62175811092E+03  0.62175811092E+03  0.00000000000E+00 0. -1.
          2   -1    0    0  501    0  0.00000000000E+00 -0.00000000000E+00 -0.83631818132E+03  0.83631818132E+03  0.00000000000E+00 0.  1.
         23    2    1    2    0    0  0.39899492146E+03  0.13725962273E+03 -0.13761861274E+03  0.45297346743E+03  0.90603135924E+02 0.  0.
        254    2    1    2    0    0 -0.39899492146E+03 -0.13725962273E+03 -0.76941457652E+02  0.10051028248E+04  0.90899645168E+03 0.  0.
        -24    2    4    4    0    0  0.45959066420E+02 -0.10085782504E+03 -0.41663012506E+03  0.43860905978E+03  0.80701360278E+02 0.  0.
         24    2    4    4    0    0 -0.44495398788E+03 -0.36401797689E+02  0.33968866741E+03  0.56649376504E+03  0.78852094787E+02 0.  0.
         11    1    3    3    0    0  0.13353211976E+03  0.34988116898E+01 -0.54907850107E+02  0.14442278454E+03  0.00000000000E+00 0.  1.
        -11    1    3    3    0    0  0.26546280170E+03  0.13376081104E+03 -0.82710762636E+02  0.30855068289E+03  0.00000000000E+00 0. -1.
          4    1    6    6  502    0 -0.54878409793E+02 -0.31417243510E+02  0.48557120872E+02  0.79727517449E+02  0.00000000000E+00 0. -1.
          3    1    5    5  503    0  0.57833420365E+02 -0.30378026987E+02 -0.21356894149E+03  0.22333656621E+03  0.00000000000E+00 0. -1.
         -4    1    5    5    0  503 -0.11874353945E+02 -0.70479798050E+02 -0.20306118357E+03  0.21527249357E+03  0.00000000000E+00 0.  1.
         -3    1    6    6    0  502 -0.39007557809E+03 -0.49845541793E+01  0.29113154654E+03  0.48676624759E+03  0.00000000000E+00 0.  1.
<mgrwt>
<rscale>  0 0.14422033E+04</rscale>
<asrwt>0</asrwt>
<pdfrwt beam="1">  1        2 0.12866434E+00 0.14422033E+04</pdfrwt>
<pdfrwt beam="2">  1       -2 0.95655094E-01 0.14422033E+04</pdfrwt>
<totfact> 0.28884379E+01</totfact>
</mgrwt>
</event>
<event>
12    1  0.2048318E-007  0.1913463E+04  0.7818608E-02  0.8648184E-01
         -1   -1    0    0    0  501 -0.00000000000E+00  0.00000000000E+00  0.11999790203E+04  0.11999790203E+04  0.00000000000E+00 0.  1.
          1   -1    0    0  501    0  0.00000000000E+00 -0.00000000000E+00 -0.76279271697E+03  0.76279271697E+03  0.00000000000E+00 0. -1.
         23    2    1    2    0    0 -0.18581108633E+03 -0.71176887886E+03  0.10281951717E+03  0.74809706783E+03  0.89088007520E+02 0.  0.
        254    2    1    2    0    0  0.18581108633E+03  0.71176887886E+03  0.33436678615E+03  0.12146746694E+04  0.90691383722E+03 0.  0.
        -24    2    4    4    0    0  0.27581387039E+03 -0.90668200879E+02 -0.68721088515E+02  0.30839570302E+03  0.78046831328E+02 0.  0.
         24    2    4    4    0    0 -0.90002784068E+02  0.80243707973E+03  0.40308787466E+03  0.90627896640E+03  0.82800737728E+02 0.  0.
         13    1    3    3    0    0 -0.11028154468E+03 -0.26380366192E+03  0.56475758543E+02  0.29145137235E+03  0.00000000000E+00 0.  1.
        -13    1    3    3    0    0 -0.75529541648E+02 -0.44796521694E+03  0.46343758622E+02  0.45664569549E+03  0.00000000000E+00 0. -1.
          2    1    6    6  502    0 -0.63859041499E+02  0.50796931091E+03  0.21109721825E+03  0.55378049222E+03  0.00000000000E+00 0. -1.
          1    1    5    5  503    0  0.20419622905E+03 -0.80192835340E+02 -0.18208936510E+02  0.22013304197E+03  0.00000000000E+00 0. -1.
         -2    1    5    5    0  503  0.71617641342E+02 -0.10475365539E+02 -0.50512152005E+02  0.88262661045E+02  0.00000000000E+00 0.  1.
         -1    1    6    6    0  502 -0.26143742568E+02  0.29446776882E+03  0.19199065641E+03  0.35249847418E+03  0.00000000000E+00 0.  1.
<mgrwt>
<rscale>  0 0.19134631E+04</rscale>
<asrwt>0</asrwt>
<pdfrwt beam="1">  1        1 0.11735273E+00 0.19134631E+04</pdfrwt>
<pdfrwt beam="2">  1       -1 0.18461216E+00 0.19134631E+04</pdfrwt>
<totfact> 0.42991801E+00</totfact>
</mgrwt>
</event>
<event>
12    1  0.2048318E-007  0.5073623E+04  0.7818608E-02  0.7817250E-01
          2   -1    0    0  501    0  0.00000000000E+00  0.00000000000E+00  0.38345436149E+04  0.38345436149E+04  0.00000000000E+00 0.  1.
         -2   -1    0    0    0  501 -0.00000000000E+00 -0.00000000000E+00 -0.16782731904E+04  0.16782731904E+04  0.00000000000E+00 0. -1.
         23    2    1    2    0    0  0.24007818193E+04 -0.25620132567E+02  0.48235687286E+03  0.24505522533E+04  0.90157962528E+02 0.  0.
        254    2    1    2    0    0 -0.24007818193E+04  0.25620132567E+02  0.16739135516E+04  0.30622645520E+04  0.90059306728E+03 0.  0.
        -24    2    4    4    0    0 -0.15067905718E+04 -0.22043464930E+02  0.51259589183E+03  0.15938029047E+04  0.80928420713E+02 0.  0.
         24    2    4    4    0    0 -0.89399124751E+03  0.47663597497E+02  0.11613176598E+04  0.14684616472E+04  0.78922324138E+02 0.  0.
         13    1    3    3    0    0  0.17497413957E+03  0.15725747989E+02  0.51251778634E+02  0.18300271441E+03  0.00000000000E+00 0.  1.
        -13    1    3    3    0    0  0.22258076797E+04 -0.41345880555E+02  0.43110509423E+03  0.22675495389E+04  0.00000000000E+00 0. -1.
          2    1    6    6  502    0 -0.15017810463E+03 -0.66830214379E+01  0.15516809799E+03  0.21604458920E+03  0.00000000000E+00 0. -1.
          1    1    5    5  503    0 -0.21625096188E+03 -0.31602625513E+02  0.73852388580E+02  0.23068892421E+03  0.00000000000E+00 0. -1.
         -2    1    5    5    0  503 -0.12905396099E+04  0.95591605829E+01  0.43874350325E+03  0.13631139805E+04  0.00000000000E+00 0.  1.
         -1    1    6    6    0  502 -0.74381314288E+03  0.54346618935E+02  0.10061495618E+04  0.12524170580E+04  0.00000000000E+00 0.  1.
<mgrwt>
<rscale>  0 0.50736227E+04</rscale>
<asrwt>0</asrwt>
<pdfrwt beam="1">  1        2 0.58992979E+00 0.50736227E+04</pdfrwt>
<pdfrwt beam="2">  1       -2 0.25819588E+00 0.50736227E+04</pdfrwt>
<totfact> 0.19072918E-02</totfact>
</mgrwt>
</event>
<event>
12    1  0.2048318E-007  0.1760099E+04  0.7818608E-02  0.8727811E-01
          2   -1    0    0  501    0  0.00000000000E+00  0.00000000000E+00  0.65389025023E+03  0.65389025023E+03  0.00000000000E+00 0. -1.
         -2   -1    0    0    0  501 -0.00000000000E+00 -0.00000000000E+00 -0.11844304667E+04  0.11844304667E+04  0.00000000000E+00 0.  1.
         23    2    1    2    0    0 -0.81113228840E+02  0.62486436163E+03 -0.49668811506E+02  0.63836129594E+03  0.89461315631E+02 0.  0.
        254    2    1    2    0    0  0.81113228840E+02 -0.62486436163E+03 -0.48087140493E+03  0.11999594210E+04  0.90090536547E+03 0.  0.
        -24    2    4    4    0    0 -0.27627822110E+03 -0.59108221078E+03 -0.50846083222E+03  0.83109770698E+03  0.80517981161E+02 0.  0.
         24    2    4    4    0    0  0.35739144994E+03 -0.33782150850E+02  0.27589427294E+02  0.36886171397E+03  0.80174218589E+02 0.  0.
         11    1    3    3    0    0 -0.73387952552E+02  0.38815946898E+03  0.59751423804E+01  0.39508134259E+03  0.00000000000E+00 0.  1.
        -11    1    3    3    0    0 -0.77252762879E+01  0.23670489265E+03 -0.55643953887E+02  0.24327995335E+03  0.00000000000E+00 0. -1.
          2    1    6    6  502    0  0.32107365409E+03 -0.36229475819E+02 -0.12578414297E+00  0.32311125342E+03  0.00000000000E+00 0. -1.
          1    1    5    5  503    0 -0.24916396318E+03 -0.56795027942E+03 -0.49287984640E+03  0.79219993904E+03  0.00000000000E+00 0. -1.
         -2    1    5    5    0  503 -0.27114257921E+02 -0.23131931361E+02 -0.15580985826E+02  0.38897767937E+02  0.00000000000E+00 0.  1.
         -1    1    6    6    0  502  0.36317795858E+02  0.24473249685E+01  0.27715211437E+02  0.45750460549E+02  0.00000000000E+00 0.  1.
<mgrwt>
<rscale>  0 0.17600995E+04</rscale>
<asrwt>0</asrwt>
<pdfrwt beam="1">  1        2 0.10059850E+00 0.17600995E+04</pdfrwt>
<pdfrwt beam="2">  1       -2 0.18222007E+00 0.17600995E+04</pdfrwt>
<totfact> 0.73930793E+00</totfact>
</mgrwt>
</event>
<event>
12    1  0.2048318E-007  0.1202115E+04  0.7818608E-02  0.9111007E-01
          2   -1    0    0  501    0  0.00000000000E+00  0.00000000000E+00  0.11417286478E+04  0.11417286478E+04  0.00000000000E+00 0. -1.
         -2   -1    0    0    0  501 -0.00000000000E+00 -0.00000000000E+00 -0.31642387451E+03  0.31642387451E+03  0.00000000000E+00 0.  1.
         23    2    1    2    0    0  0.12770138820E+03  0.21600730925E+03  0.19795967257E+03  0.33312512798E+03  0.93901633241E+02 0.  0.
        254    2    1    2    0    0 -0.12770138820E+03 -0.21600730925E+03  0.62734510070E+03  0.11250273943E+04  0.89953207858E+03 0.  0.
        -24    2    4    4    0    0  0.23317932083E+03 -0.66155525465E+01 -0.11356966740E+03  0.27092602764E+03  0.78015908024E+02 0.  0.
         24    2    4    4    0    0 -0.36088070903E+03 -0.20939175670E+03  0.74091476810E+03  0.85410136667E+03  0.80340880252E+02 0.  0.
         11    1    3    3    0    0  0.58221787669E+02  0.30665078795E+02  0.25417861674E+02  0.70542124359E+02  0.00000000000E+00 0.  1.
        -11    1    3    3    0    0  0.69479600532E+02  0.18534223045E+03  0.17254181090E+03  0.26258300362E+03  0.00000000000E+00 0. -1.
          4    1    6    6  502    0 -0.21259500484E+03 -0.90686070514E+02  0.34918949983E+03  0.41875279851E+03  0.00000000000E+00 0. -1.
          1    1    5    5  503    0  0.15920505263E+03  0.21958527218E+02 -0.47155307314E+02  0.16748745836E+03  0.00000000000E+00 0. -1.
         -2    1    5    5    0  503  0.73974268198E+02 -0.28574079765E+02 -0.66414360085E+02  0.10343856928E+03  0.00000000000E+00 0.  1.
         -3    1    6    6    0  502 -0.14828570419E+03 -0.11870568619E+03  0.39172526827E+03  0.43534856816E+03  0.00000000000E+00 0.  1.
<mgrwt>
<rscale>  0 0.12021151E+04</rscale>
<asrwt>0</asrwt>
<pdfrwt beam="1">  1        2 0.17565056E+00 0.12021151E+04</pdfrwt>
<pdfrwt beam="2">  1       -2 0.48680597E-01 0.12021151E+04</pdfrwt>
<totfact> 0.80954504E+01</totfact>
</mgrwt>
</event>
<event>
12    1  0.2048318E-007  0.6369431E+04  0.7818608E-02  0.7646211E-01
          2   -1    0    0  501    0  0.00000000000E+00  0.00000000000E+00  0.36475626381E+04  0.36475626381E+04  0.00000000000E+00 0. -1.
         -2   -1    0    0    0  501 -0.00000000000E+00 -0.00000000000E+00 -0.27805998920E+04  0.27805998920E+04  0.00000000000E+00 0.  1.
         23    2    1    2    0    0  0.16138288495E+04  0.25927868183E+04  0.10703893784E+04  0.32376131149E+04  0.97047513025E+02 0.  0.
        254    2    1    2    0    0 -0.16138288495E+04 -0.25927868183E+04 -0.20342663228E+03  0.31905494152E+04  0.90068648027E+03 0.  0.
        -24    2    4    4    0    0  0.59862068727E+02 -0.31761992804E+03 -0.14798681168E+03  0.36443549326E+03  0.80294746784E+02 0.  0.
         24    2    4    4    0    0 -0.16736909182E+04 -0.22751668903E+04 -0.55439820605E+02  0.28261139220E+04  0.78871147870E+02 0.  0.
         13    1    3    3    0    0  0.11563991176E+04  0.19377408720E+04  0.79696205772E+03  0.23931667572E+04  0.00000000000E+00 0.  1.
        -13    1    3    3    0    0  0.45742973188E+03  0.65504594629E+03  0.27342732070E+03  0.84444635772E+03  0.00000000000E+00 0. -1.
          2    1    6    6  502    0 -0.72207171864E+03 -0.10312831266E+04  0.11584358645E+01  0.12589415380E+04  0.00000000000E+00 0. -1.
          3    1    5    5  503    0 -0.14382808669E+02 -0.11762583507E+03 -0.38162777072E+02  0.12449538069E+03  0.00000000000E+00 0. -1.
         -4    1    5    5    0  503  0.74244877397E+02 -0.19999409297E+03 -0.10982403460E+03  0.23994011257E+03  0.00000000000E+00 0.  1.
         -1    1    6    6    0  502 -0.95161919961E+03 -0.12438837636E+04 -0.56598256470E+02  0.15671723840E+04  0.00000000000E+00 0.  1.
<mgrwt>
<rscale>  0 0.63694308E+04</rscale>
<asrwt>0</asrwt>
<pdfrwt beam="1">  1        2 0.56116348E+00 0.63694308E+04</pdfrwt>
<pdfrwt beam="2">  1       -2 0.42778460E+00 0.63694308E+04</pdfrwt>
<totfact> 0.20326585E-03</totfact>
</mgrwt>
</event>
<event>
12    1  0.3613671E-007  0.2223334E+04  0.7818608E-02  0.8508778E-01
          2   -1    0    0  501    0  0.00000000000E+00  0.00000000000E+00  0.17703950788E+04  0.17703950788E+04  0.00000000000E+00 0. -1.
         -2   -1    0    0    0  501 -0.00000000000E+00 -0.00000000000E+00 -0.69803798295E+03  0.69803798295E+03  0.00000000000E+00 0.  1.
         23    2    1    2    0    0  0.31401870469E+03 -0.86698197931E+03  0.55506088017E+03  0.10802251928E+04  0.92349267587E+02 0.  0.
        254    2    1    2    0    0 -0.31401870469E+03  0.86698197931E+03  0.51729621572E+03  0.13882078689E+04  0.89958891349E+03 0.  0.
        -24    2    4    4    0    0 -0.40832712365E+02 -0.11315137349E+03 -0.11615768010E+03  0.18687287934E+03  0.83416561092E+02 0.  0.
         24    2    4    4    0    0 -0.27318599232E+03  0.98013335280E+03  0.63345389582E+03  0.12013349896E+04  0.81547185494E+02 0.  0.
         11    1    3    3    0    0  0.24191429321E+03 -0.66780834801E+03  0.47143784982E+03  0.85249290975E+03  0.00000000000E+00 0.  1.
        -11    1    3    3    0    0  0.72104411472E+02 -0.19917363130E+03  0.83623030349E+02  0.22773228309E+03  0.00000000000E+00 0. -1.
          4    1    6    6  502    0 -0.37635374797E+02  0.10082749896E+03  0.40770768187E+02  0.11508632205E+03  0.00000000000E+00 0. -1.
          1    1    5    5  503    0  0.12007191665E+02 -0.22092458210E+01  0.59989694151E+01  0.13602979557E+02  0.00000000000E+00 0. -1.
         -2    1    5    5    0  503 -0.52839904031E+02 -0.11094212767E+03 -0.12215664951E+03  0.17326989978E+03  0.00000000000E+00 0.  1.
         -3    1    6    6    0  502 -0.23555061752E+03  0.87930585384E+03  0.59268312763E+03  0.10862486676E+04  0.00000000000E+00 0.  1.
<mgrwt>
<rscale>  0 0.22233335E+04</rscale>
<asrwt>0</asrwt>
<pdfrwt beam="1">  1        2 0.27236847E+00 0.22233335E+04</pdfrwt>
<pdfrwt beam="2">  1       -2 0.10739046E+00 0.22233335E+04</pdfrwt>
<totfact> 0.56929621E+00</totfact>
</mgrwt>
</event>
<event>
12    1  0.2048318E-007  0.1989115E+04  0.7818608E-02  0.8611727E-01
         -2   -1    0    0    0  501 -0.00000000000E+00  0.00000000000E+00  0.57320153262E+03  0.57320153262E+03  0.00000000000E+00 0.  1.
          2   -1    0    0  501    0  0.00000000000E+00 -0.00000000000E+00 -0.17256484475E+04  0.17256484475E+04  0.00000000000E+00 0. -1.
         23    2    1    2    0    0 -0.74107179000E+03 -0.11175293531E+03 -0.74197067543E+03  0.10582759347E+04  0.88041776042E+02 0.  0.
        254    2    1    2    0    0  0.74107179000E+03  0.11175293531E+03 -0.41047623943E+03  0.12405740454E+04  0.89936483278E+03 0.  0.
        -24    2    4    4    0    0  0.94226389965E+03  0.91448762694E+02 -0.36932011693E+03  0.10191677806E+04  0.77983866557E+02 0.  0.
         24    2    4    4    0    0 -0.20119210965E+03  0.20304172617E+02 -0.41156122496E+02  0.22140626479E+03  0.80227073088E+02 0.  0.
         13    1    3    3    0    0 -0.67395555697E+03 -0.84296584928E+02 -0.69558790699E+03  0.97219573305E+03  0.00000000000E+00 0. -1.
        -13    1    3    3    0    0 -0.67116233024E+02 -0.27456350384E+02 -0.46382768440E+02  0.86080201673E+02  0.00000000000E+00 0.  1.
          4    1    6    6  502    0 -0.13605110552E+03 -0.82823143067E+01 -0.58275170575E+02  0.14823796933E+03  0.00000000000E+00 0. -1.
          3    1    5    5  503    0  0.48708607044E+03  0.15658118843E+02 -0.16500873179E+03  0.51451520703E+03  0.00000000000E+00 0. -1.
         -4    1    5    5    0  503  0.45517782921E+03  0.75790643851E+02 -0.20431138514E+03  0.50465257356E+03  0.00000000000E+00 0.  1.
         -3    1    6    6    0  502 -0.65141004125E+02  0.28586486924E+02  0.17119048079E+02  0.73168295458E+02  0.00000000000E+00 0.  1.
<mgrwt>
<rscale>  0 0.19891147E+04</rscale>
<asrwt>0</asrwt>
<pdfrwt beam="1">  1        2 0.26548438E+00 0.19891147E+04</pdfrwt>
<pdfrwt beam="2">  1       -2 0.88184851E-01 0.19891147E+04</pdfrwt>
<totfact> 0.97737481E+00</totfact>
</mgrwt>
</event>
<event>
12    1  0.2048318E-007  0.1722531E+04  0.7818608E-02  0.8748617E-01
          2   -1    0    0  501    0  0.00000000000E+00  0.00000000000E+00  0.24888175729E+04  0.24888175729E+04  0.00000000000E+00 0. -1.
         -2   -1    0    0    0  501 -0.00000000000E+00 -0.00000000000E+00 -0.29804454870E+03  0.29804454870E+03  0.00000000000E+00 0.  1.
         23    2    1    2    0    0 -0.17557780213E+03 -0.33184148884E+03 -0.41648132713E+01  0.38540643867E+03  0.87031252911E+02 0.  0.
        254    2    1    2    0    0  0.17557780213E+03  0.33184148884E+03  0.21949378375E+04  0.24014556829E+04  0.89905002554E+03 0.  0.
        -24    2    4    4    0    0  0.22873005946E+03  0.21596684389E+03  0.16194699829E+03  0.36286396990E+03  0.80525229809E+02 0.  0.
         24    2    4    4    0    0 -0.53152257325E+02  0.11587464495E+03  0.20329908392E+04  0.20385917130E+04  0.80946429586E+02 0.  0.
         11    1    3    3    0    0 -0.19162583203E+02 -0.11682100249E+03 -0.14776943766E+02  0.11930091904E+03  0.00000000000E+00 0.  1.
        -11    1    3    3    0    0 -0.15641521893E+03 -0.21502048635E+03  0.10612130495E+02  0.26610551963E+03  0.00000000000E+00 0. -1.
          4    1    6    6  502    0 -0.25920415045E+02  0.83811175157E+02  0.78406439421E+03  0.78895700470E+03  0.00000000000E+00 0. -1.
          1    1    5    5  503    0  0.18627181676E+03  0.19044566805E+03  0.10238477104E+03  0.28539338384E+03  0.00000000000E+00 0. -1.
         -2    1    5    5    0  503  0.42458242693E+02  0.25521175842E+02  0.59562227252E+02  0.77470586057E+02  0.00000000000E+00 0.  1.
         -3    1    6    6    0  502 -0.27231842280E+02  0.32063469791E+02  0.12489264450E+04  0.12496347083E+04  0.00000000000E+00 0.  1.
<mgrwt>
<rscale>  0 0.17225313E+04</rscale>
<asrwt>0</asrwt>
<pdfrwt beam="1">  1        2 0.38289500E+00 0.17225313E+04</pdfrwt>
<pdfrwt beam="2">  1       -2 0.45853009E-01 0.17225313E+04</pdfrwt>
<totfact> 0.15159544E+01</totfact>
</mgrwt>
</event>
<event>
12    1  0.2048318E-007  0.2499778E+04  0.7818608E-02  0.8403065E-01
         -2   -1    0    0    0  501 -0.00000000000E+00  0.00000000000E+00  0.64204847847E+03  0.64204847847E+03  0.00000000000E+00 0. -1.
          2   -1    0    0  501    0  0.00000000000E+00 -0.00000000000E+00 -0.24331837587E+04  0.24331837587E+04  0.00000000000E+00 0.  1.
         23    2    1    2    0    0  0.58008664006E+03  0.89036438397E+03 -0.50730711472E+03  0.11810018279E+04  0.90308153137E+02 0.  0.
        254    2    1    2    0    0 -0.58008664006E+03 -0.89036438397E+03 -0.12838281655E+04  0.18942304093E+04  0.90035817251E+03 0.  0.
        -24    2    4    4    0    0 -0.77586215612E+02  0.46452067358E+02 -0.63493752686E+03  0.64645402759E+03  0.81115543238E+02 0.  0.
         24    2    4    4    0    0 -0.50250042445E+03 -0.93681645133E+03 -0.64889063864E+03  0.12477763817E+04  0.75862360975E+02 0.  0.
         13    1    3    3    0    0  0.12921312747E+02  0.44911175950E+02 -0.92836927008E+01  0.47646206549E+02  0.00000000000E+00 0. -1.
        -13    1    3    3    0    0  0.56716532731E+03  0.84545320802E+03 -0.49802342202E+03  0.11333556213E+04  0.00000000000E+00 0.  1.
          2    1    6    6  502    0 -0.49173344146E+03 -0.90864585598E+03 -0.61477803264E+03  0.12022441925E+04  0.00000000000E+00 0. -1.
          1    1    5    5  503    0 -0.43466103990E+02  0.19579937199E+02 -0.53946081409E+03  0.54156315059E+03  0.00000000000E+00 0. -1.
         -2    1    5    5    0  503 -0.34120111622E+02  0.26872130159E+02 -0.95476712773E+02  0.10489087700E+03  0.00000000000E+00 0.  1.
         -1    1    6    6    0  502 -0.10766982991E+02 -0.28170595351E+02 -0.34112606000E+02  0.45532189199E+02  0.00000000000E+00 0.  1.
<mgrwt>
<rscale>  0 0.24997775E+04</rscale>
<asrwt>0</asrwt>
<pdfrwt beam="1">  1        2 0.37433596E+00 0.24997775E+04</pdfrwt>
<pdfrwt beam="2">  1       -2 0.98776690E-01 0.24997775E+04</pdfrwt>
<totfact> 0.28853270E+00</totfact>
</mgrwt>
</event>
<event>
12    1  0.2048318E-007  0.1246814E+04  0.7818608E-02  0.9072839E-01
          2   -1    0    0  501    0  0.00000000000E+00  0.00000000000E+00  0.24685761856E+04  0.24685761856E+04  0.00000000000E+00 0. -1.
         -2   -1    0    0    0  501 -0.00000000000E+00 -0.00000000000E+00 -0.15743340255E+03  0.15743340255E+03  0.00000000000E+00 0.  1.
         23    2    1    2    0    0  0.14321544492E+03  0.24581294359E+03  0.44401739287E+03  0.53544905193E+03  0.92841667046E+02 0.  0.
        254    2    1    2    0    0 -0.14321544492E+03 -0.24581294359E+03  0.18671253901E+04  0.20905605362E+04  0.89629875935E+03 0.  0.
        -24    2    4    4    0    0 -0.28331600929E+03  0.26338936103E+03  0.94367115130E+03  0.10230356145E+04  0.80278951925E+02 0.  0.
         24    2    4    4    0    0  0.14010056438E+03 -0.50920230462E+03  0.92345423884E+03  0.10675249217E+04  0.89031297772E+02 0.  0.
         11    1    3    3    0    0  0.10723069656E+03  0.97286746979E+02  0.24411417918E+03  0.28382189115E+03  0.00000000000E+00 0. -1.
        -11    1    3    3    0    0  0.35984748352E+02  0.14852619661E+03  0.19990321370E+03  0.25162716077E+03  0.00000000000E+00 0.  1.
          2    1    6    6  502    0  0.69196399628E+02 -0.39292509609E+03  0.70638892875E+03  0.81127282188E+03  0.00000000000E+00 0. -1.
          3    1    5    5  503    0 -0.12588782554E+03  0.15709680684E+03  0.41441236254E+03  0.46072199596E+03  0.00000000000E+00 0. -1.
         -4    1    5    5    0  503 -0.15742818375E+03  0.10629255419E+03  0.52925878876E+03  0.56231361854E+03  0.00000000000E+00 0.  1.
         -1    1    6    6    0  502  0.70904164747E+02 -0.11627720853E+03  0.21706531008E+03  0.25625209979E+03  0.00000000000E+00 0.  1.
<mgrwt>
<rscale>  0 0.12468141E+04</rscale>
<asrwt>0</asrwt>
<pdfrwt beam="1">  1        2 0.37978092E+00 0.12468141E+04</pdfrwt>
<pdfrwt beam="2">  1       -2 0.24220525E-01 0.12468141E+04</pdfrwt>
<totfact> 0.54536471E+01</totfact>
</mgrwt>
</event>
<event>
12    1  0.2048318E-007  0.1888739E+04  0.7818608E-02  0.8660482E-01
          1   -1    0    0  501    0  0.00000000000E+00  0.00000000000E+00  0.13607227268E+04  0.13607227268E+04  0.00000000000E+00 0. -1.
         -1   -1    0    0    0  501 -0.00000000000E+00 -0.00000000000E+00 -0.65541215296E+03  0.65541215296E+03  0.00000000000E+00 0.  1.
         23    2    1    2    0    0 -0.59091392077E+03 -0.39873348776E+03  0.41435346753E+03  0.82920846056E+03  0.87921663949E+02 0.  0.
        254    2    1    2    0    0  0.59091392077E+03  0.39873348776E+03  0.29095710634E+03  0.11869264192E+04  0.90331092703E+03 0.  0.
        -24    2    4    4    0    0  0.53733356553E+03  0.39199336645E+03 -0.18918099040E+03  0.69619078663E+03  0.80659805814E+02 0.  0.
         24    2    4    4    0    0  0.53580355242E+02  0.67401213122E+01  0.48013809674E+03  0.49073563259E+03  0.85863760996E+02 0.  0.
         13    1    3    3    0    0 -0.57717366016E+03 -0.37217458161E+03  0.40739302932E+03  0.79850637663E+03  0.00000000000E+00 0. -1.
        -13    1    3    3    0    0 -0.13740260612E+02 -0.26558906157E+02  0.69604382063E+01  0.30702083935E+02  0.00000000000E+00 0.  1.
          2    1    6    6  502    0 -0.18904540452E+02 -0.53701635157E+01  0.40717145704E+02  0.45211793375E+02  0.00000000000E+00 0. -1.
          3    1    5    5  503    0  0.13186389240E+03  0.10343061533E+03 -0.12362290560E+02  0.16804405534E+03  0.00000000000E+00 0. -1.
         -2    1    5    5    0  503  0.40546967312E+03  0.28856275112E+03 -0.17681869984E+03  0.52814673129E+03  0.00000000000E+00 0.  1.
         -1    1    6    6    0  502  0.72484895694E+02  0.12110284828E+02  0.43942095103E+03  0.44552383922E+03  0.00000000000E+00 0.  1.
<mgrwt>
<rscale>  0 0.18887395E+04</rscale>
<asrwt>0</asrwt>
<pdfrwt beam="1">  1        1 0.20934196E+00 0.18887395E+04</pdfrwt>
<pdfrwt beam="2">  1       -1 0.10083264E+00 0.18887395E+04</pdfrwt>
<totfact> 0.71717845E+00</totfact>
</mgrwt>
</event>
<event>
12    1  0.2048318E-007  0.1297582E+04  0.7818608E-02  0.9031485E-01
         -2   -1    0    0    0  501 -0.00000000000E+00  0.00000000000E+00  0.46638875756E+03  0.46638875756E+03  0.00000000000E+00 0. -1.
          2   -1    0    0  501    0  0.00000000000E+00 -0.00000000000E+00 -0.90252978951E+03  0.90252978951E+03  0.00000000000E+00 0.  1.
         23    2    1    2    0    0 -0.26196933179E+03 -0.19379062091E+03 -0.14302322743E+03  0.36782316233E+03  0.93034937563E+02 0.  0.
        254    2    1    2    0    0  0.26196933179E+03  0.19379062091E+03 -0.29311780452E+03  0.10010953847E+04  0.90005065773E+03 0.  0.
        -24    2    4    4    0    0  0.24111463814E+03  0.19948274457E+03 -0.60105412246E+03  0.68231115360E+03  0.79704567603E+02 0.  0.
         24    2    4    4    0    0  0.20854693654E+02 -0.56921236535E+01  0.30793631794E+03  0.31878423114E+03  0.79569413699E+02 0.  0.
         13    1    3    3    0    0 -0.26685663195E+02 -0.60365895987E+02 -0.11262317781E+02  0.66955252372E+02  0.00000000000E+00 0.  1.
        -13    1    3    3    0    0 -0.23528366859E+03 -0.13342472493E+03 -0.13176090965E+03  0.30086790996E+03  0.00000000000E+00 0. -1.
          4    1    6    6  502    0  0.14805419926E+02 -0.33772351367E+02  0.69985097126E+02  0.79105537074E+02  0.00000000000E+00 0. -1.
          1    1    5    5  503    0  0.18072277028E+03  0.10816922844E+03 -0.35103734882E+03  0.40937577108E+03  0.00000000000E+00 0. -1.
         -2    1    5    5    0  503  0.60391867853E+02  0.91313516125E+02 -0.25001677365E+03  0.27293538252E+03  0.00000000000E+00 0.  1.
         -3    1    6    6    0  502  0.60492737281E+01  0.28080227713E+02  0.23795122082E+03  0.23967869407E+03  0.00000000000E+00 0.  1.
<mgrwt>
<rscale>  0 0.12975820E+04</rscale>
<asrwt>0</asrwt>
<pdfrwt beam="1">  1        2 0.13885074E+00 0.12975820E+04</pdfrwt>
<pdfrwt beam="2">  1       -2 0.71752117E-01 0.12975820E+04</pdfrwt>
<totfact> 0.50433286E+01</totfact>
</mgrwt>
</event>
<event>
12    1  0.2048318E-007  0.1143811E+04  0.7818608E-02  0.9163512E-01
         -2   -1    0    0    0  501 -0.00000000000E+00  0.00000000000E+00  0.11183728817E+03  0.11183728817E+03  0.00000000000E+00 0.  1.
          2   -1    0    0  501    0  0.00000000000E+00 -0.00000000000E+00 -0.29245709034E+04  0.29245709034E+04  0.00000000000E+00 0. -1.
         23    2    1    2    0    0  0.12347440626E+02  0.19066082979E+03 -0.72299612596E+03  0.75354151867E+03  0.92722224393E+02 0.  0.
        254    2    1    2    0    0 -0.12347440626E+02 -0.19066082979E+03 -0.20897374893E+04  0.22828666729E+04  0.89887343988E+03 0.  0.
        -24    2    4    4    0    0 -0.10623559610E+03 -0.52554513250E+03 -0.14839309780E+04  0.15798109272E+04  0.79168996947E+02 0.  0.
         24    2    4    4    0    0  0.93888155473E+02  0.33488430271E+03 -0.60580651128E+03  0.70305574572E+03  0.79519623584E+02 0.  0.
         13    1    3    3    0    0 -0.35526858321E+02  0.12959549655E+03 -0.43571426470E+03  0.45596498862E+03  0.00000000000E+00 0. -1.
        -13    1    3    3    0    0  0.47874298946E+02  0.61065333237E+02 -0.28728186126E+03  0.29757653004E+03  0.00000000000E+00 0.  1.
          4    1    6    6  502    0  0.71969865471E+02  0.19720769582E+03 -0.29156291590E+03  0.35927631532E+03  0.00000000000E+00 0. -1.
          3    1    5    5  503    0 -0.81725483532E+02 -0.27535661668E+03 -0.87852938029E+03  0.92429118411E+03  0.00000000000E+00 0. -1.
         -4    1    5    5    0  503 -0.24510112567E+02 -0.25018851582E+03 -0.60540159773E+03  0.65551974310E+03  0.00000000000E+00 0.  1.
         -3    1    6    6    0  502  0.21918290002E+02  0.13767660689E+03 -0.31424359538E+03  0.34377943039E+03  0.00000000000E+00 0.  1.
<mgrwt>
<rscale>  0 0.11438113E+04</rscale>
<asrwt>0</asrwt>
<pdfrwt beam="1">  1        2 0.44993391E+00 0.11438113E+04</pdfrwt>
<pdfrwt beam="2">  1       -2 0.17205740E-01 0.11438113E+04</pdfrwt>
<totfact> 0.54181951E+01</totfact>
</mgrwt>
</event>
<event>
12    1  0.3078852E-007  0.3031297E+04  0.7818608E-02  0.8234850E-01
         -2   -1    0    0    0  501 -0.00000000000E+00  0.00000000000E+00  0.10743958286E+04  0.10743958286E+04  0.00000000000E+00 0.  1.
          2   -1    0    0  501    0  0.00000000000E+00 -0.00000000000E+00 -0.21381231759E+04  0.21381231759E+04  0.00000000000E+00 0. -1.
         23    2    1    2    0    0 -0.10072177057E+04 -0.86880848851E+03 -0.95630468992E+02  0.13373636888E+04  0.10040295414E+03 0.  0.
        254    2    1    2    0    0  0.10072177057E+04  0.86880848851E+03 -0.96809687829E+03  0.18751553158E+04  0.89982231365E+03 0.  0.
        -24    2    4    4    0    0  0.82491578815E+02  0.44672708750E+03 -0.66863605846E+03  0.81249446432E+03  0.81872611974E+02 0.  0.
         24    2    4    4    0    0  0.92472612685E+03  0.42208140102E+03 -0.29946081983E+03  0.10626608514E+04  0.79373697212E+02 0.  0.
         13    1    3    3    0    0 -0.49962976427E+03 -0.37604329454E+03 -0.16863350115E+02  0.62555801753E+03  0.00000000000E+00 0.  1.
        -13    1    3    3    0    0 -0.50758794140E+03 -0.49276519397E+03 -0.78767118877E+02  0.71180567127E+03  0.00000000000E+00 0. -1.
          2    1    6    6  502    0  0.90590270286E+03  0.42482634515E+03 -0.29353733274E+03  0.10427374052E+04  0.00000000000E+00 0. -1.
          1    1    5    5  503    0  0.76305290665E+02  0.36500958575E+03 -0.59568766461E+03  0.70277897581E+03  0.00000000000E+00 0. -1.
         -4    1    5    5    0  503  0.61862881507E+01  0.81717501747E+02 -0.72948393857E+02  0.10971548851E+03  0.00000000000E+00 0.  1.
         -3    1    6    6    0  502  0.18823423996E+02 -0.27449441357E+01 -0.59234870848E+01  0.19923446200E+02  0.00000000000E+00 0.  1.
<mgrwt>
<rscale>  0 0.30312972E+04</rscale>
<asrwt>0</asrwt>
<pdfrwt beam="1">  1        2 0.32894202E+00 0.30312972E+04</pdfrwt>
<pdfrwt beam="2">  1       -2 0.16529167E+00 0.30312972E+04</pdfrwt>
<totfact> 0.11004595E+00</totfact>
</mgrwt>
</event>
<event>
12    1  0.2048318E-007  0.1968548E+04  0.7818608E-02  0.8621468E-01
          1   -1    0    0  501    0  0.00000000000E+00  0.00000000000E+00  0.19138834094E+04  0.19138834094E+04  0.00000000000E+00 0. -1.
         -1   -1    0    0    0  501 -0.00000000000E+00 -0.00000000000E+00 -0.50619369044E+03  0.50619369044E+03  0.00000000000E+00 0.  1.
         23    2    1    2    0    0  0.50970479137E+03 -0.29685481646E+03  0.11776778009E+04  0.13207734523E+04  0.97957914515E+02 0.  0.
        254    2    1    2    0    0 -0.50970479137E+03  0.29685481646E+03  0.23001191801E+03  0.10993036476E+04  0.89868863947E+03 0.  0.
        -24    2    4    4    0    0  0.62577509851E+02  0.37202641707E+03  0.33033552825E+03  0.50781005089E+03  0.80186575084E+02 0.  0.
         24    2    4    4    0    0 -0.57228230122E+03 -0.75171600609E+02 -0.10032361024E+03  0.59149359667E+03  0.81498750293E+02 0.  0.
         11    1    3    3    0    0  0.48387187329E+03 -0.29501417130E+03  0.11541708188E+04  0.12857976629E+04  0.00000000000E+00 0. -1.
        -11    1    3    3    0    0  0.25832918081E+02 -0.18406451609E+01  0.23506982138E+02  0.34975789346E+02  0.00000000000E+00 0.  1.
          4    1    6    6  502    0 -0.57197183890E+03 -0.76056030859E+02 -0.10520857014E+03  0.58651952018E+03  0.00000000000E+00 0. -1.
          3    1    5    5  503    0  0.61864187250E+02  0.20956599023E+03  0.14972722352E+03  0.26488360347E+03  0.00000000000E+00 0. -1.
         -4    1    5    5    0  503  0.71332260099E+00  0.16246042684E+03  0.18060830473E+03  0.24292644742E+03  0.00000000000E+00 0.  1.
         -3    1    6    6    0  502 -0.31046232069E+00  0.88443024998E+00  0.48849598946E+01  0.49740764863E+01  0.00000000000E+00 0.  1.
<mgrwt>
<rscale>  0 0.19685484E+04</rscale>
<asrwt>0</asrwt>
<pdfrwt beam="1">  1        1 0.29444360E+00 0.19685484E+04</pdfrwt>
<pdfrwt beam="2">  1       -1 0.77875953E-01 0.19685484E+04</pdfrwt>
<totfact> 0.52374051E+00</totfact>
</mgrwt>
</event>
<event>
12    1  0.2048318E-007  0.4304979E+04  0.7818608E-02  0.7945698E-01
          1   -1    0    0  501    0  0.00000000000E+00  0.00000000000E+00  0.43654020903E+04  0.43654020903E+04  0.00000000000E+00 0. -1.
         -1   -1    0    0    0  501 -0.00000000000E+00 -0.00000000000E+00 -0.10613480291E+04  0.10613480291E+04  0.00000000000E+00 0.  1.
         23    2    1    2    0    0 -0.18276158342E+04 -0.72058867707E+03  0.23518170448E+04  0.30658766387E+04  0.95543040568E+02 0.  0.
        254    2    1    2    0    0  0.18276158342E+04  0.72058867707E+03  0.95223701641E+03  0.23608734807E+04  0.89863261536E+03 0.  0.
        -24    2    4    4    0    0  0.20115727491E+03  0.20071585822E+03  0.52009875562E+03  0.59786922062E+03  0.78700599576E+02 0.  0.
         24    2    4    4    0    0  0.16264585593E+04  0.51987281885E+03  0.43213826079E+03  0.17630042600E+04  0.76192858527E+02 0.  0.
         11    1    3    3    0    0 -0.11925790311E+04 -0.48057359743E+03  0.14691146646E+04  0.19523046959E+04  0.00000000000E+00 0.  1.
        -11    1    3    3    0    0 -0.63503680312E+03 -0.24001507964E+03  0.88270238024E+03  0.11135719428E+04  0.00000000000E+00 0. -1.
          4    1    6    6  502    0  0.11955659364E+04  0.35594954784E+03  0.33898515020E+03  0.12926673667E+04  0.00000000000E+00 0. -1.
          1    1    5    5  503    0  0.10770747430E+03  0.11145895900E+03  0.36123148812E+03  0.39308038309E+03  0.00000000000E+00 0. -1.
         -2    1    5    5    0  503  0.93449800614E+02  0.89256899218E+02  0.15886726750E+03  0.20478883753E+03  0.00000000000E+00 0.  1.
         -3    1    6    6    0  502  0.43089262283E+03  0.16392327101E+03  0.93153110588E+02  0.47033689330E+03  0.00000000000E+00 0.  1.
<mgrwt>
<rscale>  0 0.43049789E+04</rscale>
<asrwt>0</asrwt>
<pdfrwt beam="1">  1        1 0.67160031E+00 0.43049789E+04</pdfrwt>
<pdfrwt beam="2">  1       -1 0.16328431E+00 0.43049789E+04</pdfrwt>
<totfact> 0.92128796E-03</totfact>
</mgrwt>
</event>
<event>
12    1  0.2048318E-007  0.2349552E+04  0.7818608E-02  0.8458636E-01
          1   -1    0    0  501    0  0.00000000000E+00  0.00000000000E+00  0.93539391089E+03  0.93539391089E+03  0.00000000000E+00 0. -1.
         -1   -1    0    0    0  501 -0.00000000000E+00 -0.00000000000E+00 -0.14754192953E+04  0.14754192953E+04  0.00000000000E+00 0.  1.
         23    2    1    2    0    0  0.75855748862E+03 -0.34997744943E+03  0.33237227897E+03  0.90329665595E+03  0.87062265994E+02 0.  0.
        254    2    1    2    0    0 -0.75855748862E+03  0.34997744943E+03 -0.87239766335E+03  0.15075165502E+04  0.90201706607E+03 0.  0.
        -24    2    4    4    0    0 -0.89772008578E+03  0.47340505773E+03 -0.65203790682E+03  0.12084079526E+04  0.71292684629E+02 0.  0.
         24    2    4    4    0    0  0.13916259715E+03 -0.12342760830E+03 -0.22035975653E+03  0.29910859761E+03  0.79416169191E+02 0.  0.
         11    1    3    3    0    0  0.43276898424E+03 -0.15283890333E+03  0.19066837512E+03  0.49699411803E+03  0.00000000000E+00 0. -1.
        -11    1    3    3    0    0  0.32578850439E+03 -0.19713854610E+03  0.14170390385E+03  0.40630253791E+03  0.00000000000E+00 0.  1.
          2    1    6    6  502    0  0.11683541115E+03 -0.13042843229E+03 -0.17232937618E+03  0.24568171105E+03  0.00000000000E+00 0. -1.
          1    1    5    5  503    0 -0.80266915067E+02  0.43531405991E+02 -0.84291352122E+02  0.12426903478E+03  0.00000000000E+00 0. -1.
         -2    1    5    5    0  503 -0.81745317071E+03  0.42987365174E+03 -0.56774655469E+03  0.10841389178E+04  0.00000000000E+00 0.  1.
         -1    1    6    6    0  502  0.22327186004E+02  0.70008239888E+01 -0.48030380350E+02  0.53426886564E+02  0.00000000000E+00 0.  1.
<mgrwt>
<rscale>  0 0.23495516E+04</rscale>
<asrwt>0</asrwt>
<pdfrwt beam="1">  1        1 0.14390676E+00 0.23495516E+04</pdfrwt>
<pdfrwt beam="2">  1       -1 0.22698758E+00 0.23495516E+04</pdfrwt>
<totfact> 0.15148226E+00</totfact>
</mgrwt>
</event>
<event>
12    1  0.2048318E-007  0.1922761E+04  0.7818608E-02  0.8643609E-01
          1   -1    0    0  501    0  0.00000000000E+00  0.00000000000E+00  0.20652999937E+04  0.20652999937E+04  0.00000000000E+00 0. -1.
         -1   -1    0    0    0  501 -0.00000000000E+00 -0.00000000000E+00 -0.44751483765E+03  0.44751483765E+03  0.00000000000E+00 0.  1.
         23    2    1    2    0    0 -0.20404750986E+02 -0.74703096878E+03  0.71085193894E+03  0.10334035928E+04  0.64349703984E+02 0.  0.
        254    2    1    2    0    0  0.20404750986E+02  0.74703096878E+03  0.90693321711E+03  0.14794112385E+04  0.89869801947E+03 0.  0.
        -24    2    4    4    0    0 -0.16339827421E+03 -0.10498590584E+03 -0.95176119568E+01  0.21220137341E+03  0.84957645347E+02 0.  0.
         24    2    4    4    0    0  0.18380302519E+03  0.85201687462E+03  0.91645082907E+03  0.12672098651E+04  0.78882275780E+02 0.  0.
         11    1    3    3    0    0 -0.14399407678E+02 -0.56766789246E+03  0.50089482332E+03  0.75719865498E+03  0.00000000000E+00 0.  1.
        -11    1    3    3    0    0 -0.60053433074E+01 -0.17936307632E+03  0.20995711562E+03  0.27620493785E+03  0.00000000000E+00 0. -1.
          2    1    6    6  502    0  0.97875055550E+02  0.56382611615E+03  0.55742479841E+03  0.79887534799E+03  0.00000000000E+00 0. -1.
          1    1    5    5  503    0  0.53149364990E+01 -0.11184127136E+02  0.12883989789E+02  0.17869819324E+02  0.00000000000E+00 0. -1.
         -2    1    5    5    0  503 -0.16871321071E+03 -0.93801778703E+02 -0.22401601746E+02  0.19433155409E+03  0.00000000000E+00 0.  1.
         -1    1    6    6    0  502  0.85927969642E+02  0.28819075847E+03  0.35902603066E+03  0.46833451712E+03  0.00000000000E+00 0.  1.
<mgrwt>
<rscale>  0 0.19227609E+04</rscale>
<asrwt>0</asrwt>
<pdfrwt beam="1">  1        1 0.31773846E+00 0.19227609E+04</pdfrwt>
<pdfrwt beam="2">  1       -1 0.68848438E-01 0.19227609E+04</pdfrwt>
<totfact> 0.53638324E+00</totfact>
</mgrwt>
</event>
<event>
12    1  0.2048318E-007  0.1648648E+04  0.7818608E-02  0.8791207E-01
          1   -1    0    0  501    0  0.00000000000E+00  0.00000000000E+00  0.64359939914E+03  0.64359939914E+03  0.00000000000E+00 0. -1.
         -1   -1    0    0    0  501 -0.00000000000E+00 -0.00000000000E+00 -0.10557968183E+04  0.10557968183E+04  0.00000000000E+00 0.  1.
         23    2    1    2    0    0  0.54205448634E+03  0.15993952259E+03 -0.24085825674E+03  0.62130175743E+03  0.92733256745E+02 0.  0.
        254    2    1    2    0    0 -0.54205448634E+03 -0.15993952259E+03 -0.17133916238E+03  0.10780944600E+04  0.90195722681E+03 0.  0.
        -24    2    4    4    0    0 -0.34714759744E+03 -0.21764194146E+03 -0.51995006877E+03  0.66676515848E+03  0.79675802192E+02 0.  0.
         24    2    4    4    0    0 -0.19490688890E+03  0.57702418869E+02  0.34861090639E+03  0.41132930149E+03  0.79649015868E+02 0.  0.
         11    1    3    3    0    0  0.43909980818E+03  0.92663670018E+02 -0.20359299424E+03  0.49279336905E+03  0.00000000000E+00 0.  1.
        -11    1    3    3    0    0  0.10295467816E+03  0.67275852573E+02 -0.37265262501E+02  0.12850838838E+03  0.00000000000E+00 0. -1.
          2    1    6    6  502    0 -0.95643403684E+02 -0.83894664417E+01  0.19008608450E+03  0.21295718663E+03  0.00000000000E+00 0. -1.
          1    1    5    5  503    0 -0.16827553832E+03 -0.11705403255E+03 -0.32151924042E+03  0.38130424242E+03  0.00000000000E+00 0. -1.
         -2    1    5    5    0  503 -0.17887205912E+03 -0.10058790891E+03 -0.19843082835E+03  0.28546091605E+03  0.00000000000E+00 0.  1.
         -1    1    6    6    0  502 -0.99263485216E+02  0.66091885311E+02  0.15852482188E+03  0.19837211486E+03  0.00000000000E+00 0.  1.
<mgrwt>
<rscale>  0 0.16486482E+04</rscale>
<asrwt>0</asrwt>
<pdfrwt beam="1">  1        1 0.99015292E-01 0.16486482E+04</pdfrwt>
<pdfrwt beam="2">  1       -1 0.16243028E+00 0.16486482E+04</pdfrwt>
<totfact> 0.82744337E+00</totfact>
</mgrwt>
</event>
<event>
12    1  0.2048318E-007  0.1794922E+04  0.7818608E-02  0.8709004E-01
         -1   -1    0    0    0  501 -0.00000000000E+00  0.00000000000E+00  0.73324566341E+03  0.73324566341E+03  0.00000000000E+00 0.  1.
          1   -1    0    0  501    0  0.00000000000E+00 -0.00000000000E+00 -0.10984536510E+04  0.10984536510E+04  0.00000000000E+00 0. -1.
         23    2    1    2    0    0 -0.58486813215E+03  0.14896527466E+03  0.15152789845E+03  0.62887480468E+03  0.90892413830E+02 0.  0.
        254    2    1    2    0    0  0.58486813215E+03 -0.14896527466E+03 -0.51673588604E+03  0.12028245097E+04  0.90305561302E+03 0.  0.
        -24    2    4    4    0    0  0.34728264951E+02 -0.34850798925E+03 -0.49652007835E+03  0.61298810102E+03  0.80983657819E+02 0.  0.
         24    2    4    4    0    0  0.55013986720E+03  0.19954271459E+03 -0.20215807694E+02  0.58983640870E+03  0.70902339355E+02 0.  0.
         13    1    3    3    0    0 -0.59079989367E+02 -0.10720717961E+02  0.54749632276E+01  0.60293898195E+02  0.00000000000E+00 0. -1.
        -13    1    3    3    0    0 -0.52578814278E+03  0.15968599262E+03  0.14605293522E+03  0.56858090648E+03  0.00000000000E+00 0.  1.
          4    1    6    6  502    0  0.46200626394E+03  0.19039901535E+03 -0.37656438936E+01  0.49971567220E+03  0.00000000000E+00 0. -1.
          3    1    5    5  503    0  0.47557475900E+02 -0.30486380978E+03 -0.39100790105E+03  0.49808717582E+03  0.00000000000E+00 0. -1.
         -4    1    5    5    0  503 -0.12829210949E+02 -0.43644179469E+02 -0.10551217730E+03  0.11490092521E+03  0.00000000000E+00 0.  1.
         -3    1    6    6    0  502  0.88133603260E+02  0.91436992316E+01 -0.16450163801E+02  0.90120736505E+02  0.00000000000E+00 0.  1.
<mgrwt>
<rscale>  0 0.17949221E+04</rscale>
<asrwt>0</asrwt>
<pdfrwt beam="1">  1        1 0.16899287E+00 0.17949221E+04</pdfrwt>
<pdfrwt beam="2">  1       -1 0.11280703E+00 0.17949221E+04</pdfrwt>
<totfact> 0.86276923E+00</totfact>
</mgrwt>
</event>
<event>
12    1  0.2048318E-007  0.2297660E+04  0.7818608E-02  0.8478844E-01
          1   -1    0    0  501    0  0.00000000000E+00  0.00000000000E+00  0.13652380097E+04  0.13652380097E+04  0.00000000000E+00 0. -1.
         -1   -1    0    0    0  501 -0.00000000000E+00 -0.00000000000E+00 -0.96672509997E+03  0.96672509997E+03  0.00000000000E+00 0.  1.
         23    2    1    2    0    0  0.93484319835E+03 -0.27507369407E+03  0.24181482637E+03  0.10082494530E+04  0.92169444230E+02 0.  0.
        254    2    1    2    0    0 -0.93484319835E+03  0.27507369407E+03  0.15669808338E+03  0.13237136567E+04  0.88208061594E+03 0.  0.
        -24    2    4    4    0    0 -0.96701093613E+03  0.20856743351E+03  0.38985644724E+03  0.10663643105E+04  0.80834820893E+02 0.  0.
         24    2    4    4    0    0  0.32167737778E+02  0.66506260564E+02 -0.23315836386E+03  0.25734934627E+03  0.80050092671E+02 0.  0.
         11    1    3    3    0    0  0.51090954383E+03 -0.10479818210E+03  0.11410239858E+03  0.53388255104E+03  0.00000000000E+00 0. -1.
        -11    1    3    3    0    0  0.42393365452E+03 -0.17027551197E+03  0.12771242779E+03  0.47436690191E+03  0.00000000000E+00 0.  1.
          4    1    6    6  502    0  0.19168633187E+02  0.63861773298E+02 -0.82350913486E+02  0.10595959390E+03  0.00000000000E+00 0. -1.
          1    1    5    5  503    0 -0.23665186581E+03  0.16945514440E+02  0.83931410601E+02  0.25166592486E+03  0.00000000000E+00 0. -1.
         -2    1    5    5    0  503 -0.73035907032E+03  0.19162191907E+03  0.30592503664E+03  0.81469838561E+03  0.00000000000E+00 0.  1.
         -3    1    6    6    0  502  0.12999104592E+02  0.26444872663E+01 -0.15080745038E+03  0.15138975237E+03  0.00000000000E+00 0.  1.
<mgrwt>
<rscale>  0 0.22976595E+04</rscale>
<asrwt>0</asrwt>
<pdfrwt beam="1">  1        1 0.21003662E+00 0.22976595E+04</pdfrwt>
<pdfrwt beam="2">  1       -1 0.14872694E+00 0.22976595E+04</pdfrwt>
<totfact> 0.26238613E+00</totfact>
</mgrwt>
</event>
<event>
12    1  0.2048318E-007  0.1856269E+04  0.7818608E-02  0.8676935E-01
         -2   -1    0    0    0  501 -0.00000000000E+00  0.00000000000E+00  0.85087881636E+03  0.85087881636E+03  0.00000000000E+00 0.  1.
          2   -1    0    0  501    0  0.00000000000E+00 -0.00000000000E+00 -0.10124051543E+04  0.10124051543E+04  0.00000000000E+00 0. -1.
         23    2    1    2    0    0 -0.67838674458E+03  0.18922780702E+03 -0.37658001393E+02  0.71127359571E+03  0.92066631924E+02 0.  0.
        254    2    1    2    0    0  0.67838674458E+03 -0.18922780702E+03 -0.12386833659E+03  0.11520103750E+04  0.90319920343E+03 0.  0.
        -24    2    4    4    0    0  0.67372869592E+03  0.77229647877E+02  0.21426525953E+03  0.71567489459E+03  0.80038610025E+02 0.  0.
         24    2    4    4    0    0  0.46580486644E+01 -0.26645745490E+03 -0.33813359611E+03  0.43633548039E+03  0.70943991575E+02 0.  0.
         11    1    3    3    0    0 -0.55378531696E+02  0.43560976119E+02 -0.46781289479E+01  0.70613209131E+02  0.00000000000E+00 0. -1.
        -11    1    3    3    0    0 -0.62300821289E+03  0.14566683090E+03 -0.32979872445E+02  0.64066038658E+03  0.00000000000E+00 0.  1.
          4    1    6    6  502    0  0.22094704470E+02 -0.13043396747E+03 -0.11962176341E+03  0.17835515725E+03  0.00000000000E+00 0. -1.
          3    1    5    5  503    0  0.82654398129E+02  0.85356712297E+01 -0.37369307109E+00  0.83094806456E+02  0.00000000000E+00 0. -1.
         -4    1    5    5    0  503  0.59107429779E+03  0.68693976647E+02  0.21463895260E+03  0.63258008814E+03  0.00000000000E+00 0.  1.
         -3    1    6    6    0  502 -0.17436655806E+02 -0.13602348742E+03 -0.21851183270E+03  0.25798032314E+03  0.00000000000E+00 0.  1.
<mgrwt>
<rscale>  0 0.18562695E+04</rscale>
<asrwt>0</asrwt>
<pdfrwt beam="1">  1        2 0.15575464E+00 0.18562695E+04</pdfrwt>
<pdfrwt beam="2">  1       -2 0.13090443E+00 0.18562695E+04</pdfrwt>
<totfact> 0.99186274E+00</totfact>
</mgrwt>
</event>
<event>
12    1  0.2050137E-007  0.1715365E+04  0.7818608E-02  0.8752649E-01
         -1   -1    0    0    0  501 -0.00000000000E+00  0.00000000000E+00  0.73062231916E+03  0.73062231916E+03  0.00000000000E+00 0.  1.
          1   -1    0    0  501    0  0.00000000000E+00 -0.00000000000E+00 -0.10068390141E+04  0.10068390141E+04  0.00000000000E+00 0. -1.
         23    2    1    2    0    0  0.52570475406E+03  0.30827180755E+03 -0.20155609338E+03  0.64819293890E+03  0.90178886021E+02 0.  0.
        254    2    1    2    0    0 -0.52570475406E+03 -0.30827180755E+03 -0.74660601588E+02  0.10892683944E+04  0.89974131494E+03 0.  0.
        -24    2    4    4    0    0 -0.73221369788E+03 -0.40457967866E+03 -0.10287286797E+03  0.84666030674E+03  0.80182493677E+02 0.  0.
         24    2    4    4    0    0  0.20650894382E+03  0.96307871112E+02  0.28212266384E+02  0.24260808765E+03  0.78368375645E+02 0.  0.
         11    1    3    3    0    0  0.28188298912E+03  0.21366320170E+03 -0.99339595839E+02  0.36739398283E+03  0.00000000000E+00 0.  1.
        -11    1    3    3    0    0  0.24382176494E+03  0.94608605846E+02 -0.10221649754E+03  0.28079895607E+03  0.00000000000E+00 0. -1.
          2    1    6    6  502    0  0.20164292954E+03  0.10601370830E+03  0.33948455001E+02  0.23032862388E+03  0.00000000000E+00 0. -1.
          3    1    5    5  503    0 -0.72301573965E+03 -0.39699614798E+03 -0.11094138832E+03  0.83226539814E+03  0.00000000000E+00 0. -1.
         -4    1    5    5    0  503 -0.91979582354E+01 -0.75835306748E+01  0.80685203429E+01  0.14394908604E+02  0.00000000000E+00 0.  1.
         -1    1    6    6    0  502  0.48660142790E+01 -0.97058371901E+01 -0.57361886171E+01  0.12279463766E+02  0.00000000000E+00 0.  1.
<mgrwt>
<rscale>  0 0.17153647E+04</rscale>
<asrwt>0</asrwt>
<pdfrwt beam="1">  1        1 0.15489831E+00 0.17153647E+04</pdfrwt>
<pdfrwt beam="2">  1       -1 0.11240343E+00 0.17153647E+04</pdfrwt>
<totfact> 0.10299819E+01</totfact>
</mgrwt>
</event>
<event>
12    1  0.2048318E-007  0.2870325E+04  0.7818608E-02  0.8281762E-01
          3   -1    0    0  501    0  0.00000000000E+00  0.00000000000E+00  0.13039094338E+04  0.13039094338E+04  0.00000000000E+00 0. -1.
         -3   -1    0    0    0  501 -0.00000000000E+00 -0.00000000000E+00 -0.15796275406E+04  0.15796275406E+04  0.00000000000E+00 0.  1.
         23    2    1    2    0    0 -0.10392884214E+04  0.76536157298E+03 -0.57039249944E+02  0.12952536349E+04  0.92356604173E+02 0.  0.
        254    2    1    2    0    0  0.10392884214E+04 -0.76536157298E+03 -0.21867885686E+03  0.15882833395E+04  0.89940244823E+03 0.  0.
        -24    2    4    4    0    0  0.92858079604E+02 -0.72573837339E+02  0.27776056973E+03  0.31217240247E+03  0.80069282200E+02 0.  0.
         24    2    4    4    0    0  0.94643034180E+03 -0.69278773564E+03 -0.49643942658E+03  0.12761109370E+04  0.79509627372E+02 0.  0.
         11    1    3    3    0    0 -0.60922421670E+03  0.42322610560E+03 -0.73607212976E+02  0.74544785496E+03  0.00000000000E+00 0.  1.
        -11    1    3    3    0    0 -0.43006420471E+03  0.34213546738E+03  0.16567963032E+02  0.54980577990E+03  0.00000000000E+00 0. -1.
          2    1    6    6  502    0  0.32527597010E+03 -0.19215246998E+03 -0.16143210073E+03  0.41083737852E+03  0.00000000000E+00 0. -1.
          1    1    5    5  503    0  0.70806005388E+02 -0.82690895765E+02  0.26068740874E+03  0.28250522069E+03  0.00000000000E+00 0. -1.
         -2    1    5    5    0  503  0.22052074216E+02  0.10117058427E+02  0.17073160989E+02  0.29667181777E+02  0.00000000000E+00 0.  1.
         -1    1    6    6    0  502  0.62115437170E+03 -0.50063526566E+03 -0.33500732586E+03  0.86527355853E+03  0.00000000000E+00 0.  1.
<mgrwt>
<rscale>  0 0.28703249E+04</rscale>
<asrwt>0</asrwt>
<pdfrwt beam="1">  1        3 0.20060145E+00 0.28703249E+04</pdfrwt>
<pdfrwt beam="2">  1       -3 0.24301962E+00 0.28703249E+04</pdfrwt>
<totfact> 0.26337014E-02</totfact>
</mgrwt>
</event>
<event>
12    1  0.2048318E-007  0.1163492E+04  0.7818608E-02  0.9145426E-01
          2   -1    0    0  501    0  0.00000000000E+00  0.00000000000E+00  0.12832160050E+04  0.12832160050E+04  0.00000000000E+00 0. -1.
         -2   -1    0    0    0  501 -0.00000000000E+00 -0.00000000000E+00 -0.26373459165E+03  0.26373459165E+03  0.00000000000E+00 0.  1.
         23    2    1    2    0    0 -0.13834277606E+03 -0.11476406646E+03  0.37823571135E+03  0.42827327096E+03  0.89700761654E+02 0.  0.
        254    2    1    2    0    0  0.13834277606E+03  0.11476406646E+03  0.64124570198E+03  0.11186773257E+04  0.89885115232E+03 0.  0.
        -24    2    4    4    0    0 -0.79940912811E+02  0.44059704789E+03  0.13719073332E+03  0.47510513106E+03  0.79920461077E+02 0.  0.
         24    2    4    4    0    0  0.21828368887E+03 -0.32583298143E+03  0.50405496866E+03  0.64357219462E+03  0.79365342818E+02 0.  0.
         13    1    3    3    0    0  0.22986348810E+01  0.10847025493E+02  0.34146277094E+02  0.35901391668E+02  0.00000000000E+00 0. -1.
        -13    1    3    3    0    0 -0.14064141094E+03 -0.12561109195E+03  0.34408943426E+03  0.39237187929E+03  0.00000000000E+00 0.  1.
          4    1    6    6  502    0  0.14660331715E+03 -0.14916490734E+03  0.25044196752E+03  0.32628803423E+03  0.00000000000E+00 0. -1.
          3    1    5    5  503    0 -0.61223039370E+02  0.19189953212E+03  0.30024335232E+02  0.20365449095E+03  0.00000000000E+00 0. -1.
         -4    1    5    5    0  503 -0.18717873441E+02  0.24869751577E+03  0.10716639809E+03  0.27145064011E+03  0.00000000000E+00 0.  1.
         -1    1    6    6    0  502  0.71680371729E+02 -0.17666807408E+03  0.25361300113E+03  0.31728416039E+03  0.00000000000E+00 0.  1.
<mgrwt>
<rscale>  0 0.11634921E+04</rscale>
<asrwt>0</asrwt>
<pdfrwt beam="1">  1        2 0.19741784E+00 0.11634921E+04</pdfrwt>
<pdfrwt beam="2">  1       -2 0.40574553E-01 0.11634921E+04</pdfrwt>
<totfact> 0.96115151E+01</totfact>
</mgrwt>
</event>
<event>
12    1  0.2048318E-007  0.2411833E+04  0.7818608E-02  0.8435087E-01
          2   -1    0    0  501    0  0.00000000000E+00  0.00000000000E+00  0.20561752351E+04  0.20561752351E+04  0.00000000000E+00 0.  1.
         -2   -1    0    0    0  501 -0.00000000000E+00 -0.00000000000E+00 -0.70725221509E+03  0.70725221509E+03  0.00000000000E+00 0. -1.
         23    2    1    2    0    0 -0.34425538627E+03 -0.21488369633E+03  0.16767339604E+04  0.17276684776E+04  0.93353203001E+02 0.  0.
        254    2    1    2    0    0  0.34425538627E+03  0.21488369633E+03 -0.32781094039E+03  0.10357589726E+04  0.89479040159E+03 0.  0.
        -24    2    4    4    0    0 -0.11426328575E+03  0.31638264396E+03  0.13633038243E+03  0.37066568441E+03  0.75186438666E+02 0.  0.
         24    2    4    4    0    0  0.45851867201E+03 -0.10149894762E+03 -0.46414132282E+03  0.66509328820E+03  0.79878066476E+02 0.  0.
         13    1    3    3    0    0 -0.28331652245E+03 -0.13232402222E+03  0.12058604551E+04  0.12457436879E+04  0.00000000000E+00 0.  1.
        -13    1    3    3    0    0 -0.60938863813E+02 -0.82559674112E+02  0.47087350532E+03  0.48192478969E+03  0.00000000000E+00 0. -1.
          4    1    6    6  502    0  0.28638649525E+03 -0.10188772870E+03 -0.28571393806E+03  0.41716997534E+03  0.00000000000E+00 0. -1.
          1    1    5    5  503    0 -0.64176880816E+02  0.23358002139E+03  0.66093721669E+02  0.25109097648E+03  0.00000000000E+00 0. -1.
         -2    1    5    5    0  503 -0.50086404932E+02  0.82802622566E+02  0.70236660756E+02  0.11957470793E+03  0.00000000000E+00 0.  1.
         -3    1    6    6    0  502  0.17213217676E+03  0.38878107364E+00 -0.17842738476E+03  0.24792331286E+03  0.00000000000E+00 0.  1.
<mgrwt>
<rscale>  0 0.24118329E+04</rscale>
<asrwt>0</asrwt>
<pdfrwt beam="1">  1        2 0.31633465E+00 0.24118329E+04</pdfrwt>
<pdfrwt beam="2">  1       -2 0.10880803E+00 0.24118329E+04</pdfrwt>
<totfact> 0.37671229E+00</totfact>
</mgrwt>
</event>
<event>
12    1  0.2048318E-007  0.2839496E+04  0.7818608E-02  0.8291110E-01
          2   -1    0    0  501    0  0.00000000000E+00  0.00000000000E+00  0.16533986016E+04  0.16533986016E+04  0.00000000000E+00 0. -1.
         -2   -1    0    0    0  501 -0.00000000000E+00 -0.00000000000E+00 -0.12191162220E+04  0.12191162220E+04  0.00000000000E+00 0.  1.
         23    2    1    2    0    0  0.87174584151E+02 -0.10028812023E+04  0.98789646802E+03  0.14131066762E+04  0.86953623957E+02 0.  0.
        254    2    1    2    0    0 -0.87174584151E+02  0.10028812023E+04 -0.55361408838E+03  0.14594081474E+04  0.90000748197E+03 0.  0.
        -24    2    4    4    0    0 -0.17320665671E+03  0.11402892419E+04 -0.54959782628E+03  0.12800361761E+04  0.78579515900E+02 0.  0.
         24    2    4    4    0    0  0.86032072562E+02 -0.13740803956E+03 -0.40162621002E+01  0.17937197127E+03  0.76653029113E+02 0.  0.
         11    1    3    3    0    0 -0.75280448084E+01 -0.39420278850E+03  0.39683923792E+03  0.55940494338E+03  0.00000000000E+00 0. -1.
        -11    1    3    3    0    0  0.94702628959E+02 -0.60867841384E+03  0.59105723010E+03  0.85370173284E+03  0.00000000000E+00 0.  1.
          2    1    6    6  502    0  0.71360229191E+02 -0.14034218138E+03 -0.18526812579E+02  0.15852902879E+03  0.00000000000E+00 0. -1.
          1    1    5    5  503    0 -0.49016051565E+02  0.28264356617E+03 -0.10025886573E+03  0.30387793432E+03  0.00000000000E+00 0. -1.
         -2    1    5    5    0  503 -0.12419060515E+03  0.85764567574E+03 -0.44933896055E+03  0.97615824178E+03  0.00000000000E+00 0.  1.
         -1    1    6    6    0  502  0.14671843371E+02  0.29341418215E+01  0.14510550479E+02  0.20842942482E+02  0.00000000000E+00 0.  1.
<mgrwt>
<rscale>  0 0.28394965E+04</rscale>
<asrwt>0</asrwt>
<pdfrwt beam="1">  1        2 0.25436902E+00 0.28394965E+04</pdfrwt>
<pdfrwt beam="2">  1       -2 0.18755634E+00 0.28394965E+04</pdfrwt>
<totfact> 0.14539827E+00</totfact>
</mgrwt>
</event>
<event>
12    1  0.2048318E-007  0.1547417E+04  0.7818608E-02  0.8853520E-01
         -2   -1    0    0    0  501 -0.00000000000E+00  0.00000000000E+00  0.10169652770E+04  0.10169652770E+04  0.00000000000E+00 0.  1.
          2   -1    0    0  501    0  0.00000000000E+00 -0.00000000000E+00 -0.58863815593E+03  0.58863815593E+03  0.00000000000E+00 0. -1.
         23    2    1    2    0    0  0.25524522667E+03  0.43391546418E+03  0.62104052637E+02  0.51203847211E+03  0.69955184074E+02 0.  0.
        254    2    1    2    0    0 -0.25524522667E+03 -0.43391546418E+03  0.36622306840E+03  0.10935649608E+04  0.89907298470E+03 0.  0.
        -24    2    4    4    0    0 -0.26700285062E+03 -0.68000676351E+03  0.13661641747E+03  0.74755484973E+03  0.80464198064E+02 0.  0.
         24    2    4    4    0    0  0.11757623951E+02  0.24609129933E+03  0.22960665093E+03  0.34601011105E+03  0.79401596171E+02 0.  0.
         11    1    3    3    0    0  0.14176830278E+03  0.21187400487E+03  0.63329245027E+02  0.26267744267E+03  0.00000000000E+00 0. -1.
        -11    1    3    3    0    0  0.11347692388E+03  0.22204145931E+03 -0.12251923899E+01  0.24936102944E+03  0.00000000000E+00 0.  1.
          2    1    6    6  502    0 -0.19193123373E+02  0.19703568189E+02  0.10509326737E+02  0.29445755766E+02  0.00000000000E+00 0. -1.
          1    1    5    5  503    0 -0.10456347420E+02 -0.14578858864E+02  0.16433719407E+02  0.24329929319E+02  0.00000000000E+00 0. -1.
         -2    1    5    5    0  503 -0.25654650320E+03 -0.66542790465E+03  0.12018269807E+03  0.72322492041E+03  0.00000000000E+00 0.  1.
         -1    1    6    6    0  502  0.30950747324E+02  0.22638773114E+03  0.21909732419E+03  0.31656435529E+03  0.00000000000E+00 0.  1.
<mgrwt>
<rscale>  0 0.15474166E+04</rscale>
<asrwt>0</asrwt>
<pdfrwt beam="1">  1        2 0.90559716E-01 0.15474166E+04</pdfrwt>
<pdfrwt beam="2">  1       -2 0.15645620E+00 0.15474166E+04</pdfrwt>
<totfact> 0.13069958E+01</totfact>
</mgrwt>
</event>
<event>
12    1  0.2048318E-007  0.2012220E+04  0.7818608E-02  0.8600929E-01
          2   -1    0    0  501    0  0.00000000000E+00  0.00000000000E+00  0.10728089901E+04  0.10728089901E+04  0.00000000000E+00 0. -1.
         -2   -1    0    0    0  501 -0.00000000000E+00 -0.00000000000E+00 -0.94355788217E+03  0.94355788217E+03  0.00000000000E+00 0.  1.
         23    2    1    2    0    0 -0.66512782124E+03  0.44412809575E+03 -0.14292722966E+01  0.80494698357E+03  0.91064919198E+02 0.  0.
        254    2    1    2    0    0  0.66512782124E+03 -0.44412809575E+03  0.13068038022E+03  0.12114198887E+04  0.90045321975E+03 0.  0.
        -24    2    4    4    0    0  0.77747418847E+03 -0.13836230798E+03 -0.10650994713E+03  0.80059779721E+03  0.77474008957E+02 0.  0.
         24    2    4    4    0    0 -0.11234636723E+03 -0.30576578777E+03  0.23719032735E+03  0.41082209149E+03  0.80006976368E+02 0.  0.
         13    1    3    3    0    0 -0.51527380729E+03  0.29940598992E+03 -0.15467081012E+02  0.59614618499E+03  0.00000000000E+00 0.  1.
        -13    1    3    3    0    0 -0.14985401394E+03  0.14472210583E+03  0.14037808716E+02  0.20880079857E+03  0.00000000000E+00 0. -1.
          2    1    6    6  502    0 -0.63832256225E+02 -0.26138995426E+03  0.20023041765E+03  0.33539750339E+03  0.00000000000E+00 0. -1.
          3    1    5    5  503    0  0.61298721865E+03 -0.82218767709E+02 -0.10128077716E+03  0.62671448987E+03  0.00000000000E+00 0. -1.
         -4    1    5    5    0  503  0.16448696981E+03 -0.56143540273E+02 -0.52291699696E+01  0.17388330734E+03  0.00000000000E+00 0.  1.
         -1    1    6    6    0  502 -0.48514111002E+02 -0.44375833509E+02  0.36959909698E+02  0.75424588105E+02  0.00000000000E+00 0.  1.
<mgrwt>
<rscale>  0 0.20122200E+04</rscale>
<asrwt>0</asrwt>
<pdfrwt beam="1">  1        2 0.16504754E+00 0.20122200E+04</pdfrwt>
<pdfrwt beam="2">  1       -2 0.14516275E+00 0.20122200E+04</pdfrwt>
<totfact> 0.68682632E+00</totfact>
</mgrwt>
</event>
<event>
12    1  0.2048318E-007  0.1722369E+04  0.7818608E-02  0.8748708E-01
         -2   -1    0    0    0  501 -0.00000000000E+00  0.00000000000E+00  0.22813010023E+03  0.22813010023E+03  0.00000000000E+00 0.  1.
          2   -1    0    0  501    0  0.00000000000E+00 -0.00000000000E+00 -0.32509470618E+04  0.32509470618E+04  0.00000000000E+00 0. -1.
         23    2    1    2    0    0 -0.39148321494E+03  0.43871896160E+03 -0.69641785745E+03  0.91460627201E+03  0.75982667587E+02 0.  0.
        254    2    1    2    0    0  0.39148321494E+03 -0.43871896160E+03 -0.23263991041E+04  0.25644708900E+04  0.90478987578E+03 0.  0.
        -24    2    4    4    0    0  0.63193690438E+03 -0.12608586928E+03 -0.16985034177E+04  0.18183125563E+04  0.78133185018E+02 0.  0.
         24    2    4    4    0    0 -0.24045368944E+03 -0.31263309232E+03 -0.62789568634E+03  0.74615833374E+03  0.83317698660E+02 0.  0.
         11    1    3    3    0    0 -0.18888163242E+03  0.26623505989E+03 -0.39969574263E+03  0.51605626133E+03  0.00000000000E+00 0.  1.
        -11    1    3    3    0    0 -0.20260158252E+03  0.17248390170E+03 -0.29672211482E+03  0.39855001067E+03  0.00000000000E+00 0. -1.
          4    1    6    6  502    0 -0.23430714618E+03 -0.26604102284E+03 -0.57399894887E+03  0.67464987800E+03  0.00000000000E+00 0. -1.
          3    1    5    5  503    0  0.57194007119E+03 -0.12695518796E+03 -0.15870587241E+04  0.16917412505E+04  0.00000000000E+00 0. -1.
         -4    1    5    5    0  503  0.59996833188E+02  0.86931868170E+00 -0.11144469361E+03  0.12657130576E+03  0.00000000000E+00 0.  1.
         -3    1    6    6    0  502 -0.61465432634E+01 -0.46592069482E+02 -0.53896737471E+02  0.71508455743E+02  0.00000000000E+00 0.  1.
<mgrwt>
<rscale>  0 0.17223692E+04</rscale>
<asrwt>0</asrwt>
<pdfrwt beam="1">  1        2 0.50014569E+00 0.17223692E+04</pdfrwt>
<pdfrwt beam="2">  1       -2 0.35096940E-01 0.17223692E+04</pdfrwt>
<totfact> 0.87502211E+00</totfact>
</mgrwt>
</event>
<event>
12    1  0.2048318E-007  0.1605894E+04  0.7818608E-02  0.8816935E-01
         -2   -1    0    0    0  501 -0.00000000000E+00  0.00000000000E+00  0.31705663399E+03  0.31705663399E+03  0.00000000000E+00 0.  1.
          2   -1    0    0  501    0  0.00000000000E+00 -0.00000000000E+00 -0.20334656795E+04  0.20334656795E+04  0.00000000000E+00 0. -1.
         23    2    1    2    0    0  0.13791330525E+03  0.52151027050E+03 -0.46589647885E+03  0.71859857660E+03  0.91276192329E+02 0.  0.
        254    2    1    2    0    0 -0.13791330525E+03 -0.52151027050E+03 -0.12505125667E+04  0.16319237369E+04  0.89911087284E+03 0.  0.
        -24    2    4    4    0    0  0.16070195578E+03 -0.23672310449E+03  0.15988202448E+02  0.29749667826E+03  0.79910601077E+02 0.  0.
         24    2    4    4    0    0 -0.29861526103E+03 -0.28478716600E+03 -0.12665007691E+04  0.13344270586E+04  0.79978575956E+02 0.  0.
         13    1    3    3    0    0  0.85876798215E+02  0.44738753359E+03 -0.40413382236E+03  0.60897830508E+03  0.00000000000E+00 0. -1.
        -13    1    3    3    0    0  0.52036507035E+02  0.74122736906E+02 -0.61762656488E+02  0.10962027152E+03  0.00000000000E+00 0.  1.
          2    1    6    6  502    0 -0.24963552677E+03 -0.25048887650E+03 -0.11547068081E+04  0.12076466313E+04  0.00000000000E+00 0. -1.
          3    1    5    5  503    0  0.86545668218E+02 -0.15578429701E+03  0.45298749975E+02  0.18387734127E+03  0.00000000000E+00 0. -1.
         -4    1    5    5    0  503  0.74156287564E+02 -0.80938807483E+02 -0.29310547527E+02  0.11361933699E+03  0.00000000000E+00 0.  1.
         -1    1    6    6    0  502 -0.48979734258E+02 -0.34298289501E+02 -0.11179396106E+03  0.12678042735E+03  0.00000000000E+00 0.  1.
<mgrwt>
<rscale>  0 0.16058939E+04</rscale>
<asrwt>0</asrwt>
<pdfrwt beam="1">  1        2 0.31284088E+00 0.16058939E+04</pdfrwt>
<pdfrwt beam="2">  1       -2 0.48777943E-01 0.16058939E+04</pdfrwt>
<totfact> 0.24424107E+01</totfact>
</mgrwt>
</event>
<event>
12    1  0.2048318E-007  0.1374381E+04  0.7818608E-02  0.8972574E-01
          1   -1    0    0  501    0  0.00000000000E+00  0.00000000000E+00  0.20444629639E+04  0.20444629639E+04  0.00000000000E+00 0. -1.
         -1   -1    0    0    0  501 -0.00000000000E+00 -0.00000000000E+00 -0.23098036706E+03  0.23098036706E+03  0.00000000000E+00 0.  1.
         23    2    1    2    0    0  0.32913931498E+03 -0.19696403807E+03  0.43791795021E+03  0.58915430251E+03  0.90571187987E+02 0.  0.
        254    2    1    2    0    0 -0.32913931498E+03  0.19696403807E+03  0.13755646466E+04  0.16862890284E+04  0.89680826794E+03 0.  0.
        -24    2    4    4    0    0 -0.34886699033E+03  0.52569014367E+03  0.93551185172E+03  0.11309814094E+04  0.76669548799E+02 0.  0.
         24    2    4    4    0    0  0.19727675348E+02 -0.32872610561E+03  0.44005279488E+03  0.55530761898E+03  0.79183683491E+02 0.  0.
         13    1    3    3    0    0  0.29403120707E+03 -0.18681424365E+03  0.42687299940E+03  0.55097592505E+03  0.00000000000E+00 0. -1.
        -13    1    3    3    0    0  0.35108107905E+02 -0.10149794413E+02  0.11044950812E+02  0.38178377464E+02  0.00000000000E+00 0.  1.
          4    1    6    6  502    0  0.18265662847E+02 -0.23291427052E+03  0.24822809706E+03  0.34088103500E+03  0.00000000000E+00 0. -1.
          1    1    5    5  503    0 -0.28058636399E+02  0.17341095740E+02  0.67775267552E+02  0.75375643080E+02  0.00000000000E+00 0. -1.
         -2    1    5    5    0  503 -0.32080835393E+03  0.50834904793E+03  0.86773658416E+03  0.10556057664E+04  0.00000000000E+00 0.  1.
         -1    1    6    6    0  502  0.14620125006E+01 -0.95811835085E+02  0.19182469783E+03  0.21442658398E+03  0.00000000000E+00 0.  1.
<mgrwt>
<rscale>  0 0.13743810E+04</rscale>
<asrwt>0</asrwt>
<pdfrwt beam="1">  1        1 0.31453275E+00 0.13743810E+04</pdfrwt>
<pdfrwt beam="2">  1       -1 0.35535442E-01 0.13743810E+04</pdfrwt>
<totfact> 0.20531957E+01</totfact>
</mgrwt>
</event>
<event>
12    1  0.2048318E-007  0.3642859E+04  0.7818608E-02  0.8080744E-01
         -1   -1    0    0    0  501 -0.00000000000E+00  0.00000000000E+00  0.68025829631E+03  0.68025829631E+03  0.00000000000E+00 0.  1.
          1   -1    0    0  501    0  0.00000000000E+00 -0.00000000000E+00 -0.48769784008E+04  0.48769784008E+04  0.00000000000E+00 0. -1.
         23    2    1    2    0    0 -0.95713198355E+03  0.15041228044E+02  0.18841694471E+03  0.97979015393E+03  0.90332321000E+02 0.  0.
        254    2    1    2    0    0  0.95713198355E+03 -0.15041228044E+02 -0.43851370492E+04  0.45774465432E+04  0.89847762523E+03 0.  0.
        -24    2    4    4    0    0  0.81155283615E+03 -0.24249443953E+03 -0.19706044790E+04  0.21464982909E+04  0.82166544988E+02 0.  0.
         24    2    4    4    0    0  0.14557914740E+03  0.22745321149E+03 -0.24145325701E+04  0.24309482522E+04  0.81324173621E+02 0.  0.
         13    1    3    3    0    0 -0.72806298426E+03  0.44824279607E+02  0.16269805675E+03  0.74736576237E+03  0.00000000000E+00 0. -1.
        -13    1    3    3    0    0 -0.22906899928E+03 -0.29783051563E+02  0.25718887954E+02  0.23242439156E+03  0.00000000000E+00 0.  1.
          2    1    6    6  502    0 -0.57973060937E+01  0.36358298517E+02 -0.24283696644E+03  0.24561214730E+03  0.00000000000E+00 0. -1.
          3    1    5    5  503    0  0.22121327366E+03 -0.10311958891E+03 -0.59347285505E+03  0.64170007927E+03  0.00000000000E+00 0. -1.
         -4    1    5    5    0  503  0.59033956249E+03 -0.13937485062E+03 -0.13771316240E+04  0.15047982117E+04  0.00000000000E+00 0.  1.
         -1    1    6    6    0  502  0.15137645349E+03  0.19109491297E+03 -0.21716956037E+04  0.21853361049E+04  0.00000000000E+00 0.  1.
<mgrwt>
<rscale>  0 0.36428588E+04</rscale>
<asrwt>0</asrwt>
<pdfrwt beam="1">  1        1 0.75030437E+00 0.36428588E+04</pdfrwt>
<pdfrwt beam="2">  1       -1 0.10465512E+00 0.36428588E+04</pdfrwt>
<totfact> 0.84455409E-03</totfact>
</mgrwt>
</event>
<event>
12    1  0.2048318E-007  0.4230975E+04  0.7818608E-02  0.7959506E-01
          2   -1    0    0  501    0  0.00000000000E+00  0.00000000000E+00  0.22479101394E+04  0.22479101394E+04  0.00000000000E+00 0. -1.
         -2   -1    0    0    0  501 -0.00000000000E+00 -0.00000000000E+00 -0.19908656207E+04  0.19908656207E+04  0.00000000000E+00 0.  1.
         23    2    1    2    0    0  0.19910273186E+04 -0.15395478448E+03 -0.17389927839E+03  0.20066033736E+04  0.91237497167E+02 0.  0.
        254    2    1    2    0    0 -0.19910273186E+04  0.15395478448E+03  0.43094379714E+03  0.22321723865E+04  0.89943824023E+03 0.  0.
        -24    2    4    4    0    0 -0.12431178821E+04  0.47495113493E+03  0.46958384647E+03  0.14133191432E+04  0.77726201386E+02 0.  0.
         24    2    4    4    0    0 -0.74790943651E+03 -0.32099635045E+03 -0.38640049334E+02  0.81885324335E+03  0.81365831298E+02 0.  0.
         11    1    3    3    0    0  0.37548924793E+03 -0.16410327985E+02  0.68699877612E+00  0.37584830204E+03  0.00000000000E+00 0. -1.
        -11    1    3    3    0    0  0.16155380706E+04 -0.13754445649E+03 -0.17458627717E+03  0.16307550716E+04  0.00000000000E+00 0.  1.
          4    1    6    6  502    0 -0.66448008761E+03 -0.25751377687E+03 -0.24365740245E+02  0.71305036387E+03  0.00000000000E+00 0. -1.
          1    1    5    5  503    0 -0.57519799020E+03  0.26130675192E+03  0.22297603092E+03  0.66996436987E+03  0.00000000000E+00 0. -1.
         -2    1    5    5    0  503 -0.66791989187E+03  0.21364438302E+03  0.24660781555E+03  0.74335477333E+03  0.00000000000E+00 0.  1.
         -3    1    6    6    0  502 -0.83429348894E+02 -0.63482573590E+02 -0.14274309088E+02  0.10580287948E+03  0.00000000000E+00 0.  1.
<mgrwt>
<rscale>  0 0.42309748E+04</rscale>
<asrwt>0</asrwt>
<pdfrwt beam="1">  1        2 0.34583233E+00 0.42309748E+04</pdfrwt>
<pdfrwt beam="2">  1       -2 0.30628702E+00 0.42309748E+04</pdfrwt>
<totfact> 0.10927872E-01</totfact>
</mgrwt>
</event>
<event>
12    1  0.2048318E-007  0.1884108E+04  0.7818608E-02  0.8662808E-01
         -1   -1    0    0    0  501 -0.00000000000E+00  0.00000000000E+00  0.69394629846E+03  0.69394629846E+03  0.00000000000E+00 0.  1.
          1   -1    0    0  501    0  0.00000000000E+00 -0.00000000000E+00 -0.12788677302E+04  0.12788677302E+04  0.00000000000E+00 0. -1.
         23    2    1    2    0    0 -0.27563028637E+03 -0.57440085455E+03 -0.58175344507E+03  0.86754416350E+03  0.91035203595E+02 0.  0.
        254    2    1    2    0    0  0.27563028637E+03  0.57440085455E+03 -0.31679866585E+01  0.11052698651E+04  0.90316279938E+03 0.  0.
        -24    2    4    4    0    0  0.53949414915E+02  0.54687067174E+03  0.36709568009E+03  0.66538337006E+03  0.77444947114E+02 0.  0.
         24    2    4    4    0    0  0.22168087146E+03  0.27530182814E+02 -0.37026366675E+03  0.43988649508E+03  0.80651261021E+02 0.  0.
         11    1    3    3    0    0 -0.23237538770E+03 -0.44355089274E+03 -0.40891736494E+03  0.64648985035E+03  0.00000000000E+00 0.  1.
        -11    1    3    3    0    0 -0.43254898671E+02 -0.13084996181E+03 -0.17283608013E+03  0.22105431315E+03  0.00000000000E+00 0. -1.
          4    1    6    6  502    0  0.37318179724E+02  0.31748981018E+02 -0.11478090232E+03  0.12480104115E+03  0.00000000000E+00 0. -1.
          3    1    5    5  503    0  0.38849655372E+01  0.47593265692E+02  0.61526759741E+02  0.77882951027E+02  0.00000000000E+00 0. -1.
         -4    1    5    5    0  503  0.50064449378E+02  0.49927740605E+03  0.30556892035E+03  0.58750041903E+03  0.00000000000E+00 0.  1.
         -3    1    6    6    0  502  0.18436269173E+03 -0.42187982039E+01 -0.25548276443E+03  0.31508545394E+03  0.00000000000E+00 0.  1.
<mgrwt>
<rscale>  0 0.18841078E+04</rscale>
<asrwt>0</asrwt>
<pdfrwt beam="1">  1        1 0.19674888E+00 0.18841078E+04</pdfrwt>
<pdfrwt beam="2">  1       -1 0.10676097E+00 0.18841078E+04</pdfrwt>
<totfact> 0.71866590E+00</totfact>
</mgrwt>
</event>
<event>
12    1  0.2048318E-007  0.1620342E+04  0.7818608E-02  0.8808148E-01
         -2   -1    0    0    0  501 -0.00000000000E+00  0.00000000000E+00  0.27773033967E+03  0.27773033967E+03  0.00000000000E+00 0.  1.
          2   -1    0    0  501    0  0.00000000000E+00 -0.00000000000E+00 -0.23633597769E+04  0.23633597769E+04  0.00000000000E+00 0. -1.
         23    2    1    2    0    0  0.32090715996E+03  0.96266072237E+02 -0.33735655621E+01  0.34730311422E+03  0.91430357240E+02 0.  0.
        254    2    1    2    0    0 -0.32090715996E+03 -0.96266072237E+02 -0.20822558717E+04  0.22937870024E+04  0.90189840618E+03 0.  0.
        -24    2    4    4    0    0 -0.17628877416E+03 -0.14952121291E+03 -0.44541445295E+02  0.24871323684E+03  0.80249665568E+02 0.  0.
         24    2    4    4    0    0 -0.14461838580E+03  0.53255140677E+02 -0.20377144264E+04  0.20450737655E+04  0.79347560660E+02 0.  0.
         13    1    3    3    0    0  0.91832144633E+02  0.76220604076E+00  0.30607335300E+02  0.96801511972E+02  0.00000000000E+00 0.  1.
        -13    1    3    3    0    0  0.22907501533E+03  0.95503866197E+02 -0.33980900862E+02  0.25050160225E+03  0.00000000000E+00 0. -1.
          2    1    6    6  502    0 -0.11835775616E+00 -0.13843885907E+01  0.11764921700E+00  0.13944108673E+01  0.00000000000E+00 0. -1.
          1    1    5    5  503    0 -0.22807258753E+02 -0.65251669845E+02 -0.19629181948E+02  0.71855801808E+02  0.00000000000E+00 0. -1.
         -2    1    5    5    0  503 -0.15348151541E+03 -0.84269543069E+02 -0.24912263346E+02  0.17685743503E+03  0.00000000000E+00 0.  1.
         -1    1    6    6    0  502 -0.14450002805E+03  0.54639529268E+02 -0.20378320756E+04  0.20436793547E+04  0.00000000000E+00 0.  1.
<mgrwt>
<rscale>  0 0.16203416E+04</rscale>
<asrwt>0</asrwt>
<pdfrwt beam="1">  1        2 0.36359381E+00 0.16203416E+04</pdfrwt>
<pdfrwt beam="2">  1       -2 0.42727745E-01 0.16203416E+04</pdfrwt>
<totfact> 0.20771112E+01</totfact>
</mgrwt>
</event>
<event>
12    1  0.2048318E-007  0.1549889E+04  0.7818608E-02  0.8851939E-01
         -2   -1    0    0    0  501 -0.00000000000E+00  0.00000000000E+00  0.24398040412E+03  0.24398040412E+03  0.00000000000E+00 0.  1.
          2   -1    0    0  501    0  0.00000000000E+00 -0.00000000000E+00 -0.24614222104E+04  0.24614222104E+04  0.00000000000E+00 0. -1.
         23    2    1    2    0    0 -0.93441848481E+02 -0.61577179970E+02  0.12685675347E+03  0.19229110550E+03  0.91433610961E+02 0.  0.
        254    2    1    2    0    0  0.93441848481E+02  0.61577179970E+02 -0.23442985598E+04  0.25131115090E+04  0.89859367423E+03 0.  0.
        -24    2    4    4    0    0  0.15579787541E+03  0.28745485919E+03 -0.29097535515E+03  0.44483797574E+03  0.79441131000E+02 0.  0.
         24    2    4    4    0    0 -0.62356026933E+02 -0.22587767922E+03 -0.20533232046E+04  0.20682735333E+04  0.81915968229E+02 0.  0.
         11    1    3    3    0    0  0.91262006109E+01  0.94598214966E+01 -0.15705919595E+01  0.13237919755E+02  0.00000000000E+00 0. -1.
        -11    1    3    3    0    0 -0.10256804909E+03 -0.71037001467E+02  0.12842734543E+03  0.17905318574E+03  0.00000000000E+00 0.  1.
          2    1    6    6  502    0 -0.22228561000E+02 -0.16474421271E+03 -0.16519472236E+04  0.16602904548E+04  0.00000000000E+00 0. -1.
          3    1    5    5  503    0  0.75764476378E+02  0.20833478105E+03 -0.16807900473E+03  0.27819811054E+03  0.00000000000E+00 0. -1.
         -4    1    5    5    0  503  0.80033399036E+02  0.79120078146E+02 -0.12289635042E+03  0.16663986520E+03  0.00000000000E+00 0.  1.
         -1    1    6    6    0  502 -0.40127465933E+02 -0.61133466512E+02 -0.40137598101E+03  0.40798307855E+03  0.00000000000E+00 0.  1.
<mgrwt>
<rscale>  0 0.15498888E+04</rscale>
<asrwt>0</asrwt>
<pdfrwt beam="1">  1        2 0.37868033E+00 0.15498888E+04</pdfrwt>
<pdfrwt beam="2">  1       -2 0.37535447E-01 0.15498888E+04</pdfrwt>
<totfact> 0.23669263E+01</totfact>
</mgrwt>
</event>
<event>
12    1  0.2048318E-007  0.1600634E+04  0.7818608E-02  0.8820158E-01
         -2   -1    0    0    0  501 -0.00000000000E+00  0.00000000000E+00  0.51083239715E+03  0.51083239715E+03  0.00000000000E+00 0. -1.
          2   -1    0    0  501    0  0.00000000000E+00 -0.00000000000E+00 -0.12538509275E+04  0.12538509275E+04  0.00000000000E+00 0.  1.
         23    2    1    2    0    0  0.17596724667E+03  0.51024609852E+03 -0.19605578860E+03  0.58164314637E+03  0.92494997269E+02 0.  0.
        254    2    1    2    0    0 -0.17596724667E+03 -0.51024609852E+03 -0.54696274179E+03  0.11830401783E+04  0.89950001094E+03 0.  0.
        -24    2    4    4    0    0 -0.72572592686E+02 -0.39088434048E+03 -0.78697043138E+03  0.88518145076E+03  0.78526378094E+02 0.  0.
         24    2    4    4    0    0 -0.10339465398E+03 -0.11936175804E+03  0.24000768959E+03  0.29785872757E+03  0.78603096448E+02 0.  0.
         11    1    3    3    0    0  0.12003546344E+03  0.21472011114E+03 -0.72234871174E+02  0.25638080120E+03  0.00000000000E+00 0.  1.
        -11    1    3    3    0    0  0.55931783229E+02  0.29552598738E+03 -0.12382091743E+03  0.32526234517E+03  0.00000000000E+00 0. -1.
          2    1    6    6  502    0 -0.14033008478E+02 -0.49681386371E+02  0.31300672297E+02  0.60372987047E+02  0.00000000000E+00 0. -1.
          1    1    5    5  503    0 -0.83471449563E-01 -0.10603174765E+03 -0.27652373791E+03  0.29615556065E+03  0.00000000000E+00 0. -1.
         -2    1    5    5    0  503 -0.72489121236E+02 -0.28485259284E+03 -0.51044669347E+03  0.58902589011E+03  0.00000000000E+00 0.  1.
         -1    1    6    6    0  502 -0.89361645503E+02 -0.69680371667E+02  0.20870701730E+03  0.23748574052E+03  0.00000000000E+00 0.  1.
<mgrwt>
<rscale>  0 0.16006345E+04</rscale>
<asrwt>0</asrwt>
<pdfrwt beam="1">  1        2 0.19290014E+00 0.16006345E+04</pdfrwt>
<pdfrwt beam="2">  1       -2 0.78589601E-01 0.16006345E+04</pdfrwt>
<totfact> 0.24275248E+01</totfact>
</mgrwt>
</event>
<event>
12    1  0.2048318E-007  0.2232928E+04  0.7818608E-02  0.8504846E-01
          2   -1    0    0  501    0  0.00000000000E+00  0.00000000000E+00  0.17290856005E+04  0.17290856005E+04  0.00000000000E+00 0. -1.
         -2   -1    0    0    0  501 -0.00000000000E+00 -0.00000000000E+00 -0.72089659719E+03  0.72089659719E+03  0.00000000000E+00 0.  1.
         23    2    1    2    0    0  0.31183256385E+03  0.79955626802E+03  0.82706470773E+03  0.11954654869E+04  0.92584696081E+02 0.  0.
        254    2    1    2    0    0 -0.31183256385E+03 -0.79955626802E+03  0.18112429557E+03  0.12545167108E+04  0.89692608034E+03 0.  0.
        -24    2    4    4    0    0 -0.37688378182E+03 -0.16107794462E+03 -0.24134676798E+03  0.48216817279E+03  0.79059440911E+02 0.  0.
         24    2    4    4    0    0  0.65051217967E+02 -0.63847832340E+03  0.42247106355E+03  0.77234853800E+03  0.78448927374E+02 0.  0.
         13    1    3    3    0    0  0.26069031441E+03  0.58257226499E+03  0.57617143824E+03  0.85983917694E+03  0.00000000000E+00 0. -1.
        -13    1    3    3    0    0  0.51142249443E+02  0.21698400303E+03  0.25089326949E+03  0.33562630994E+03  0.00000000000E+00 0.  1.
          4    1    6    6  502    0  0.64429403462E+02 -0.27562222954E+03  0.16799295189E+03  0.32915101904E+03  0.00000000000E+00 0. -1.
          3    1    5    5  503    0 -0.27971638906E+03 -0.14024222223E+03 -0.14924248244E+03  0.34667341659E+03  0.00000000000E+00 0. -1.
         -4    1    5    5    0  503 -0.97167392754E+02 -0.20835722394E+02 -0.92104285546E+02  0.13549475620E+03  0.00000000000E+00 0.  1.
         -3    1    6    6    0  502  0.62181450477E+00 -0.36285609386E+03  0.25447811166E+03  0.44319751896E+03  0.00000000000E+00 0.  1.
<mgrwt>
<rscale>  0 0.22329281E+04</rscale>
<asrwt>0</asrwt>
<pdfrwt beam="1">  1        2 0.26601317E+00 0.22329281E+04</pdfrwt>
<pdfrwt beam="2">  1       -2 0.11090717E+00 0.22329281E+04</pdfrwt>
<totfact> 0.55475342E+00</totfact>
</mgrwt>
</event>
<event>
12    1  0.2048318E-007  0.1310084E+04  0.7818608E-02  0.9021607E-01
         -1   -1    0    0    0  501 -0.00000000000E+00  0.00000000000E+00  0.12669064235E+04  0.12669064235E+04  0.00000000000E+00 0.  1.
          1   -1    0    0  501    0  0.00000000000E+00 -0.00000000000E+00 -0.33868321494E+03  0.33868321494E+03  0.00000000000E+00 0. -1.
         23    2    1    2    0    0 -0.13166730173E+03 -0.26859063407E+03  0.45089817925E+03  0.54887612699E+03  0.92079463900E+02 0.  0.
        254    2    1    2    0    0  0.13166730173E+03  0.26859063407E+03  0.47732502929E+03  0.10567135114E+04  0.89405092393E+03 0.  0.
        -24    2    4    4    0    0  0.24590542607E+03 -0.20310480877E+03 -0.53650720328E+02  0.33319577780E+03  0.80124806577E+02 0.  0.
         24    2    4    4    0    0 -0.11423812434E+03  0.47169544285E+03  0.53097574962E+03  0.72351773363E+03  0.77432062738E+02 0.  0.
         13    1    3    3    0    0 -0.74936446390E+02 -0.92239466048E+02  0.11552278319E+03  0.16573805698E+03  0.00000000000E+00 0. -1.
        -13    1    3    3    0    0 -0.56730855341E+02 -0.17635116803E+03  0.33537539606E+03  0.38313807002E+03  0.00000000000E+00 0.  1.
          4    1    6    6  502    0 -0.61484736575E+02  0.26104949687E+03  0.34934932244E+03  0.44042270802E+03  0.00000000000E+00 0. -1.
          3    1    5    5  503    0  0.15882276659E+03 -0.16477070514E+03 -0.11533889189E+02  0.22914424946E+03  0.00000000000E+00 0. -1.
         -4    1    5    5    0  503  0.87082659480E+02 -0.38334103632E+02 -0.42116831139E+02  0.10405152833E+03  0.00000000000E+00 0.  1.
         -3    1    6    6    0  502 -0.52753387768E+02  0.21064594598E+03  0.18162642717E+03  0.28309502561E+03  0.00000000000E+00 0.  1.
<mgrwt>
<rscale>  0 0.13100839E+04</rscale>
<asrwt>0</asrwt>
<pdfrwt beam="1">  1        1 0.52105111E-01 0.13100839E+04</pdfrwt>
<pdfrwt beam="2">  1       -1 0.19490868E+00 0.13100839E+04</pdfrwt>
<totfact> 0.11987015E+01</totfact>
</mgrwt>
</event>
<event>
12    1  0.2048318E-007  0.3009452E+04  0.7818608E-02  0.8241037E-01
         -1   -1    0    0    0  501 -0.00000000000E+00  0.00000000000E+00  0.21093297895E+04  0.21093297895E+04  0.00000000000E+00 0.  1.
          1   -1    0    0  501    0  0.00000000000E+00 -0.00000000000E+00 -0.10734218169E+04  0.10734218169E+04  0.00000000000E+00 0. -1.
         23    2    1    2    0    0  0.71969657623E+03 -0.48813404765E+03 -0.64579674067E+03  0.10870939582E+04  0.92096870076E+02 0.  0.
        254    2    1    2    0    0 -0.71969657623E+03  0.48813404765E+03  0.16817047133E+04  0.20956576482E+04  0.89856119732E+03 0.  0.
        -24    2    4    4    0    0 -0.29204308410E+03 -0.13425508021E+03  0.10743272052E+03  0.34792082200E+03  0.78698916182E+02 0.  0.
         24    2    4    4    0    0 -0.42765349214E+03  0.62238912786E+03  0.15742719928E+04  0.17477368262E+04  0.77433652562E+02 0.  0.
         11    1    3    3    0    0  0.32109849333E+02 -0.45687683279E+02 -0.54693804412E+02  0.78165331629E+02  0.00000000000E+00 0. -1.
        -11    1    3    3    0    0  0.68758672690E+03 -0.44244636437E+03 -0.59110293626E+03  0.10089286266E+04  0.00000000000E+00 0.  1.
          2    1    6    6  502    0 -0.15704343350E+03  0.27931908846E+03  0.72470461366E+03  0.79238789127E+03  0.00000000000E+00 0. -1.
          1    1    5    5  503    0 -0.10107501975E+03 -0.85571762651E+01  0.44683945214E+02  0.11084240994E+03  0.00000000000E+00 0. -1.
         -2    1    5    5    0  503 -0.19096806435E+03 -0.12569790395E+03  0.62748775311E+02  0.23707841205E+03  0.00000000000E+00 0.  1.
         -1    1    6    6    0  502 -0.27061005864E+03  0.34307003940E+03  0.84956737910E+03  0.95534893489E+03  0.00000000000E+00 0.  1.
<mgrwt>
<rscale>  0 0.30094522E+04</rscale>
<asrwt>0</asrwt>
<pdfrwt beam="1">  1        1 0.16514182E+00 0.30094522E+04</pdfrwt>
<pdfrwt beam="2">  1       -1 0.32451227E+00 0.30094522E+04</pdfrwt>
<totfact> 0.25820819E-01</totfact>
</mgrwt>
</event>
<event>
12    1  0.2048318E-007  0.1336228E+04  0.7818608E-02  0.9001319E-01
         -1   -1    0    0    0  501 -0.00000000000E+00  0.00000000000E+00  0.15758132633E+04  0.15758132633E+04  0.00000000000E+00 0.  1.
          1   -1    0    0  501    0  0.00000000000E+00 -0.00000000000E+00 -0.28326738951E+03  0.28326738951E+03  0.00000000000E+00 0. -1.
         23    2    1    2    0    0  0.22333129943E+03 -0.26220905239E+03  0.30120001149E+03  0.46645537840E+03  0.90712274039E+02 0.  0.
        254    2    1    2    0    0 -0.22333129943E+03  0.26220905239E+03  0.99134586228E+03  0.13926252744E+04  0.91542781240E+03 0.  0.
        -24    2    4    4    0    0 -0.91030547532E+02  0.47206845952E+03  0.10207396653E+04  0.11305383580E+04  0.71220246674E+02 0.  0.
         24    2    4    4    0    0 -0.13230075190E+03 -0.20985940713E+03 -0.29393803028E+02  0.26208691637E+03  0.79253368146E+02 0.  0.
         11    1    3    3    0    0  0.90855644982E+02 -0.67218333939E+02  0.55335403379E+02  0.12583743286E+03  0.00000000000E+00 0. -1.
        -11    1    3    3    0    0  0.13247565445E+03 -0.19499071845E+03  0.24586460811E+03  0.34061794554E+03  0.00000000000E+00 0.  1.
          2    1    6    6  502    0  0.23810983873E+01 -0.30280764526E+02  0.14022397443E+02  0.33454774844E+02  0.00000000000E+00 0. -1.
          1    1    5    5  503    0 -0.36094731541E+02  0.92064722642E+02  0.26517487287E+03  0.28301317284E+03  0.00000000000E+00 0. -1.
         -2    1    5    5    0  503 -0.54935815992E+02  0.38000373688E+03  0.75556479244E+03  0.84752518517E+03  0.00000000000E+00 0.  1.
         -1    1    6    6    0  502 -0.13468185028E+03 -0.17957864261E+03 -0.43416200471E+02  0.22863214153E+03  0.00000000000E+00 0.  1.
<mgrwt>
<rscale>  0 0.13362283E+04</rscale>
<asrwt>0</asrwt>
<pdfrwt beam="1">  1        1 0.43579599E-01 0.13362283E+04</pdfrwt>
<pdfrwt beam="2">  1       -1 0.24243281E+00 0.13362283E+04</pdfrwt>
<totfact> 0.72432726E+00</totfact>
</mgrwt>
</event>
<event>
12    1  0.2048318E-007  0.1961510E+04  0.7818608E-02  0.8624830E-01
         -2   -1    0    0    0  501 -0.00000000000E+00  0.00000000000E+00  0.10913351711E+04  0.10913351711E+04  0.00000000000E+00 0.  1.
          2   -1    0    0  501    0  0.00000000000E+00 -0.00000000000E+00 -0.88137931605E+03  0.88137931605E+03  0.00000000000E+00 0. -1.
         23    2    1    2    0    0 -0.74887095071E+03  0.10454752122E+03  0.24061618711E+03  0.79831265090E+03  0.87573135582E+02 0.  0.
        254    2    1    2    0    0  0.74887095071E+03 -0.10454752122E+03 -0.30660332017E+02  0.11744018363E+04  0.89807668499E+03 0.  0.
        -24    2    4    4    0    0  0.22594309289E+02 -0.32466436033E+03  0.18312064692E+03  0.38197265643E+03  0.80327387894E+02 0.  0.
         24    2    4    4    0    0  0.72627664142E+03  0.22011683911E+03 -0.21378097894E+03  0.79242917987E+03  0.79451339974E+02 0.  0.
         13    1    3    3    0    0 -0.69929629795E+03  0.11873707028E+03  0.21842224160E+03  0.74217388785E+03  0.00000000000E+00 0. -1.
        -13    1    3    3    0    0 -0.49574652758E+02 -0.14189549064E+02  0.22193945513E+02  0.56138763044E+02  0.00000000000E+00 0.  1.
          2    1    6    6  502    0  0.45293274454E+03  0.14954962021E+03 -0.96050612848E+02  0.48655819817E+03  0.00000000000E+00 0. -1.
          1    1    5    5  503    0  0.30343837884E+02 -0.28748624857E+03  0.18621777903E+03  0.34386938340E+03  0.00000000000E+00 0. -1.
         -2    1    5    5    0  503 -0.77495285944E+01 -0.37178111767E+02 -0.30971321118E+01  0.38103273026E+02  0.00000000000E+00 0.  1.
         -1    1    6    6    0  502  0.27334389688E+03  0.70567218898E+02 -0.11773036609E+03  0.30587098170E+03  0.00000000000E+00 0.  1.
<mgrwt>
<rscale>  0 0.19615099E+04</rscale>
<asrwt>0</asrwt>
<pdfrwt beam="1">  1        2 0.13559682E+00 0.19615099E+04</pdfrwt>
<pdfrwt beam="2">  1       -2 0.16789772E+00 0.19615099E+04</pdfrwt>
<totfact> 0.62057568E+00</totfact>
</mgrwt>
</event>
<event>
12    1  0.2048318E-007  0.1659728E+04  0.7818608E-02  0.8784672E-01
         -1   -1    0    0    0  501 -0.00000000000E+00  0.00000000000E+00  0.40899118812E+03  0.40899118812E+03  0.00000000000E+00 0.  1.
          1   -1    0    0  501    0  0.00000000000E+00 -0.00000000000E+00 -0.16838368128E+04  0.16838368128E+04  0.00000000000E+00 0. -1.
         23    2    1    2    0    0 -0.21359437429E+03 -0.32269292107E+03 -0.99833723060E+03  0.10750272667E+04  0.96193139607E+02 0.  0.
        254    2    1    2    0    0  0.21359437429E+03  0.32269292107E+03 -0.27650839410E+03  0.10178007342E+04  0.89983785460E+03 0.  0.
        -24    2    4    4    0    0  0.18986805011E+03 -0.70468356214E+02  0.26527263746E+03  0.34331647469E+03  0.80504434241E+02 0.  0.
         24    2    4    4    0    0  0.23726324176E+02  0.39316127729E+03 -0.54178103156E+03  0.67448425955E+03  0.79142920139E+02 0.  0.
         13    1    3    3    0    0 -0.19853403078E+03 -0.32659783772E+03 -0.97189293483E+03  0.10443456256E+04  0.00000000000E+00 0. -1.
        -13    1    3    3    0    0 -0.15060343506E+02  0.39049166441E+01 -0.26444295762E+02  0.30681641072E+02  0.00000000000E+00 0.  1.
          4    1    6    6  502    0 -0.72678061710E+01  0.25347350931E+03 -0.39588134770E+03  0.47013155859E+03  0.00000000000E+00 0. -1.
          3    1    5    5  503    0  0.14468692419E+03 -0.14645571970E+02  0.16439871111E+03  0.21948971508E+03  0.00000000000E+00 0. -1.
         -4    1    5    5    0  503  0.45181125916E+02 -0.55822784244E+02  0.10087392635E+03  0.12382675962E+03  0.00000000000E+00 0.  1.
         -3    1    6    6    0  502  0.30994130347E+02  0.13968776798E+03 -0.14589968385E+03  0.20435270095E+03  0.00000000000E+00 0.  1.
<mgrwt>
<rscale>  0 0.16597282E+04</rscale>
<asrwt>0</asrwt>
<pdfrwt beam="1">  1        1 0.25905182E+00 0.16597282E+04</pdfrwt>
<pdfrwt beam="2">  1       -1 0.62921722E-01 0.16597282E+04</pdfrwt>
<totfact> 0.11957999E+01</totfact>
</mgrwt>
</event>
<event>
12    1  0.2048318E-007  0.1571604E+04  0.7818608E-02  0.8838185E-01
          1   -1    0    0  501    0  0.00000000000E+00  0.00000000000E+00  0.10676479378E+04  0.10676479378E+04  0.00000000000E+00 0. -1.
         -1   -1    0    0    0  501 -0.00000000000E+00 -0.00000000000E+00 -0.57835960892E+03  0.57835960892E+03  0.00000000000E+00 0.  1.
         23    2    1    2    0    0 -0.24813724367E+01  0.50141994100E+03  0.32175405963E+03  0.60225044742E+03  0.88044375682E+02 0.  0.
        254    2    1    2    0    0  0.24813724367E+01 -0.50141994100E+03  0.16753426927E+03  0.10437570993E+04  0.89996279731E+03 0.  0.
        -24    2    4    4    0    0  0.34654170731E+03 -0.85606819931E+02  0.30856203820E+03  0.48032487076E+03  0.89898651405E+02 0.  0.
         24    2    4    4    0    0 -0.34406033488E+03 -0.41581312107E+03 -0.14102776893E+03  0.56343222855E+03  0.79303082369E+02 0.  0.
         13    1    3    3    0    0  0.35781560760E+02  0.10897936730E+03  0.77335509004E+02  0.13833872755E+03  0.00000000000E+00 0.  1.
        -13    1    3    3    0    0 -0.38262933196E+02  0.39244057370E+03  0.24441855063E+03  0.46391171987E+03  0.00000000000E+00 0. -1.
          2    1    6    6  502    0 -0.32506124591E+03 -0.35995490609E+03 -0.11244125706E+03  0.49787085103E+03  0.00000000000E+00 0. -1.
          1    1    5    5  503    0  0.14542946329E+03 -0.81971288711E+02  0.14243483584E+03  0.21944635660E+03  0.00000000000E+00 0. -1.
         -2    1    5    5    0  503  0.20111224403E+03 -0.36355312203E+01  0.16612720236E+03  0.26087851416E+03  0.00000000000E+00 0.  1.
         -1    1    6    6    0  502 -0.18999088966E+02 -0.55858214977E+02 -0.28586511877E+02  0.65561377527E+02  0.00000000000E+00 0.  1.
<mgrwt>
<rscale>  0 0.15716036E+04</rscale>
<asrwt>0</asrwt>
<pdfrwt beam="1">  1        1 0.16425353E+00 0.15716036E+04</pdfrwt>
<pdfrwt beam="2">  1       -1 0.88978401E-01 0.15716036E+04</pdfrwt>
<totfact> 0.15986201E+01</totfact>
</mgrwt>
</event>
<event>
12    1  0.2048318E-007  0.1404007E+04  0.7818608E-02  0.8950923E-01
          2   -1    0    0  501    0  0.00000000000E+00  0.00000000000E+00  0.89020104350E+03  0.89020104350E+03  0.00000000000E+00 0. -1.
         -2   -1    0    0    0  501 -0.00000000000E+00 -0.00000000000E+00 -0.55359266187E+03  0.55359266187E+03  0.00000000000E+00 0.  1.
         23    2    1    2    0    0  0.30286389053E+03 -0.76700579290E+01 -0.15716055101E+03  0.35391249347E+03  0.93644264428E+02 0.  0.
        254    2    1    2    0    0 -0.30286389053E+03  0.76700579290E+01  0.49376893264E+03  0.10898812119E+04  0.92317275266E+03 0.  0.
        -24    2    4    4    0    0  0.21275423621E+03  0.26760664651E+03  0.33440027553E+03  0.48490764960E+03  0.80213478252E+02 0.  0.
         24    2    4    4    0    0 -0.51561812674E+03 -0.25993658858E+03  0.15936865711E+03  0.60497356230E+03  0.84649627963E+02 0.  0.
         11    1    3    3    0    0  0.25519479172E+03  0.29077235039E+02 -0.13018895377E+03  0.28795664778E+03  0.00000000000E+00 0.  1.
        -11    1    3    3    0    0  0.47669098813E+02 -0.36747292968E+02 -0.26971597244E+02  0.65955845685E+02  0.00000000000E+00 0. -1.
          4    1    6    6  502    0 -0.11339000484E+02 -0.10551931429E+02 -0.87835482307E+01  0.17806372690E+02  0.00000000000E+00 0. -1.
          1    1    5    5  503    0  0.43663300928E+01 -0.22804696609E+01 -0.25380448425E+01  0.55413944072E+01  0.00000000000E+00 0. -1.
         -2    1    5    5    0  503  0.20838790612E+03  0.26988711617E+03  0.33693832037E+03  0.47936625520E+03  0.00000000000E+00 0.  1.
         -3    1    6    6    0  502 -0.50427912626E+03 -0.24938465715E+03  0.16815220534E+03  0.58716718962E+03  0.00000000000E+00 0.  1.
<mgrwt>
<rscale>  0 0.14040068E+04</rscale>
<asrwt>0</asrwt>
<pdfrwt beam="1">  1        2 0.13695401E+00 0.14040068E+04</pdfrwt>
<pdfrwt beam="2">  1       -2 0.85168102E-01 0.14040068E+04</pdfrwt>
<totfact> 0.34762259E+01</totfact>
</mgrwt>
</event>
<event>
12    1  0.2048318E-007  0.1789257E+04  0.7818608E-02  0.8712034E-01
          2   -1    0    0  501    0  0.00000000000E+00  0.00000000000E+00  0.46499315146E+03  0.46499315146E+03  0.00000000000E+00 0. -1.
         -2   -1    0    0    0  501 -0.00000000000E+00 -0.00000000000E+00 -0.17212293410E+04  0.17212293410E+04  0.00000000000E+00 0.  1.
         23    2    1    2    0    0  0.13287194641E+03 -0.18228802709E+02 -0.12648965912E+04  0.12751399284E+04  0.89617001664E+02 0.  0.
        254    2    1    2    0    0 -0.13287194641E+03  0.18228802709E+02  0.86604017226E+01  0.91108256408E+03  0.90111552679E+03 0.  0.
        -24    2    4    4    0    0 -0.41568895381E+03 -0.22324900788E+03 -0.14616830137E+03  0.50037666783E+03  0.79838659414E+02 0.  0.
         24    2    4    4    0    0  0.28281700740E+03  0.24147781059E+03  0.15482870309E+03  0.41070589625E+03  0.80065056251E+02 0.  0.
         13    1    3    3    0    0  0.50062012464E+02  0.36075261747E+02 -0.43457793390E+03  0.43893690917E+03  0.00000000000E+00 0.  1.
        -13    1    3    3    0    0  0.82809933945E+02 -0.54304064456E+02 -0.83031865734E+03  0.83620301919E+03  0.00000000000E+00 0. -1.
          2    1    6    6  502    0  0.39261070741E+02  0.77240199423E+02  0.34867343998E+02  0.93398135743E+02  0.00000000000E+00 0. -1.
          1    1    5    5  503    0 -0.12551656353E+03 -0.94568430041E+02 -0.18501657670E+02  0.15824002975E+03  0.00000000000E+00 0. -1.
         -2    1    5    5    0  503 -0.29017239029E+03 -0.12868057784E+03 -0.12766664370E+03  0.34213663807E+03  0.00000000000E+00 0.  1.
         -1    1    6    6    0  502  0.24355593666E+03  0.16423761117E+03  0.11996135909E+03  0.31730776051E+03  0.00000000000E+00 0.  1.
<mgrwt>
<rscale>  0 0.17892567E+04</rscale>
<asrwt>0</asrwt>
<pdfrwt beam="1">  1        2 0.71537408E-01 0.17892567E+04</pdfrwt>
<pdfrwt beam="2">  1       -2 0.26480451E+00 0.17892567E+04</pdfrwt>
<totfact> 0.33013158E+00</totfact>
</mgrwt>
</event>
<event>
12    1  0.2048318E-007  0.2442841E+04  0.7818608E-02  0.8423636E-01
          1   -1    0    0  501    0  0.00000000000E+00  0.00000000000E+00  0.18871918628E+04  0.18871918628E+04  0.00000000000E+00 0. -1.
         -1   -1    0    0    0  501 -0.00000000000E+00 -0.00000000000E+00 -0.79052270447E+03  0.79052270447E+03  0.00000000000E+00 0.  1.
         23    2    1    2    0    0 -0.82583348754E+03 -0.10976540508E+03  0.11808143220E+04  0.14481887142E+04  0.94226830326E+02 0.  0.
        254    2    1    2    0    0  0.82583348754E+03  0.10976540508E+03 -0.84145163731E+02  0.12295258530E+04  0.90033550492E+03 0.  0.
        -24    2    4    4    0    0  0.84664052719E+03  0.37148992825E+03 -0.16680705857E+03  0.94286236783E+03  0.79748986264E+02 0.  0.
         24    2    4    4    0    0 -0.20807039657E+02 -0.26172452317E+03  0.82661894842E+02  0.28666348520E+03  0.80064386361E+02 0.  0.
         13    1    3    3    0    0 -0.82429499058E+03 -0.11244430115E+03  0.11619173563E+04  0.14290409005E+04  0.00000000000E+00 0. -1.
        -13    1    3    3    0    0 -0.15384969583E+01  0.26788960709E+01  0.18896965715E+02  0.19147813721E+02  0.00000000000E+00 0.  1.
          2    1    6    6  502    0  0.12838242312E+02 -0.21563449943E+03  0.76956650262E+02  0.22931503185E+03  0.00000000000E+00 0. -1.
          3    1    5    5  503    0  0.81496797710E+03  0.34672949780E+03 -0.14606376279E+03  0.89762395865E+03  0.00000000000E+00 0. -1.
         -2    1    5    5    0  503  0.31672550095E+02  0.24760430445E+02 -0.20743295787E+02  0.45238409183E+02  0.00000000000E+00 0.  1.
         -1    1    6    6    0  502 -0.33645281970E+02 -0.46090023736E+02  0.57052445800E+01  0.57348453358E+02  0.00000000000E+00 0.  1.
<mgrwt>
<rscale>  0 0.24428410E+04</rscale>
<asrwt>0</asrwt>
<pdfrwt beam="1">  1        1 0.29033721E+00 0.24428410E+04</pdfrwt>
<pdfrwt beam="2">  1       -1 0.12161888E+00 0.24428410E+04</pdfrwt>
<totfact> 0.19007174E+00</totfact>
</mgrwt>
</event>
<event>
12    1  0.2048318E-007  0.2243310E+04  0.7818608E-02  0.8500615E-01
         -2   -1    0    0    0  501 -0.00000000000E+00  0.00000000000E+00  0.16892112486E+04  0.16892112486E+04  0.00000000000E+00 0.  1.
          2   -1    0    0  501    0  0.00000000000E+00 -0.00000000000E+00 -0.74479114225E+03  0.74479114225E+03  0.00000000000E+00 0. -1.
         23    2    1    2    0    0  0.56493438806E+01 -0.90085234669E+03  0.68299690371E+03  0.11341377756E+04  0.90646885815E+02 0.  0.
        254    2    1    2    0    0 -0.56493438806E+01  0.90085234669E+03  0.26142320266E+03  0.12998646153E+04  0.89985502253E+03 0.  0.
        -24    2    4    4    0    0  0.17764509772E+02  0.57709149278E+02 -0.27802527941E+03  0.29557950602E+03  0.80145272265E+02 0.  0.
         24    2    4    4    0    0 -0.23413853653E+02  0.84314319741E+03  0.53944848207E+03  0.10042851093E+04  0.78391683273E+02 0.  0.
         13    1    3    3    0    0 -0.25164039330E+02 -0.56623922742E+03  0.38682631597E+03  0.68621766974E+03  0.00000000000E+00 0. -1.
        -13    1    3    3    0    0  0.30813383210E+02 -0.33461311927E+03  0.29617058774E+03  0.44792010584E+03  0.00000000000E+00 0.  1.
          4    1    6    6  502    0 -0.15354003705E+02  0.50306913033E+03  0.27587532776E+03  0.57395251701E+03  0.00000000000E+00 0. -1.
          1    1    5    5  503    0  0.16085822989E+02 -0.17967594753E+02 -0.80997106747E+02  0.84511061192E+02  0.00000000000E+00 0. -1.
         -2    1    5    5    0  503  0.16786867830E+01  0.75676744031E+02 -0.19702817267E+03  0.21106844483E+03  0.00000000000E+00 0.  1.
         -3    1    6    6    0  502 -0.80598499473E+01  0.34007406708E+03  0.26357315431E+03  0.43033259225E+03  0.00000000000E+00 0.  1.
<mgrwt>
<rscale>  0 0.22433097E+04</rscale>
<asrwt>0</asrwt>
<pdfrwt beam="1">  1        2 0.11458325E+00 0.22433097E+04</pdfrwt>
<pdfrwt beam="2">  1       -2 0.25987865E+00 0.22433097E+04</pdfrwt>
<totfact> 0.19260435E+00</totfact>
</mgrwt>
</event>
<event>
12    1  0.2048318E-007  0.1528807E+04  0.7818608E-02  0.8865520E-01
          1   -1    0    0  501    0  0.00000000000E+00  0.00000000000E+00  0.12836095564E+04  0.12836095564E+04  0.00000000000E+00 0. -1.
         -1   -1    0    0    0  501 -0.00000000000E+00 -0.00000000000E+00 -0.45521040962E+03  0.45521040962E+03  0.00000000000E+00 0.  1.
         23    2    1    2    0    0  0.13847682139E+03  0.43060665802E+03  0.49862978006E+03  0.67916140682E+03  0.89613810059E+02 0.  0.
        254    2    1    2    0    0 -0.13847682139E+03 -0.43060665802E+03  0.32976936676E+03  0.10596585592E+04  0.89973913048E+03 0.  0.
        -24    2    4    4    0    0 -0.21730630993E+03 -0.21789950923E+03  0.61079380225E+03  0.68869825299E+03  0.80833077125E+02 0.  0.
         24    2    4    4    0    0  0.78829488534E+02 -0.21270714880E+03 -0.28102443549E+03  0.37096030624E+03  0.84725415634E+02 0.  0.
         13    1    3    3    0    0  0.10940984353E+03  0.24743251014E+03  0.24526543489E+03  0.36516913135E+03  0.00000000000E+00 0.  1.
        -13    1    3    3    0    0  0.29066977866E+02  0.18317414788E+03  0.25336434516E+03  0.31399227547E+03  0.00000000000E+00 0. -1.
          4    1    6    6  502    0  0.71643661595E+02 -0.21576471971E+03 -0.24555281753E+03  0.33463923069E+03  0.00000000000E+00 0. -1.
          3    1    5    5  503    0 -0.19792521520E+03 -0.18218263142E+03  0.46356139439E+03  0.53596088325E+03  0.00000000000E+00 0. -1.
         -4    1    5    5    0  503 -0.19381094725E+02 -0.35716877803E+02  0.14723240786E+03  0.15273736974E+03  0.00000000000E+00 0.  1.
         -3    1    6    6    0  502  0.71858269389E+01  0.30575709162E+01 -0.35471617962E+02  0.36321075556E+02  0.00000000000E+00 0.  1.
<mgrwt>
<rscale>  0 0.15288066E+04</rscale>
<asrwt>0</asrwt>
<pdfrwt beam="1">  1        1 0.19747839E+00 0.15288066E+04</pdfrwt>
<pdfrwt beam="2">  1       -1 0.70032371E-01 0.15288066E+04</pdfrwt>
<totfact> 0.18488393E+01</totfact>
</mgrwt>
</event>
<event>
12    1  0.2048318E-007  0.1269450E+04  0.7818608E-02  0.9054149E-01
          1   -1    0    0  501    0  0.00000000000E+00  0.00000000000E+00  0.62707157125E+03  0.62707157125E+03  0.00000000000E+00 0. -1.
         -1   -1    0    0    0  501 -0.00000000000E+00 -0.00000000000E+00 -0.64247188435E+03  0.64247188435E+03  0.00000000000E+00 0.  1.
         23    2    1    2    0    0 -0.15214566296E+03  0.15157133289E+03  0.21343209342E+03  0.31605301384E+03  0.90631547167E+02 0.  0.
        254    2    1    2    0    0  0.15214566296E+03 -0.15157133289E+03 -0.22883240652E+03  0.95349044175E+03  0.90036524840E+03 0.  0.
        -24    2    4    4    0    0  0.20920155530E+03 -0.29277458640E+03 -0.50623942396E+03  0.62724689291E+03  0.87624546306E+02 0.  0.
         24    2    4    4    0    0 -0.57055892336E+02  0.14120325351E+03  0.27740701744E+03  0.32624354884E+03  0.79287238491E+02 0.  0.
         13    1    3    3    0    0 -0.19708582004E+02  0.75516539012E+02  0.51741441147E+02  0.93639482062E+02  0.00000000000E+00 0. -1.
        -13    1    3    3    0    0 -0.13243708096E+03  0.76054793882E+02  0.16169065227E+03  0.22241353178E+03  0.00000000000E+00 0.  1.
          2    1    6    6  502    0 -0.68466421931E+02  0.12745366901E+03  0.27110949337E+03  0.30729862686E+03  0.00000000000E+00 0. -1.
          1    1    5    5  503    0  0.18279989869E+03 -0.29021701511E+03 -0.45797428835E+03  0.57217319721E+03  0.00000000000E+00 0. -1.
         -2    1    5    5    0  503  0.26401656610E+02 -0.25575712938E+01 -0.48265135604E+02  0.55073695696E+02  0.00000000000E+00 0.  1.
         -1    1    6    6    0  502  0.11410529595E+02  0.13749584497E+02  0.62975240663E+01  0.18944921981E+02  0.00000000000E+00 0.  1.
<mgrwt>
<rscale>  0 0.12694500E+04</rscale>
<asrwt>0</asrwt>
<pdfrwt beam="1">  1        1 0.96472550E-01 0.12694500E+04</pdfrwt>
<pdfrwt beam="2">  1       -1 0.98841828E-01 0.12694500E+04</pdfrwt>
<totfact> 0.30971519E+01</totfact>
</mgrwt>
</event>
<event>
12    1  0.2048318E-007  0.2152707E+04  0.7818608E-02  0.8538374E-01
         -1   -1    0    0    0  501 -0.00000000000E+00  0.00000000000E+00  0.13368981503E+04  0.13368981503E+04  0.00000000000E+00 0.  1.
          1   -1    0    0  501    0  0.00000000000E+00 -0.00000000000E+00 -0.86658576450E+03  0.86658576450E+03  0.00000000000E+00 0. -1.
         23    2    1    2    0    0 -0.29281869712E+03  0.81154797757E+03  0.39609171061E+03  0.95358641791E+03  0.89919430210E+02 0.  0.
        254    2    1    2    0    0  0.29281869712E+03 -0.81154797757E+03  0.74220675165E+02  0.12498974969E+04  0.90132243662E+03 0.  0.
        -24    2    4    4    0    0  0.31509416644E+03 -0.28599559436E+02  0.28654429729E+03  0.43445506560E+03  0.80878311022E+02 0.  0.
         24    2    4    4    0    0 -0.22275469320E+02 -0.78294841813E+03 -0.21232362213E+03  0.81544243126E+03  0.79753471362E+02 0.  0.
         13    1    3    3    0    0 -0.13825909098E+03  0.35580707287E+03  0.22346761443E+03  0.44232569905E+03  0.00000000000E+00 0. -1.
        -13    1    3    3    0    0 -0.15455960615E+03  0.45574090470E+03  0.17262409618E+03  0.51126071886E+03  0.00000000000E+00 0.  1.
          4    1    6    6  502    0 -0.58476141235E+01 -0.59478167479E+02 -0.38854506053E+02  0.71284778447E+02  0.00000000000E+00 0. -1.
          1    1    5    5  503    0  0.17614529712E+03 -0.52114076633E+02  0.18539905888E+03  0.26099014103E+03  0.00000000000E+00 0. -1.
         -2    1    5    5    0  503  0.13894886932E+03  0.23514517197E+02  0.10114523841E+03  0.17346492458E+03  0.00000000000E+00 0.  1.
         -3    1    6    6    0  502 -0.16427855197E+02 -0.72347025065E+03 -0.17346911607E+03  0.74415765281E+03  0.00000000000E+00 0.  1.
<mgrwt>
<rscale>  0 0.21527070E+04</rscale>
<asrwt>0</asrwt>
<pdfrwt beam="1">  1        1 0.13332089E+00 0.21527070E+04</pdfrwt>
<pdfrwt beam="2">  1       -1 0.20567664E+00 0.21527070E+04</pdfrwt>
<totfact> 0.24426112E+00</totfact>
</mgrwt>
</event>
<event>
12    1  0.2048318E-007  0.2586479E+04  0.7818608E-02  0.8372808E-01
         -2   -1    0    0    0  501 -0.00000000000E+00  0.00000000000E+00  0.65136120114E+03  0.65136120114E+03  0.00000000000E+00 0.  1.
          2   -1    0    0  501    0  0.00000000000E+00 -0.00000000000E+00 -0.25676515822E+04  0.25676515822E+04  0.00000000000E+00 0. -1.
         23    2    1    2    0    0 -0.54635890891E+03  0.33819596259E+01 -0.20809956188E+04  0.21530698362E+04  0.81531951102E+02 0.  0.
        254    2    1    2    0    0  0.54635890891E+03 -0.33819596259E+01  0.16470523777E+03  0.10659429471E+04  0.90032608324E+03 0.  0.
        -24    2    4    4    0    0  0.31155115628E+03 -0.36768275339E+03  0.33620098242E+03  0.59298736919E+03  0.79675525280E+02 0.  0.
         24    2    4    4    0    0  0.23480775264E+03  0.36430079376E+03 -0.17149574465E+03  0.47295557792E+03  0.80165074833E+02 0.  0.
         11    1    3    3    0    0 -0.43032065784E+03 -0.30351317792E+02 -0.16484137107E+04  0.17039262991E+04  0.00000000000E+00 0. -1.
        -11    1    3    3    0    0 -0.11603825107E+03  0.33733277418E+02 -0.43258190809E+03  0.44914353711E+03  0.00000000000E+00 0.  1.
          4    1    6    6  502    0  0.21744533180E+03  0.31208873722E+03 -0.17310665655E+03  0.41790880197E+03  0.00000000000E+00 0. -1.
          3    1    5    5  503    0  0.22012375615E+03 -0.30907484715E+03  0.25098493862E+03  0.45494523690E+03  0.00000000000E+00 0. -1.
         -4    1    5    5    0  503  0.91427400130E+02 -0.58607906232E+02  0.85216043803E+02  0.13804213230E+03  0.00000000000E+00 0.  1.
         -3    1    6    6    0  502  0.17362420833E+02  0.52212056542E+02  0.16109119045E+01  0.55046775952E+02  0.00000000000E+00 0.  1.
<mgrwt>
<rscale>  0 0.25864792E+04</rscale>
<asrwt>0</asrwt>
<pdfrwt beam="1">  1        2 0.39502332E+00 0.25864792E+04</pdfrwt>
<pdfrwt beam="2">  1       -2 0.10020942E+00 0.25864792E+04</pdfrwt>
<totfact> 0.23134056E+00</totfact>
</mgrwt>
</event>
<event>
12    1  0.2048318E-007  0.2235320E+04  0.7818608E-02  0.8503869E-01
          1   -1    0    0  501    0  0.00000000000E+00  0.00000000000E+00  0.29380215708E+04  0.29380215708E+04  0.00000000000E+00 0. -1.
         -1   -1    0    0    0  501 -0.00000000000E+00 -0.00000000000E+00 -0.42517174583E+03  0.42517174583E+03  0.00000000000E+00 0.  1.
         23    2    1    2    0    0  0.44680456057E+03 -0.35040294655E+03  0.21804429117E+04  0.22550555979E+04  0.92346727291E+02 0.  0.
        254    2    1    2    0    0 -0.44680456057E+03  0.35040294655E+03  0.33240691332E+03  0.11081377188E+04  0.89166042162E+03 0.  0.
        -24    2    4    4    0    0 -0.79840289606E+02  0.93178991237E+01 -0.28643749249E+03  0.30788931374E+03  0.79297524062E+02 0.  0.
         24    2    4    4    0    0 -0.36696427096E+03  0.34108504743E+03  0.61884440580E+03  0.80024840505E+03  0.80170602210E+02 0.  0.
         11    1    3    3    0    0  0.18675514563E+03 -0.13720891709E+03  0.71894959586E+03  0.75537559713E+03  0.00000000000E+00 0.  1.
        -11    1    3    3    0    0  0.26004941494E+03 -0.21319402946E+03  0.14614933158E+04  0.14996800008E+04  0.00000000000E+00 0. -1.
          4    1    6    6  502    0 -0.51483538580E+02  0.68635030405E+02  0.68091359951E+02  0.10953426607E+03  0.00000000000E+00 0. -1.
          3    1    5    5  503    0 -0.41851639600E+02 -0.31309608857E+01 -0.39158992315E+02  0.57400255508E+02  0.00000000000E+00 0. -1.
         -4    1    5    5    0  503 -0.37988650006E+02  0.12448860009E+02 -0.24727850017E+03  0.25048905823E+03  0.00000000000E+00 0.  1.
         -3    1    6    6    0  502 -0.31548073238E+03  0.27245001702E+03  0.55075304585E+03  0.69071413898E+03  0.00000000000E+00 0.  1.
<mgrwt>
<rscale>  0 0.22353199E+04</rscale>
<asrwt>0</asrwt>
<pdfrwt beam="1">  1        1 0.45200330E+00 0.22353199E+04</pdfrwt>
<pdfrwt beam="2">  1       -1 0.65411040E-01 0.22353199E+04</pdfrwt>
<totfact> 0.14290008E+00</totfact>
</mgrwt>
</event>
<event>
12    1  0.2048318E-007  0.1905483E+04  0.7818608E-02  0.8652132E-01
          1   -1    0    0  501    0  0.00000000000E+00  0.00000000000E+00  0.11960496506E+04  0.11960496506E+04  0.00000000000E+00 0.  1.
         -1   -1    0    0    0  501 -0.00000000000E+00 -0.00000000000E+00 -0.75892832178E+03  0.75892832178E+03  0.00000000000E+00 0. -1.
         23    2    1    2    0    0 -0.35575093818E+03 -0.21920584533E+03  0.79352200779E+03  0.90157390821E+03  0.92457571276E+02 0.  0.
        254    2    1    2    0    0  0.35575093818E+03  0.21920584533E+03 -0.35640067897E+03  0.10534040642E+04  0.89890419165E+03 0.  0.
        -24    2    4    4    0    0  0.35321754521E+03 -0.51030969824E+02 -0.58649546059E+03  0.69125165893E+03  0.80530345481E+02 0.  0.
         24    2    4    4    0    0  0.25333929698E+01  0.27023681516E+03  0.23009478162E+03  0.36215240523E+03  0.71947214953E+02 0.  0.
         13    1    3    3    0    0 -0.16991875173E+03 -0.15874977625E+03  0.42763941817E+03  0.48677442992E+03  0.00000000000E+00 0.  1.
        -13    1    3    3    0    0 -0.18583218645E+03 -0.60456069080E+02  0.36588258962E+03  0.41479947830E+03  0.00000000000E+00 0. -1.
          2    1    6    6  502    0 -0.86533520056E+01  0.12421196966E+03  0.61636265079E+02  0.13893352037E+03  0.00000000000E+00 0. -1.
          3    1    5    5  503    0  0.28726832749E+03 -0.27212863395E+02 -0.41021460713E+03  0.50153729255E+03  0.00000000000E+00 0. -1.
         -4    1    5    5    0  503  0.65949217717E+02 -0.23818106429E+02 -0.17628085346E+03  0.18971436637E+03  0.00000000000E+00 0.  1.
         -1    1    6    6    0  502  0.11186744975E+02  0.14602484549E+03  0.16845851654E+03  0.22321888487E+03  0.00000000000E+00 0.  1.
<mgrwt>
<rscale>  0 0.19054826E+04</rscale>
<asrwt>0</asrwt>
<pdfrwt beam="1">  1        1 0.18400764E+00 0.19054826E+04</pdfrwt>
<pdfrwt beam="2">  1       -1 0.11675820E+00 0.19054826E+04</pdfrwt>
<totfact> 0.66579469E+00</totfact>
</mgrwt>
</event>
<event>
12    1  0.2048318E-007  0.1932592E+04  0.7818608E-02  0.8638801E-01
         -2   -1    0    0    0  501 -0.00000000000E+00  0.00000000000E+00  0.41215444982E+03  0.41215444982E+03  0.00000000000E+00 0.  1.
          2   -1    0    0  501    0  0.00000000000E+00 -0.00000000000E+00 -0.22654805147E+04  0.22654805147E+04  0.00000000000E+00 0. -1.
         23    2    1    2    0    0  0.69432154597E+03  0.57720228668E+02 -0.11242366862E+04  0.13256918138E+04  0.90203240044E+02 0.  0.
        254    2    1    2    0    0 -0.69432154597E+03 -0.57720228668E+02 -0.72908937866E+03  0.13519431507E+04  0.90042485902E+03 0.  0.
        -24    2    4    4    0    0 -0.51415944542E+03  0.26360855805E+03 -0.77639405906E+03  0.97116932510E+03  0.80825218033E+02 0.  0.
         24    2    4    4    0    0 -0.18016210055E+03 -0.32132878672E+03  0.47304680407E+02  0.38077382563E+03  0.83907102503E+02 0.  0.
         11    1    3    3    0    0  0.28399903677E+03 -0.95623860862E+01 -0.51280752443E+03  0.58627506278E+03  0.00000000000E+00 0. -1.
        -11    1    3    3    0    0  0.41032250920E+03  0.67282614754E+02 -0.61142916181E+03  0.73941675104E+03  0.00000000000E+00 0.  1.
          4    1    6    6  502    0 -0.11405954950E+03 -0.21677147691E+03  0.70556374714E+02  0.25490715182E+03  0.00000000000E+00 0. -1.
          3    1    5    5  503    0 -0.42444655357E+03  0.23818539254E+03 -0.68747141486E+03  0.84232066596E+03  0.00000000000E+00 0. -1.
         -4    1    5    5    0  503 -0.89712891855E+02  0.25423165510E+02 -0.88922644199E+02  0.12884865914E+03  0.00000000000E+00 0.  1.
         -3    1    6    6    0  502 -0.66102551050E+02 -0.10455730981E+03 -0.23251694308E+02  0.12586667382E+03  0.00000000000E+00 0.  1.
<mgrwt>
<rscale>  0 0.19325919E+04</rscale>
<asrwt>0</asrwt>
<pdfrwt beam="1">  1        2 0.34853546E+00 0.19325919E+04</pdfrwt>
<pdfrwt beam="2">  1       -2 0.63408377E-01 0.19325919E+04</pdfrwt>
<totfact> 0.10202315E+01</totfact>
</mgrwt>
</event>
<event>
12    1  0.2048318E-007  0.2216744E+04  0.7818608E-02  0.8511491E-01
          2   -1    0    0  501    0  0.00000000000E+00  0.00000000000E+00  0.88944928168E+03  0.88944928168E+03  0.00000000000E+00 0. -1.
         -2   -1    0    0    0  501 -0.00000000000E+00 -0.00000000000E+00 -0.13811789298E+04  0.13811789298E+04  0.00000000000E+00 0.  1.
         23    2    1    2    0    0 -0.86926504071E+03 -0.21001332880E+03  0.25748288749E+02  0.89934993055E+03  0.91869548499E+02 0.  0.
        254    2    1    2    0    0  0.86926504071E+03  0.21001332880E+03 -0.51747793685E+03  0.13712782809E+04  0.90160601110E+03 0.  0.
        -24    2    4    4    0    0  0.88488886497E+03 -0.10407437846E+03 -0.19877573124E+03  0.91654638370E+03  0.81766145453E+02 0.  0.
         24    2    4    4    0    0 -0.15623824256E+02  0.31408770726E+03 -0.31870220560E+03  0.45473189720E+03  0.79465783414E+02 0.  0.
         13    1    3    3    0    0 -0.24414951650E+03 -0.10060435523E+03 -0.29906796953E+01  0.26408174277E+03  0.00000000000E+00 0.  1.
        -13    1    3    3    0    0 -0.62511552421E+03 -0.10940897356E+03  0.28738968444E+02  0.63526818778E+03  0.00000000000E+00 0. -1.
          4    1    6    6  502    0 -0.36326597263E+02  0.10657841519E+03 -0.82147874815E+02  0.13938024821E+03  0.00000000000E+00 0. -1.
          1    1    5    5  503    0  0.32652269367E+03 -0.28218585502E+02 -0.11234987631E+03  0.34646190664E+03  0.00000000000E+00 0. -1.
         -2    1    5    5    0  503  0.55836617130E+03 -0.75855792961E+02 -0.86425854931E+02  0.57008447706E+03  0.00000000000E+00 0.  1.
         -3    1    6    6    0  502  0.20702773007E+02  0.20750929207E+03 -0.23655433079E+03  0.31535164899E+03  0.00000000000E+00 0.  1.
<mgrwt>
<rscale>  0 0.22167441E+04</rscale>
<asrwt>0</asrwt>
<pdfrwt beam="1">  1        2 0.13683835E+00 0.22167441E+04</pdfrwt>
<pdfrwt beam="2">  1       -2 0.21248907E+00 0.22167441E+04</pdfrwt>
<totfact> 0.30019808E+00</totfact>
</mgrwt>
</event>
<event>
12    1  0.2048318E-007  0.3235577E+04  0.7818608E-02  0.8179484E-01
         -3   -1    0    0    0  501 -0.00000000000E+00  0.00000000000E+00  0.18574121794E+04  0.18574121794E+04  0.00000000000E+00 0.  1.
          3   -1    0    0  501    0  0.00000000000E+00 -0.00000000000E+00 -0.14090783624E+04  0.14090783624E+04  0.00000000000E+00 0. -1.
         23    2    1    2    0    0 -0.11051878824E+04  0.90492401416E+03 -0.22060551829E+03  0.14482299651E+04  0.91517814146E+02 0.  0.
        254    2    1    2    0    0  0.11051878824E+04 -0.90492401416E+03  0.66893933533E+03  0.18182605767E+04  0.90457944011E+03 0.  0.
        -24    2    4    4    0    0  0.10813965744E+04 -0.61904697986E+03  0.81016070735E+03  0.14885233495E+04  0.81875977264E+02 0.  0.
         24    2    4    4    0    0  0.23791307954E+02 -0.28587703430E+03 -0.14122137202E+03  0.32973722720E+03  0.80569584925E+02 0.  0.
         13    1    3    3    0    0 -0.74471239209E+03  0.55595257049E+03 -0.12995999086E+03  0.93838659773E+03  0.00000000000E+00 0.  1.
        -13    1    3    3    0    0 -0.36047549029E+03  0.34897144367E+03 -0.90645527434E+02  0.50984336736E+03  0.00000000000E+00 0. -1.
          2    1    6    6  502    0  0.49515930783E+02 -0.24227212787E+03 -0.11477904445E+03  0.27262032278E+03  0.00000000000E+00 0. -1.
          3    1    5    5  503    0  0.71017879619E+02 -0.47307210831E+02  0.80661375581E+02  0.11742133083E+03  0.00000000000E+00 0. -1.
         -4    1    5    5    0  503  0.10103786948E+04 -0.57173976903E+03  0.72949933177E+03  0.13711020186E+04  0.00000000000E+00 0.  1.
         -1    1    6    6    0  502 -0.25724622828E+02 -0.43604906421E+02 -0.26442327565E+02  0.57116904421E+02  0.00000000000E+00 0.  1.
<mgrwt>
<rscale>  0 0.32355768E+04</rscale>
<asrwt>0</asrwt>
<pdfrwt beam="1">  1        3 0.21678129E+00 0.32355768E+04</pdfrwt>
<pdfrwt beam="2">  1       -3 0.28575572E+00 0.32355768E+04</pdfrwt>
<totfact> 0.11517497E-02</totfact>
</mgrwt>
</event>
<event>
12    1  0.2048318E-007  0.2520797E+04  0.7818608E-02  0.8395614E-01
         -1   -1    0    0    0  501 -0.00000000000E+00  0.00000000000E+00  0.12944245120E+04  0.12944245120E+04  0.00000000000E+00 0.  1.
          1   -1    0    0  501    0  0.00000000000E+00 -0.00000000000E+00 -0.12272667127E+04  0.12272667127E+04  0.00000000000E+00 0. -1.
         23    2    1    2    0    0 -0.54264885716E+03 -0.89511824732E+03  0.35779323355E+03  0.11109937767E+04  0.10289176395E+03 0.  0.
        254    2    1    2    0    0  0.54264885716E+03  0.89511824732E+03 -0.29063543426E+03  0.14106974479E+04  0.89994103974E+03 0.  0.
        -24    2    4    4    0    0 -0.16095546404E+03  0.42012162821E+03  0.10940136255E+03  0.46877625832E+03  0.73305377295E+02 0.  0.
         24    2    4    4    0    0  0.70360432120E+03  0.47499661911E+03 -0.40003679682E+03  0.94192118959E+03  0.80655189585E+02 0.  0.
         11    1    3    3    0    0 -0.24221325206E+03 -0.31816807652E+03  0.10806659552E+03  0.41421802648E+03  0.00000000000E+00 0.  1.
        -11    1    3    3    0    0 -0.30043560511E+03 -0.57695017080E+03  0.24972663802E+03  0.69677575025E+03  0.00000000000E+00 0. -1.
          2    1    6    6  502    0  0.23087853321E+03  0.18914055292E+03 -0.11092360414E+03  0.31840711647E+03  0.00000000000E+00 0. -1.
          1    1    5    5  503    0 -0.15395886209E+03  0.33170127072E+03  0.73024231020E+02  0.37290964392E+03  0.00000000000E+00 0. -1.
         -2    1    5    5    0  503 -0.69966019502E+01  0.88420357489E+02  0.36377131532E+02  0.95866614397E+02  0.00000000000E+00 0.  1.
         -1    1    6    6    0  502  0.47272578799E+03  0.28585606619E+03 -0.28911319267E+03  0.62351407312E+03  0.00000000000E+00 0.  1.
<mgrwt>
<rscale>  0 0.25207968E+04</rscale>
<asrwt>0</asrwt>
<pdfrwt beam="1">  1        1 0.18881026E+00 0.25207968E+04</pdfrwt>
<pdfrwt beam="2">  1       -1 0.19914223E+00 0.25207968E+04</pdfrwt>
<totfact> 0.13810827E+00</totfact>
</mgrwt>
</event>
<event>
12    1  0.2048318E-007  0.1890949E+04  0.7818608E-02  0.8659375E-01
         -1   -1    0    0    0  501 -0.00000000000E+00  0.00000000000E+00  0.33429496900E+03  0.33429496900E+03  0.00000000000E+00 0.  1.
          1   -1    0    0  501    0  0.00000000000E+00 -0.00000000000E+00 -0.26740510594E+04  0.26740510594E+04  0.00000000000E+00 0. -1.
         23    2    1    2    0    0 -0.59730136064E+03 -0.27524412105E+03 -0.13999497291E+04  0.15494319488E+04  0.91388612438E+02 0.  0.
        254    2    1    2    0    0  0.59730136064E+03  0.27524412105E+03 -0.93980636131E+03  0.14589140796E+04  0.90147992389E+03 0.  0.
        -24    2    4    4    0    0  0.74279747309E+03  0.43542150281E+02 -0.40004694850E+03  0.84849335220E+03  0.79116387863E+02 0.  0.
         24    2    4    4    0    0 -0.14549611246E+03  0.23170197077E+03 -0.53975941280E+03  0.61042072736E+03  0.80114409948E+02 0.  0.
         11    1    3    3    0    0 -0.27387598001E+03 -0.17636154633E+03 -0.69500193123E+03  0.76755399280E+03  0.00000000000E+00 0.  1.
        -11    1    3    3    0    0 -0.32342538062E+03 -0.98882574721E+02 -0.70494779786E+03  0.78187795602E+03  0.00000000000E+00 0. -1.
          2    1    6    6  502    0 -0.13009912604E+03  0.23436321584E+03 -0.49358716538E+03  0.56167623180E+03  0.00000000000E+00 0. -1.
          1    1    5    5  503    0  0.68739190908E+03  0.19004802342E+02 -0.36610509999E+03  0.77903899994E+03  0.00000000000E+00 0. -1.
         -2    1    5    5    0  503  0.55405564015E+02  0.24537347939E+02 -0.33941848510E+02  0.69454352261E+02  0.00000000000E+00 0.  1.
         -1    1    6    6    0  502 -0.15396986415E+02 -0.26612450639E+01 -0.46172247418E+02  0.48744495562E+02  0.00000000000E+00 0.  1.
<mgrwt>
<rscale>  0 0.18909488E+04</rscale>
<asrwt>0</asrwt>
<pdfrwt beam="1">  1        1 0.41139247E+00 0.18909488E+04</pdfrwt>
<pdfrwt beam="2">  1       -1 0.51429996E-01 0.18909488E+04</pdfrwt>
<totfact> 0.36498485E+00</totfact>
</mgrwt>
</event>
<event>
12    1  0.2048318E-007  0.1286548E+04  0.7818608E-02  0.9040302E-01
          1   -1    0    0  501    0  0.00000000000E+00  0.00000000000E+00  0.21462495395E+04  0.21462495395E+04  0.00000000000E+00 0. -1.
         -1   -1    0    0    0  501 -0.00000000000E+00 -0.00000000000E+00 -0.19280199663E+03  0.19280199663E+03  0.00000000000E+00 0.  1.
         23    2    1    2    0    0  0.20903123989E+03 -0.16957787467E+02  0.67925845945E+02  0.23847959000E+03  0.90977846160E+02 0.  0.
        254    2    1    2    0    0 -0.20903123989E+03  0.16957787467E+02  0.18855216969E+04  0.21005719461E+04  0.90179199682E+03 0.  0.
        -24    2    4    4    0    0 -0.43926950877E+03 -0.10652659043E+03  0.17226198712E+04  0.17827585505E+04  0.80642501282E+02 0.  0.
         24    2    4    4    0    0  0.23023826888E+03  0.12348437790E+03  0.16290182577E+03  0.31781339566E+03  0.78805441290E+02 0.  0.
         11    1    3    3    0    0  0.14085210160E+03 -0.19921677601E+02  0.88089061727E+02  0.16731966579E+03  0.00000000000E+00 0. -1.
        -11    1    3    3    0    0  0.68179138288E+02  0.29638901334E+01 -0.20163215782E+02  0.71159924207E+02  0.00000000000E+00 0.  1.
          4    1    6    6  502    0  0.20108717780E+03  0.12458311032E+03  0.16523658966E+03  0.28854832353E+03  0.00000000000E+00 0. -1.
          1    1    5    5  503    0 -0.35364375765E+03 -0.11676429166E+03  0.13656759773E+04  0.14155453656E+04  0.00000000000E+00 0. -1.
         -2    1    5    5    0  503 -0.85625751127E+02  0.10237701230E+02  0.35694389389E+03  0.36721318490E+03  0.00000000000E+00 0.  1.
         -3    1    6    6    0  502  0.29151091086E+02 -0.10987324147E+01 -0.23347638832E+01  0.29265072131E+02  0.00000000000E+00 0.  1.
<mgrwt>
<rscale>  0 0.12865476E+04</rscale>
<asrwt>0</asrwt>
<pdfrwt beam="1">  1        1 0.33019222E+00 0.12865476E+04</pdfrwt>
<pdfrwt beam="2">  1       -1 0.29661847E-01 0.12865476E+04</pdfrwt>
<totfact> 0.24318268E+01</totfact>
</mgrwt>
</event>
<event>
12    1  0.2048318E-007  0.1582617E+04  0.7818608E-02  0.8831299E-01
          2   -1    0    0  501    0  0.00000000000E+00  0.00000000000E+00  0.35370707829E+04  0.35370707829E+04  0.00000000000E+00 0. -1.
         -2   -1    0    0    0  501 -0.00000000000E+00 -0.00000000000E+00 -0.17703041124E+03  0.17703041124E+03  0.00000000000E+00 0.  1.
         23    2    1    2    0    0  0.37212700545E+03 -0.30623033389E+03  0.64864303391E+03  0.81350890897E+03  0.93826616428E+02 0.  0.
        254    2    1    2    0    0 -0.37212700545E+03  0.30623033389E+03  0.27113973377E+04  0.29005922851E+04  0.91077140715E+03 0.  0.
        -24    2    4    4    0    0 -0.22131007400E+03  0.62104114389E+03  0.19352291051E+04  0.20458632528E+04  0.75990187446E+02 0.  0.
         24    2    4    4    0    0 -0.15081693144E+03 -0.31481081000E+03  0.77616823261E+03  0.85472903236E+03  0.79202276115E+02 0.  0.
         11    1    3    3    0    0  0.10534963136E+03 -0.43598019005E+02  0.11779889982E+03  0.16393874736E+03  0.00000000000E+00 0. -1.
        -11    1    3    3    0    0  0.26677737409E+03 -0.26263231488E+03  0.53084413409E+03  0.64957016160E+03  0.00000000000E+00 0.  1.
          4    1    6    6  502    0 -0.10242790746E+03 -0.26588938310E+03  0.67168633478E+03  0.72962399399E+03  0.00000000000E+00 0. -1.
          3    1    5    5  503    0 -0.19249106746E+03  0.53549237649E+03  0.15801137896E+04  0.16794536267E+04  0.00000000000E+00 0. -1.
         -4    1    5    5    0  503 -0.28819006547E+02  0.85548767400E+02  0.35511531552E+03  0.36640962605E+03  0.00000000000E+00 0.  1.
         -3    1    6    6    0  502 -0.48389023982E+02 -0.48921426899E+02  0.10448189783E+03  0.12510503837E+03  0.00000000000E+00 0.  1.
<mgrwt>
<rscale>  0 0.15826169E+04</rscale>
<asrwt>0</asrwt>
<pdfrwt beam="1">  1        2 0.54416468E+00 0.15826169E+04</pdfrwt>
<pdfrwt beam="2">  1       -2 0.27235451E-01 0.15826169E+04</pdfrwt>
<totfact> 0.91340440E+00</totfact>
</mgrwt>
</event>
<event>
12    1  0.2048318E-007  0.2087625E+04  0.7818608E-02  0.8566714E-01
          2   -1    0    0  501    0  0.00000000000E+00  0.00000000000E+00  0.16138809153E+04  0.16138809153E+04  0.00000000000E+00 0.  1.
         -2   -1    0    0    0  501 -0.00000000000E+00 -0.00000000000E+00 -0.67510821647E+03  0.67510821647E+03  0.00000000000E+00 0. -1.
         23    2    1    2    0    0 -0.64606412703E+03 -0.54632429177E+03  0.38264087370E+03  0.93288371549E+03  0.89380648903E+02 0.  0.
        254    2    1    2    0    0  0.64606412703E+03  0.54632429177E+03  0.55613182514E+03  0.13561054163E+04  0.90214755176E+03 0.  0.
        -24    2    4    4    0    0  0.35564793048E+03  0.66201282663E+03  0.52423888430E+02  0.75750863620E+03  0.79527584871E+02 0.  0.
         24    2    4    4    0    0  0.29041619654E+03 -0.11568853486E+03  0.50370793671E+03  0.59859678009E+03  0.82891587725E+02 0.  0.
         13    1    3    3    0    0 -0.31425738490E+03 -0.25788487497E+03  0.23243270086E+03  0.46828119024E+03  0.00000000000E+00 0.  1.
        -13    1    3    3    0    0 -0.33180674212E+03 -0.28843941680E+03  0.15020817284E+03  0.46460252525E+03  0.00000000000E+00 0. -1.
          4    1    6    6  502    0  0.28434783032E+03 -0.93471778172E+02  0.45367709573E+03  0.54351961245E+03  0.00000000000E+00 0. -1.
          3    1    5    5  503    0  0.26697805649E+03  0.47614543118E+03  0.37455820759E+01  0.54589905996E+03  0.00000000000E+00 0. -1.
         -4    1    5    5    0  503  0.88669873988E+02  0.18586739546E+03  0.48678306354E+02  0.21160957624E+03  0.00000000000E+00 0.  1.
         -3    1    6    6    0  502  0.60683662193E+01 -0.22216756689E+02  0.50030840975E+02  0.55077167638E+02  0.00000000000E+00 0.  1.
<mgrwt>
<rscale>  0 0.20876247E+04</rscale>
<asrwt>0</asrwt>
<pdfrwt beam="1">  1        2 0.24828937E+00 0.20876247E+04</pdfrwt>
<pdfrwt beam="2">  1       -2 0.10386280E+00 0.20876247E+04</pdfrwt>
<totfact> 0.76253936E+00</totfact>
</mgrwt>
</event>
<event>
12    1  0.2048318E-007  0.3672675E+04  0.7818608E-02  0.8074044E-01
          1   -1    0    0  501    0  0.00000000000E+00  0.00000000000E+00  0.12616736805E+04  0.12616736805E+04  0.00000000000E+00 0. -1.
         -1   -1    0    0    0  501 -0.00000000000E+00 -0.00000000000E+00 -0.26727476688E+04  0.26727476688E+04  0.00000000000E+00 0.  1.
         23    2    1    2    0    0 -0.14438671959E+04  0.43741833086E+03  0.23144518170E+03  0.15292516528E+04  0.94638627697E+02 0.  0.
        254    2    1    2    0    0  0.14438671959E+04 -0.43741833086E+03 -0.16425191700E+04  0.24051696966E+04  0.90049140480E+03 0.  0.
        -24    2    4    4    0    0  0.14372998060E+04 -0.58788294104E+03 -0.13173182391E+04  0.20379739739E+04  0.81077065243E+02 0.  0.
         24    2    4    4    0    0  0.65673898683E+01  0.15046461019E+03 -0.32520093092E+03  0.36719572271E+03  0.79964515737E+02 0.  0.
         11    1    3    3    0    0 -0.23428622834E+03  0.37194201362E+02  0.24538068149E+02  0.23848597903E+03  0.00000000000E+00 0.  1.
        -11    1    3    3    0    0 -0.12095809675E+04  0.40022412950E+03  0.20690711355E+03  0.12907656737E+04  0.00000000000E+00 0. -1.
          2    1    6    6  502    0 -0.35964996499E+02  0.81388512202E+02 -0.15723030694E+03  0.18066250389E+03  0.00000000000E+00 0. -1.
          3    1    5    5  503    0  0.14327237577E+03 -0.39304989001E+02 -0.14724644104E+03  0.20917306284E+03  0.00000000000E+00 0. -1.
         -4    1    5    5    0  503  0.12940274302E+04 -0.54857795204E+03 -0.11700717980E+04  0.18288009110E+04  0.00000000000E+00 0.  1.
         -1    1    6    6    0  502  0.42532386367E+02  0.69076097984E+02 -0.16797062397E+03  0.18653321881E+03  0.00000000000E+00 0.  1.
<mgrwt>
<rscale>  0 0.36726750E+04</rscale>
<asrwt>0</asrwt>
<pdfrwt beam="1">  1        1 0.19410364E+00 0.36726750E+04</pdfrwt>
<pdfrwt beam="2">  1       -1 0.41119195E+00 0.36726750E+04</pdfrwt>
<totfact> 0.46425480E-02</totfact>
</mgrwt>
</event>
<event>
12    1  0.2048318E-007  0.3404489E+04  0.7818608E-02  0.8136806E-01
          1   -1    0    0  501    0  0.00000000000E+00  0.00000000000E+00  0.13805109160E+04  0.13805109160E+04  0.00000000000E+00 0. -1.
         -1   -1    0    0    0  501 -0.00000000000E+00 -0.00000000000E+00 -0.20989590233E+04  0.20989590233E+04  0.00000000000E+00 0.  1.
         23    2    1    2    0    0  0.62513350780E+03  0.14326583066E+04 -0.86633714487E+02  0.15681975982E+04  0.91850859000E+02 0.  0.
        254    2    1    2    0    0 -0.62513350780E+03 -0.14326583066E+04 -0.63181439280E+03  0.19112723411E+04  0.90026152247E+03 0.  0.
        -24    2    4    4    0    0 -0.46211855033E+03 -0.49759554160E+03  0.12452521043E+03  0.69502955909E+03  0.80029259642E+02 0.  0.
         24    2    4    4    0    0 -0.16301495747E+03 -0.93506276501E+03 -0.75633960323E+03  0.12162427820E+04  0.79250605737E+02 0.  0.
         11    1    3    3    0    0  0.30682206186E+03  0.73899164868E+03 -0.88023421648E+02  0.80498233349E+03  0.00000000000E+00 0. -1.
        -11    1    3    3    0    0  0.31831144594E+03  0.69366665793E+03  0.13897071616E+01  0.76321526467E+03  0.00000000000E+00 0.  1.
          4    1    6    6  502    0 -0.32739233834E+01 -0.13085731215E+03 -0.12980689749E+03  0.18434800068E+03  0.00000000000E+00 0. -1.
          3    1    5    5  503    0 -0.31084202566E+02 -0.70195973136E+02  0.14623997757E+02  0.78150902772E+02  0.00000000000E+00 0. -1.
         -4    1    5    5    0  503 -0.43103434777E+03 -0.42739956847E+03  0.10990121267E+03  0.61687865632E+03  0.00000000000E+00 0.  1.
         -3    1    6    6    0  502 -0.15974103408E+03 -0.80420545285E+03 -0.62653270573E+03  0.10318947813E+04  0.00000000000E+00 0.  1.
<mgrwt>
<rscale>  0 0.34044887E+04</rscale>
<asrwt>0</asrwt>
<pdfrwt beam="1">  1        1 0.21238630E+00 0.34044887E+04</pdfrwt>
<pdfrwt beam="2">  1       -1 0.32291677E+00 0.34044887E+04</pdfrwt>
<totfact> 0.15271434E-01</totfact>
</mgrwt>
</event>
<event>
12    1  0.2048318E-007  0.1758137E+04  0.7818608E-02  0.8728884E-01
         -1   -1    0    0    0  501 -0.00000000000E+00  0.00000000000E+00  0.11352854852E+04  0.11352854852E+04  0.00000000000E+00 0.  1.
          1   -1    0    0  501    0  0.00000000000E+00 -0.00000000000E+00 -0.68067565237E+03  0.68067565237E+03  0.00000000000E+00 0. -1.
         23    2    1    2    0    0  0.61144876725E+03 -0.28928221393E+02 -0.63146325620E+01  0.61901153298E+03  0.91809402636E+02 0.  0.
        254    2    1    2    0    0 -0.61144876725E+03  0.28928221393E+02  0.46092446536E+03  0.11969496046E+04  0.91952735474E+03 0.  0.
        -24    2    4    4    0    0 -0.57738268013E+03 -0.22608299547E+03  0.62295155846E+03  0.88259998979E+03  0.80186143696E+02 0.  0.
         24    2    4    4    0    0 -0.34066087120E+02  0.25501121686E+03 -0.16202709310E+03  0.31434961476E+03  0.79822818688E+02 0.  0.
         11    1    3    3    0    0  0.21158752155E+03 -0.18260179426E+02 -0.45172597405E+02  0.21712502616E+03  0.00000000000E+00 0. -1.
        -11    1    3    3    0    0  0.39986124570E+03 -0.10668041967E+02  0.38857964843E+02  0.40188650682E+03  0.00000000000E+00 0.  1.
          4    1    6    6  502    0  0.41907167410E+01  0.61986375148E+02 -0.45115828929E+01  0.62291469649E+02  0.00000000000E+00 0. -1.
          1    1    5    5  503    0 -0.39635557184E+03 -0.19301792743E+03  0.45288161732E+03  0.63202485627E+03  0.00000000000E+00 0. -1.
         -2    1    5    5    0  503 -0.18102710829E+03 -0.33065068039E+02  0.17006994114E+03  0.25057513352E+03  0.00000000000E+00 0.  1.
         -3    1    6    6    0  502 -0.38256803861E+02  0.19302484172E+03 -0.15751551021E+03  0.25205814511E+03  0.00000000000E+00 0.  1.
<mgrwt>
<rscale>  0 0.17581367E+04</rscale>
<asrwt>0</asrwt>
<pdfrwt beam="1">  1        1 0.10471933E+00 0.17581367E+04</pdfrwt>
<pdfrwt beam="2">  1       -1 0.17465931E+00 0.17581367E+04</pdfrwt>
<totfact> 0.61228665E+00</totfact>
</mgrwt>
</event>
<event>
12    1  0.2048318E-007  0.3825252E+04  0.7818608E-02  0.8040757E-01
         -2   -1    0    0    0  501 -0.00000000000E+00  0.00000000000E+00  0.13349201056E+04  0.13349201056E+04  0.00000000000E+00 0.  1.
          2   -1    0    0  501    0  0.00000000000E+00 -0.00000000000E+00 -0.27403427540E+04  0.27403427540E+04  0.00000000000E+00 0. -1.
         23    2    1    2    0    0 -0.18044534284E+04  0.48167765665E+01 -0.60291049403E+03  0.19044882405E+04  0.86596868940E+02 0.  0.
        254    2    1    2    0    0  0.18044534284E+04 -0.48167765665E+01 -0.80251215439E+03  0.21707746191E+04  0.90119992921E+03 0.  0.
        -24    2    4    4    0    0  0.18704228869E+04 -0.69198506956E+02 -0.82416540182E+03  0.20466889337E+04  0.80104759975E+02 0.  0.
         24    2    4    4    0    0 -0.65969458551E+02  0.64381730389E+02  0.21653247430E+02  0.12408568536E+03  0.80196119094E+02 0.  0.
         13    1    3    3    0    0 -0.15062636610E+04 -0.18327744481E+02 -0.47836292444E+03  0.15805053654E+04  0.00000000000E+00 0.  1.
        -13    1    3    3    0    0 -0.29818976743E+03  0.23144521047E+02 -0.12454756959E+03  0.32398287508E+03  0.00000000000E+00 0. -1.
          4    1    6    6  502    0 -0.33732355109E+02  0.76381120816E+02  0.29939915327E+02  0.88703697376E+02  0.00000000000E+00 0. -1.
          1    1    5    5  503    0  0.17174328805E+04 -0.84131976811E+02 -0.74811731895E+03  0.18751889002E+04  0.00000000000E+00 0. -1.
         -2    1    5    5    0  503  0.15299000639E+03  0.14933469856E+02 -0.76048082868E+02  0.17150003349E+03  0.00000000000E+00 0.  1.
         -3    1    6    6    0  502 -0.32237103441E+02 -0.11999390427E+02 -0.82866678972E+01  0.35381987985E+02  0.00000000000E+00 0.  1.
<mgrwt>
<rscale>  0 0.38252522E+04</rscale>
<asrwt>0</asrwt>
<pdfrwt beam="1">  1        2 0.42159119E+00 0.38252522E+04</pdfrwt>
<pdfrwt beam="2">  1       -2 0.20537232E+00 0.38252522E+04</pdfrwt>
<totfact> 0.24651536E-01</totfact>
</mgrwt>
</event>
<event>
12    1  0.2048318E-007  0.3659340E+04  0.7818608E-02  0.8077033E-01
         -1   -1    0    0    0  501 -0.00000000000E+00  0.00000000000E+00  0.24425983975E+04  0.24425983975E+04  0.00000000000E+00 0.  1.
          1   -1    0    0  501    0  0.00000000000E+00 -0.00000000000E+00 -0.13705456160E+04  0.13705456160E+04  0.00000000000E+00 0. -1.
         23    2    1    2    0    0 -0.15813521518E+04  0.64735801671E+03  0.32231754590E+03  0.17414659340E+04  0.95225885002E+02 0.  0.
        254    2    1    2    0    0  0.15813521518E+04 -0.64735801671E+03  0.74973523559E+03  0.20716780794E+04  0.90000006196E+03 0.  0.
        -24    2    4    4    0    0  0.16756505436E+04 -0.59671319825E+03  0.76182259636E+03  0.19367105625E+04  0.81257304172E+02 0.  0.
         24    2    4    4    0    0 -0.94298391784E+02 -0.50644818457E+02 -0.12087360766E+02  0.13496751691E+03  0.81320612401E+02 0.  0.
         11    1    3    3    0    0 -0.97831268593E+03  0.39035210133E+03  0.15241760045E+03  0.10642845481E+04  0.00000000000E+00 0. -1.
        -11    1    3    3    0    0 -0.60303946588E+03  0.25700591538E+03  0.16989994545E+03  0.67718138590E+03  0.00000000000E+00 0.  1.
          4    1    6    6  502    0 -0.67532046364E+02 -0.20401435728E+02 -0.44304466374E+02  0.83304751404E+02  0.00000000000E+00 0. -1.
          3    1    5    5  503    0  0.15946521681E+04 -0.58419820190E+03  0.73442883150E+03  0.18502942428E+04  0.00000000000E+00 0. -1.
         -4    1    5    5    0  503  0.80998375480E+02 -0.12514996357E+02  0.27393764858E+02  0.86416319739E+02  0.00000000000E+00 0.  1.
         -3    1    6    6    0  502 -0.26766345420E+02 -0.30243382730E+02  0.32217105608E+02  0.51662765507E+02  0.00000000000E+00 0.  1.
<mgrwt>
<rscale>  0 0.36593401E+04</rscale>
<asrwt>0</asrwt>
<pdfrwt beam="1">  1        1 0.21085317E+00 0.36593401E+04</pdfrwt>
<pdfrwt beam="2">  1       -1 0.37578437E+00 0.36593401E+04</pdfrwt>
<totfact> 0.67733798E-02</totfact>
</mgrwt>
</event>
<event>
12    1  0.2048318E-007  0.1593978E+04  0.7818608E-02  0.8824256E-01
          1   -1    0    0  501    0  0.00000000000E+00  0.00000000000E+00  0.28654357448E+04  0.28654357448E+04  0.00000000000E+00 0. -1.
         -1   -1    0    0    0  501 -0.00000000000E+00 -0.00000000000E+00 -0.22167364518E+03  0.22167364518E+03  0.00000000000E+00 0.  1.
         23    2    1    2    0    0 -0.27084228545E+03  0.22686390398E+03  0.16549062795E+04  0.16946937030E+04  0.91919413843E+02 0.  0.
        254    2    1    2    0    0  0.27084228545E+03 -0.22686390398E+03  0.98885582010E+03  0.13924156869E+04  0.91441939926E+03 0.  0.
        -24    2    4    4    0    0  0.32319241709E+03  0.26833886782E+02  0.10586005403E+04  0.11101181145E+04  0.80955100409E+02 0.  0.
         24    2    4    4    0    0 -0.52350131637E+02 -0.25369779077E+03 -0.69744720156E+02  0.28229757247E+03  0.87889067074E+02 0.  0.
         13    1    3    3    0    0 -0.60469363361E+02  0.37350550240E+02  0.52789603748E+03  0.53265920990E+03  0.00000000000E+00 0. -1.
        -13    1    3    3    0    0 -0.21037292209E+03  0.18951335374E+03  0.11270102420E+04  0.11620344931E+04  0.00000000000E+00 0.  1.
          2    1    6    6  502    0 -0.32708803671E+02 -0.12152665263E+03  0.10738299299E+02  0.12630876537E+03  0.00000000000E+00 0. -1.
          3    1    5    5  503    0  0.13669971944E+02  0.54859543792E+01  0.13654535869E+02  0.20085073517E+02  0.00000000000E+00 0. -1.
         -4    1    5    5    0  503  0.30952244514E+03  0.21347932403E+02  0.10449460044E+04  0.10900330409E+04  0.00000000000E+00 0.  1.
         -1    1    6    6    0  502 -0.19641327966E+02 -0.13217113813E+03 -0.80483019455E+02  0.15598880710E+03  0.00000000000E+00 0.  1.
<mgrwt>
<rscale>  0 0.15939782E+04</rscale>
<asrwt>0</asrwt>
<pdfrwt beam="1">  1        1 0.44083624E+00 0.15939782E+04</pdfrwt>
<pdfrwt beam="2">  1       -1 0.34103640E-01 0.15939782E+04</pdfrwt>
<totfact> 0.58625721E+00</totfact>
</mgrwt>
</event>
<event>
12    1  0.2048318E-007  0.2313992E+04  0.7818608E-02  0.8472425E-01
          2   -1    0    0  501    0  0.00000000000E+00  0.00000000000E+00  0.71289721784E+03  0.71289721784E+03  0.00000000000E+00 0. -1.
         -2   -1    0    0    0  501 -0.00000000000E+00 -0.00000000000E+00 -0.18777450594E+04  0.18777450594E+04  0.00000000000E+00 0.  1.
         23    2    1    2    0    0  0.88316872567E+03  0.41884234854E+03 -0.51748250951E+03  0.11097968279E+04  0.91896357816E+02 0.  0.
        254    2    1    2    0    0 -0.88316872567E+03 -0.41884234854E+03 -0.64736533203E+03  0.14808454493E+04  0.90465764839E+03 0.  0.
        -24    2    4    4    0    0 -0.10016401443E+03  0.23848137441E+02 -0.55838306476E+03  0.57313176902E+03  0.78018037662E+02 0.  0.
         24    2    4    4    0    0 -0.78300471124E+03 -0.44269048598E+03 -0.88982267276E+02  0.90771368033E+03  0.83396866572E+02 0.  0.
         11    1    3    3    0    0  0.40114470488E+03  0.18437942917E+03 -0.18258430900E+03  0.47775503979E+03  0.00000000000E+00 0. -1.
        -11    1    3    3    0    0  0.48202402080E+03  0.23446291937E+03 -0.33489820051E+03  0.63204178809E+03  0.00000000000E+00 0.  1.
          4    1    6    6  502    0 -0.45436805771E+03 -0.30333526410E+03 -0.59029532271E+02  0.54949713374E+03  0.00000000000E+00 0. -1.
          3    1    5    5  503    0 -0.69191987856E+02  0.52450511464E+02 -0.39052023477E+03  0.40005579748E+03  0.00000000000E+00 0. -1.
         -2    1    5    5    0  503 -0.30972026572E+02 -0.28602374024E+02 -0.16786282999E+03  0.17307597153E+03  0.00000000000E+00 0.  1.
         -3    1    6    6    0  502 -0.32863665353E+03 -0.13935522189E+03 -0.29952735005E+02  0.35821654658E+03  0.00000000000E+00 0.  1.
<mgrwt>
<rscale>  0 0.23139916E+04</rscale>
<asrwt>0</asrwt>
<pdfrwt beam="1">  1        2 0.10967650E+00 0.23139916E+04</pdfrwt>
<pdfrwt beam="2">  1       -2 0.28888385E+00 0.23139916E+04</pdfrwt>
<totfact> 0.13477610E+00</totfact>
</mgrwt>
</event>
<event>
12    1  0.2048318E-007  0.2431763E+04  0.7818608E-02  0.8427707E-01
         -2   -1    0    0    0  501 -0.00000000000E+00  0.00000000000E+00  0.16680696521E+04  0.16680696521E+04  0.00000000000E+00 0.  1.
          2   -1    0    0  501    0  0.00000000000E+00 -0.00000000000E+00 -0.88627430200E+03  0.88627430200E+03  0.00000000000E+00 0. -1.
         23    2    1    2    0    0 -0.27031954326E+03  0.92492434500E+03 -0.91952847389E+02  0.97272129990E+03  0.95779442991E+02 0.  0.
        254    2    1    2    0    0  0.27031954326E+03 -0.92492434500E+03  0.87374819746E+03  0.15816226542E+04  0.89974252328E+03 0.  0.
        -24    2    4    4    0    0  0.28997002873E+03  0.68518603855E+02  0.30604053302E+03  0.43444136210E+03  0.79379295914E+02 0.  0.
         24    2    4    4    0    0 -0.19650485474E+02 -0.99344294885E+03  0.56770766445E+03  0.11471812921E+04  0.80111737050E+02 0.  0.
         11    1    3    3    0    0 -0.16761167232E+03  0.50577087065E+03 -0.94633921172E+02  0.54115933451E+03  0.00000000000E+00 0. -1.
        -11    1    3    3    0    0 -0.10270787093E+03  0.41915347435E+03  0.26810737826E+01  0.43156196539E+03  0.00000000000E+00 0.  1.
          2    1    6    6  502    0 -0.44206212638E+02 -0.34496164246E+03  0.20703780145E+03  0.40474359196E+03  0.00000000000E+00 0. -1.
          3    1    5    5  503    0  0.28199434166E+03  0.48863861733E+02  0.29278749262E+03  0.40943009361E+03  0.00000000000E+00 0. -1.
         -2    1    5    5    0  503  0.79756870667E+01  0.19654742123E+02  0.13253040393E+02  0.25011268496E+02  0.00000000000E+00 0.  1.
         -1    1    6    6    0  502  0.24555727164E+02 -0.64848130640E+03  0.36066986299E+03  0.74243770012E+03  0.00000000000E+00 0.  1.
<mgrwt>
<rscale>  0 0.24317625E+04</rscale>
<asrwt>0</asrwt>
<pdfrwt beam="1">  1        2 0.13634989E+00 0.24317625E+04</pdfrwt>
<pdfrwt beam="2">  1       -2 0.25662610E+00 0.24317625E+04</pdfrwt>
<totfact> 0.15720470E+00</totfact>
</mgrwt>
</event>
<event>
12    1  0.2280390E-007  0.2755198E+04  0.7818608E-02  0.8317314E-01
         -1   -1    0    0    0  501 -0.00000000000E+00  0.00000000000E+00  0.11075036647E+04  0.11075036647E+04  0.00000000000E+00 0.  1.
          1   -1    0    0  501    0  0.00000000000E+00 -0.00000000000E+00 -0.17135647725E+04  0.17135647725E+04  0.00000000000E+00 0. -1.
         23    2    1    2    0    0  0.80895864008E+03  0.57449070545E+03  0.47148578033E+03  0.11022801389E+04  0.90934105774E+02 0.  0.
        254    2    1    2    0    0 -0.80895864008E+03 -0.57449070545E+03 -0.10775468881E+04  0.17187882982E+04  0.89926206751E+03 0.  0.
        -24    2    4    4    0    0 -0.64639408163E+02 -0.56109791160E+03 -0.61437264059E+03  0.83835011882E+03  0.79800129844E+02 0.  0.
         24    2    4    4    0    0 -0.74431923192E+03 -0.13392793848E+02 -0.46317424751E+03  0.88043817941E+03  0.80315118600E+02 0.  0.
         13    1    3    3    0    0  0.42039850082E+03  0.35394962933E+03  0.25760543672E+03  0.60693970097E+03  0.00000000000E+00 0.  1.
        -13    1    3    3    0    0  0.38856013926E+03  0.22054107612E+03  0.21388034361E+03  0.49534043795E+03  0.00000000000E+00 0. -1.
          4    1    6    6  502    0 -0.70834605308E+03 -0.10670743339E+02 -0.41772885858E+03  0.82241436939E+03  0.00000000000E+00 0. -1.
          1    1    5    5  503    0 -0.25112623021E+02 -0.46121794996E+03 -0.51810750860E+03  0.69410952426E+03  0.00000000000E+00 0. -1.
         -2    1    5    5    0  503 -0.39526785143E+02 -0.99879961641E+02 -0.96265131996E+02  0.14424059456E+03  0.00000000000E+00 0.  1.
         -3    1    6    6    0  502 -0.35973178833E+02 -0.27220505091E+01 -0.45445388936E+02  0.58023810025E+02  0.00000000000E+00 0.  1.
<mgrwt>
<rscale>  0 0.27551982E+04</rscale>
<asrwt>0</asrwt>
<pdfrwt beam="1">  1        1 0.26362535E+00 0.27551982E+04</pdfrwt>
<pdfrwt beam="2">  1       -1 0.17038518E+00 0.27551982E+04</pdfrwt>
<totfact> 0.99120270E-01</totfact>
</mgrwt>
</event>
<event>
12    1  0.2048318E-007  0.2276225E+04  0.7818608E-02  0.8487355E-01
          1   -1    0    0  501    0  0.00000000000E+00  0.00000000000E+00  0.12116564258E+04  0.12116564258E+04  0.00000000000E+00 0. -1.
         -1   -1    0    0    0  501 -0.00000000000E+00 -0.00000000000E+00 -0.10690320316E+04  0.10690320316E+04  0.00000000000E+00 0.  1.
         23    2    1    2    0    0  0.59900274926E+02 -0.55547476559E+03 -0.71875568787E+03  0.91553391539E+03  0.97223213486E+02 0.  0.
        254    2    1    2    0    0 -0.59900274926E+02  0.55547476559E+03  0.86138008202E+03  0.13651545420E+04  0.89973941766E+03 0.  0.
        -24    2    4    4    0    0 -0.38681904574E+03  0.50680461616E+03  0.30203998260E+03  0.70995627101E+03  0.79560433279E+02 0.  0.
         24    2    4    4    0    0  0.32691877082E+03  0.48670149430E+02  0.55934009941E+03  0.65519827099E+03  0.84727571273E+02 0.  0.
         11    1    3    3    0    0  0.40337505323E+02 -0.19534178492E+03 -0.18990514682E+03  0.27540786492E+03  0.00000000000E+00 0. -1.
        -11    1    3    3    0    0  0.19562769603E+02 -0.36013298067E+03 -0.52885054106E+03  0.64012605047E+03  0.00000000000E+00 0.  1.
          2    1    6    6  502    0  0.12026904812E+03  0.45519335618E+02  0.27603441009E+03  0.30451871766E+03  0.00000000000E+00 0. -1.
          3    1    5    5  503    0 -0.14655397436E+03  0.16611380408E+03  0.67291586374E+02  0.23151678320E+03  0.00000000000E+00 0. -1.
         -4    1    5    5    0  503 -0.24026507138E+03  0.34069081208E+03  0.23474839623E+03  0.47843948781E+03  0.00000000000E+00 0.  1.
         -1    1    6    6    0  502  0.20664972270E+03  0.31508138124E+01  0.28330568932E+03  0.35067955332E+03  0.00000000000E+00 0.  1.
<mgrwt>
<rscale>  0 0.22762245E+04</rscale>
<asrwt>0</asrwt>
<pdfrwt beam="1">  1        1 0.18640868E+00 0.22762245E+04</pdfrwt>
<pdfrwt beam="2">  1       -1 0.16446647E+00 0.22762245E+04</pdfrwt>
<totfact> 0.25669185E+00</totfact>
</mgrwt>
</event>
<event>
12    1  0.2048318E-007  0.1901420E+04  0.7818608E-02  0.8654150E-01
         -1   -1    0    0    0  501 -0.00000000000E+00  0.00000000000E+00  0.83130862868E+03  0.83130862868E+03  0.00000000000E+00 0.  1.
          1   -1    0    0  501    0  0.00000000000E+00 -0.00000000000E+00 -0.10872612934E+04  0.10872612934E+04  0.00000000000E+00 0. -1.
         23    2    1    2    0    0 -0.26697720361E+03 -0.33662821330E+03  0.50111722499E+03  0.66652085947E+03  0.92391567262E+02 0.  0.
        254    2    1    2    0    0  0.26697720361E+03  0.33662821330E+03 -0.75706988975E+03  0.12520490627E+04  0.89993147299E+03 0.  0.
        -24    2    4    4    0    0 -0.48238721590E+02  0.57952076595E+03 -0.50391000414E+03  0.77370127915E+03  0.80728462508E+02 0.  0.
         24    2    4    4    0    0  0.31521592520E+03 -0.24289255266E+03 -0.25315988561E+03  0.47834778350E+03  0.79804778440E+02 0.  0.
         13    1    3    3    0    0 -0.14990952922E+03 -0.12830248578E+03  0.18712224580E+03  0.27193589259E+03  0.00000000000E+00 0. -1.
        -13    1    3    3    0    0 -0.11706767439E+03 -0.20832572751E+03  0.31399497919E+03  0.39458496688E+03  0.00000000000E+00 0.  1.
          2    1    6    6  502    0  0.22851805279E+01  0.56605008575E+01 -0.24021749357E+01  0.65600125323E+01  0.00000000000E+00 0. -1.
          1    1    5    5  503    0 -0.22414350305E+02  0.33993875292E+03 -0.34619476998E+03  0.48570729622E+03  0.00000000000E+00 0. -1.
         -2    1    5    5    0  503 -0.25824371285E+02  0.23958201303E+03 -0.15771523416E+03  0.28799398293E+03  0.00000000000E+00 0.  1.
         -1    1    6    6    0  502  0.31293074467E+03 -0.24855305351E+03 -0.25075771067E+03  0.47178777096E+03  0.00000000000E+00 0.  1.
<mgrwt>
<rscale>  0 0.19014202E+04</rscale>
<asrwt>0</asrwt>
<pdfrwt beam="1">  1        1 0.16727097E+00 0.19014202E+04</pdfrwt>
<pdfrwt beam="2">  1       -1 0.12789364E+00 0.19014202E+04</pdfrwt>
<totfact> 0.64095189E+00</totfact>
</mgrwt>
</event>
<event>
12    1  0.2048318E-007  0.1265578E+04  0.7818608E-02  0.9057316E-01
         -2   -1    0    0    0  501 -0.00000000000E+00  0.00000000000E+00  0.58759758896E+03  0.58759758896E+03  0.00000000000E+00 0.  1.
          2   -1    0    0  501    0  0.00000000000E+00 -0.00000000000E+00 -0.68145611121E+03  0.68145611121E+03  0.00000000000E+00 0. -1.
         23    2    1    2    0    0 -0.26152146053E+03 -0.12573196847E+03  0.66318729653E+02  0.31040101936E+03  0.88026227373E+02 0.  0.
        254    2    1    2    0    0  0.26152146053E+03  0.12573196847E+03 -0.16017725190E+03  0.95865268081E+03  0.89953110463E+03 0.  0.
        -24    2    4    4    0    0  0.56568213656E+03  0.90848153972E+01  0.31459658298E+02  0.57222371561E+03  0.79821407633E+02 0.  0.
         24    2    4    4    0    0 -0.30416067602E+03  0.11664715307E+03 -0.19163691020E+03  0.38642896520E+03  0.80513133315E+02 0.  0.
         13    1    3    3    0    0 -0.43317105579E+02 -0.30606782298E+02 -0.20729660405E+02  0.56946163864E+02  0.00000000000E+00 0. -1.
        -13    1    3    3    0    0 -0.21820435495E+03 -0.95125186171E+02  0.87048390058E+02  0.25345485550E+03  0.00000000000E+00 0.  1.
          2    1    6    6  502    0 -0.16142275107E+03  0.23443801140E+02 -0.72808013587E+02  0.17862789037E+03  0.00000000000E+00 0. -1.
          3    1    5    5  503    0  0.45208184045E+02  0.22352020280E+02 -0.23256745551E+01  0.50485656155E+02  0.00000000000E+00 0. -1.
         -4    1    5    5    0  503  0.52047395251E+03 -0.13267204883E+02  0.33785332853E+02  0.52173805946E+03  0.00000000000E+00 0.  1.
         -1    1    6    6    0  502 -0.14273792495E+03  0.93203351931E+02 -0.11882889661E+03  0.20780107483E+03  0.00000000000E+00 0.  1.
<mgrwt>
<rscale>  0 0.12655781E+04</rscale>
<asrwt>0</asrwt>
<pdfrwt beam="1">  1        2 0.10483940E+00 0.12655781E+04</pdfrwt>
<pdfrwt beam="2">  1       -2 0.90399629E-01 0.12655781E+04</pdfrwt>
<totfact> 0.43578230E+01</totfact>
</mgrwt>
</event>
<event>
12    1  0.2048318E-007  0.1505880E+04  0.7818608E-02  0.8880552E-01
         -2   -1    0    0    0  501 -0.00000000000E+00  0.00000000000E+00  0.40311933986E+03  0.40311933986E+03  0.00000000000E+00 0. -1.
          2   -1    0    0  501    0  0.00000000000E+00 -0.00000000000E+00 -0.14063300535E+04  0.14063300535E+04  0.00000000000E+00 0.  1.
         23    2    1    2    0    0  0.13261359331E+03  0.43940343463E+03 -0.14619631914E+03  0.49024511727E+03  0.91132693239E+02 0.  0.
        254    2    1    2    0    0 -0.13261359331E+03 -0.43940343463E+03 -0.85701439448E+03  0.13192042761E+04  0.89171997072E+03 0.  0.
        -24    2    4    4    0    0 -0.49240375853E+03 -0.24861932576E+03 -0.32899488902E+03  0.64733514955E+03  0.80821583077E+02 0.  0.
         24    2    4    4    0    0  0.35979016521E+03 -0.19078410887E+03 -0.52801950546E+03  0.67186912652E+03  0.82194804277E+02 0.  0.
         11    1    3    3    0    0  0.11623823712E+03  0.39819784941E+03 -0.15875987320E+03  0.44415937723E+03  0.00000000000E+00 0.  1.
        -11    1    3    3    0    0  0.16375356193E+02  0.41205585225E+02  0.12563554063E+02  0.46085740038E+02  0.00000000000E+00 0. -1.
          2    1    6    6  502    0  0.22813826147E+03 -0.12474744271E+03 -0.27050127858E+03  0.37520651983E+03  0.00000000000E+00 0. -1.
          3    1    5    5  503    0 -0.26901783370E+03 -0.11132387351E+03 -0.21234950451E+03  0.36035525766E+03  0.00000000000E+00 0. -1.
         -4    1    5    5    0  503 -0.22338592483E+03 -0.13729545225E+03 -0.11664538451E+03  0.28697989189E+03  0.00000000000E+00 0.  1.
         -1    1    6    6    0  502  0.13165190374E+03 -0.66036666161E+02 -0.25751822687E+03  0.29666260669E+03  0.00000000000E+00 0.  1.
<mgrwt>
<rscale>  0 0.15058803E+04</rscale>
<asrwt>0</asrwt>
<pdfrwt beam="1">  1        2 0.21635847E+00 0.15058803E+04</pdfrwt>
<pdfrwt beam="2">  1       -2 0.62018359E-01 0.15058803E+04</pdfrwt>
<totfact> 0.33454955E+01</totfact>
</mgrwt>
</event>
<event>
12    1  0.2048318E-007  0.1721209E+04  0.7818608E-02  0.8749360E-01
         -3   -1    0    0    0  501 -0.00000000000E+00  0.00000000000E+00  0.50795697077E+03  0.50795697077E+03  0.00000000000E+00 0.  1.
          3   -1    0    0  501    0  0.00000000000E+00 -0.00000000000E+00 -0.14580770668E+04  0.14580770668E+04  0.00000000000E+00 0. -1.
         23    2    1    2    0    0  0.61699026705E+03 -0.60699814116E+02 -0.38890965330E+03  0.73792410497E+03  0.94444741458E+02 0.  0.
        254    2    1    2    0    0 -0.61699026705E+03  0.60699814116E+02 -0.56121044275E+03  0.12281099326E+04  0.89940835468E+03 0.  0.
        -24    2    4    4    0    0 -0.13684448163E+03 -0.37515908588E+03 -0.36422217106E+03  0.54542178423E+03  0.73187300494E+02 0.  0.
         24    2    4    4    0    0 -0.48014578542E+03  0.43585889999E+03 -0.19698827169E+03  0.68268814839E+03  0.82132653724E+02 0.  0.
         13    1    3    3    0    0  0.18494767126E+03 -0.92784079243E+01 -0.16768682748E+03  0.24982114016E+03  0.00000000000E+00 0. -1.
        -13    1    3    3    0    0  0.43204259579E+03 -0.51421406192E+02 -0.22122282582E+03  0.48810296481E+03  0.00000000000E+00 0.  1.
          4    1    6    6  502    0 -0.21579235810E+03  0.20301108080E+03 -0.13249764965E+03  0.32455426034E+03  0.00000000000E+00 0. -1.
          1    1    5    5  503    0 -0.76607211559E+01 -0.10456910586E+03 -0.75838656856E+02  0.12940203407E+03  0.00000000000E+00 0. -1.
         -2    1    5    5    0  503 -0.12918376048E+03 -0.27058998002E+03 -0.28838351420E+03  0.41601975016E+03  0.00000000000E+00 0.  1.
         -3    1    6    6    0  502 -0.26435342731E+03  0.23284781920E+03 -0.64490622044E+02  0.35813388805E+03  0.00000000000E+00 0.  1.
<mgrwt>
<rscale>  0 0.17212094E+04</rscale>
<asrwt>0</asrwt>
<pdfrwt beam="1">  1        3 0.22431955E+00 0.17212094E+04</pdfrwt>
<pdfrwt beam="2">  1       -3 0.78147227E-01 0.17212094E+04</pdfrwt>
<totfact> 0.39807909E-01</totfact>
</mgrwt>
</event>
<event>
12    1  0.2048318E-007  0.1397042E+04  0.7818608E-02  0.8955963E-01
          2   -1    0    0  501    0  0.00000000000E+00  0.00000000000E+00  0.93009802848E+03  0.93009802848E+03  0.00000000000E+00 0. -1.
         -2   -1    0    0    0  501 -0.00000000000E+00 -0.00000000000E+00 -0.52460208770E+03  0.52460208770E+03  0.00000000000E+00 0.  1.
         23    2    1    2    0    0  0.37364573877E+03  0.82414983482E+02  0.23973854475E+03  0.46260177555E+03  0.10061046316E+03 0.  0.
        254    2    1    2    0    0 -0.37364573877E+03 -0.82414983482E+02  0.16575739603E+03  0.99209834063E+03  0.90021121718E+03 0.  0.
        -24    2    4    4    0    0  0.13618688852E+03  0.51570625667E+02 -0.26018482657E+03  0.30938963374E+03  0.82579679418E+02 0.  0.
         24    2    4    4    0    0 -0.50983262728E+03 -0.13398560915E+03  0.42594222260E+03  0.68270870689E+03  0.82358667835E+02 0.  0.
         11    1    3    3    0    0  0.20885601548E+02 -0.14140571646E+02 -0.13187773868E+00  0.25222638844E+02  0.00000000000E+00 0.  1.
        -11    1    3    3    0    0  0.35276013722E+03  0.96555555128E+02  0.23987042249E+03  0.43737913670E+03  0.00000000000E+00 0. -1.
          4    1    6    6  502    0 -0.42124439253E+03 -0.11174032906E+03  0.30860994969E+03  0.53401576796E+03  0.00000000000E+00 0. -1.
          3    1    5    5  503    0  0.73280364013E+02  0.33439597418E+02 -0.64958035481E+02  0.10347833009E+03  0.00000000000E+00 0. -1.
         -4    1    5    5    0  503  0.62906524505E+02  0.18131028249E+02 -0.19522679109E+03  0.20591130365E+03  0.00000000000E+00 0.  1.
         -3    1    6    6    0  502 -0.88588234752E+02 -0.22245280086E+02  0.11733227291E+03  0.14869293893E+03  0.00000000000E+00 0.  1.
<mgrwt>
<rscale>  0 0.13970417E+04</rscale>
<asrwt>0</asrwt>
<pdfrwt beam="1">  1        2 0.14309200E+00 0.13970417E+04</pdfrwt>
<pdfrwt beam="2">  1       -2 0.80708014E-01 0.13970417E+04</pdfrwt>
<totfact> 0.36933112E+01</totfact>
</mgrwt>
</event>
<event>
12    1  0.2048318E-007  0.1483789E+04  0.7818608E-02  0.8895305E-01
          2   -1    0    0  501    0  0.00000000000E+00  0.00000000000E+00  0.15886766747E+04  0.15886766747E+04  0.00000000000E+00 0. -1.
         -2   -1    0    0    0  501 -0.00000000000E+00 -0.00000000000E+00 -0.34645674666E+03  0.34645674666E+03  0.00000000000E+00 0.  1.
         23    2    1    2    0    0 -0.43813485207E+03  0.10364305219E+03  0.25540061478E+03  0.52633717962E+03  0.95379881289E+02 0.  0.
        254    2    1    2    0    0  0.43813485207E+03 -0.10364305219E+03  0.98681931328E+03  0.14087962418E+04  0.89899413951E+03 0.  0.
        -24    2    4    4    0    0  0.42265193449E+03 -0.45118070971E+03  0.77212823525E+03  0.99229511137E+03  0.79176295872E+02 0.  0.
         24    2    4    4    0    0  0.15482917574E+02  0.34753765753E+03  0.21469107803E+03  0.41650113039E+03  0.79742012101E+02 0.  0.
         13    1    3    3    0    0 -0.36854635254E+03  0.11548608262E+03  0.19134862191E+03  0.43101942457E+03  0.00000000000E+00 0.  1.
        -13    1    3    3    0    0 -0.69588499526E+02 -0.11843030433E+02  0.64051992878E+02  0.95317755050E+02  0.00000000000E+00 0. -1.
          4    1    6    6  502    0 -0.15564394271E+02  0.44983789477E+02  0.67679184717E+01  0.48079064105E+02  0.00000000000E+00 0. -1.
          3    1    5    5  503    0  0.10975923498E+03 -0.15699006716E+03  0.27807524609E+03  0.33766671932E+03  0.00000000000E+00 0. -1.
         -4    1    5    5    0  503  0.31289269952E+03 -0.29419064256E+03  0.49405298917E+03  0.65462839205E+03  0.00000000000E+00 0.  1.
         -1    1    6    6    0  502  0.31047311845E+02  0.30255386805E+03  0.20792315956E+03  0.36842206628E+03  0.00000000000E+00 0.  1.
<mgrwt>
<rscale>  0 0.14837894E+04</rscale>
<asrwt>0</asrwt>
<pdfrwt beam="1">  1        2 0.24441179E+00 0.14837894E+04</pdfrwt>
<pdfrwt beam="2">  1       -2 0.53301039E-01 0.14837894E+04</pdfrwt>
<totfact> 0.36316461E+01</totfact>
</mgrwt>
</event>
<event>
12    1  0.2048318E-007  0.2410122E+04  0.7818608E-02  0.8435724E-01
         -2   -1    0    0    0  501 -0.00000000000E+00  0.00000000000E+00  0.11413219738E+04  0.11413219738E+04  0.00000000000E+00 0.  1.
          2   -1    0    0  501    0  0.00000000000E+00 -0.00000000000E+00 -0.12723601642E+04  0.12723601642E+04  0.00000000000E+00 0. -1.
         23    2    1    2    0    0  0.94390769043E+03  0.44848208990E+02  0.36516653920E+03  0.10179518788E+04  0.99530580070E+02 0.  0.
        254    2    1    2    0    0 -0.94390769043E+03 -0.44848208990E+02 -0.49620472958E+03  0.13957302591E+04  0.89937241046E+03 0.  0.
        -24    2    4    4    0    0 -0.89940509520E+03  0.29158260633E+03 -0.42385561958E+03  0.10391657720E+04  0.79132634791E+02 0.  0.
         24    2    4    4    0    0 -0.44502595229E+02 -0.33643081532E+03 -0.72349109999E+02  0.35656448712E+03  0.82083282561E+02 0.  0.
         11    1    3    3    0    0  0.19588002116E+03  0.38143775902E+02  0.46852365173E+02  0.20498554693E+03  0.00000000000E+00 0.  1.
        -11    1    3    3    0    0  0.74802766927E+03  0.67044330887E+01  0.31831417403E+03  0.81296633190E+03  0.00000000000E+00 0. -1.
          4    1    6    6  502    0  0.21139554974E+02 -0.44573679640E+02 -0.26466004758E+01  0.49403422910E+02  0.00000000000E+00 0. -1.
          3    1    5    5  503    0 -0.63254000717E+03  0.19279782522E+03 -0.33346864462E+03  0.74059381514E+03  0.00000000000E+00 0. -1.
         -4    1    5    5    0  503 -0.26686508803E+03  0.98784781113E+02 -0.90386974961E+02  0.29857195687E+03  0.00000000000E+00 0.  1.
         -3    1    6    6    0  502 -0.65642150203E+02 -0.29185713568E+03 -0.69702509524E+02  0.30716106421E+03  0.00000000000E+00 0.  1.
<mgrwt>
<rscale>  0 0.24101225E+04</rscale>
<asrwt>0</asrwt>
<pdfrwt beam="1">  1        2 0.19574772E+00 0.24101225E+04</pdfrwt>
<pdfrwt beam="2">  1       -2 0.17558800E+00 0.24101225E+04</pdfrwt>
<totfact> 0.30007092E+00</totfact>
</mgrwt>
</event>
<event>
12    1  0.2048318E-007  0.1725103E+04  0.7818608E-02  0.8747175E-01
          2   -1    0    0  501    0  0.00000000000E+00  0.00000000000E+00  0.22022246370E+04  0.22022246370E+04  0.00000000000E+00 0.  1.
         -2   -1    0    0    0  501 -0.00000000000E+00 -0.00000000000E+00 -0.33783805111E+03  0.33783805111E+03  0.00000000000E+00 0. -1.
         23    2    1    2    0    0 -0.36385544325E+03  0.30166106579E+03  0.81433817031E+02  0.48836913061E+03  0.92101894567E+02 0.  0.
        254    2    1    2    0    0  0.36385544325E+03 -0.30166106579E+03  0.17829527689E+04  0.20516935575E+04  0.89840731059E+03 0.  0.
        -24    2    4    4    0    0  0.38966150069E+03 -0.53716513504E+03  0.16208879540E+04  0.17533412854E+04  0.80903870465E+02 0.  0.
         24    2    4    4    0    0 -0.25806057442E+02  0.23550406924E+03  0.16206481488E+03  0.29835227212E+03  0.81369249884E+02 0.  0.
         13    1    3    3    0    0 -0.30768025358E+03  0.20714491488E+03  0.51934752085E+02  0.37453087012E+03  0.00000000000E+00 0. -1.
        -13    1    3    3    0    0 -0.56175189669E+02  0.94516150918E+02  0.29499064946E+02  0.11383826049E+03  0.00000000000E+00 0.  1.
          2    1    6    6  502    0 -0.70296838341E+01  0.17783882540E+02  0.48378460436E+02  0.52020749390E+02  0.00000000000E+00 0. -1.
          1    1    5    5  503    0  0.14960175926E+02 -0.32456608872E+02  0.50936556875E+02  0.62223557834E+02  0.00000000000E+00 0. -1.
         -2    1    5    5    0  503  0.37470132476E+03 -0.50470852616E+03  0.15699513971E+04  0.16911177276E+04  0.00000000000E+00 0.  1.
         -1    1    6    6    0  502 -0.18776373608E+02  0.21772018670E+03  0.11368635445E+03  0.24633152273E+03  0.00000000000E+00 0.  1.
<mgrwt>
<rscale>  0 0.17251032E+04</rscale>
<asrwt>0</asrwt>
<pdfrwt beam="1">  1        2 0.33880378E+00 0.17251032E+04</pdfrwt>
<pdfrwt beam="2">  1       -2 0.51975086E-01 0.17251032E+04</pdfrwt>
<totfact> 0.17098987E+01</totfact>
</mgrwt>
</event>
<event>
12    1  0.2048318E-007  0.1749869E+04  0.7818608E-02  0.8733422E-01
          2   -1    0    0  501    0  0.00000000000E+00  0.00000000000E+00  0.19311139009E+04  0.19311139009E+04  0.00000000000E+00 0. -1.
         -2   -1    0    0    0  501 -0.00000000000E+00 -0.00000000000E+00 -0.39640883964E+03  0.39640883964E+03  0.00000000000E+00 0.  1.
         23    2    1    2    0    0  0.55252375948E+02 -0.49154608259E+03  0.11071493555E+04  0.12159486279E+04  0.89894348575E+02 0.  0.
        254    2    1    2    0    0 -0.55252375948E+02  0.49154608259E+03  0.42755570576E+03  0.11115741126E+04  0.89895647838E+03 0.  0.
        -24    2    4    4    0    0  0.35384594832E+03  0.48322262244E+02 -0.38808399041E+01  0.36628672728E+03  0.81295199702E+02 0.  0.
         24    2    4    4    0    0 -0.40909832427E+03  0.44322382034E+03  0.43143654566E+03  0.74528738536E+03  0.74209163901E+02 0.  0.
         11    1    3    3    0    0  0.12855880230E+02 -0.81916714381E+01  0.17863222095E+02  0.23483437590E+02  0.00000000000E+00 0. -1.
        -11    1    3    3    0    0  0.42396495719E+02 -0.48335441115E+03  0.10892861334E+04  0.11924651903E+04  0.00000000000E+00 0.  1.
          2    1    6    6  502    0 -0.29313100950E+03  0.32962189985E+03  0.35314693997E+03  0.56505676423E+03  0.00000000000E+00 0. -1.
          1    1    5    5  503    0  0.27401119776E+03  0.19769913016E+02 -0.32865607102E+02  0.27668237040E+03  0.00000000000E+00 0. -1.
         -2    1    5    5    0  503  0.79834750560E+02  0.28552349228E+02  0.28984767198E+02  0.89604356886E+02  0.00000000000E+00 0.  1.
         -1    1    6    6    0  502 -0.11596731477E+03  0.11360192049E+03  0.78289605698E+02  0.18023062114E+03  0.00000000000E+00 0.  1.
<mgrwt>
<rscale>  0 0.17498693E+04</rscale>
<asrwt>0</asrwt>
<pdfrwt beam="1">  1        2 0.29709444E+00 0.17498693E+04</pdfrwt>
<pdfrwt beam="2">  1       -2 0.60985976E-01 0.17498693E+04</pdfrwt>
<totfact> 0.17304420E+01</totfact>
</mgrwt>
</event>
<event>
12    1  0.2048318E-007  0.1475029E+04  0.7818608E-02  0.8901230E-01
         -2   -1    0    0    0  501 -0.00000000000E+00  0.00000000000E+00  0.66783843011E+03  0.66783843011E+03  0.00000000000E+00 0.  1.
          2   -1    0    0  501    0  0.00000000000E+00 -0.00000000000E+00 -0.81446047229E+03  0.81446047229E+03  0.00000000000E+00 0. -1.
         23    2    1    2    0    0 -0.36869492416E+03  0.24223257040E+03  0.73692648786E+02  0.45669296906E+03  0.92332530820E+02 0.  0.
        254    2    1    2    0    0  0.36869492416E+03 -0.24223257040E+03 -0.22031469096E+03  0.10256059333E+04  0.89928660736E+03 0.  0.
        -24    2    4    4    0    0  0.23684981623E+03 -0.10912497550E+03  0.33621203499E+03  0.43278113293E+03  0.79087804512E+02 0.  0.
         24    2    4    4    0    0  0.13184510793E+03 -0.13310759489E+03 -0.55652672595E+03  0.59282480041E+03  0.81354059391E+02 0.  0.
         11    1    3    3    0    0 -0.18580029478E+02  0.41735545543E+02  0.19259214682E+02  0.49578126299E+02  0.00000000000E+00 0.  1.
        -11    1    3    3    0    0 -0.35011489468E+03  0.20049702485E+03  0.54433434104E+02  0.40711484276E+03  0.00000000000E+00 0. -1.
          2    1    6    6  502    0 -0.26147586326E+01 -0.41162012608E+02 -0.12069325508E+03  0.12754610957E+03  0.00000000000E+00 0. -1.
          1    1    5    5  503    0  0.11606184732E+03 -0.65786788801E+02  0.11089150873E+03  0.17347962616E+03  0.00000000000E+00 0. -1.
         -2    1    5    5    0  503  0.12078796891E+03 -0.43338186703E+02  0.22532052626E+03  0.25930150677E+03  0.00000000000E+00 0.  1.
         -1    1    6    6    0  502  0.13445986656E+03 -0.91945582285E+02 -0.43583347087E+03  0.46527869084E+03  0.00000000000E+00 0.  1.
<mgrwt>
<rscale>  0 0.14750295E+04</rscale>
<asrwt>0</asrwt>
<pdfrwt beam="1">  1        2 0.12530161E+00 0.14750295E+04</pdfrwt>
<pdfrwt beam="2">  1       -2 0.10274437E+00 0.14750295E+04</pdfrwt>
<totfact> 0.25213295E+01</totfact>
</mgrwt>
</event>
<event>
12    1  0.2048318E-007  0.1851006E+04  0.7818608E-02  0.8679636E-01
         -1   -1    0    0    0  501 -0.00000000000E+00  0.00000000000E+00  0.78011916525E+03  0.78011916525E+03  0.00000000000E+00 0.  1.
          1   -1    0    0  501    0  0.00000000000E+00 -0.00000000000E+00 -0.10979802479E+04  0.10979802479E+04  0.00000000000E+00 0. -1.
         23    2    1    2    0    0 -0.53741160008E+03 -0.21993956027E+03  0.28460698216E+03  0.65206613255E+03  0.83692704893E+02 0.  0.
        254    2    1    2    0    0  0.53741160008E+03  0.21993956027E+03 -0.60246806480E+03  0.12260332806E+04  0.89610557296E+03 0.  0.
        -24    2    4    4    0    0 -0.59666010382E+02  0.25664232135E+02 -0.58398773804E+03  0.59298579301E+03  0.79823473509E+02 0.  0.
         24    2    4    4    0    0  0.59707761046E+03  0.19427532814E+03 -0.18480326759E+02  0.63304748757E+03  0.78504923383E+02 0.  0.
         13    1    3    3    0    0 -0.32691669776E+03 -0.12299763159E+03  0.21473301110E+03  0.41001611031E+03  0.00000000000E+00 0.  1.
        -13    1    3    3    0    0 -0.21049490232E+03 -0.96941928679E+02  0.69873971062E+02  0.24205002225E+03  0.00000000000E+00 0. -1.
          2    1    6    6  502    0  0.20791825372E+03  0.33665176408E+02  0.11831508597E+02  0.21095812127E+03  0.00000000000E+00 0. -1.
          1    1    5    5  503    0 -0.71754790884E+02  0.39749103443E+02 -0.51729168477E+03  0.52375512252E+03  0.00000000000E+00 0. -1.
         -2    1    5    5    0  503  0.12088780502E+02 -0.14084871308E+02 -0.66696053272E+02  0.69230670485E+02  0.00000000000E+00 0.  1.
         -1    1    6    6    0  502  0.38915935674E+03  0.16061015173E+03 -0.30311835356E+02  0.42208936630E+03  0.00000000000E+00 0.  1.
<mgrwt>
<rscale>  0 0.18510056E+04</rscale>
<asrwt>0</asrwt>
<pdfrwt beam="1">  1        1 0.16892004E+00 0.18510056E+04</pdfrwt>
<pdfrwt beam="2">  1       -1 0.12001833E+00 0.18510056E+04</pdfrwt>
<totfact> 0.73985879E+00</totfact>
</mgrwt>
</event>
<event>
12    1  0.2048318E-007  0.2427048E+04  0.7818608E-02  0.8429446E-01
          1   -1    0    0  501    0  0.00000000000E+00  0.00000000000E+00  0.21152835563E+04  0.21152835563E+04  0.00000000000E+00 0. -1.
         -1   -1    0    0    0  501 -0.00000000000E+00 -0.00000000000E+00 -0.69619037928E+03  0.69619037928E+03  0.00000000000E+00 0.  1.
         23    2    1    2    0    0 -0.95612088092E+03  0.41240700932E+03  0.70093645280E+03  0.12588350999E+04  0.95431742694E+02 0.  0.
        254    2    1    2    0    0  0.95612088092E+03 -0.41240700932E+03  0.71815672423E+03  0.15526388357E+04  0.90038413658E+03 0.  0.
        -24    2    4    4    0    0  0.62829347235E+03 -0.22424843539E+03 -0.69377122091E+02  0.67551687940E+03  0.80435198150E+02 0.  0.
         24    2    4    4    0    0  0.32782740857E+03 -0.18815857393E+03  0.78753384632E+03  0.87712195634E+03  0.79113263356E+02 0.  0.
         13    1    3    3    0    0 -0.66863520285E+03  0.26417602837E+03  0.43668064100E+03  0.84116109674E+03  0.00000000000E+00 0.  1.
        -13    1    3    3    0    0 -0.28748567807E+03  0.14823098095E+03  0.26425581180E+03  0.41767400312E+03  0.00000000000E+00 0. -1.
          4    1    6    6  502    0  0.13013607419E+03 -0.11863469574E+03  0.38240878706E+03  0.42100602045E+03  0.00000000000E+00 0. -1.
          3    1    5    5  503    0  0.22398984091E+03 -0.42347871252E+02 -0.95305917118E+01  0.22815701438E+03  0.00000000000E+00 0. -1.
         -4    1    5    5    0  503  0.40430363144E+03 -0.18190056413E+03 -0.59846530379E+02  0.44735986502E+03  0.00000000000E+00 0.  1.
         -3    1    6    6    0  502  0.19769133438E+03 -0.69523878199E+02  0.40512505926E+03  0.45611593589E+03  0.00000000000E+00 0.  1.
<mgrwt>
<rscale>  0 0.24270476E+04</rscale>
<asrwt>0</asrwt>
<pdfrwt beam="1">  1        1 0.32542824E+00 0.24270476E+04</pdfrwt>
<pdfrwt beam="2">  1       -1 0.10710621E+00 0.24270476E+04</pdfrwt>
<totfact> 0.18074143E+00</totfact>
</mgrwt>
</event>
<event>
12    1  0.2048318E-007  0.3956335E+04  0.7818608E-02  0.8013413E-01
         -1   -1    0    0    0  501 -0.00000000000E+00  0.00000000000E+00  0.15491259395E+04  0.15491259395E+04  0.00000000000E+00 0.  1.
          1   -1    0    0  501    0  0.00000000000E+00 -0.00000000000E+00 -0.25260357289E+04  0.25260357289E+04  0.00000000000E+00 0. -1.
         23    2    1    2    0    0  0.17370998157E+04 -0.55685017449E+03 -0.17490690049E+02  0.18264791717E+04  0.90124104230E+02 0.  0.
        254    2    1    2    0    0 -0.17370998157E+04  0.55685017449E+03 -0.95941909936E+03  0.22486824966E+04  0.89916076195E+03 0.  0.
        -24    2    4    4    0    0 -0.11319273927E+03  0.36085658611E+03 -0.96551979110E+02  0.39760455093E+03  0.75743133617E+02 0.  0.
         24    2    4    4    0    0 -0.16239070764E+04  0.19599358838E+03 -0.86286712025E+03  0.18510779456E+04  0.80387898504E+02 0.  0.
         13    1    3    3    0    0  0.50830546135E+03 -0.14495894700E+03 -0.42205714103E+02  0.53025358146E+03  0.00000000000E+00 0.  1.
        -13    1    3    3    0    0  0.12287943543E+04 -0.41189122749E+03  0.24715024054E+02  0.12962255903E+04  0.00000000000E+00 0. -1.
          2    1    6    6  502    0 -0.11748021579E+04  0.12168986692E+03 -0.65640610416E+03  0.13512355485E+04  0.00000000000E+00 0. -1.
          3    1    5    5  503    0 -0.10690758102E+03  0.29990118962E+03 -0.53833378759E+02  0.32290553895E+03  0.00000000000E+00 0. -1.
         -4    1    5    5    0  503 -0.62851582469E+01  0.60955396492E+02 -0.42718600351E+02  0.74699011986E+02  0.00000000000E+00 0.  1.
         -1    1    6    6    0  502 -0.44910491853E+03  0.74303721457E+02 -0.20646101609E+03  0.49984239719E+03  0.00000000000E+00 0.  1.
<mgrwt>
<rscale>  0 0.39563354E+04</rscale>
<asrwt>0</asrwt>
<pdfrwt beam="1">  1        1 0.38862088E+00 0.39563354E+04</pdfrwt>
<pdfrwt beam="2">  1       -1 0.23832707E+00 0.39563354E+04</pdfrwt>
<totfact> 0.84870806E-02</totfact>
</mgrwt>
</event>
<event>
12    1  0.2048318E-007  0.2311562E+04  0.7818608E-02  0.8473376E-01
          1   -1    0    0  501    0  0.00000000000E+00  0.00000000000E+00  0.13174662793E+04  0.13174662793E+04  0.00000000000E+00 0. -1.
         -1   -1    0    0    0  501 -0.00000000000E+00 -0.00000000000E+00 -0.10139381166E+04  0.10139381166E+04  0.00000000000E+00 0.  1.
         23    2    1    2    0    0 -0.64752607431E+03 -0.65719421260E+03  0.44971293389E+03  0.10305934661E+04  0.93203645357E+02 0.  0.
        254    2    1    2    0    0  0.64752607431E+03  0.65719421260E+03 -0.14618477124E+03  0.13008109298E+04  0.90528715764E+03 0.  0.
        -24    2    4    4    0    0  0.11970570194E+03 -0.19712613588E+03 -0.16644088115E+03  0.29325547457E+03  0.71470538876E+02 0.  0.
         24    2    4    4    0    0  0.52782037238E+03  0.85432034848E+03  0.20256109912E+02  0.10075554552E+04  0.79373056322E+02 0.  0.
         11    1    3    3    0    0 -0.33357669374E+03 -0.31304447632E+03  0.17501950160E+03  0.48979799990E+03  0.00000000000E+00 0.  1.
        -11    1    3    3    0    0 -0.31394938057E+03 -0.34414973629E+03  0.27469343229E+03  0.54079546622E+03  0.00000000000E+00 0. -1.
          4    1    6    6  502    0  0.25038722398E+03  0.35431404093E+03 -0.20037973385E+02  0.43431983827E+03  0.00000000000E+00 0. -1.
          3    1    5    5  503    0  0.33910616353E+02 -0.10925704496E+03 -0.53032335834E+02  0.12609306253E+03  0.00000000000E+00 0. -1.
         -4    1    5    5    0  503  0.85795085583E+02 -0.87869090921E+02 -0.11340854532E+03  0.16716241204E+03  0.00000000000E+00 0.  1.
         -3    1    6    6    0  502  0.27743314840E+03  0.50000630755E+03  0.40294083298E+02  0.57323561698E+03  0.00000000000E+00 0.  1.
<mgrwt>
<rscale>  0 0.23115616E+04</rscale>
<asrwt>0</asrwt>
<pdfrwt beam="1">  1        1 0.20268712E+00 0.23115616E+04</pdfrwt>
<pdfrwt beam="2">  1       -1 0.15599048E+00 0.23115616E+04</pdfrwt>
<totfact> 0.24889468E+00</totfact>
</mgrwt>
</event>
<event>
12    1  0.2048318E-007  0.1450184E+04  0.7818608E-02  0.8918273E-01
         -2   -1    0    0    0  501 -0.00000000000E+00  0.00000000000E+00  0.34908497517E+03  0.34908497517E+03  0.00000000000E+00 0.  1.
          2   -1    0    0  501    0  0.00000000000E+00 -0.00000000000E+00 -0.15061044726E+04  0.15061044726E+04  0.00000000000E+00 0. -1.
         23    2    1    2    0    0 -0.38727600110E+03  0.18899912735E+03 -0.25200274891E+03  0.50720152298E+03  0.89691851830E+02 0.  0.
        254    2    1    2    0    0  0.38727600110E+03 -0.18899912735E+03 -0.90501674847E+03  0.13479879248E+04  0.90128395031E+03 0.  0.
        -24    2    4    4    0    0  0.60900105618E+03  0.21552567779E+02 -0.81068300613E+03  0.10173340437E+04  0.80092573879E+02 0.  0.
         24    2    4    4    0    0 -0.22172505508E+03 -0.21055169513E+03 -0.94333742344E+02  0.33065388108E+03  0.83301367077E+02 0.  0.
         11    1    3    3    0    0 -0.17200728724E+03  0.36690710558E+02 -0.11375331304E+03  0.20945770774E+03  0.00000000000E+00 0. -1.
        -11    1    3    3    0    0 -0.21526871386E+03  0.15230841679E+03 -0.13824943588E+03  0.29774381523E+03  0.00000000000E+00 0.  1.
          4    1    6    6  502    0 -0.10701107564E+03 -0.70131021902E+02 -0.74997384070E+02  0.14830488245E+03  0.00000000000E+00 0. -1.
          3    1    5    5  503    0  0.80225512346E+02  0.27658130031E+02 -0.13259355070E+03  0.15742348832E+03  0.00000000000E+00 0. -1.
         -2    1    5    5    0  503  0.52877554383E+03 -0.61055622519E+01 -0.67808945543E+03  0.85991055535E+03  0.00000000000E+00 0.  1.
         -3    1    6    6    0  502 -0.11471397944E+03 -0.14042067322E+03 -0.19336358273E+02  0.18234899862E+03  0.00000000000E+00 0.  1.
<mgrwt>
<rscale>  0 0.14501840E+04</rscale>
<asrwt>0</asrwt>
<pdfrwt beam="1">  1        2 0.23170838E+00 0.14501840E+04</pdfrwt>
<pdfrwt beam="2">  1       -2 0.53705380E-01 0.14501840E+04</pdfrwt>
<totfact> 0.39886966E+01</totfact>
</mgrwt>
</event>
<event>
12    1  0.2048318E-007  0.2315910E+04  0.7818608E-02  0.8471674E-01
         -2   -1    0    0    0  501 -0.00000000000E+00  0.00000000000E+00  0.30479630172E+03  0.30479630172E+03  0.00000000000E+00 0.  1.
          2   -1    0    0  501    0  0.00000000000E+00 -0.00000000000E+00 -0.43992007385E+04  0.43992007385E+04  0.00000000000E+00 0. -1.
         23    2    1    2    0    0  0.86670087807E+03 -0.40443391209E+03 -0.13105299590E+04  0.16256390947E+04  0.10235473367E+03 0.  0.
        254    2    1    2    0    0 -0.86670087807E+03  0.40443391209E+03 -0.27838744778E+04  0.30783579455E+04  0.90088474920E+03 0.  0.
        -24    2    4    4    0    0 -0.11424682593E+03  0.31344865828E+03 -0.18075553625E+04  0.18398087373E+04  0.79607804974E+02 0.  0.
         24    2    4    4    0    0 -0.75245405214E+03  0.90985253814E+02 -0.97631911530E+03  0.12385492083E+04  0.79622291990E+02 0.  0.
         13    1    3    3    0    0  0.50283758931E+03 -0.22693040739E+03 -0.83938763080E+03  0.10044474331E+04  0.00000000000E+00 0. -1.
        -13    1    3    3    0    0  0.36386328876E+03 -0.17750350470E+03 -0.47114232818E+03  0.62119166164E+03  0.00000000000E+00 0.  1.
          4    1    6    6  502    0 -0.16313812171E+03  0.49206768489E+02 -0.19392311099E+03  0.25815020007E+03  0.00000000000E+00 0. -1.
          3    1    5    5  503    0 -0.64629856079E+02  0.76984462577E+02 -0.59211744474E+03  0.60058862305E+03  0.00000000000E+00 0. -1.
         -4    1    5    5    0  503 -0.49616969848E+02  0.23646419570E+03 -0.12154379178E+04  0.12392201142E+04  0.00000000000E+00 0.  1.
         -3    1    6    6    0  502 -0.58931593043E+03  0.41778485325E+02 -0.78239600431E+03  0.98039900819E+03  0.00000000000E+00 0.  1.
<mgrwt>
<rscale>  0 0.23159103E+04</rscale>
<asrwt>0</asrwt>
<pdfrwt beam="1">  1        2 0.67680007E+00 0.23159103E+04</pdfrwt>
<pdfrwt beam="2">  1       -2 0.46891742E-01 0.23159103E+04</pdfrwt>
<totfact> 0.60520452E-01</totfact>
</mgrwt>
</event>
<event>
12    1  0.2048318E-007  0.1402606E+04  0.7818608E-02  0.8951934E-01
         -2   -1    0    0    0  501 -0.00000000000E+00  0.00000000000E+00  0.60943628660E+03  0.60943628660E+03  0.00000000000E+00 0.  1.
          2   -1    0    0  501    0  0.00000000000E+00 -0.00000000000E+00 -0.80701776537E+03  0.80701776537E+03  0.00000000000E+00 0. -1.
         23    2    1    2    0    0  0.19464858753E+03 -0.16373940367E+03  0.25940902770E+03  0.37490871649E+03  0.92546405187E+02 0.  0.
        254    2    1    2    0    0 -0.19464858753E+03  0.16373940367E+03 -0.45699050647E+03  0.10415453355E+04  0.90070955247E+03 0.  0.
        -24    2    4    4    0    0  0.28463231533E+03  0.14760751043E+03 -0.44456777368E+03  0.55393321131E+03  0.79987281118E+02 0.  0.
         24    2    4    4    0    0 -0.47928090285E+03  0.16131893238E+02 -0.12422732795E+02  0.48761212416E+03  0.87411884322E+02 0.  0.
         11    1    3    3    0    0  0.24340965447E+02 -0.38957682546E+02  0.80346952039E+01  0.46634107210E+02  0.00000000000E+00 0. -1.
        -11    1    3    3    0    0  0.17030762208E+03 -0.12478172112E+03  0.25137433249E+03  0.32827460928E+03  0.00000000000E+00 0.  1.
          4    1    6    6  502    0 -0.31836936523E+03  0.47920060748E+02  0.97237822196E+01  0.32210237018E+03  0.00000000000E+00 0. -1.
          3    1    5    5  503    0  0.87783586733E+02  0.84056019952E+02 -0.13538177211E+03  0.18193294591E+03  0.00000000000E+00 0. -1.
         -4    1    5    5    0  503  0.19684872860E+03  0.63551490476E+02 -0.30918600157E+03  0.37200026540E+03  0.00000000000E+00 0.  1.
         -3    1    6    6    0  502 -0.16091153763E+03 -0.31788167510E+02 -0.22146515015E+02  0.16550975398E+03  0.00000000000E+00 0.  1.
<mgrwt>
<rscale>  0 0.14026060E+04</rscale>
<asrwt>0</asrwt>
<pdfrwt beam="1">  1        2 0.12415658E+00 0.14026060E+04</pdfrwt>
<pdfrwt beam="2">  1       -2 0.93759429E-01 0.14026060E+04</pdfrwt>
<totfact> 0.31851027E+01</totfact>
</mgrwt>
</event>
<event>
12    1  0.2048318E-007  0.2442241E+04  0.7818608E-02  0.8423856E-01
          1   -1    0    0  501    0  0.00000000000E+00  0.00000000000E+00  0.13832019299E+04  0.13832019299E+04  0.00000000000E+00 0. -1.
         -1   -1    0    0    0  501 -0.00000000000E+00 -0.00000000000E+00 -0.10780313536E+04  0.10780313536E+04  0.00000000000E+00 0.  1.
         23    2    1    2    0    0  0.73410475449E+03  0.71047089086E+03  0.38755049038E+03  0.10964403277E+04  0.91144567718E+02 0.  0.
        254    2    1    2    0    0 -0.73410475449E+03 -0.71047089086E+03 -0.82379913994E+02  0.13647929558E+04  0.90121844450E+03 0.  0.
        -24    2    4    4    0    0 -0.49697455337E+03  0.51744074199E+02  0.15267182003E+03  0.52884041610E+03  0.81867851793E+02 0.  0.
         24    2    4    4    0    0 -0.23713020112E+03 -0.76221496506E+03 -0.23505173402E+03  0.83595253973E+03  0.79780610172E+02 0.  0.
         11    1    3    3    0    0  0.12223356574E+03  0.75911632725E+02  0.45704346158E+02  0.15097187763E+03  0.00000000000E+00 0. -1.
        -11    1    3    3    0    0  0.61187118875E+03  0.63455925814E+03  0.34184614422E+03  0.94546845004E+03  0.00000000000E+00 0.  1.
          4    1    6    6  502    0 -0.20844722736E+02 -0.64928753436E+02  0.24369035502E+01  0.68236236617E+02  0.00000000000E+00 0. -1.
          3    1    5    5  503    0 -0.30536779221E+02  0.19386043150E+02 -0.23644103083E+01  0.36247813593E+02  0.00000000000E+00 0. -1.
         -4    1    5    5    0  503 -0.46643777415E+03  0.32358031049E+02  0.15503623034E+03  0.49259260250E+03  0.00000000000E+00 0.  1.
         -3    1    6    6    0  502 -0.21628547839E+03 -0.69728621163E+03 -0.23748863757E+03  0.76771630311E+03  0.00000000000E+00 0.  1.
<mgrwt>
<rscale>  0 0.24422408E+04</rscale>
<asrwt>0</asrwt>
<pdfrwt beam="1">  1        1 0.21280030E+00 0.24422408E+04</pdfrwt>
<pdfrwt beam="2">  1       -1 0.16585098E+00 0.24422408E+04</pdfrwt>
<totfact> 0.18617629E+00</totfact>
</mgrwt>
</event>
<event>
12    1  0.2048318E-007  0.1462027E+04  0.7818608E-02  0.8910105E-01
          1   -1    0    0  501    0  0.00000000000E+00  0.00000000000E+00  0.18890432600E+04  0.18890432600E+04  0.00000000000E+00 0. -1.
         -1   -1    0    0    0  501 -0.00000000000E+00 -0.00000000000E+00 -0.28288443962E+03  0.28288443962E+03  0.00000000000E+00 0.  1.
         23    2    1    2    0    0 -0.44675728342E+03  0.49217749725E+02  0.48592482310E+03  0.66768978109E+03  0.87591397324E+02 0.  0.
        254    2    1    2    0    0  0.44675728342E+03 -0.49217749725E+02  0.11202339973E+04  0.15042379185E+04  0.89765976278E+03 0.  0.
        -24    2    4    4    0    0  0.56773065287E+03 -0.27773971518E+03  0.44835643221E+03  0.77983828070E+03  0.87560322945E+02 0.  0.
         24    2    4    4    0    0 -0.12097336945E+03  0.22852196545E+03  0.67187756505E+03  0.72439963782E+03  0.80489303890E+02 0.  0.
         13    1    3    3    0    0 -0.30056276054E+03  0.70840636007E+02  0.30432098365E+03  0.43355233804E+03  0.00000000000E+00 0.  1.
        -13    1    3    3    0    0 -0.14619452288E+03 -0.21622886282E+02  0.18160383945E+03  0.23413744304E+03  0.00000000000E+00 0. -1.
          4    1    6    6  502    0 -0.18865198859E+02  0.18237209801E+02  0.15383286789E+03  0.15605461477E+03  0.00000000000E+00 0. -1.
          3    1    5    5  503    0  0.18009716702E+03 -0.81713136500E+02  0.19101029879E+03  0.27494901435E+03  0.00000000000E+00 0. -1.
         -4    1    5    5    0  503  0.38763348584E+03 -0.19602657868E+03  0.25734613342E+03  0.50488926636E+03  0.00000000000E+00 0.  1.
         -3    1    6    6    0  502 -0.10210817059E+03  0.21028475565E+03  0.51804469717E+03  0.56834502305E+03  0.00000000000E+00 0.  1.
<mgrwt>
<rscale>  0 0.14620273E+04</rscale>
<asrwt>0</asrwt>
<pdfrwt beam="1">  1        1 0.29062203E+00 0.14620273E+04</pdfrwt>
<pdfrwt beam="2">  1       -1 0.43520684E-01 0.14620273E+04</pdfrwt>
<totfact> 0.17933599E+01</totfact>
</mgrwt>
</event>
<event>
12    1  0.2048318E-007  0.2367009E+04  0.7818608E-02  0.8451959E-01
         -2   -1    0    0    0  501 -0.00000000000E+00  0.00000000000E+00  0.19580484085E+04  0.19580484085E+04  0.00000000000E+00 0.  1.
          2   -1    0    0  501    0  0.00000000000E+00 -0.00000000000E+00 -0.71534661277E+03  0.71534661277E+03  0.00000000000E+00 0. -1.
         23    2    1    2    0    0 -0.40088671006E+03  0.90156901811E+03  0.77881447942E+03  0.12602668583E+04  0.90463871579E+02 0.  0.
        254    2    1    2    0    0  0.40088671006E+03 -0.90156901811E+03  0.46388731631E+03  0.14131281630E+04  0.89900106452E+03 0.  0.
        -24    2    4    4    0    0  0.39502488578E+03 -0.10146143873E+04  0.19238879763E+03  0.11085654632E+04  0.80105689551E+02 0.  0.
         24    2    4    4    0    0  0.58618242841E+01  0.11304536921E+03  0.27149851868E+03  0.30456269972E+03  0.78951731672E+02 0.  0.
         13    1    3    3    0    0 -0.14607205556E+03  0.40534154791E+03  0.29864095485E+03  0.52423776647E+03  0.00000000000E+00 0. -1.
        -13    1    3    3    0    0 -0.25481465449E+03  0.49622747020E+03  0.48017352457E+03  0.73602909183E+03  0.00000000000E+00 0.  1.
          2    1    6    6  502    0 -0.10206271260E+02  0.11356055649E+03  0.26237400167E+03  0.28607741036E+03  0.00000000000E+00 0. -1.
          1    1    5    5  503    0  0.27185209238E+03 -0.79119410411E+03  0.14428863431E+03  0.84894692443E+03  0.00000000000E+00 0. -1.
         -2    1    5    5    0  503  0.12317279339E+03 -0.22342028321E+03  0.48100163323E+02  0.25961853881E+03  0.00000000000E+00 0.  1.
         -1    1    6    6    0  502  0.16068095544E+02 -0.51518727659E+00  0.91245170058E+01  0.18485289366E+02  0.00000000000E+00 0.  1.
<mgrwt>
<rscale>  0 0.23670093E+04</rscale>
<asrwt>0</asrwt>
<pdfrwt beam="1">  1        2 0.11005333E+00 0.23670093E+04</pdfrwt>
<pdfrwt beam="2">  1       -2 0.30123821E+00 0.23670093E+04</pdfrwt>
<totfact> 0.11228321E+00</totfact>
</mgrwt>
</event>
<event>
12    1  0.2048318E-007  0.1483737E+04  0.7818608E-02  0.8895340E-01
          1   -1    0    0  501    0  0.00000000000E+00  0.00000000000E+00  0.11767910760E+04  0.11767910760E+04  0.00000000000E+00 0. -1.
         -1   -1    0    0    0  501 -0.00000000000E+00 -0.00000000000E+00 -0.46768596193E+03  0.46768596193E+03  0.00000000000E+00 0.  1.
         23    2    1    2    0    0  0.24781787226E+03  0.39379579525E+03  0.23688016907E+03  0.52741963407E+03  0.74635311568E+02 0.  0.
        254    2    1    2    0    0 -0.24781787226E+03 -0.39379579525E+03  0.47222494498E+03  0.11170574038E+04  0.89907286616E+03 0.  0.
        -24    2    4    4    0    0 -0.55273016174E+03 -0.11254168110E+03  0.15969393286E+03  0.59153558559E+03  0.78967937459E+02 0.  0.
         24    2    4    4    0    0  0.30491228948E+03 -0.28125411415E+03  0.31253101211E+03  0.52552181825E+03  0.80138423521E+02 0.  0.
         13    1    3    3    0    0  0.76472344864E+02  0.68532747809E+02  0.38436007761E+02  0.10964526321E+03  0.00000000000E+00 0. -1.
        -13    1    3    3    0    0  0.17134552739E+03  0.32526304744E+03  0.19844416131E+03  0.41777437086E+03  0.00000000000E+00 0.  1.
          4    1    6    6  502    0  0.18318002964E+03 -0.11745948150E+03  0.14502115805E+03  0.26150103124E+03  0.00000000000E+00 0. -1.
          3    1    5    5  503    0 -0.15287832765E+03 -0.53980740088E+02  0.75013549918E+02  0.17864136150E+03  0.00000000000E+00 0. -1.
         -4    1    5    5    0  503 -0.39985183408E+03 -0.58560941013E+02  0.84680382946E+02  0.41289422409E+03  0.00000000000E+00 0.  1.
         -3    1    6    6    0  502  0.12173225984E+03 -0.16379463264E+03  0.16750985406E+03  0.26402078701E+03  0.00000000000E+00 0.  1.
<mgrwt>
<rscale>  0 0.14837367E+04</rscale>
<asrwt>0</asrwt>
<pdfrwt beam="1">  1        1 0.18104478E+00 0.14837367E+04</pdfrwt>
<pdfrwt beam="2">  1       -1 0.71951687E-01 0.14837367E+04</pdfrwt>
<totfact> 0.20985756E+01</totfact>
</mgrwt>
</event>
<event>
12    1  0.2048318E-007  0.1747731E+04  0.7818608E-02  0.8734600E-01
         -1   -1    0    0    0  501 -0.00000000000E+00  0.00000000000E+00  0.52827643315E+03  0.52827643315E+03  0.00000000000E+00 0.  1.
          1   -1    0    0  501    0  0.00000000000E+00 -0.00000000000E+00 -0.14455335862E+04  0.14455335862E+04  0.00000000000E+00 0. -1.
         23    2    1    2    0    0  0.55738937095E+03 -0.19799282615E+03 -0.60803272659E+03  0.85332295840E+03  0.92586201282E+02 0.  0.
        254    2    1    2    0    0 -0.55738937095E+03  0.19799282615E+03 -0.30922442642E+03  0.11204870609E+04  0.89999302094E+03 0.  0.
        -24    2    4    4    0    0 -0.11038401994E+03 -0.57081308263E+02 -0.53340214847E+03  0.55322498733E+03  0.78084102100E+02 0.  0.
         24    2    4    4    0    0 -0.44700535101E+03  0.25507413441E+03  0.22417772205E+03  0.56726207359E+03  0.81572122641E+02 0.  0.
         13    1    3    3    0    0  0.48209892859E+03 -0.13549858250E+03 -0.51393125474E+03  0.71756851757E+03  0.00000000000E+00 0. -1.
        -13    1    3    3    0    0  0.75290442353E+02 -0.62494243649E+02 -0.94101471853E+02  0.13575444083E+03  0.00000000000E+00 0.  1.
          2    1    6    6  502    0 -0.36508176040E+03  0.22802241870E+03  0.15797342976E+03  0.45851338008E+03  0.00000000000E+00 0. -1.
          3    1    5    5  503    0 -0.10432371612E+03 -0.71415275427E+02 -0.50747261639E+03  0.52298378148E+03  0.00000000000E+00 0. -1.
         -4    1    5    5    0  503 -0.60603038160E+01  0.14333967164E+02 -0.25929532084E+02  0.30241205847E+02  0.00000000000E+00 0.  1.
         -1    1    6    6    0  502 -0.81923590609E+02  0.27051715718E+02  0.66204292296E+02  0.10874869351E+03  0.00000000000E+00 0.  1.
<mgrwt>
<rscale>  0 0.17477315E+04</rscale>
<asrwt>0</asrwt>
<pdfrwt beam="1">  1        1 0.22238978E+00 0.17477315E+04</pdfrwt>
<pdfrwt beam="2">  1       -1 0.81273299E-01 0.17477315E+04</pdfrwt>
<totfact> 0.10203549E+01</totfact>
</mgrwt>
</event>
<event>
12    1  0.2048318E-007  0.1780786E+04  0.7818608E-02  0.8716585E-01
         -1   -1    0    0    0  501 -0.00000000000E+00  0.00000000000E+00  0.46738125388E+03  0.46738125388E+03  0.00000000000E+00 0.  1.
          1   -1    0    0  501    0  0.00000000000E+00 -0.00000000000E+00 -0.16962581803E+04  0.16962581803E+04  0.00000000000E+00 0. -1.
         23    2    1    2    0    0  0.57625144561E+03 -0.31308686228E+03 -0.53585892672E+03  0.85167529327E+03  0.90093861637E+02 0.  0.
        254    2    1    2    0    0 -0.57625144561E+03  0.31308686228E+03 -0.69301799971E+03  0.13119641409E+04  0.90049255813E+03 0.  0.
        -24    2    4    4    0    0 -0.77190148110E+02  0.22689223211E+03 -0.75436484985E+03  0.79556023103E+03  0.80070909463E+02 0.  0.
         24    2    4    4    0    0 -0.49906129750E+03  0.86194630172E+02  0.61346850144E+02  0.51640390989E+03  0.80111604619E+02 0.  0.
         13    1    3    3    0    0  0.64516123337E+02 -0.27729913726E+02 -0.96394948657E+02  0.11926132824E+03  0.00000000000E+00 0. -1.
        -13    1    3    3    0    0  0.51173532228E+03 -0.28535694855E+03 -0.43946397807E+03  0.73241396503E+03  0.00000000000E+00 0.  1.
          2    1    6    6  502    0 -0.77551681978E+02  0.44362616205E+01 -0.18077260428E+02  0.79754191986E+02  0.00000000000E+00 0. -1.
          3    1    5    5  503    0 -0.10813072054E+01  0.10054580729E+03 -0.23387563210E+03  0.25457501818E+03  0.00000000000E+00 0. -1.
         -2    1    5    5    0  503 -0.76108840904E+02  0.12634642482E+03 -0.52048921775E+03  0.54098521285E+03  0.00000000000E+00 0.  1.
         -1    1    6    6    0  502 -0.42150961553E+03  0.81758368551E+02  0.79424110572E+02  0.43664971791E+03  0.00000000000E+00 0.  1.
<mgrwt>
<rscale>  0 0.17807855E+04</rscale>
<asrwt>0</asrwt>
<pdfrwt beam="1">  1        1 0.26096280E+00 0.17807855E+04</pdfrwt>
<pdfrwt beam="2">  1       -1 0.71904809E-01 0.17807855E+04</pdfrwt>
<totfact> 0.88442284E+00</totfact>
</mgrwt>
</event>
<event>
12    1  0.2048318E-007  0.2036156E+04  0.7818608E-02  0.8589901E-01
         -1   -1    0    0    0  501 -0.00000000000E+00  0.00000000000E+00  0.81087233084E+03  0.81087233084E+03  0.00000000000E+00 0.  1.
          1   -1    0    0  501    0  0.00000000000E+00 -0.00000000000E+00 -0.12782318053E+04  0.12782318053E+04  0.00000000000E+00 0. -1.
         23    2    1    2    0    0 -0.39416240006E+02 -0.53255644345E+03 -0.82187892354E+03  0.98434801439E+03  0.91027704755E+02 0.  0.
        254    2    1    2    0    0  0.39416240006E+02  0.53255644345E+03  0.35451944906E+03  0.11047561218E+04  0.89979555643E+03 0.  0.
        -24    2    4    4    0    0 -0.27550676333E+03  0.11526390449E+03  0.47136274360E+03  0.56329488545E+03  0.76997062310E+02 0.  0.
         24    2    4    4    0    0  0.31492300333E+03  0.41729253896E+03 -0.11684329453E+03  0.54146123631E+03  0.78856539712E+02 0.  0.
         13    1    3    3    0    0  0.12148638251E+02 -0.15973086181E+03 -0.31057845107E+03  0.34945745363E+03  0.00000000000E+00 0. -1.
        -13    1    3    3    0    0 -0.51564878256E+02 -0.37282558165E+03 -0.51130047247E+03  0.63489056076E+03  0.00000000000E+00 0.  1.
          4    1    6    6  502    0  0.27816280056E+03  0.36479978674E+03 -0.12831263251E+03  0.47635864607E+03  0.00000000000E+00 0. -1.
          3    1    5    5  503    0 -0.16987756103E+03  0.77240505966E+02  0.35818213605E+03  0.40387983868E+03  0.00000000000E+00 0. -1.
         -2    1    5    5    0  503 -0.10562920229E+03  0.38023398526E+02  0.11318060754E+03  0.15941504677E+03  0.00000000000E+00 0.  1.
         -3    1    6    6    0  502  0.36760202774E+02  0.52492752215E+02  0.11469337977E+02  0.65102590246E+02  0.00000000000E+00 0.  1.
<mgrwt>
<rscale>  0 0.20361560E+04</rscale>
<asrwt>0</asrwt>
<pdfrwt beam="1">  1        1 0.19665105E+00 0.20361560E+04</pdfrwt>
<pdfrwt beam="2">  1       -1 0.12474959E+00 0.20361560E+04</pdfrwt>
<totfact> 0.48773776E+00</totfact>
</mgrwt>
</event>
<event>
12    1  0.2048318E-007  0.2294872E+04  0.7818608E-02  0.8479946E-01
          2   -1    0    0  501    0  0.00000000000E+00  0.00000000000E+00  0.11163567335E+04  0.11163567335E+04  0.00000000000E+00 0.  1.
         -2   -1    0    0    0  501 -0.00000000000E+00 -0.00000000000E+00 -0.11793800547E+04  0.11793800547E+04  0.00000000000E+00 0. -1.
         23    2    1    2    0    0 -0.61392082420E+03 -0.25514614980E+02  0.72215777827E+03  0.95289784906E+03  0.94618603203E+02 0.  0.
        254    2    1    2    0    0  0.61392082420E+03  0.25514614980E+02 -0.78518109948E+03  0.13428389391E+04  0.89953170228E+03 0.  0.
        -24    2    4    4    0    0  0.19315255053E+03 -0.25385999106E+03 -0.76334169926E+03  0.83117962212E+03  0.80101258138E+02 0.  0.
         24    2    4    4    0    0  0.42076827367E+03  0.27937460604E+03 -0.21839400223E+02  0.51165931699E+03  0.78880838138E+02 0.  0.
         13    1    3    3    0    0 -0.55012520364E+03  0.49221835557E+01  0.62320224380E+03  0.83128996400E+03  0.00000000000E+00 0. -1.
        -13    1    3    3    0    0 -0.63795620564E+02 -0.30436798535E+02  0.98955534463E+02  0.12160788506E+03  0.00000000000E+00 0.  1.
          2    1    6    6  502    0  0.31514505102E+03  0.24074998556E+03  0.25106996535E+01  0.39658953888E+03  0.00000000000E+00 0. -1.
          1    1    5    5  503    0  0.16058420937E+03 -0.24629341552E+03 -0.65909515596E+03  0.72170226509E+03  0.00000000000E+00 0. -1.
         -4    1    5    5    0  503  0.32568341161E+02 -0.75665755412E+01 -0.10424654330E+03  0.10947735703E+03  0.00000000000E+00 0.  1.
         -1    1    6    6    0  502  0.10562322265E+03  0.38624620475E+02 -0.24350099877E+02  0.11506977811E+03  0.00000000000E+00 0.  1.
<mgrwt>
<rscale>  0 0.22948716E+04</rscale>
<asrwt>0</asrwt>
<pdfrwt beam="1">  1        2 0.17174719E+00 0.22948716E+04</pdfrwt>
<pdfrwt beam="2">  1       -2 0.18144308E+00 0.22948716E+04</pdfrwt>
<totfact> 0.34212073E+00</totfact>
</mgrwt>
</event>
<event>
12    1  0.2048318E-007  0.2475466E+04  0.7818608E-02  0.8411779E-01
         -2   -1    0    0    0  501 -0.00000000000E+00  0.00000000000E+00  0.69478091685E+03  0.69478091685E+03  0.00000000000E+00 0.  1.
          2   -1    0    0  501    0  0.00000000000E+00 -0.00000000000E+00 -0.22049862690E+04  0.22049862690E+04  0.00000000000E+00 0. -1.
         23    2    1    2    0    0 -0.56468366595E+03  0.10758499751E+03 -0.17168945545E+04  0.18128194535E+04  0.90251234982E+02 0.  0.
        254    2    1    2    0    0  0.56468366595E+03 -0.10758499751E+03  0.20668920238E+03  0.10869477323E+04  0.89905103980E+03 0.  0.
        -24    2    4    4    0    0  0.45275490674E+03  0.21699045108E+03 -0.20251710289E+03  0.54709274686E+03  0.78901427549E+02 0.  0.
         24    2    4    4    0    0  0.11192875921E+03 -0.32457544860E+03  0.40920630526E+03  0.53985498548E+03  0.78207008027E+02 0.  0.
         13    1    3    3    0    0 -0.50331468395E+03  0.65714685284E+02 -0.15000121582E+04  0.15835657756E+04  0.00000000000E+00 0. -1.
        -13    1    3    3    0    0 -0.61368982002E+02  0.41870312230E+02 -0.21688239636E+03  0.22925367794E+03  0.00000000000E+00 0.  1.
          2    1    6    6  502    0 -0.51487341309E+01 -0.58696420206E+02  0.96153149940E+02  0.11277059657E+03  0.00000000000E+00 0. -1.
          3    1    5    5  503    0  0.15717487546E+03  0.37773971898E+02 -0.49395108608E+02  0.16902866971E+03  0.00000000000E+00 0. -1.
         -4    1    5    5    0  503  0.29558003128E+03  0.17921647918E+03 -0.15312199428E+03  0.37806407715E+03  0.00000000000E+00 0.  1.
         -1    1    6    6    0  502  0.11707749335E+03 -0.26587902839E+03  0.31305315532E+03  0.42708438890E+03  0.00000000000E+00 0.  1.
<mgrwt>
<rscale>  0 0.24754655E+04</rscale>
<asrwt>0</asrwt>
<pdfrwt beam="1">  1        2 0.33922866E+00 0.24754655E+04</pdfrwt>
<pdfrwt beam="2">  1       -2 0.10688937E+00 0.24754655E+04</pdfrwt>
<totfact> 0.32283859E+00</totfact>
</mgrwt>
</event>
<event>
12    1  0.2048318E-007  0.1222073E+04  0.7818608E-02  0.9093753E-01
         -1   -1    0    0    0  501 -0.00000000000E+00  0.00000000000E+00  0.29718022152E+03  0.29718022152E+03  0.00000000000E+00 0.  1.
          1   -1    0    0  501    0  0.00000000000E+00 -0.00000000000E+00 -0.12563602800E+04  0.12563602800E+04  0.00000000000E+00 0. -1.
         23    2    1    2    0    0  0.54711255318E+02  0.10545276002E+03  0.84243486209E+02  0.17049169361E+03  0.88638854735E+02 0.  0.
        254    2    1    2    0    0 -0.54711255318E+02 -0.10545276002E+03 -0.10434235447E+04  0.13830488079E+04  0.89998761401E+03 0.  0.
        -24    2    4    4    0    0 -0.42233527954E+03  0.37811734862E+02 -0.26418324613E+03  0.50584970138E+03  0.79336733057E+02 0.  0.
         24    2    4    4    0    0  0.36762402422E+03 -0.14326449488E+03 -0.77924029853E+03  0.87719910649E+03  0.81183070305E+02 0.  0.
         13    1    3    3    0    0 -0.13281887359E+02 -0.29023468182E+01 -0.50335380573E+01  0.14497194703E+02  0.00000000000E+00 0. -1.
        -13    1    3    3    0    0  0.67993142677E+02  0.10835510684E+03  0.89277024266E+02  0.15599449891E+03  0.00000000000E+00 0.  1.
          2    1    6    6  502    0  0.31312983492E+02 -0.11140447675E+02 -0.27538563978E+02  0.43162310128E+02  0.00000000000E+00 0. -1.
          1    1    5    5  503    0 -0.15414650078E+03  0.40951058249E+02 -0.67174811451E+02  0.17306238230E+03  0.00000000000E+00 0. -1.
         -2    1    5    5    0  503 -0.26818877876E+03 -0.31393233868E+01 -0.19700843468E+03  0.33278731907E+03  0.00000000000E+00 0.  1.
         -1    1    6    6    0  502  0.33631104073E+03 -0.13212404721E+03 -0.75170173455E+03  0.83403679637E+03  0.00000000000E+00 0.  1.
<mgrwt>
<rscale>  0 0.12220727E+04</rscale>
<asrwt>0</asrwt>
<pdfrwt beam="1">  1        1 0.19328620E+00 0.12220727E+04</pdfrwt>
<pdfrwt beam="2">  1       -1 0.45720034E-01 0.12220727E+04</pdfrwt>
<totfact> 0.45660881E+01</totfact>
</mgrwt>
</event>
<event>
12    1  0.2048318E-007  0.1142896E+04  0.7818608E-02  0.9164363E-01
         -2   -1    0    0    0  501 -0.00000000000E+00  0.00000000000E+00  0.12035859820E+04  0.12035859820E+04  0.00000000000E+00 0.  1.
          2   -1    0    0  501    0  0.00000000000E+00 -0.00000000000E+00 -0.27131634693E+03  0.27131634693E+03  0.00000000000E+00 0. -1.
         23    2    1    2    0    0  0.16910693557E+03 -0.47539503841E+02  0.30801215667E+03  0.36604586521E+03  0.90889640215E+02 0.  0.
        254    2    1    2    0    0 -0.16910693557E+03  0.47539503841E+02  0.62425747845E+03  0.11088564638E+04  0.89944877439E+03 0.  0.
        -24    2    4    4    0    0  0.24583690834E+03 -0.25042555863E+03  0.41949587520E+03  0.55267081209E+03  0.79495228236E+02 0.  0.
         24    2    4    4    0    0 -0.41494384390E+03  0.29796506248E+03  0.20476160325E+03  0.55618565168E+03  0.80334257426E+02 0.  0.
         13    1    3    3    0    0  0.21401335898E+02 -0.17376202226E+02  0.55849126585E+01  0.28127225804E+02  0.00000000000E+00 0. -1.
        -13    1    3    3    0    0  0.14770559967E+03 -0.30163301615E+02  0.30242724401E+03  0.33791863940E+03  0.00000000000E+00 0.  1.
          2    1    6    6  502    0 -0.15619770077E+01  0.12344899225E+02  0.14010593656E+02  0.18738544331E+02  0.00000000000E+00 0. -1.
          1    1    5    5  503    0  0.56013338568E+02 -0.11012630749E+03  0.13503749334E+03  0.18303120582E+03  0.00000000000E+00 0. -1.
         -2    1    5    5    0  503  0.18982356977E+03 -0.14029925115E+03  0.28445838186E+03  0.36963960627E+03  0.00000000000E+00 0.  1.
         -1    1    6    6    0  502 -0.41338186689E+03  0.28562016325E+03  0.19075100960E+03  0.53744710734E+03  0.00000000000E+00 0.  1.
<mgrwt>
<rscale>  0 0.11428955E+04</rscale>
<asrwt>0</asrwt>
<pdfrwt beam="1">  1        2 0.41740977E-01 0.11428955E+04</pdfrwt>
<pdfrwt beam="2">  1       -2 0.18516707E+00 0.11428955E+04</pdfrwt>
<totfact> 0.20309219E+01</totfact>
</mgrwt>
</event>
<event>
12    1  0.2048318E-007  0.2333818E+04  0.7818608E-02  0.8464705E-01
         -2   -1    0    0    0  501 -0.00000000000E+00  0.00000000000E+00  0.79587385052E+03  0.79587385052E+03  0.00000000000E+00 0.  1.
          2   -1    0    0  501    0  0.00000000000E+00 -0.00000000000E+00 -0.17109208261E+04  0.17109208261E+04  0.00000000000E+00 0. -1.
         23    2    1    2    0    0 -0.45630213643E+03  0.83872964208E+03 -0.10588870074E+03  0.96535233031E+03  0.94940257415E+02 0.  0.
        254    2    1    2    0    0  0.45630213643E+03 -0.83872964208E+03 -0.80915827481E+03  0.15414423463E+04  0.89979349909E+03 0.  0.
        -24    2    4    4    0    0  0.57929272072E+03 -0.85017408379E+03 -0.40163202838E+03  0.11074719544E+04  0.82521600370E+02 0.  0.
         24    2    4    4    0    0 -0.12299058430E+03  0.11444441718E+02 -0.40752624643E+03  0.43397039188E+03  0.83636119147E+02 0.  0.
         13    1    3    3    0    0 -0.25431200847E+03  0.40497241060E+03 -0.90056845692E+02  0.48660814467E+03  0.00000000000E+00 0.  1.
        -13    1    3    3    0    0 -0.20199012795E+03  0.43375723147E+03 -0.15831855048E+02  0.47874418564E+03  0.00000000000E+00 0. -1.
          2    1    6    6  502    0 -0.12474379352E+03  0.28940122810E+02 -0.38263654150E+03  0.40349630435E+03  0.00000000000E+00 0. -1.
          1    1    5    5  503    0  0.48793388218E+03 -0.73590089547E+03 -0.31517125699E+03  0.93753001155E+03  0.00000000000E+00 0. -1.
         -2    1    5    5    0  503  0.91358838546E+02 -0.11427318833E+03 -0.86460771384E+02  0.16994194285E+03  0.00000000000E+00 0.  1.
         -3    1    6    6    0  502  0.17532092216E+01 -0.17495681092E+02 -0.24889704931E+02  0.30474087533E+02  0.00000000000E+00 0.  1.
<mgrwt>
<rscale>  0 0.23338185E+04</rscale>
<asrwt>0</asrwt>
<pdfrwt beam="1">  1        2 0.26321859E+00 0.23338185E+04</pdfrwt>
<pdfrwt beam="2">  1       -2 0.12244213E+00 0.23338185E+04</pdfrwt>
<totfact> 0.44157202E+00</totfact>
</mgrwt>
</event>
<event>
12    1  0.2048318E-007  0.1377273E+04  0.7818608E-02  0.8970435E-01
          2   -1    0    0  501    0  0.00000000000E+00  0.00000000000E+00  0.36817215296E+04  0.36817215296E+04  0.00000000000E+00 0. -1.
         -2   -1    0    0    0  501 -0.00000000000E+00 -0.00000000000E+00 -0.12880401367E+03  0.12880401367E+03  0.00000000000E+00 0.  1.
         23    2    1    2    0    0 -0.36316383600E+03 -0.75257241282E+01  0.65256276636E+03  0.75232670994E+03  0.90623982163E+02 0.  0.
        254    2    1    2    0    0  0.36316383600E+03  0.75257241282E+01  0.29003547496E+04  0.30581988333E+04  0.89920955427E+03 0.  0.
        -24    2    4    4    0    0  0.26667269853E+03  0.26834277246E+03  0.46098804530E+03  0.60172375285E+03  0.80245405901E+02 0.  0.
         24    2    4    4    0    0  0.96491137472E+02 -0.26081704833E+03  0.24393667043E+04  0.24564750805E+04  0.80148803821E+02 0.  0.
         11    1    3    3    0    0 -0.29884807470E+03 -0.40204470554E+02  0.50774828064E+03  0.59053779532E+03  0.00000000000E+00 0.  1.
        -11    1    3    3    0    0 -0.64315761298E+02  0.32678746426E+02  0.14481448572E+03  0.16178891462E+03  0.00000000000E+00 0. -1.
          2    1    6    6  502    0  0.98315167473E+02 -0.25592104069E+03  0.24322187852E+04  0.24476212269E+04  0.00000000000E+00 0. -1.
          1    1    5    5  503    0  0.17281866157E+03  0.13278083226E+03  0.21950962289E+03  0.30932428573E+03  0.00000000000E+00 0. -1.
         -2    1    5    5    0  503  0.93854036960E+02  0.13556194020E+03  0.24147842241E+03  0.29239946712E+03  0.00000000000E+00 0.  1.
         -1    1    6    6    0  502 -0.18240300009E+01 -0.48960076438E+01  0.71479190842E+01  0.88538535976E+01  0.00000000000E+00 0.  1.
<mgrwt>
<rscale>  0 0.13772734E+04</rscale>
<asrwt>0</asrwt>
<pdfrwt beam="1">  1        2 0.56641862E+00 0.13772734E+04</pdfrwt>
<pdfrwt beam="2">  1       -2 0.19816005E-01 0.13772734E+04</pdfrwt>
<totfact> 0.13032809E+01</totfact>
</mgrwt>
</event>
<event>
12    1  0.2048318E-007  0.2676083E+04  0.7818608E-02  0.8342807E-01
         -2   -1    0    0    0  501 -0.00000000000E+00  0.00000000000E+00  0.10706615524E+04  0.10706615524E+04  0.00000000000E+00 0.  1.
          2   -1    0    0  501    0  0.00000000000E+00 -0.00000000000E+00 -0.16721956001E+04  0.16721956001E+04  0.00000000000E+00 0. -1.
         23    2    1    2    0    0 -0.10101447756E+04 -0.31405986548E+03 -0.81524920574E+03  0.13386512012E+04  0.91267213110E+02 0.  0.
        254    2    1    2    0    0  0.10101447756E+04  0.31405986548E+03  0.21371515805E+03  0.14042059513E+04  0.89838417067E+03 0.  0.
        -24    2    4    4    0    0  0.77518812743E+03  0.22920483520E+03 -0.26819157784E+03  0.85548004277E+03  0.80423204206E+02 0.  0.
         24    2    4    4    0    0  0.23495664817E+03  0.84855030284E+02  0.48190673589E+03  0.54872590853E+03  0.80380457269E+02 0.  0.
         11    1    3    3    0    0 -0.40961187448E+03 -0.13843988574E+03 -0.27869607591E+03  0.51441130665E+03  0.00000000000E+00 0.  1.
        -11    1    3    3    0    0 -0.60053290111E+03 -0.17561997974E+03 -0.53655312983E+03  0.82423989453E+03  0.00000000000E+00 0. -1.
          2    1    6    6  502    0  0.54827802273E+02  0.20851280791E+02  0.52625810014E+02  0.78805708501E+02  0.00000000000E+00 0. -1.
          1    1    5    5  503    0  0.47356944897E+03  0.10998403284E+03 -0.18906002114E+03  0.52163991610E+03  0.00000000000E+00 0. -1.
         -2    1    5    5    0  503  0.30161867846E+03  0.11922080236E+03 -0.79131556697E+02  0.33384012667E+03  0.00000000000E+00 0.  1.
         -1    1    6    6    0  502  0.18012884590E+03  0.64003749493E+02  0.42928092587E+03  0.46992020003E+03  0.00000000000E+00 0.  1.
<mgrwt>
<rscale>  0 0.26760834E+04</rscale>
<asrwt>0</asrwt>
<pdfrwt beam="1">  1        2 0.25726086E+00 0.26760834E+04</pdfrwt>
<pdfrwt beam="2">  1       -2 0.16471716E+00 0.26760834E+04</pdfrwt>
<totfact> 0.20783982E+00</totfact>
</mgrwt>
</event>
<event>
12    1  0.2048318E-007  0.1740463E+04  0.7818608E-02  0.8738617E-01
         -2   -1    0    0    0  501 -0.00000000000E+00  0.00000000000E+00  0.64135754155E+03  0.64135754155E+03  0.00000000000E+00 0.  1.
          2   -1    0    0  501    0  0.00000000000E+00 -0.00000000000E+00 -0.11807810399E+04  0.11807810399E+04  0.00000000000E+00 0. -1.
         23    2    1    2    0    0 -0.43773204075E+03 -0.31906508298E+03  0.14514997640E+03  0.56855210444E+03  0.93654221150E+02 0.  0.
        254    2    1    2    0    0  0.43773204075E+03  0.31906508298E+03 -0.68457347477E+03  0.12535864770E+04  0.89968124709E+03 0.  0.
        -24    2    4    4    0    0  0.35274649996E+03 -0.14820008494E+03  0.29292852646E+02  0.39215699238E+03  0.80843534341E+02 0.  0.
         24    2    4    4    0    0  0.84985540787E+02  0.46726516792E+03 -0.71386632742E+03  0.86142948465E+03  0.83044231081E+02 0.  0.
         11    1    3    3    0    0 -0.17834434204E+03 -0.18487049602E+03  0.52697874167E+02  0.26222294060E+03  0.00000000000E+00 0.  1.
        -11    1    3    3    0    0 -0.25938769871E+03 -0.13419458696E+03  0.92452102231E+02  0.30632916384E+03  0.00000000000E+00 0. -1.
          4    1    6    6  502    0 -0.82301631375E+01  0.32456150437E+02 -0.26235824143E+02  0.42537698044E+02  0.00000000000E+00 0. -1.
          3    1    5    5  503    0  0.91467617061E+02 -0.73885758636E+02 -0.85492166518E+01  0.11789198194E+03  0.00000000000E+00 0. -1.
         -4    1    5    5    0  503  0.26127888290E+03 -0.74314326308E+02  0.37842069298E+02  0.27426501044E+03  0.00000000000E+00 0.  1.
         -3    1    6    6    0  502  0.93215703925E+02  0.43480901748E+03 -0.68763050328E+03  0.81889178661E+03  0.00000000000E+00 0.  1.
<mgrwt>
<rscale>  0 0.17404630E+04</rscale>
<asrwt>0</asrwt>
<pdfrwt beam="1">  1        2 0.18165862E+00 0.17404630E+04</pdfrwt>
<pdfrwt beam="2">  1       -2 0.98670392E-01 0.17404630E+04</pdfrwt>
<totfact> 0.15732483E+01</totfact>
</mgrwt>
</event>
<event>
12    1  0.2048318E-007  0.1505519E+04  0.7818608E-02  0.8880791E-01
          2   -1    0    0  501    0  0.00000000000E+00  0.00000000000E+00  0.13960772982E+04  0.13960772982E+04  0.00000000000E+00 0. -1.
         -2   -1    0    0    0  501 -0.00000000000E+00 -0.00000000000E+00 -0.40588525002E+03  0.40588525002E+03  0.00000000000E+00 0.  1.
         23    2    1    2    0    0 -0.47377452781E+03 -0.50829989722E+02  0.29573652626E+03  0.56817582879E+03  0.91201361849E+02 0.  0.
        254    2    1    2    0    0  0.47377452781E+03  0.50829989722E+02  0.69445552197E+03  0.12337867195E+04  0.90161810436E+03 0.  0.
        -24    2    4    4    0    0  0.27416186295E+03  0.44279491170E+03  0.19065752047E+03  0.56043996290E+03  0.80688295147E+02 0.  0.
         24    2    4    4    0    0  0.19961266486E+03 -0.39196492198E+03  0.50379800151E+03  0.67334675658E+03  0.78113457495E+02 0.  0.
         13    1    3    3    0    0 -0.31021343505E+03 -0.37213371548E+02  0.14163170824E+03  0.34304045109E+03  0.00000000000E+00 0. -1.
        -13    1    3    3    0    0 -0.16356109276E+03 -0.13616618174E+02  0.15410481801E+03  0.22513537769E+03  0.00000000000E+00 0.  1.
          2    1    6    6  502    0  0.14964077768E+03 -0.35110573454E+03  0.41890286175E+03  0.56669851487E+03  0.00000000000E+00 0. -1.
          1    1    5    5  503    0  0.25004368798E+03  0.34855756446E+03  0.16700270028E+03  0.46033045038E+03  0.00000000000E+00 0. -1.
         -4    1    5    5    0  503  0.24118174971E+02  0.94237347241E+02  0.23654820185E+02  0.10010951252E+03  0.00000000000E+00 0.  1.
         -1    1    6    6    0  502  0.49971887178E+02 -0.40859187444E+02  0.84895139753E+02  0.10664824171E+03  0.00000000000E+00 0.  1.
<mgrwt>
<rscale>  0 0.15055194E+04</rscale>
<asrwt>0</asrwt>
<pdfrwt beam="1">  1        2 0.21478112E+00 0.15055194E+04</pdfrwt>
<pdfrwt beam="2">  1       -2 0.62443885E-01 0.15055194E+04</pdfrwt>
<totfact> 0.33420689E+01</totfact>
</mgrwt>
</event>
<event>
12    1  0.2048318E-007  0.4411544E+04  0.7818608E-02  0.7926308E-01
          2   -1    0    0  501    0  0.00000000000E+00  0.00000000000E+00  0.35438003973E+04  0.35438003973E+04  0.00000000000E+00 0.  1.
         -2   -1    0    0    0  501 -0.00000000000E+00 -0.00000000000E+00 -0.13729416054E+04  0.13729416054E+04  0.00000000000E+00 0. -1.
         23    2    1    2    0    0 -0.14929222431E+04  0.14513842625E+03 -0.61761187675E+03  0.16247648323E+04  0.92381509549E+02 0.  0.
        254    2    1    2    0    0  0.14929222431E+04 -0.14513842625E+03  0.27884706686E+04  0.32919771705E+04  0.90092343441E+03 0.  0.
        -24    2    4    4    0    0  0.80733444375E+03 -0.88257926395E+02  0.23114714914E+04  0.24510289290E+04  0.71161713231E+02 0.  0.
         24    2    4    4    0    0  0.68558779931E+03 -0.56880499855E+02  0.47699917724E+03  0.84094824154E+03  0.79998175201E+02 0.  0.
         13    1    3    3    0    0 -0.12509128049E+04  0.14582527768E+03 -0.49178596529E+03  0.13519989988E+04  0.00000000000E+00 0.  1.
        -13    1    3    3    0    0 -0.24200943817E+03 -0.68685143377E+00 -0.12582591146E+03  0.27276583349E+03  0.00000000000E+00 0. -1.
          2    1    6    6  502    0  0.43603405853E+03  0.24284812787E+01  0.30432216178E+03  0.53173637817E+03  0.00000000000E+00 0. -1.
          3    1    5    5  503    0  0.75844612041E+03 -0.67674546412E+02  0.21851261021E+04  0.23140000959E+04  0.00000000000E+00 0. -1.
         -4    1    5    5    0  503  0.48888323343E+02 -0.20583379983E+02  0.12634538927E+03  0.13702883303E+03  0.00000000000E+00 0.  1.
         -1    1    6    6    0  502  0.24955374078E+03 -0.59308981133E+02  0.17267701546E+03  0.30921186337E+03  0.00000000000E+00 0.  1.
<mgrwt>
<rscale>  0 0.44115444E+04</rscale>
<asrwt>0</asrwt>
<pdfrwt beam="1">  1        2 0.54520006E+00 0.44115444E+04</pdfrwt>
<pdfrwt beam="2">  1       -2 0.21122179E+00 0.44115444E+04</pdfrwt>
<totfact> 0.64848900E-02</totfact>
</mgrwt>
</event>
<event>
12    1  0.2048318E-007  0.1951040E+04  0.7818608E-02  0.8629859E-01
         -1   -1    0    0    0  501 -0.00000000000E+00  0.00000000000E+00  0.96670862966E+03  0.96670862966E+03  0.00000000000E+00 0.  1.
          1   -1    0    0  501    0  0.00000000000E+00 -0.00000000000E+00 -0.98441171138E+03  0.98441171138E+03  0.00000000000E+00 0. -1.
         23    2    1    2    0    0  0.32475493343E+03 -0.63365367337E+03  0.26940173860E+03  0.76628676392E+03  0.87380565545E+02 0.  0.
        254    2    1    2    0    0 -0.32475493343E+03  0.63365367337E+03 -0.28710482032E+03  0.11848335771E+04  0.90245148517E+03 0.  0.
        -24    2    4    4    0    0  0.38579053723E+02  0.66397632798E+03  0.62654244279E+02  0.67324475999E+03  0.83546663774E+02 0.  0.
         24    2    4    4    0    0 -0.36333398716E+03 -0.30322654615E+02 -0.34975906460E+03  0.51158881714E+03  0.80378261646E+02 0.  0.
         11    1    3    3    0    0  0.26327007871E+03 -0.47302535424E+03  0.16893869992E+03  0.56710175844E+03  0.00000000000E+00 0. -1.
        -11    1    3    3    0    0  0.61484854727E+02 -0.16062831912E+03  0.10046303868E+03  0.19918500547E+03  0.00000000000E+00 0.  1.
          4    1    6    6  502    0 -0.20570408598E+03 -0.39490801803E+02 -0.15342599791E+03  0.25964058090E+03  0.00000000000E+00 0. -1.
          3    1    5    5  503    0  0.50422725171E+02  0.59082124543E+03  0.34508297767E+02  0.59397223662E+03  0.00000000000E+00 0. -1.
         -2    1    5    5    0  503 -0.11843671448E+02  0.73155082551E+02  0.28145946512E+02  0.79272523370E+02  0.00000000000E+00 0.  1.
         -3    1    6    6    0  502 -0.15762990118E+03  0.91681471883E+01 -0.19633306669E+03  0.25194823624E+03  0.00000000000E+00 0.  1.
<mgrwt>
<rscale>  0 0.19510400E+04</rscale>
<asrwt>0</asrwt>
<pdfrwt beam="1">  1        1 0.15144796E+00 0.19510400E+04</pdfrwt>
<pdfrwt beam="2">  1       -1 0.14872441E+00 0.19510400E+04</pdfrwt>
<totfact> 0.51767028E+00</totfact>
</mgrwt>
</event>
<event>
12    1  0.2048318E-007  0.1318211E+04  0.7818608E-02  0.9015247E-01
         -2   -1    0    0    0  501 -0.00000000000E+00  0.00000000000E+00  0.97687459045E+03  0.97687459045E+03  0.00000000000E+00 0.  1.
          2   -1    0    0  501    0  0.00000000000E+00 -0.00000000000E+00 -0.44470394543E+03  0.44470394543E+03  0.00000000000E+00 0. -1.
         23    2    1    2    0    0  0.32030515214E+03  0.11771067547E+03  0.99708485420E+02  0.36698951704E+03  0.91040265536E+02 0.  0.
        254    2    1    2    0    0 -0.32030515214E+03 -0.11771067547E+03  0.43246215960E+03  0.10545890188E+04  0.89926819445E+03 0.  0.
        -24    2    4    4    0    0 -0.51742411264E+03  0.18382780444E+03  0.40003352932E+03  0.68414426110E+03  0.80660841726E+02 0.  0.
         24    2    4    4    0    0  0.19711896050E+03 -0.30153847991E+03  0.32428630274E+02  0.37044475773E+03  0.79977265623E+02 0.  0.
         13    1    3    3    0    0  0.18966411174E+03  0.51992435592E+02  0.13256923707E+02  0.19710767278E+03  0.00000000000E+00 0. -1.
        -13    1    3    3    0    0  0.13064104040E+03  0.65718239881E+02  0.86451561712E+02  0.16988184427E+03  0.00000000000E+00 0.  1.
          4    1    6    6  502    0  0.74173289881E+02 -0.11199125315E+03 -0.26592796918E+02  0.13693390582E+03  0.00000000000E+00 0. -1.
          1    1    5    5  503    0 -0.11162899700E+03  0.55430162927E+01  0.81342321498E+02  0.13823288779E+03  0.00000000000E+00 0. -1.
         -2    1    5    5    0  503 -0.40579511564E+03  0.17828478815E+03  0.31869120783E+03  0.54591137331E+03  0.00000000000E+00 0.  1.
         -3    1    6    6    0  502  0.12294567062E+03 -0.18954722676E+03  0.59021427192E+02  0.23351085192E+03  0.00000000000E+00 0.  1.
<mgrwt>
<rscale>  0 0.13182109E+04</rscale>
<asrwt>0</asrwt>
<pdfrwt beam="1">  1        2 0.68415992E-01 0.13182109E+04</pdfrwt>
<pdfrwt beam="2">  1       -2 0.15028840E+00 0.13182109E+04</pdfrwt>
<totfact> 0.20552165E+01</totfact>
</mgrwt>
</event>
<event>
12    1  0.2048318E-007  0.1327490E+04  0.7818608E-02  0.9008045E-01
         -2   -1    0    0    0  501 -0.00000000000E+00  0.00000000000E+00  0.87159980038E+03  0.87159980038E+03  0.00000000000E+00 0.  1.
          2   -1    0    0  501    0  0.00000000000E+00 -0.00000000000E+00 -0.50545829622E+03  0.50545829622E+03  0.00000000000E+00 0. -1.
         23    2    1    2    0    0 -0.31528212596E+03 -0.11526296296E+03 -0.24440632771E+01  0.34762336182E+03  0.90264382017E+02 0.  0.
        254    2    1    2    0    0  0.31528212596E+03  0.11526296296E+03  0.36858556744E+03  0.10294347348E+04  0.90066208040E+03 0.  0.
        -24    2    4    4    0    0 -0.13366332558E+03  0.23039357129E+03  0.47236389763E+03  0.54792190837E+03  0.78381653363E+02 0.  0.
         24    2    4    4    0    0  0.44894545153E+03 -0.11513060832E+03 -0.10377833019E+03  0.48151282641E+03  0.79231210744E+02 0.  0.
         13    1    3    3    0    0 -0.11780537359E+02 -0.26080212858E+02  0.11834481526E+02  0.30967943364E+02  0.00000000000E+00 0.  1.
        -13    1    3    3    0    0 -0.30350158860E+03 -0.89182750104E+02 -0.14278544803E+02  0.31665541846E+03  0.00000000000E+00 0. -1.
          4    1    6    6  502    0  0.32026273306E+03 -0.10371496108E+03 -0.10395974465E+03  0.35232462282E+03  0.00000000000E+00 0. -1.
          3    1    5    5  503    0  0.48158077222E+01  0.34019373009E+02  0.89859730532E+02  0.96204370562E+02  0.00000000000E+00 0. -1.
         -4    1    5    5    0  503 -0.13847913330E+03  0.19637419828E+03  0.38250416710E+03  0.45171753780E+03  0.00000000000E+00 0.  1.
         -3    1    6    6    0  502  0.12868271847E+03 -0.11415647243E+02  0.18141445477E+00  0.12918820359E+03  0.00000000000E+00 0.  1.
<mgrwt>
<rscale>  0 0.13274899E+04</rscale>
<asrwt>0</asrwt>
<pdfrwt beam="1">  1        2 0.77762815E-01 0.13274899E+04</pdfrwt>
<pdfrwt beam="2">  1       -2 0.13409228E+00 0.13274899E+04</pdfrwt>
<totfact> 0.23861710E+01</totfact>
</mgrwt>
</event>
<event>
12    1  0.2048318E-007  0.1639272E+04  0.7818608E-02  0.8796778E-01
         -2   -1    0    0    0  501 -0.00000000000E+00  0.00000000000E+00  0.14882842286E+04  0.14882842286E+04  0.00000000000E+00 0.  1.
          2   -1    0    0  501    0  0.00000000000E+00 -0.00000000000E+00 -0.45139450722E+03  0.45139450722E+03  0.00000000000E+00 0. -1.
         23    2    1    2    0    0 -0.65610429331E+02 -0.50195517223E+03  0.58849950540E+02  0.51750251974E+03  0.89898931554E+02 0.  0.
        254    2    1    2    0    0  0.65610429331E+02  0.50195517223E+03  0.97803977083E+03  0.14221762161E+04  0.89986647502E+03 0.  0.
        -24    2    4    4    0    0  0.24543152769E+03  0.14836805755E+03 -0.63991514127E+02  0.30440698077E+03  0.79492017061E+02 0.  0.
         24    2    4    4    0    0 -0.17982109836E+03  0.35358711468E+03  0.10420312850E+04  0.11177692353E+04  0.78863105900E+02 0.  0.
         13    1    3    3    0    0 -0.38206381369E+01 -0.28832859986E+03  0.36770406761E+01  0.28837735591E+03  0.00000000000E+00 0. -1.
        -13    1    3    3    0    0 -0.61789791194E+02 -0.21362657237E+03  0.55172909864E+02  0.22912516384E+03  0.00000000000E+00 0.  1.
          2    1    6    6  502    0 -0.40469163464E+01  0.29867415693E+02  0.39363624972E+02  0.49577565724E+02  0.00000000000E+00 0. -1.
          3    1    5    5  503    0  0.20417178587E+03  0.85644510205E+02 -0.36178657297E+02  0.22434347665E+03  0.00000000000E+00 0. -1.
         -2    1    5    5    0  503  0.41259741824E+02  0.62723547346E+02 -0.27812856830E+02  0.80063504121E+02  0.00000000000E+00 0.  1.
         -1    1    6    6    0  502 -0.17577418201E+03  0.32371969899E+03  0.10026676600E+04  0.10681916696E+04  0.00000000000E+00 0.  1.
<mgrwt>
<rscale>  0 0.16392722E+04</rscale>
<asrwt>0</asrwt>
<pdfrwt beam="1">  1        2 0.69445309E-01 0.16392722E+04</pdfrwt>
<pdfrwt beam="2">  1       -2 0.22896680E+00 0.16392722E+04</pdfrwt>
<totfact> 0.57470949E+00</totfact>
</mgrwt>
</event>
<event>
12    1  0.2048318E-007  0.1901829E+04  0.7818608E-02  0.8653947E-01
         -2   -1    0    0    0  501 -0.00000000000E+00  0.00000000000E+00  0.43486190429E+03  0.43486190429E+03  0.00000000000E+00 0.  1.
          2   -1    0    0  501    0  0.00000000000E+00 -0.00000000000E+00 -0.20793682706E+04  0.20793682706E+04  0.00000000000E+00 0. -1.
         23    2    1    2    0    0  0.57945072474E+03 -0.16354969467E+03 -0.88603573233E+02  0.61537680178E+03  0.91248944979E+02 0.  0.
        254    2    1    2    0    0 -0.57945072474E+03  0.16354969467E+03 -0.15559027931E+04  0.18988533731E+04  0.90680702802E+03 0.  0.
        -24    2    4    4    0    0 -0.76374329946E+01  0.22828278407E+02  0.10475358151E+03  0.13509539825E+03  0.81841267782E+02 0.  0.
         24    2    4    4    0    0 -0.57181329174E+03  0.14072141626E+03 -0.16606563746E+04  0.17637579749E+04  0.79307262138E+02 0.  0.
         11    1    3    3    0    0  0.43301732665E+03 -0.14036076399E+03 -0.10209293989E+03  0.46650628894E+03  0.00000000000E+00 0. -1.
        -11    1    3    3    0    0  0.14643339809E+03 -0.23188930679E+02  0.13489366654E+02  0.14887051284E+03  0.00000000000E+00 0.  1.
          4    1    6    6  502    0 -0.23715075591E+03  0.96913525098E+02 -0.68150899216E+03  0.72807088856E+03  0.00000000000E+00 0. -1.
          3    1    5    5  503    0  0.18906025036E+02 -0.22584128628E+02  0.56492229361E+02  0.63709125145E+02  0.00000000000E+00 0. -1.
         -4    1    5    5    0  503 -0.26543458031E+02  0.45412407036E+02  0.48261352149E+02  0.71386273108E+02  0.00000000000E+00 0.  1.
         -3    1    6    6    0  502 -0.33466253583E+03  0.43807891164E+02 -0.97914738243E+03  0.10356870863E+04  0.00000000000E+00 0.  1.
<mgrwt>
<rscale>  0 0.19018286E+04</rscale>
<asrwt>0</asrwt>
<pdfrwt beam="1">  1        2 0.31990281E+00 0.19018286E+04</pdfrwt>
<pdfrwt beam="2">  1       -2 0.66901831E-01 0.19018286E+04</pdfrwt>
<totfact> 0.11590871E+01</totfact>
</mgrwt>
</event>
<event>
12    1  0.2678384E-007  0.2489753E+04  0.7818608E-02  0.8406645E-01
         -2   -1    0    0    0  501 -0.00000000000E+00  0.00000000000E+00  0.93845058860E+03  0.93845058860E+03  0.00000000000E+00 0.  1.
          2   -1    0    0  501    0  0.00000000000E+00 -0.00000000000E+00 -0.16513573099E+04  0.16513573099E+04  0.00000000000E+00 0. -1.
         23    2    1    2    0    0  0.74624206735E+02 -0.10523493449E+04 -0.55134031431E+03  0.11939344405E+04  0.92170440341E+02 0.  0.
        254    2    1    2    0    0 -0.74624206735E+02  0.10523493449E+04 -0.16156640698E+03  0.13958734580E+04  0.89963942276E+03 0.  0.
        -24    2    4    4    0    0 -0.44988728586E+03  0.48839313989E+03 -0.23657710193E+03  0.70929446296E+03  0.78762179732E+02 0.  0.
         24    2    4    4    0    0  0.37526307912E+03  0.56395620499E+03  0.75010694951E+02  0.68657899505E+03  0.83036933833E+02 0.  0.
         13    1    3    3    0    0 -0.20891723054E+01 -0.58444876314E+03 -0.28784312889E+03  0.65148936156E+03  0.00000000000E+00 0.  1.
        -13    1    3    3    0    0  0.76713379040E+02 -0.46790058175E+03 -0.26349718543E+03  0.54244507892E+03  0.00000000000E+00 0. -1.
          4    1    6    6  502    0  0.33800815317E+03  0.52707673263E+03  0.49004767065E+02  0.62806119199E+03  0.00000000000E+00 0. -1.
          3    1    5    5  503    0 -0.37092593108E+03  0.36702291851E+03 -0.16176657137E+03  0.54631519535E+03  0.00000000000E+00 0. -1.
         -4    1    5    5    0  503 -0.78961354775E+02  0.12137022138E+03 -0.74810530567E+02  0.16297926761E+03  0.00000000000E+00 0.  1.
         -1    1    6    6    0  502  0.37254925946E+02  0.36879472364E+02  0.26005927885E+02  0.58517803054E+02  0.00000000000E+00 0.  1.
<mgrwt>
<rscale>  0 0.24897528E+04</rscale>
<asrwt>0</asrwt>
<pdfrwt beam="1">  1        2 0.25405497E+00 0.24897528E+04</pdfrwt>
<pdfrwt beam="2">  1       -2 0.14437702E+00 0.24897528E+04</pdfrwt>
<totfact> 0.30884597E+00</totfact>
</mgrwt>
</event>
<event>
12    1  0.2048318E-007  0.3955104E+04  0.7818608E-02  0.8013665E-01
         -1   -1    0    0    0  501 -0.00000000000E+00  0.00000000000E+00  0.29989484605E+04  0.29989484605E+04  0.00000000000E+00 0.  1.
          1   -1    0    0  501    0  0.00000000000E+00 -0.00000000000E+00 -0.13040274473E+04  0.13040274473E+04  0.00000000000E+00 0. -1.
         23    2    1    2    0    0 -0.75120963706E+03  0.16948471774E+04  0.51126771204E+03  0.19259018294E+04  0.10430872218E+03 0.  0.
        254    2    1    2    0    0  0.75120963706E+03 -0.16948471774E+04  0.11836533012E+04  0.23770740783E+04  0.90145613482E+03 0.  0.
        -24    2    4    4    0    0 -0.11671071599E+03 -0.50078032800E+03  0.58245563269E+03  0.78118720206E+03  0.81219163195E+02 0.  0.
         24    2    4    4    0    0  0.86792035305E+03 -0.11940668494E+04  0.60119766847E+03  0.15958868763E+04  0.79592117895E+02 0.  0.
         11    1    3    3    0    0 -0.33112587854E+03  0.72322977830E+03  0.27206845885E+03  0.84067050975E+03  0.00000000000E+00 0.  1.
        -11    1    3    3    0    0 -0.42008375852E+03  0.97161739912E+03  0.23919925319E+03  0.10852313197E+04  0.00000000000E+00 0. -1.
          4    1    6    6  502    0  0.53036493834E+03 -0.79352257231E+03  0.39492839510E+03  0.10329247203E+04  0.00000000000E+00 0. -1.
          3    1    5    5  503    0 -0.60091183948E+02 -0.25736006848E+03  0.36008132873E+03  0.44665839132E+03  0.00000000000E+00 0. -1.
         -4    1    5    5    0  503 -0.56619532040E+02 -0.24342025952E+03  0.22237430396E+03  0.33452881074E+03  0.00000000000E+00 0.  1.
         -3    1    6    6    0  502  0.33755541470E+03 -0.40054427711E+03  0.20626927337E+03  0.56296215597E+03  0.00000000000E+00 0.  1.
<mgrwt>
<rscale>  0 0.39551036E+04</rscale>
<asrwt>0</asrwt>
<pdfrwt beam="1">  1        1 0.20061961E+00 0.39551036E+04</pdfrwt>
<pdfrwt beam="2">  1       -1 0.46137669E+00 0.39551036E+04</pdfrwt>
<totfact> 0.19075851E-02</totfact>
</mgrwt>
</event>
<event>
12    1  0.2048318E-007  0.2443364E+04  0.7818608E-02  0.8423445E-01
         -1   -1    0    0    0  501 -0.00000000000E+00  0.00000000000E+00  0.65210065793E+03  0.65210065793E+03  0.00000000000E+00 0.  1.
          1   -1    0    0  501    0  0.00000000000E+00 -0.00000000000E+00 -0.22887673744E+04  0.22887673744E+04  0.00000000000E+00 0. -1.
         23    2    1    2    0    0  0.31100909645E+02 -0.10438032317E+04 -0.87226877993E+03  0.13636473848E+04  0.90492610401E+02 0.  0.
        254    2    1    2    0    0 -0.31100909645E+02  0.10438032317E+04 -0.76439793656E+03  0.15772206476E+04  0.90156991562E+03 0.  0.
        -24    2    4    4    0    0  0.38658518224E+03  0.73314751000E+03 -0.59769806480E+03  0.10248997893E+04  0.78887431171E+02 0.  0.
         24    2    4    4    0    0 -0.41768609188E+03  0.31065572166E+03 -0.16669987176E+03  0.55232085834E+03  0.79377796348E+02 0.  0.
         11    1    3    3    0    0 -0.25628613844E+02 -0.12367977401E+03 -0.10602167084E+03  0.16490635838E+03  0.00000000000E+00 0. -1.
        -11    1    3    3    0    0  0.56729523489E+02 -0.92012345765E+03 -0.76624710909E+03  0.11987410264E+04  0.00000000000E+00 0.  1.
          2    1    6    6  502    0 -0.33024013010E+01  0.13548381265E+02  0.41835195527E+01  0.14559063332E+02  0.00000000000E+00 0. -1.
          3    1    5    5  503    0  0.21016635428E+03  0.33835869488E+03 -0.32067074380E+03  0.51135724186E+03  0.00000000000E+00 0. -1.
         -4    1    5    5    0  503  0.17641882796E+03  0.39478881512E+03 -0.27702732099E+03  0.51354254739E+03  0.00000000000E+00 0.  1.
         -1    1    6    6    0  502 -0.41438369058E+03  0.29710734040E+03 -0.17088339132E+03  0.53776179500E+03  0.00000000000E+00 0.  1.
<mgrwt>
<rscale>  0 0.24433638E+04</rscale>
<asrwt>0</asrwt>
<pdfrwt beam="1">  1        1 0.35211806E+00 0.24433638E+04</pdfrwt>
<pdfrwt beam="2">  1       -1 0.10032318E+00 0.24433638E+04</pdfrwt>
<totfact> 0.15996836E+00</totfact>
</mgrwt>
</event>
<event>
12    1  0.2048318E-007  0.2204422E+04  0.7818608E-02  0.8516590E-01
          1   -1    0    0  501    0  0.00000000000E+00  0.00000000000E+00  0.10153825699E+04  0.10153825699E+04  0.00000000000E+00 0. -1.
         -1   -1    0    0    0  501 -0.00000000000E+00 -0.00000000000E+00 -0.11964639095E+04  0.11964639095E+04  0.00000000000E+00 0.  1.
         23    2    1    2    0    0  0.83793770226E+03 -0.35860676240E+03  0.17074353672E+02  0.91592083225E+03  0.88775190684E+02 0.  0.
        254    2    1    2    0    0 -0.83793770226E+03  0.35860676240E+03 -0.19815569333E+03  0.12959256471E+04  0.89967727615E+03 0.  0.
        -24    2    4    4    0    0 -0.49765187350E+03 -0.42427373067E+02  0.28191992804E+03  0.57926958115E+03  0.81344530470E+02 0.  0.
         24    2    4    4    0    0 -0.34028582876E+03  0.40103413547E+03 -0.48007562137E+03  0.71665606600E+03  0.80625626384E+02 0.  0.
         13    1    3    3    0    0  0.30195290968E+03 -0.17294590913E+03  0.22013427921E+02  0.34866952570E+03  0.00000000000E+00 0. -1.
        -13    1    3    3    0    0  0.53598479259E+03 -0.18566085327E+03 -0.49390742496E+01  0.56725130655E+03  0.00000000000E+00 0.  1.
          2    1    6    6  502    0 -0.12728977256E+03  0.17703084014E+03 -0.24737205266E+03  0.32975071948E+03  0.00000000000E+00 0. -1.
          1    1    5    5  503    0 -0.28853345944E+03  0.66128729035E+01  0.19062953381E+03  0.34588279296E+03  0.00000000000E+00 0. -1.
         -2    1    5    5    0  503 -0.20911841407E+03 -0.49040245971E+02  0.91290394229E+02  0.23338678820E+03  0.00000000000E+00 0.  1.
         -3    1    6    6    0  502 -0.21299605620E+03  0.22400329532E+03 -0.23270356871E+03  0.38690534652E+03  0.00000000000E+00 0.  1.
<mgrwt>
<rscale>  0 0.22044216E+04</rscale>
<asrwt>0</asrwt>
<pdfrwt beam="1">  1        1 0.15621270E+00 0.22044216E+04</pdfrwt>
<pdfrwt beam="2">  1       -1 0.18407137E+00 0.22044216E+04</pdfrwt>
<totfact> 0.26105068E+00</totfact>
</mgrwt>
</event>
<event>
12    1  0.2048318E-007  0.3234167E+04  0.7818608E-02  0.8179851E-01
          1   -1    0    0  501    0  0.00000000000E+00  0.00000000000E+00  0.16812616596E+04  0.16812616596E+04  0.00000000000E+00 0. -1.
         -1   -1    0    0    0  501 -0.00000000000E+00 -0.00000000000E+00 -0.15553555646E+04  0.15553555646E+04  0.00000000000E+00 0.  1.
         23    2    1    2    0    0  0.92484784892E+03  0.72632128343E+03 -0.86180837355E+03  0.14607013847E+04  0.89714615531E+02 0.  0.
        254    2    1    2    0    0 -0.92484784892E+03 -0.72632128343E+03  0.98771446861E+03  0.17759158394E+04  0.89185819887E+03 0.  0.
        -24    2    4    4    0    0 -0.98963271301E+03 -0.84660461869E+03  0.79984528017E+03  0.15304182843E+04  0.79469275372E+02 0.  0.
         24    2    4    4    0    0  0.64784864091E+02  0.12028333526E+03  0.18786918844E+03  0.24549755513E+03  0.79429580466E+02 0.  0.
         13    1    3    3    0    0  0.82486833141E+03  0.61912114811E+03 -0.73005411500E+03  0.12636050692E+04  0.00000000000E+00 0. -1.
        -13    1    3    3    0    0  0.99979517514E+02  0.10720013532E+03 -0.13175425855E+03  0.19709631549E+03  0.00000000000E+00 0.  1.
          4    1    6    6  502    0 -0.52773983375E+01 -0.47492864373E+01 -0.22127522999E+01  0.74365938181E+01  0.00000000000E+00 0. -1.
          3    1    5    5  503    0 -0.59415716201E+02 -0.54561876397E+02  0.73164667768E+02  0.10890497829E+03  0.00000000000E+00 0. -1.
         -2    1    5    5    0  503 -0.93021699681E+03 -0.79204274229E+03  0.72668061240E+03  0.14215133060E+04  0.00000000000E+00 0.  1.
         -3    1    6    6    0  502  0.70062262428E+02  0.12503262170E+03  0.19008194074E+03  0.23806096131E+03  0.00000000000E+00 0.  1.
<mgrwt>
<rscale>  0 0.32341674E+04</rscale>
<asrwt>0</asrwt>
<pdfrwt beam="1">  1        1 0.25865564E+00 0.32341674E+04</pdfrwt>
<pdfrwt beam="2">  1       -1 0.23928547E+00 0.32341674E+04</pdfrwt>
<totfact> 0.33560853E-01</totfact>
</mgrwt>
</event>
<event>
12    1  0.2048318E-007  0.1742877E+04  0.7818608E-02  0.8737281E-01
         -1   -1    0    0    0  501 -0.00000000000E+00  0.00000000000E+00  0.28146862967E+03  0.28146862967E+03  0.00000000000E+00 0. -1.
          1   -1    0    0  501    0  0.00000000000E+00 -0.00000000000E+00 -0.26980096376E+04  0.26980096376E+04  0.00000000000E+00 0.  1.
         23    2    1    2    0    0 -0.37871828746E+03 -0.41419183074E+03 -0.14012124943E+04  0.15122487019E+04  0.92289047814E+02 0.  0.
        254    2    1    2    0    0  0.37871828746E+03  0.41419183074E+03 -0.10153285137E+04  0.14672295654E+04  0.89826955475E+03 0.  0.
        -24    2    4    4    0    0 -0.24763248681E+03  0.36744867517E+02 -0.51105011387E+03  0.57548775616E+03  0.85684915772E+02 0.  0.
         24    2    4    4    0    0  0.62635077427E+03  0.37744696322E+03 -0.50427839979E+03  0.89174180923E+03  0.78263959561E+02 0.  0.
         11    1    3    3    0    0 -0.37048220456E+03 -0.39877015345E+03 -0.13860850408E+04  0.14891294233E+04  0.00000000000E+00 0.  1.
        -11    1    3    3    0    0 -0.82360828994E+01 -0.15421677287E+02 -0.15127453528E+02  0.23119278581E+02  0.00000000000E+00 0. -1.
          2    1    6    6  502    0  0.85735728347E+02  0.25147141755E+02 -0.47811964716E+02  0.10133596510E+03  0.00000000000E+00 0. -1.
          3    1    5    5  503    0 -0.14241652120E+03  0.17483732942E+01 -0.36725162978E+03  0.39390262997E+03  0.00000000000E+00 0. -1.
         -4    1    5    5    0  503 -0.10521596561E+03  0.34996494223E+02 -0.14379848409E+03  0.18158512619E+03  0.00000000000E+00 0.  1.
         -1    1    6    6    0  502  0.54061504592E+03  0.35229982147E+03 -0.45646643508E+03  0.79040584413E+03  0.00000000000E+00 0.  1.
<mgrwt>
<rscale>  0 0.17428770E+04</rscale>
<asrwt>0</asrwt>
<pdfrwt beam="1">  1        1 0.41507840E+00 0.17428770E+04</pdfrwt>
<pdfrwt beam="2">  1       -1 0.43302866E-01 0.17428770E+04</pdfrwt>
<totfact> 0.49219742E+00</totfact>
</mgrwt>
</event>
<event>
12    1  0.2048318E-007  0.1320311E+04  0.7818608E-02  0.9013612E-01
          2   -1    0    0  501    0  0.00000000000E+00  0.00000000000E+00  0.14034329761E+04  0.14034329761E+04  0.00000000000E+00 0. -1.
         -2   -1    0    0    0  501 -0.00000000000E+00 -0.00000000000E+00 -0.31052811679E+03  0.31052811679E+03  0.00000000000E+00 0.  1.
         23    2    1    2    0    0 -0.85212807990E+02 -0.33391865368E+03  0.29740374555E+03  0.46435983067E+03  0.91750610606E+02 0.  0.
        254    2    1    2    0    0  0.85212807990E+02  0.33391865368E+03  0.79550111372E+03  0.12496012622E+04  0.89995466699E+03 0.  0.
        -24    2    4    4    0    0 -0.12316829589E+03  0.45105039640E+03  0.67635899786E+02  0.47909378315E+03  0.79620028298E+02 0.  0.
         24    2    4    4    0    0  0.20838110388E+03 -0.11713174272E+03  0.72786521394E+03  0.77050747906E+03  0.82167365866E+02 0.  0.
         11    1    3    3    0    0 -0.76548804046E+02 -0.18852049039E+03  0.12556364824E+03  0.23909396575E+03  0.00000000000E+00 0.  1.
        -11    1    3    3    0    0 -0.86640039444E+01 -0.14539816329E+03  0.17184009732E+03  0.22526586492E+03  0.00000000000E+00 0. -1.
          2    1    6    6  502    0  0.10992503619E+03 -0.33670956479E+02  0.44457540413E+03  0.45919988768E+03  0.00000000000E+00 0. -1.
          3    1    5    5  503    0 -0.79643469596E+01  0.59949465856E+02  0.35472136131E+02  0.70111637555E+02  0.00000000000E+00 0. -1.
         -4    1    5    5    0  503 -0.11520394893E+03  0.39110093054E+03  0.32163763654E+02  0.40898214559E+03  0.00000000000E+00 0.  1.
         -1    1    6    6    0  502  0.98456067685E+02 -0.83460786242E+02  0.28328980981E+03  0.31130759137E+03  0.00000000000E+00 0.  1.
<mgrwt>
<rscale>  0 0.13203112E+04</rscale>
<asrwt>0</asrwt>
<pdfrwt beam="1">  1        2 0.21591276E+00 0.13203112E+04</pdfrwt>
<pdfrwt beam="2">  1       -2 0.47773557E-01 0.13203112E+04</pdfrwt>
<totfact> 0.58519846E+01</totfact>
</mgrwt>
</event>
<event>
12    1  0.2048318E-007  0.8342228E+04  0.7818608E-02  0.7452910E-01
          3   -1    0    0  501    0  0.00000000000E+00  0.00000000000E+00  0.37795795215E+04  0.37795795215E+04  0.00000000000E+00 0. -1.
         -3   -1    0    0    0  501 -0.00000000000E+00 -0.00000000000E+00 -0.46032084713E+04  0.46032084713E+04  0.00000000000E+00 0.  1.
         23    2    1    2    0    0  0.26212661773E+04 -0.96161637156E+03  0.26402015022E+04  0.38437353405E+04  0.88853686123E+02 0.  0.
        254    2    1    2    0    0 -0.26212661773E+04  0.96161637156E+03 -0.34638304520E+04  0.45390526523E+04  0.89951940610E+03 0.  0.
        -24    2    4    4    0    0 -0.15414492554E+04  0.69220675521E+03 -0.14120120291E+04  0.22034619484E+04  0.79060664490E+02 0.  0.
         24    2    4    4    0    0 -0.10798169219E+04  0.26940961635E+03 -0.20518184229E+04  0.23355907039E+04  0.80243190080E+02 0.  0.
         13    1    3    3    0    0  0.21718273365E+04 -0.79371766932E+03  0.22316280014E+04  0.32135627043E+04  0.00000000000E+00 0. -1.
        -13    1    3    3    0    0  0.44943884081E+03 -0.16789870224E+03  0.40857350073E+03  0.63017263614E+03  0.00000000000E+00 0.  1.
          4    1    6    6  502    0 -0.10382264577E+04  0.27228195599E+03 -0.19904165753E+04  0.22613734287E+04  0.00000000000E+00 0. -1.
          1    1    5    5  503    0 -0.11642150402E+04  0.53980127867E+03 -0.10323382446E+04  0.16469682242E+04  0.00000000000E+00 0. -1.
         -2    1    5    5    0  503 -0.37723421516E+03  0.15240547654E+03 -0.37967378452E+03  0.55649372415E+03  0.00000000000E+00 0.  1.
         -3    1    6    6    0  502 -0.41590464175E+02 -0.28723396426E+01 -0.61401847570E+02  0.74217275147E+02  0.00000000000E+00 0.  1.
<mgrwt>
<rscale>  0 0.83422281E+04</rscale>
<asrwt>0</asrwt>
<pdfrwt beam="1">  1        3 0.58147377E+00 0.83422281E+04</pdfrwt>
<pdfrwt beam="2">  1       -3 0.70818592E+00 0.83422281E+04</pdfrwt>
<totfact> 0.41904602E-07</totfact>
</mgrwt>
</event>
<event>
12    1  0.2048318E-007  0.1967236E+04  0.7818608E-02  0.8622094E-01
         -2   -1    0    0    0  501 -0.00000000000E+00  0.00000000000E+00  0.63470116637E+03  0.63470116637E+03  0.00000000000E+00 0. -1.
          2   -1    0    0  501    0  0.00000000000E+00 -0.00000000000E+00 -0.15243462002E+04  0.15243462002E+04  0.00000000000E+00 0.  1.
         23    2    1    2    0    0 -0.78981726024E+02 -0.31699060446E+03 -0.11237939906E+04  0.11735423613E+04  0.86991862819E+02 0.  0.
        254    2    1    2    0    0  0.78981726024E+02  0.31699060446E+03  0.23414895677E+03  0.98550500522E+03  0.89981844002E+03 0.  0.
        -24    2    4    4    0    0 -0.11298805774E+03 -0.28143999926E+03  0.97598309859E+01  0.31349806030E+03  0.78809930429E+02 0.  0.
         24    2    4    4    0    0  0.19196978377E+03  0.59843060372E+03  0.22438912578E+03  0.67200694492E+03  0.79191343599E+02 0.  0.
         11    1    3    3    0    0 -0.12389405596E+02 -0.19170130697E+03 -0.73420541583E+03  0.75892060263E+03  0.00000000000E+00 0. -1.
        -11    1    3    3    0    0 -0.66592320428E+02 -0.12528929749E+03 -0.38958857477E+03  0.41462175871E+03  0.00000000000E+00 0.  1.
          4    1    6    6  502    0  0.11169702661E+03  0.44452145619E+03  0.14178215025E+03  0.47976841174E+03  0.00000000000E+00 0. -1.
          1    1    5    5  503    0 -0.13996927138E+02 -0.81558455453E+02  0.33317434664E+02  0.89206205377E+02  0.00000000000E+00 0. -1.
         -2    1    5    5    0  503 -0.98991130605E+02 -0.19988154381E+03 -0.23557603678E+02  0.22429185492E+03  0.00000000000E+00 0.  1.
         -3    1    6    6    0  502  0.80272757157E+02  0.15390914753E+03  0.82606975527E+02  0.19223853318E+03  0.00000000000E+00 0.  1.
<mgrwt>
<rscale>  0 0.19672359E+04</rscale>
<asrwt>0</asrwt>
<pdfrwt beam="1">  1        2 0.23451480E+00 0.19672359E+04</pdfrwt>
<pdfrwt beam="2">  1       -2 0.97646334E-01 0.19672359E+04</pdfrwt>
<totfact> 0.10011430E+01</totfact>
</mgrwt>
</event>
<event>
12    1  0.2048318E-007  0.1404966E+04  0.7818608E-02  0.8950231E-01
         -2   -1    0    0    0  501 -0.00000000000E+00  0.00000000000E+00  0.19860314600E+03  0.19860314600E+03  0.00000000000E+00 0.  1.
          2   -1    0    0  501    0  0.00000000000E+00 -0.00000000000E+00 -0.24847672949E+04  0.24847672949E+04  0.00000000000E+00 0. -1.
         23    2    1    2    0    0 -0.10592973457E+03  0.26324284299E+03 -0.11957424354E+03  0.32126086787E+03  0.91611366389E+02 0.  0.
        254    2    1    2    0    0  0.10592973457E+03 -0.26324284299E+03 -0.21665899054E+04  0.23621095730E+04  0.89717997860E+03 0.  0.
        -24    2    4    4    0    0  0.45112532661E+02 -0.34878764370E+03 -0.22013858520E+04  0.22307318629E+04  0.79856206798E+02 0.  0.
         24    2    4    4    0    0  0.60817201904E+02  0.85544800705E+02  0.34795946675E+02  0.13137771011E+03  0.70941524046E+02 0.  0.
         11    1    3    3    0    0 -0.95038697488E+02  0.19887251028E+03 -0.50319865298E+02  0.22608564352E+03  0.00000000000E+00 0.  1.
        -11    1    3    3    0    0 -0.10891037077E+02  0.64370332715E+02 -0.69254378245E+02  0.95175224342E+02  0.00000000000E+00 0. -1.
          4    1    6    6  502    0  0.36973707458E+02  0.35407159714E+01  0.26393062945E+02  0.45565178420E+02  0.00000000000E+00 0. -1.
          3    1    5    5  503    0  0.37639395672E+01 -0.79779318395E+01 -0.19402352779E+03  0.19422395314E+03  0.00000000000E+00 0. -1.
         -4    1    5    5    0  503  0.41348593094E+02 -0.34080971186E+03 -0.20073623242E+04  0.20365079098E+04  0.00000000000E+00 0.  1.
         -3    1    6    6    0  502  0.23843494446E+02  0.82004084733E+02  0.84028837301E+01  0.85812531692E+02  0.00000000000E+00 0.  1.
<mgrwt>
<rscale>  0 0.14049663E+04</rscale>
<asrwt>0</asrwt>
<pdfrwt beam="1">  1        2 0.38227187E+00 0.14049663E+04</pdfrwt>
<pdfrwt beam="2">  1       -2 0.30554332E-01 0.14049663E+04</pdfrwt>
<totfact> 0.34371534E+01</totfact>
</mgrwt>
</event>
<event>
12    1  0.2048318E-007  0.1455764E+04  0.7818608E-02  0.8914414E-01
          2   -1    0    0  501    0  0.00000000000E+00  0.00000000000E+00  0.37861621224E+03  0.37861621224E+03  0.00000000000E+00 0.  1.
         -2   -1    0    0    0  501 -0.00000000000E+00 -0.00000000000E+00 -0.13993385581E+04  0.13993385581E+04  0.00000000000E+00 0. -1.
         23    2    1    2    0    0  0.29522376193E+03  0.13048534934E+03 -0.69280380811E+03  0.76949052548E+03  0.89191122137E+02 0.  0.
        254    2    1    2    0    0 -0.29522376193E+03 -0.13048534934E+03 -0.32791853776E+03  0.10084642449E+04  0.89737732856E+03 0.  0.
        -24    2    4    4    0    0 -0.13526522819E+03 -0.50311015822E+03 -0.10107839374E+03  0.53696056647E+03  0.81812560206E+02 0.  0.
         24    2    4    4    0    0 -0.15995853374E+03  0.37262480888E+03 -0.22684014402E+03  0.47150367841E+03  0.80145412253E+02 0.  0.
         11    1    3    3    0    0  0.19183524737E+03  0.76371544620E+02 -0.33891821045E+03  0.39686134649E+03  0.00000000000E+00 0.  1.
        -11    1    3    3    0    0  0.10338851456E+03  0.54113804717E+02 -0.35388559766E+03  0.37262917899E+03  0.00000000000E+00 0. -1.
          2    1    6    6  502    0 -0.12439618491E+03  0.30371698122E+03 -0.14514545570E+03  0.35886713253E+03  0.00000000000E+00 0. -1.
          3    1    5    5  503    0 -0.51471408047E+02 -0.23336038888E+03 -0.86420017052E+02  0.25411571437E+03  0.00000000000E+00 0. -1.
         -4    1    5    5    0  503 -0.83793820142E+02 -0.26974976934E+03 -0.14658376687E+02  0.28284485210E+03  0.00000000000E+00 0.  1.
         -1    1    6    6    0  502 -0.35562348824E+02  0.68907827664E+02 -0.81694688325E+02  0.11263654588E+03  0.00000000000E+00 0.  1.
<mgrwt>
<rscale>  0 0.14557641E+04</rscale>
<asrwt>0</asrwt>
<pdfrwt beam="1">  1        2 0.58248648E-01 0.14557641E+04</pdfrwt>
<pdfrwt beam="2">  1       -2 0.21528285E+00 0.14557641E+04</pdfrwt>
<totfact> 0.86798340E+00</totfact>
</mgrwt>
</event>
<event>
12    1  0.2048318E-007  0.1523344E+04  0.7818608E-02  0.8869076E-01
         -2   -1    0    0    0  501 -0.00000000000E+00  0.00000000000E+00  0.39540970559E+03  0.39540970559E+03  0.00000000000E+00 0.  1.
          2   -1    0    0  501    0  0.00000000000E+00 -0.00000000000E+00 -0.14671985194E+04  0.14671985194E+04  0.00000000000E+00 0. -1.
         23    2    1    2    0    0 -0.33195906223E+03 -0.34611815985E+02  0.87256225866E+02  0.35598219710E+03  0.87834383341E+02 0.  0.
        254    2    1    2    0    0  0.33195906223E+03  0.34611815985E+02 -0.11590450397E+04  0.15066260279E+04  0.90285202947E+03 0.  0.
        -24    2    4    4    0    0  0.22983881750E+03  0.45843312524E+03 -0.63431262728E+03  0.81951624462E+03  0.79167883098E+02 0.  0.
         24    2    4    4    0    0  0.10212024473E+03 -0.42382130926E+03 -0.52473241245E+03  0.68710978331E+03  0.81992091624E+02 0.  0.
         13    1    3    3    0    0 -0.95178031774E+01 -0.29895919603E+01  0.23843728677E+02  0.25846656159E+02  0.00000000000E+00 0. -1.
        -13    1    3    3    0    0 -0.32244125906E+03 -0.31622224025E+02  0.63412497189E+02  0.33013554094E+03  0.00000000000E+00 0.  1.
          4    1    6    6  502    0  0.90146928665E+02 -0.38330353596E+03 -0.42813370213E+03  0.58167562810E+03  0.00000000000E+00 0. -1.
          3    1    5    5  503    0  0.20802772422E+03  0.40514764032E+03 -0.59708309870E+03  0.75095164375E+03  0.00000000000E+00 0. -1.
         -4    1    5    5    0  503  0.21811093287E+02  0.53285484920E+02 -0.37229528582E+02  0.68564600866E+02  0.00000000000E+00 0.  1.
         -3    1    6    6    0  502  0.11973316064E+02 -0.40517773300E+02 -0.96598710320E+02  0.10543415522E+03  0.00000000000E+00 0.  1.
<mgrwt>
<rscale>  0 0.15233444E+04</rscale>
<asrwt>0</asrwt>
<pdfrwt beam="1">  1        2 0.22572285E+00 0.15233444E+04</pdfrwt>
<pdfrwt beam="2">  1       -2 0.60832262E-01 0.15233444E+04</pdfrwt>
<totfact> 0.32138627E+01</totfact>
</mgrwt>
</event>
<event>
12    1  0.2048318E-007  0.2020305E+04  0.7818608E-02  0.8597186E-01
          2   -1    0    0  501    0  0.00000000000E+00  0.00000000000E+00  0.43168374746E+03  0.43168374746E+03  0.00000000000E+00 0. -1.
         -2   -1    0    0    0  501 -0.00000000000E+00 -0.00000000000E+00 -0.23637853072E+04  0.23637853072E+04  0.00000000000E+00 0.  1.
         23    2    1    2    0    0  0.60019831795E+03 -0.44288357449E+03 -0.12040395962E+04  0.14187442889E+04  0.82098273532E+02 0.  0.
        254    2    1    2    0    0 -0.60019831795E+03  0.44288357449E+03 -0.72806196358E+03  0.13767247658E+04  0.89939589539E+03 0.  0.
        -24    2    4    4    0    0 -0.60161667576E+03  0.45023625725E+03 -0.90710803778E+03  0.11806306893E+04  0.79928219829E+02 0.  0.
         24    2    4    4    0    0  0.14183578125E+01 -0.73526827570E+01  0.17904607420E+03  0.19609407658E+03  0.79619824801E+02 0.  0.
         13    1    3    3    0    0  0.16306619684E+03 -0.10502863803E+03 -0.25185846408E+03  0.31789036678E+03  0.00000000000E+00 0. -1.
        -13    1    3    3    0    0  0.43713212111E+03 -0.33785493646E+03 -0.95218113213E+03  0.11008539221E+04  0.00000000000E+00 0.  1.
          4    1    6    6  502    0  0.29729679488E+02  0.23223934395E+02  0.96859517684E+02  0.10394696310E+03  0.00000000000E+00 0. -1.
          1    1    5    5  503    0 -0.59929711797E+03  0.43676014423E+03 -0.89556970775E+03  0.11627388188E+04  0.00000000000E+00 0. -1.
         -2    1    5    5    0  503 -0.23195577950E+01  0.13476113020E+02 -0.11538330028E+02  0.17891870509E+02  0.00000000000E+00 0.  1.
         -3    1    6    6    0  502 -0.28311321675E+02 -0.30576617152E+02  0.82186556516E+02  0.92147113483E+02  0.00000000000E+00 0.  1.
<mgrwt>
<rscale>  0 0.20203046E+04</rscale>
<asrwt>0</asrwt>
<pdfrwt beam="1">  1        2 0.66412886E-01 0.20203046E+04</pdfrwt>
<pdfrwt beam="2">  1       -2 0.36365927E+00 0.20203046E+04</pdfrwt>
<totfact> 0.86433853E-01</totfact>
</mgrwt>
</event>
<event>
12    1  0.2048318E-007  0.2295284E+04  0.7818608E-02  0.8479783E-01
         -1   -1    0    0    0  501 -0.00000000000E+00  0.00000000000E+00  0.72401855757E+03  0.72401855757E+03  0.00000000000E+00 0.  1.
          1   -1    0    0  501    0  0.00000000000E+00 -0.00000000000E+00 -0.18191271453E+04  0.18191271453E+04  0.00000000000E+00 0. -1.
         23    2    1    2    0    0  0.42481846048E+03  0.34931553732E+03 -0.13460370413E+04  0.14571460137E+04  0.94692765254E+02 0.  0.
        254    2    1    2    0    0 -0.42481846048E+03 -0.34931553732E+03  0.25092845357E+03  0.10859996891E+04  0.90218521768E+03 0.  0.
        -24    2    4    4    0    0 -0.38502715415E+03 -0.57218712993E+03  0.40061955491E+03  0.80166915030E+03  0.80829311967E+02 0.  0.
         24    2    4    4    0    0 -0.39791306332E+02  0.22287159261E+03 -0.14969110134E+03  0.28433053884E+03  0.84742755693E+02 0.  0.
         11    1    3    3    0    0  0.28263749691E+03  0.20442399711E+03 -0.95199742292E+03  0.10138896481E+04  0.00000000000E+00 0. -1.
        -11    1    3    3    0    0  0.14218096357E+03  0.14489154020E+03 -0.39403961835E+03  0.44325636561E+03  0.00000000000E+00 0.  1.
          2    1    6    6  502    0  0.10028113323E+02  0.31643051985E+01  0.43890527872E+01  0.11394721084E+02  0.00000000000E+00 0. -1.
          3    1    5    5  503    0 -0.10871147644E+03 -0.10429623273E+03  0.97550343377E+02  0.17947690315E+03  0.00000000000E+00 0. -1.
         -4    1    5    5    0  503 -0.27631567770E+03 -0.46789089720E+03  0.30306921153E+03  0.62219224714E+03  0.00000000000E+00 0.  1.
         -1    1    6    6    0  502 -0.49819419655E+02  0.21970728741E+03 -0.15408015413E+03  0.27293581775E+03  0.00000000000E+00 0.  1.
<mgrwt>
<rscale>  0 0.22952837E+04</rscale>
<asrwt>0</asrwt>
<pdfrwt beam="1">  1        1 0.27986571E+00 0.22952837E+04</pdfrwt>
<pdfrwt beam="2">  1       -1 0.11138747E+00 0.22952837E+04</pdfrwt>
<totfact> 0.26482763E+00</totfact>
</mgrwt>
</event>
<event>
12    1  0.2048318E-007  0.1407058E+04  0.7818608E-02  0.8948725E-01
         -1   -1    0    0    0  501 -0.00000000000E+00  0.00000000000E+00  0.12475400092E+04  0.12475400092E+04  0.00000000000E+00 0.  1.
          1   -1    0    0  501    0  0.00000000000E+00 -0.00000000000E+00 -0.39674342312E+03  0.39674342312E+03  0.00000000000E+00 0. -1.
         23    2    1    2    0    0 -0.40011293831E+03  0.25964602219E+02  0.30775230546E+03  0.51946628554E+03  0.11987166606E+03 0.  0.
        254    2    1    2    0    0  0.40011293831E+03 -0.25964602219E+02  0.54304428065E+03  0.11248171468E+04  0.89975107615E+03 0.  0.
        -24    2    4    4    0    0  0.18974258177E+03 -0.43733511422E+03  0.41908658092E+03  0.63976684760E+03  0.80023793442E+02 0.  0.
         24    2    4    4    0    0  0.21037035653E+03  0.41137051200E+03  0.12395769974E+03  0.48505029920E+03  0.80167926097E+02 0.  0.
         11    1    3    3    0    0 -0.40792653787E+02  0.16056946331E+02 -0.35018979151E+01  0.43978738244E+02  0.00000000000E+00 0. -1.
        -11    1    3    3    0    0 -0.35932028452E+03  0.99076558880E+01  0.31125420337E+03  0.47548754729E+03  0.00000000000E+00 0.  1.
          4    1    6    6  502    0  0.45390514752E+02  0.34104115326E+02  0.85051465592E+01  0.57408422985E+02  0.00000000000E+00 0. -1.
          1    1    5    5  503    0  0.37878167651E+02 -0.42856889334E+02  0.27121064538E+02  0.63301032295E+02  0.00000000000E+00 0. -1.
         -2    1    5    5    0  503  0.15186441412E+03 -0.39447822489E+03  0.39196551638E+03  0.57646581531E+03  0.00000000000E+00 0.  1.
         -3    1    6    6    0  502  0.16497984178E+03  0.37726639668E+03  0.11545255318E+03  0.42764187621E+03  0.00000000000E+00 0.  1.
<mgrwt>
<rscale>  0 0.14070583E+04</rscale>
<asrwt>0</asrwt>
<pdfrwt beam="1">  1        1 0.61037450E-01 0.14070583E+04</pdfrwt>
<pdfrwt beam="2">  1       -1 0.19192923E+00 0.14070583E+04</pdfrwt>
<totfact> 0.10122949E+01</totfact>
</mgrwt>
</event>
<event>
12    1  0.2048318E-007  0.1679616E+04  0.7818608E-02  0.8773076E-01
          2   -1    0    0  501    0  0.00000000000E+00  0.00000000000E+00  0.94451614007E+03  0.94451614007E+03  0.00000000000E+00 0. -1.
         -2   -1    0    0    0  501 -0.00000000000E+00 -0.00000000000E+00 -0.74670805101E+03  0.74670805101E+03  0.00000000000E+00 0.  1.
         23    2    1    2    0    0 -0.16687789775E+03  0.21432240876E+03  0.60212161524E+03  0.66647501335E+03  0.88635073388E+02 0.  0.
        254    2    1    2    0    0  0.16687789775E+03 -0.21432240876E+03 -0.40431352618E+03  0.10247491777E+04  0.90158700198E+03 0.  0.
        -24    2    4    4    0    0  0.28627822324E+03  0.24184706505E+03 -0.38943301404E+03  0.54651379768E+03  0.81080420942E+02 0.  0.
         24    2    4    4    0    0 -0.11940032549E+03 -0.45616947380E+03 -0.14880512141E+02  0.47823538004E+03  0.78362124332E+02 0.  0.
         13    1    3    3    0    0 -0.10530937246E+03  0.10208764221E+03  0.22840989345E+03  0.27144618260E+03  0.00000000000E+00 0.  1.
        -13    1    3    3    0    0 -0.61568525293E+02  0.11223476655E+03  0.37371172179E+03  0.39502883076E+03  0.00000000000E+00 0. -1.
          2    1    6    6  502    0 -0.11949745655E+03 -0.44650095597E+03 -0.26675044114E+02  0.46298412908E+03  0.00000000000E+00 0. -1.
          1    1    5    5  503    0  0.14977667696E+03  0.17231682477E+03 -0.25952220136E+03  0.34565577394E+03  0.00000000000E+00 0. -1.
         -2    1    5    5    0  503  0.13650154628E+03  0.69530240276E+02 -0.12991081267E+03  0.20085802374E+03  0.00000000000E+00 0.  1.
         -1    1    6    6    0  502  0.97131058684E-01 -0.96685178352E+01  0.11794531973E+02  0.15251250966E+02  0.00000000000E+00 0.  1.
<mgrwt>
<rscale>  0 0.16796164E+04</rscale>
<asrwt>0</asrwt>
<pdfrwt beam="1">  1        2 0.14531018E+00 0.16796164E+04</pdfrwt>
<pdfrwt beam="2">  1       -2 0.11487816E+00 0.16796164E+04</pdfrwt>
<totfact> 0.15426367E+01</totfact>
</mgrwt>
</event>
<event>
12    1  0.2048318E-007  0.2044048E+04  0.7818608E-02  0.8586299E-01
          2   -1    0    0  501    0  0.00000000000E+00  0.00000000000E+00  0.10697445159E+04  0.10697445159E+04  0.00000000000E+00 0. -1.
         -2   -1    0    0    0  501 -0.00000000000E+00 -0.00000000000E+00 -0.97643198527E+03  0.97643198527E+03  0.00000000000E+00 0.  1.
         23    2    1    2    0    0 -0.42299556939E+03  0.51271324773E+03  0.51869546913E+03  0.84820964371E+03  0.92814243881E+02 0.  0.
        254    2    1    2    0    0  0.42299556939E+03 -0.51271324773E+03 -0.42538293847E+03  0.11979668575E+04  0.90131782473E+03 0.  0.
        -24    2    4    4    0    0  0.43060355692E+03 -0.55753072792E+03  0.52830880140E+02  0.71098316184E+03  0.80287101789E+02 0.  0.
         24    2    4    4    0    0 -0.76079875297E+01  0.44817480190E+02 -0.47821381861E+03  0.48698369565E+03  0.79988596161E+02 0.  0.
         13    1    3    3    0    0 -0.25921066143E+03  0.24812398508E+03  0.25325599648E+03  0.43919731183E+03  0.00000000000E+00 0.  1.
        -13    1    3    3    0    0 -0.16378490796E+03  0.26458926265E+03  0.26543947265E+03  0.40901233188E+03  0.00000000000E+00 0. -1.
          2    1    6    6  502    0 -0.37645249806E+02  0.33361021153E+02 -0.17545324728E+03  0.18252113452E+03  0.00000000000E+00 0. -1.
          1    1    5    5  503    0  0.26472558654E+03 -0.32706973825E+03 -0.68268360070E+01  0.42083352473E+03  0.00000000000E+00 0. -1.
         -2    1    5    5    0  503  0.16587797037E+03 -0.23046098967E+03  0.59657716147E+02  0.29014963710E+03  0.00000000000E+00 0.  1.
         -1    1    6    6    0  502  0.30037262276E+02  0.11456459037E+02 -0.30276057132E+03  0.30446256113E+03  0.00000000000E+00 0.  1.
<mgrwt>
<rscale>  0 0.20440477E+04</rscale>
<asrwt>0</asrwt>
<pdfrwt beam="1">  1        2 0.16457608E+00 0.20440477E+04</pdfrwt>
<pdfrwt beam="2">  1       -2 0.15022030E+00 0.20440477E+04</pdfrwt>
<totfact> 0.62855100E+00</totfact>
</mgrwt>
</event>
<event>
12    1  0.2048318E-007  0.2529636E+04  0.7818608E-02  0.8392503E-01
         -1   -1    0    0    0  501 -0.00000000000E+00  0.00000000000E+00  0.89787584655E+03  0.89787584655E+03  0.00000000000E+00 0.  1.
          1   -1    0    0  501    0  0.00000000000E+00 -0.00000000000E+00 -0.17817210653E+04  0.17817210653E+04  0.00000000000E+00 0. -1.
         23    2    1    2    0    0  0.34014934861E+03 -0.63218586091E+03  0.50031331636E+03  0.87969348347E+03  0.90480209136E+02 0.  0.
        254    2    1    2    0    0 -0.34014934861E+03  0.63218586091E+03 -0.13841585351E+04  0.17999034283E+04  0.89910898064E+03 0.  0.
        -24    2    4    4    0    0  0.22831255166E+02  0.58224742652E+03 -0.31581111112E+03  0.66749889904E+03  0.79276670017E+02 0.  0.
         24    2    4    4    0    0 -0.36298060377E+03  0.49938434390E+02 -0.10683474240E+04  0.11324045293E+04  0.82006303359E+02 0.  0.
         13    1    3    3    0    0  0.13871069399E+03 -0.31653565829E+03  0.19692109092E+03  0.39776047522E+03  0.00000000000E+00 0. -1.
        -13    1    3    3    0    0  0.20143865462E+03 -0.31565020261E+03  0.30339222544E+03  0.48193300825E+03  0.00000000000E+00 0.  1.
          4    1    6    6  502    0 -0.49263023722E+02 -0.55045136177E+01 -0.81316586822E+02  0.95234092996E+02  0.00000000000E+00 0. -1.
          3    1    5    5  503    0 -0.83040880108E+01  0.24450497692E+02 -0.15048289522E+00  0.25822613349E+02  0.00000000000E+00 0. -1.
         -4    1    5    5    0  503  0.31135343177E+02  0.55779692883E+03 -0.31566062822E+03  0.64167628569E+03  0.00000000000E+00 0.  1.
         -3    1    6    6    0  502 -0.31371758005E+03  0.55442948007E+02 -0.98703083713E+03  0.10371704363E+04  0.00000000000E+00 0.  1.
<mgrwt>
<rscale>  0 0.25296358E+04</rscale>
<asrwt>0</asrwt>
<pdfrwt beam="1">  1        1 0.27411093E+00 0.25296358E+04</pdfrwt>
<pdfrwt beam="2">  1       -1 0.13813475E+00 0.25296358E+04</pdfrwt>
<totfact> 0.16125910E+00</totfact>
</mgrwt>
</event>
<event>
12    1  0.2048318E-007  0.2380845E+04  0.7818608E-02  0.8446710E-01
         -1   -1    0    0    0  501 -0.00000000000E+00  0.00000000000E+00  0.71062123003E+03  0.71062123003E+03  0.00000000000E+00 0.  1.
          1   -1    0    0  501    0  0.00000000000E+00 -0.00000000000E+00 -0.19941789121E+04  0.19941789121E+04  0.00000000000E+00 0. -1.
         23    2    1    2    0    0 -0.16320783479E+03  0.54416398109E+03  0.40710691857E+03  0.70758839014E+03  0.11042667727E+03 0.  0.
        254    2    1    2    0    0  0.16320783479E+03 -0.54416398109E+03 -0.16906646006E+04  0.19972117520E+04  0.89875288860E+03 0.  0.
        -24    2    4    4    0    0 -0.15733625277E+03 -0.45635458926E+03 -0.15521381245E+04  0.16274181409E+04  0.79641951626E+02 0.  0.
         24    2    4    4    0    0  0.32054408756E+03 -0.87809391831E+02 -0.13852647617E+03  0.36979361105E+03  0.84253954265E+02 0.  0.
         13    1    3    3    0    0 -0.97325485086E+02  0.15568903207E+03  0.10922998549E+03  0.21364108801E+03  0.00000000000E+00 0. -1.
        -13    1    3    3    0    0 -0.65882349700E+02  0.38847494902E+03  0.29787693308E+03  0.49394730213E+03  0.00000000000E+00 0.  1.
          2    1    6    6  502    0  0.25588368481E+03 -0.85810374908E+02 -0.14208414039E+03  0.30500456315E+03  0.00000000000E+00 0. -1.
          1    1    5    5  503    0 -0.13296183951E+03 -0.32866452241E+03 -0.10288144174E+04  0.10881903898E+04  0.00000000000E+00 0. -1.
         -2    1    5    5    0  503 -0.24374413263E+02 -0.12769006685E+03 -0.52332370705E+03  0.53922775110E+03  0.00000000000E+00 0.  1.
         -1    1    6    6    0  502  0.64660402752E+02 -0.19990169230E+01  0.35576642210E+01  0.64789047897E+02  0.00000000000E+00 0.  1.
<mgrwt>
<rscale>  0 0.23808451E+04</rscale>
<asrwt>0</asrwt>
<pdfrwt beam="1">  1        1 0.30679675E+00 0.23808451E+04</pdfrwt>
<pdfrwt beam="2">  1       -1 0.10932634E+00 0.23808451E+04</pdfrwt>
<totfact> 0.20898185E+00</totfact>
</mgrwt>
</event>
<event>
12    1  0.2048318E-007  0.1541358E+04  0.7818608E-02  0.8857406E-01
         -1   -1    0    0    0  501 -0.00000000000E+00  0.00000000000E+00  0.45827318863E+03  0.45827318863E+03  0.00000000000E+00 0.  1.
          1   -1    0    0  501    0  0.00000000000E+00 -0.00000000000E+00 -0.12960533144E+04  0.12960533144E+04  0.00000000000E+00 0. -1.
         23    2    1    2    0    0 -0.15137152427E+03 -0.44500682928E+03 -0.47392860432E+03  0.67453302275E+03  0.97170264593E+02 0.  0.
        254    2    1    2    0    0  0.15137152427E+03  0.44500682928E+03 -0.36385152147E+03  0.10797934803E+04  0.90145527564E+03 0.  0.
        -24    2    4    4    0    0  0.37428149118E+03  0.29872327941E+03  0.13957972911E+03  0.50448181201E+03  0.75479570570E+02 0.  0.
         24    2    4    4    0    0 -0.22290996690E+03  0.14628354987E+03 -0.50343125058E+03  0.57531166830E+03  0.80329081325E+02 0.  0.
         13    1    3    3    0    0 -0.98214856734E+02 -0.23710607769E+03 -0.19347292653E+03  0.32139885417E+03  0.00000000000E+00 0.  1.
        -13    1    3    3    0    0 -0.53156667537E+02 -0.20790075159E+03 -0.28045567779E+03  0.35313416858E+03  0.00000000000E+00 0. -1.
          2    1    6    6  502    0  0.41540799225E+00  0.14946049485E+02 -0.59114234077E+02  0.60975811840E+02  0.00000000000E+00 0. -1.
          3    1    5    5  503    0  0.12043028284E+03  0.61864225279E+02  0.61052435978E+02  0.14851947796E+03  0.00000000000E+00 0. -1.
         -4    1    5    5    0  503  0.25385120834E+03  0.23685905413E+03  0.78527293133E+02  0.35596233405E+03  0.00000000000E+00 0.  1.
         -1    1    6    6    0  502 -0.22332537490E+03  0.13133750038E+03 -0.44431701651E+03  0.51433585646E+03  0.00000000000E+00 0.  1.
<mgrwt>
<rscale>  0 0.15413585E+04</rscale>
<asrwt>0</asrwt>
<pdfrwt beam="1">  1        1 0.19939282E+00 0.15413585E+04</pdfrwt>
<pdfrwt beam="2">  1       -1 0.70503568E-01 0.15413585E+04</pdfrwt>
<totfact> 0.17845823E+01</totfact>
</mgrwt>
</event>
<event>
12    1  0.2048318E-007  0.4032337E+04  0.7818608E-02  0.7998055E-01
         -2   -1    0    0    0  501 -0.00000000000E+00  0.00000000000E+00  0.27031322290E+04  0.27031322290E+04  0.00000000000E+00 0.  1.
          2   -1    0    0  501    0  0.00000000000E+00 -0.00000000000E+00 -0.15037872342E+04  0.15037872342E+04  0.00000000000E+00 0. -1.
         23    2    1    2    0    0 -0.20071282973E+03 -0.11225275128E+04  0.21755498149E+04  0.24579805523E+04  0.91091939792E+02 0.  0.
        254    2    1    2    0    0  0.20071282973E+03  0.11225275128E+04 -0.97620481998E+03  0.17489389109E+04  0.89747301156E+03 0.  0.
        -24    2    4    4    0    0  0.29943918291E+03  0.30966500113E+03  0.41372803794E+02  0.44040875163E+03  0.81804171235E+02 0.  0.
         24    2    4    4    0    0 -0.98726353177E+02  0.81286251170E+03 -0.10175776238E+04  0.13085301593E+04  0.79338525435E+02 0.  0.
         13    1    3    3    0    0 -0.15107990451E+03 -0.64679436274E+03  0.12034228619E+04  0.13745525344E+04  0.00000000000E+00 0. -1.
        -13    1    3    3    0    0 -0.49632925217E+02 -0.47573315009E+03  0.97212695295E+03  0.10834280179E+04  0.00000000000E+00 0.  1.
          2    1    6    6  502    0 -0.10734369695E+03  0.62948183397E+03 -0.80935805838E+03  0.10309367174E+04  0.00000000000E+00 0. -1.
          1    1    5    5  503    0  0.27906222100E+03  0.30056076196E+03  0.21787510241E+02  0.41071546163E+03  0.00000000000E+00 0. -1.
         -2    1    5    5    0  503  0.20376961905E+02  0.91042391742E+01  0.19585293553E+02  0.29693289999E+02  0.00000000000E+00 0.  1.
         -1    1    6    6    0  502  0.86173437685E+01  0.18338067772E+03 -0.20821956539E+03  0.27759344191E+03  0.00000000000E+00 0.  1.
<mgrwt>
<rscale>  0 0.40323372E+04</rscale>
<asrwt>0</asrwt>
<pdfrwt beam="1">  1        2 0.23135188E+00 0.40323372E+04</pdfrwt>
<pdfrwt beam="2">  1       -2 0.41586650E+00 0.40323372E+04</pdfrwt>
<totfact> 0.58004972E-02</totfact>
</mgrwt>
</event>
<event>
12    1  0.2048318E-007  0.1988947E+04  0.7818608E-02  0.8611806E-01
         -2   -1    0    0    0  501 -0.00000000000E+00  0.00000000000E+00  0.41853868340E+03  0.41853868340E+03  0.00000000000E+00 0. -1.
          2   -1    0    0  501    0  0.00000000000E+00 -0.00000000000E+00 -0.23629296447E+04  0.23629296447E+04  0.00000000000E+00 0.  1.
         23    2    1    2    0    0  0.69958413682E+03  0.32210348209E+03 -0.54473259203E+03  0.94785135782E+03  0.92303748707E+02 0.  0.
        254    2    1    2    0    0 -0.69958413682E+03 -0.32210348209E+03 -0.13996583693E+04  0.18336169703E+04  0.89996612459E+03 0.  0.
        -24    2    4    4    0    0  0.15966658526E+03 -0.26423372787E+03 -0.34926854123E+03  0.47288789631E+03  0.79508283790E+02 0.  0.
         24    2    4    4    0    0 -0.85925072209E+03 -0.57869754227E+02 -0.10503898280E+04  0.13607290740E+04  0.81265675871E+02 0.  0.
         13    1    3    3    0    0  0.28143998761E+03  0.17527419488E+03 -0.20995092083E+03  0.39243967584E+03  0.00000000000E+00 0. -1.
        -13    1    3    3    0    0  0.41814414921E+03  0.14682928722E+03 -0.33478167121E+03  0.55541168198E+03  0.00000000000E+00 0.  1.
          2    1    6    6  502    0 -0.79181522645E+03 -0.63290878573E+02 -0.99571565463E+03  0.12737451680E+04  0.00000000000E+00 0. -1.
          1    1    5    5  503    0  0.14651502030E+03 -0.19218891288E+03 -0.23447111880E+03  0.33671937122E+03  0.00000000000E+00 0. -1.
         -2    1    5    5    0  503  0.13151564969E+02 -0.72044814989E+02 -0.11479742243E+03  0.13616852509E+03  0.00000000000E+00 0.  1.
         -1    1    6    6    0  502 -0.67435495639E+02  0.54211243462E+01 -0.54674173420E+02  0.86983905985E+02  0.00000000000E+00 0.  1.
<mgrwt>
<rscale>  0 0.19889469E+04</rscale>
<asrwt>0</asrwt>
<pdfrwt beam="1">  1        2 0.36352763E+00 0.19889469E+04</pdfrwt>
<pdfrwt beam="2">  1       -2 0.64390568E-01 0.19889469E+04</pdfrwt>
<totfact> 0.86505095E+00</totfact>
</mgrwt>
</event>
<event>
12    1  0.2048318E-007  0.1613647E+04  0.7818608E-02  0.8812208E-01
         -2   -1    0    0    0  501 -0.00000000000E+00  0.00000000000E+00  0.49722203312E+03  0.49722203312E+03  0.00000000000E+00 0.  1.
          2   -1    0    0  501    0  0.00000000000E+00 -0.00000000000E+00 -0.13092015011E+04  0.13092015011E+04  0.00000000000E+00 0. -1.
         23    2    1    2    0    0  0.31956432921E+03  0.34221377418E+03 -0.61021467500E+03  0.77432854008E+03  0.89393012363E+02 0.  0.
        254    2    1    2    0    0 -0.31956432921E+03 -0.34221377418E+03 -0.20176479295E+03  0.10320949941E+04  0.89737362199E+03 0.  0.
        -24    2    4    4    0    0 -0.14104076401E+03 -0.12500372606E+03  0.35135432366E+03  0.40653674711E+03  0.79396708729E+02 0.  0.
         24    2    4    4    0    0 -0.17852356520E+03 -0.21721004812E+03 -0.55311911661E+03  0.62555824699E+03  0.79570691137E+02 0.  0.
         13    1    3    3    0    0  0.97514154766E+02  0.11655480962E+03 -0.26832606753E+03  0.30837138736E+03  0.00000000000E+00 0.  1.
        -13    1    3    3    0    0  0.22205017444E+03  0.22565896456E+03 -0.34188860747E+03  0.46595715272E+03  0.00000000000E+00 0. -1.
          2    1    6    6  502    0 -0.20465453816E+02 -0.41363239099E+02 -0.16275908781E+03  0.16917527306E+03  0.00000000000E+00 0. -1.
          3    1    5    5  503    0 -0.28611854075E+02 -0.39474422398E+01  0.16801718227E+02  0.33414341670E+02  0.00000000000E+00 0. -1.
         -4    1    5    5    0  503 -0.11242890993E+03 -0.12105628382E+03  0.33455260543E+03  0.37312240544E+03  0.00000000000E+00 0.  1.
         -1    1    6    6    0  502 -0.15805811138E+03 -0.17584680902E+03 -0.39036002880E+03  0.45638297393E+03  0.00000000000E+00 0.  1.
<mgrwt>
<rscale>  0 0.16136466E+04</rscale>
<asrwt>0</asrwt>
<pdfrwt beam="1">  1        2 0.20141561E+00 0.16136466E+04</pdfrwt>
<pdfrwt beam="2">  1       -2 0.76495699E-01 0.16136466E+04</pdfrwt>
<totfact> 0.23904473E+01</totfact>
</mgrwt>
</event>
<event>
12    1  0.2048318E-007  0.1610885E+04  0.7818608E-02  0.8813888E-01
          2   -1    0    0  501    0  0.00000000000E+00  0.00000000000E+00  0.24692894623E+04  0.24692894623E+04  0.00000000000E+00 0. -1.
         -2   -1    0    0    0  501 -0.00000000000E+00 -0.00000000000E+00 -0.26272251268E+03  0.26272251268E+03  0.00000000000E+00 0.  1.
         23    2    1    2    0    0 -0.34190150760E+03 -0.29793712078E+03  0.23679837921E+03  0.52010925151E+03  0.93685603355E+02 0.  0.
        254    2    1    2    0    0  0.34190150760E+03  0.29793712078E+03  0.19697685704E+04  0.22119027234E+04  0.89825512428E+03 0.  0.
        -24    2    4    4    0    0  0.19788231689E+03 -0.29081072122E+03  0.10241887360E+04  0.10858829454E+04  0.80317601975E+02 0.  0.
         24    2    4    4    0    0  0.14401919071E+03  0.58874784199E+03  0.94557983435E+03  0.11260197780E+04  0.80210776578E+02 0.  0.
         13    1    3    3    0    0 -0.36516978244E+02 -0.77861392479E+02  0.33470510095E+02  0.92283049282E+02  0.00000000000E+00 0.  1.
        -13    1    3    3    0    0 -0.30538452935E+03 -0.22007572830E+03  0.20332786911E+03  0.42782620223E+03  0.00000000000E+00 0. -1.
          4    1    6    6  502    0  0.10174520858E+03  0.46896236077E+03  0.79927753564E+03  0.93226732339E+03  0.00000000000E+00 0. -1.
          3    1    5    5  503    0  0.63398163558E+02 -0.16181091411E+03  0.46138068426E+03  0.49302559252E+03  0.00000000000E+00 0. -1.
         -4    1    5    5    0  503  0.13448415333E+03 -0.12899980711E+03  0.56280805176E+03  0.59285735287E+03  0.00000000000E+00 0.  1.
         -3    1    6    6    0  502  0.42273982122E+02  0.11978548123E+03  0.14630229872E+03  0.19375245466E+03  0.00000000000E+00 0.  1.
<mgrwt>
<rscale>  0 0.16108854E+04</rscale>
<asrwt>0</asrwt>
<pdfrwt beam="1">  1        2 0.37989067E+00 0.16108854E+04</pdfrwt>
<pdfrwt beam="2">  1       -2 0.40418850E-01 0.16108854E+04</pdfrwt>
<totfact> 0.20173733E+01</totfact>
</mgrwt>
</event>
<event>
12    1  0.2048318E-007  0.2580789E+04  0.7818608E-02  0.8374756E-01
          2   -1    0    0  501    0  0.00000000000E+00  0.00000000000E+00  0.53587690996E+03  0.53587690996E+03  0.00000000000E+00 0. -1.
         -2   -1    0    0    0  501 -0.00000000000E+00 -0.00000000000E+00 -0.31072764983E+04  0.31072764983E+04  0.00000000000E+00 0.  1.
         23    2    1    2    0    0 -0.91547886447E+03  0.30577723501E+03 -0.19668417714E+04  0.21928341382E+04  0.91944196612E+02 0.  0.
        254    2    1    2    0    0  0.91547886447E+03 -0.30577723501E+03 -0.60455781697E+03  0.14503192701E+04  0.89796133676E+03 0.  0.
        -24    2    4    4    0    0  0.81627506563E+03 -0.50544889578E+03 -0.20320274990E+03  0.98448194402E+03  0.78292857394E+02 0.  0.
         24    2    4    4    0    0  0.99203798834E+02  0.19967166077E+03 -0.40135506706E+03  0.46583732604E+03  0.78793138389E+02 0.  0.
         13    1    3    3    0    0 -0.24923455687E+03  0.11426079637E+03 -0.49333728183E+03  0.56440682807E+03  0.00000000000E+00 0. -1.
        -13    1    3    3    0    0 -0.66624430760E+03  0.19151643863E+03 -0.14735044896E+04  0.16284273101E+04  0.00000000000E+00 0.  1.
          2    1    6    6  502    0  0.94491982506E+02  0.14016308139E+03 -0.23804156475E+03  0.29195583689E+03  0.00000000000E+00 0. -1.
          3    1    5    5  503    0  0.62342844654E+03 -0.34576559476E+03 -0.15257581758E+03  0.72903789654E+03  0.00000000000E+00 0. -1.
         -4    1    5    5    0  503  0.19284661909E+03 -0.15968330101E+03 -0.50626932328E+02  0.25544404748E+03  0.00000000000E+00 0.  1.
         -1    1    6    6    0  502  0.47118163281E+01  0.59508579379E+02 -0.16331350231E+03  0.17388148915E+03  0.00000000000E+00 0.  1.
<mgrwt>
<rscale>  0 0.25807888E+04</rscale>
<asrwt>0</asrwt>
<pdfrwt beam="1">  1        2 0.82442602E-01 0.25807888E+04</pdfrwt>
<pdfrwt beam="2">  1       -2 0.47804253E+00 0.25807888E+04</pdfrwt>
<totfact> 0.11407402E-01</totfact>
</mgrwt>
</event>
<event>
12    1  0.2048318E-007  0.3705405E+04  0.7818608E-02  0.8066765E-01
         -2   -1    0    0    0  501 -0.00000000000E+00  0.00000000000E+00  0.12808734475E+04  0.12808734475E+04  0.00000000000E+00 0.  1.
          2   -1    0    0  501    0  0.00000000000E+00 -0.00000000000E+00 -0.26798164606E+04  0.26798164606E+04  0.00000000000E+00 0. -1.
         23    2    1    2    0    0  0.14866060829E+04 -0.73995001227E+03 -0.95009627517E+02  0.16655972022E+04  0.87541670499E+02 0.  0.
        254    2    1    2    0    0 -0.14866060829E+04  0.73995001227E+03 -0.13039333855E+04  0.22950927059E+04  0.89982475427E+03 0.  0.
        -24    2    4    4    0    0 -0.12817709360E+04  0.45726620655E+03 -0.56850030856E+03  0.14770880639E+04  0.81039690500E+02 0.  0.
         24    2    4    4    0    0 -0.20483514689E+03  0.28268380572E+03 -0.73543307696E+03  0.81800464205E+03  0.80013825750E+02 0.  0.
         13    1    3    3    0    0  0.21544976497E+03 -0.87283924419E+02 -0.37971187151E+02  0.23553958423E+03  0.00000000000E+00 0.  1.
        -13    1    3    3    0    0  0.12711563180E+04 -0.65266608785E+03 -0.57038440365E+02  0.14300576179E+04  0.00000000000E+00 0. -1.
          2    1    6    6  502    0 -0.30858541928E+02  0.29309332355E+02 -0.43383670769E+02  0.60773591818E+02  0.00000000000E+00 0. -1.
          1    1    5    5  503    0 -0.39647953587E+03  0.10258762773E+03 -0.16393442419E+03  0.44112893711E+03  0.00000000000E+00 0. -1.
         -2    1    5    5    0  503 -0.88529140018E+03  0.35467857882E+03 -0.40456588437E+03  0.10359591268E+04  0.00000000000E+00 0.  1.
         -1    1    6    6    0  502 -0.17397660496E+03  0.25337447337E+03 -0.69204940619E+03  0.75723105024E+03  0.00000000000E+00 0.  1.
<mgrwt>
<rscale>  0 0.37054046E+04</rscale>
<asrwt>0</asrwt>
<pdfrwt beam="1">  1        2 0.41227945E+00 0.37054046E+04</pdfrwt>
<pdfrwt beam="2">  1       -2 0.19705746E+00 0.37054046E+04</pdfrwt>
<totfact> 0.30673204E-01</totfact>
</mgrwt>
</event>
<event>
12    1  0.2048318E-007  0.2698521E+04  0.7818608E-02  0.8335485E-01
         -1   -1    0    0    0  501 -0.00000000000E+00  0.00000000000E+00  0.13063874191E+04  0.13063874191E+04  0.00000000000E+00 0.  1.
          1   -1    0    0  501    0  0.00000000000E+00 -0.00000000000E+00 -0.13935410134E+04  0.13935410134E+04  0.00000000000E+00 0. -1.
         23    2    1    2    0    0  0.11597970487E+04 -0.18734725015E+03  0.18998099610E+03  0.11937824510E+04  0.93784727611E+02 0.  0.
        254    2    1    2    0    0 -0.11597970487E+04  0.18734725015E+03 -0.27713459042E+03  0.15061459815E+04  0.90080183719E+03 0.  0.
        -24    2    4    4    0    0 -0.97376068890E+03  0.49948187519E+03 -0.12566025999E+03  0.11044898147E+04  0.80095111453E+02 0.  0.
         24    2    4    4    0    0 -0.18603635984E+03 -0.31213462505E+03 -0.15147433043E+03  0.40165616680E+03  0.79659602143E+02 0.  0.
         11    1    3    3    0    0  0.55583022038E+03 -0.13176914526E+03  0.11432036799E+03  0.58256286190E+03  0.00000000000E+00 0. -1.
        -11    1    3    3    0    0  0.60396682836E+03 -0.55578104886E+02  0.75660628104E+02  0.61121958914E+03  0.00000000000E+00 0.  1.
          4    1    6    6  502    0 -0.64719317926E+02 -0.13144636975E+03 -0.21289986944E+02  0.14805405019E+03  0.00000000000E+00 0. -1.
          1    1    5    5  503    0 -0.42177164827E+03  0.17339078827E+03 -0.62161425992E+02  0.46023877675E+03  0.00000000000E+00 0. -1.
         -2    1    5    5    0  503 -0.55198904062E+03  0.32609108692E+03 -0.63498834000E+02  0.64425103792E+03  0.00000000000E+00 0.  1.
         -3    1    6    6    0  502 -0.12131704191E+03 -0.18068825530E+03 -0.13018434349E+03  0.25360211661E+03  0.00000000000E+00 0.  1.
<mgrwt>
<rscale>  0 0.26985214E+04</rscale>
<asrwt>0</asrwt>
<pdfrwt beam="1">  1        1 0.21439093E+00 0.26985214E+04</pdfrwt>
<pdfrwt beam="2">  1       -1 0.20098268E+00 0.26985214E+04</pdfrwt>
<totfact> 0.10046203E+00</totfact>
</mgrwt>
</event>
<event>
12    1  0.2048318E-007  0.1326089E+04  0.7818608E-02  0.9009128E-01
          1   -1    0    0  501    0  0.00000000000E+00  0.00000000000E+00  0.26165838486E+04  0.26165838486E+04  0.00000000000E+00 0. -1.
         -1   -1    0    0    0  501 -0.00000000000E+00 -0.00000000000E+00 -0.16801603682E+03  0.16801603682E+03  0.00000000000E+00 0.  1.
         23    2    1    2    0    0  0.28230269096E+03  0.20060933098E+03  0.75768220842E+03  0.83812342637E+03  0.91813048424E+02 0.  0.
        254    2    1    2    0    0 -0.28230269096E+03 -0.20060933098E+03  0.16908856034E+04  0.19464764590E+04  0.89985419319E+03 0.  0.
        -24    2    4    4    0    0  0.81301824880E+02 -0.31983788874E+03  0.14438067817E+04  0.14832576427E+04  0.81049057816E+02 0.  0.
         24    2    4    4    0    0 -0.36360451584E+03  0.11922855776E+03  0.24707882162E+03  0.46321881638E+03  0.84261704375E+02 0.  0.
         13    1    3    3    0    0  0.17188542245E+03  0.83094891964E+02  0.48652305795E+03  0.52264141191E+03  0.00000000000E+00 0. -1.
        -13    1    3    3    0    0  0.11041726851E+03  0.11751443901E+03  0.27115915047E+03  0.31548201446E+03  0.00000000000E+00 0.  1.
          2    1    6    6  502    0 -0.13772126426E+03  0.25712598037E+02  0.13396772382E+03  0.19384435857E+03  0.00000000000E+00 0. -1.
          3    1    5    5  503    0  0.35182990455E+02 -0.20815684108E+03  0.75618455694E+03  0.78510011938E+03  0.00000000000E+00 0. -1.
         -4    1    5    5    0  503  0.46118834425E+02 -0.11168104766E+03  0.68762222479E+03  0.69815752329E+03  0.00000000000E+00 0.  1.
         -1    1    6    6    0  502 -0.22588325159E+03  0.93515959723E+02  0.11311109781E+03  0.26937445780E+03  0.00000000000E+00 0.  1.
<mgrwt>
<rscale>  0 0.13260891E+04</rscale>
<asrwt>0</asrwt>
<pdfrwt beam="1">  1        1 0.40255133E+00 0.13260891E+04</pdfrwt>
<pdfrwt beam="2">  1       -1 0.25848623E-01 0.13260891E+04</pdfrwt>
<totfact> 0.14646679E+01</totfact>
</mgrwt>
</event>
<event>
12    1  0.2048318E-007  0.2220578E+04  0.7818608E-02  0.8509912E-01
          2   -1    0    0  501    0  0.00000000000E+00  0.00000000000E+00  0.98022406275E+03  0.98022406275E+03  0.00000000000E+00 0. -1.
         -2   -1    0    0    0  501 -0.00000000000E+00 -0.00000000000E+00 -0.12576124067E+04  0.12576124067E+04  0.00000000000E+00 0.  1.
         23    2    1    2    0    0  0.91243312765E+03 -0.10362509307E+03 -0.22951381551E+03  0.95085168730E+03  0.90387871833E+02 0.  0.
        254    2    1    2    0    0 -0.91243312765E+03  0.10362509307E+03 -0.47874528487E+02  0.12869847822E+04  0.90042517001E+03 0.  0.
        -24    2    4    4    0    0 -0.56106976766E+03  0.44030370271E+03 -0.24174369415E+03  0.75738533160E+03  0.80782993600E+02 0.  0.
         24    2    4    4    0    0 -0.35136335999E+03 -0.33667860964E+03  0.19386916566E+03  0.52959945060E+03  0.77984791803E+02 0.  0.
         11    1    3    3    0    0  0.63709025252E+03 -0.30998475014E+02 -0.15122514916E+03  0.65552569823E+03  0.00000000000E+00 0. -1.
        -11    1    3    3    0    0  0.27534287513E+03 -0.72626618053E+02 -0.78288666350E+02  0.29532598906E+03  0.00000000000E+00 0.  1.
          2    1    6    6  502    0 -0.31800171806E+03 -0.32662437727E+03  0.19218293549E+03  0.49471492520E+03  0.00000000000E+00 0. -1.
          3    1    5    5  503    0 -0.45414703375E+03  0.36270637810E+03 -0.16320244776E+03  0.60368906230E+03  0.00000000000E+00 0. -1.
         -4    1    5    5    0  503 -0.10692273391E+03  0.77597324609E+02 -0.78541246387E+02  0.15369626930E+03  0.00000000000E+00 0.  1.
         -1    1    6    6    0  502 -0.33361641928E+02 -0.10054232367E+02  0.16862301722E+01  0.34884525406E+02  0.00000000000E+00 0.  1.
<mgrwt>
<rscale>  0 0.22205783E+04</rscale>
<asrwt>0</asrwt>
<pdfrwt beam="1">  1        2 0.15080370E+00 0.22205783E+04</pdfrwt>
<pdfrwt beam="2">  1       -2 0.19347883E+00 0.22205783E+04</pdfrwt>
<totfact> 0.34765980E+00</totfact>
</mgrwt>
</event>
<event>
12    1  0.2048318E-007  0.2221721E+04  0.7818608E-02  0.8509441E-01
         -2   -1    0    0    0  501 -0.00000000000E+00  0.00000000000E+00  0.61819903661E+03  0.61819903661E+03  0.00000000000E+00 0.  1.
          2   -1    0    0  501    0  0.00000000000E+00 -0.00000000000E+00 -0.19961396364E+04  0.19961396364E+04  0.00000000000E+00 0. -1.
         23    2    1    2    0    0 -0.56273108642E+03 -0.50830573295E+03 -0.12027342358E+04  0.14248161083E+04  0.92142859211E+02 0.  0.
        254    2    1    2    0    0  0.56273108642E+03  0.50830573295E+03 -0.17520636395E+03  0.11895225648E+04  0.89956971288E+03 0.  0.
        -24    2    4    4    0    0  0.54361287590E+03 -0.57120242152E+02 -0.26350686745E+03  0.61209819506E+03  0.80315940522E+02 0.  0.
         24    2    4    4    0    0  0.19118210520E+02  0.56542597510E+03  0.88300503497E+02  0.57742436969E+03  0.74497546973E+02 0.  0.
         13    1    3    3    0    0 -0.31670082204E+03 -0.32715386034E+03 -0.78100171258E+03  0.90404244041E+03  0.00000000000E+00 0.  1.
        -13    1    3    3    0    0 -0.24603026437E+03 -0.18115187261E+03 -0.42173252327E+03  0.52077366784E+03  0.00000000000E+00 0. -1.
          2    1    6    6  502    0  0.38512305170E+02  0.16361046126E+03  0.34099898063E+02  0.17150622068E+03  0.00000000000E+00 0. -1.
          3    1    5    5  503    0  0.22905151026E+02 -0.15350272523E+02 -0.12998845483E+01  0.27603740867E+02  0.00000000000E+00 0. -1.
         -4    1    5    5    0  503  0.52070772487E+03 -0.41769969630E+02 -0.26220698290E+03  0.58449445419E+03  0.00000000000E+00 0.  1.
         -1    1    6    6    0  502 -0.19394094650E+02  0.40181551384E+03  0.54200605435E+02  0.40591814901E+03  0.00000000000E+00 0.  1.
<mgrwt>
<rscale>  0 0.22217215E+04</rscale>
<asrwt>0</asrwt>
<pdfrwt beam="1">  1        2 0.30709840E+00 0.22217215E+04</pdfrwt>
<pdfrwt beam="2">  1       -2 0.95107545E-01 0.22217215E+04</pdfrwt>
<totfact> 0.56941570E+00</totfact>
</mgrwt>
</event>
<event>
12    1  0.2048318E-007  0.1644464E+04  0.7818608E-02  0.8793688E-01
         -2   -1    0    0    0  501 -0.00000000000E+00  0.00000000000E+00  0.30875468707E+03  0.30875468707E+03  0.00000000000E+00 0.  1.
          2   -1    0    0  501    0  0.00000000000E+00 -0.00000000000E+00 -0.21896535817E+04  0.21896535817E+04  0.00000000000E+00 0. -1.
         23    2    1    2    0    0 -0.40328055620E+03  0.30205788729E+03 -0.25165703584E+03  0.57037760071E+03  0.90139721618E+02 0.  0.
        254    2    1    2    0    0  0.40328055620E+03 -0.30205788729E+03 -0.16292418588E+04  0.19280306681E+04  0.89944374382E+03 0.  0.
        -24    2    4    4    0    0  0.48619543756E+03 -0.44515702869E+03 -0.16116088730E+04  0.17430278849E+04  0.79449759516E+02 0.  0.
         24    2    4    4    0    0 -0.82914881355E+02  0.14309914140E+03 -0.17632985816E+02  0.18500278320E+03  0.81011516358E+02 0.  0.
         11    1    3    3    0    0 -0.17252265545E+03  0.18428053506E+03 -0.11369611374E+03  0.27685770447E+03  0.00000000000E+00 0.  1.
        -11    1    3    3    0    0 -0.23075790075E+03  0.11777735223E+03 -0.13796092211E+03  0.29351989624E+03  0.00000000000E+00 0. -1.
          2    1    6    6  502    0  0.57150459119E+00 -0.55713569618E+01  0.10776062838E+02  0.12144552943E+02  0.00000000000E+00 0. -1.
          3    1    5    5  503    0  0.11629856617E+03 -0.77668456784E+02 -0.28021638179E+03  0.31317561574E+03  0.00000000000E+00 0. -1.
         -4    1    5    5    0  503  0.36989687139E+03 -0.36748857191E+03 -0.13313924912E+04  0.14298522691E+04  0.00000000000E+00 0.  1.
         -1    1    6    6    0  502 -0.83486385946E+02  0.14867049836E+03 -0.28409048654E+02  0.17285823026E+03  0.00000000000E+00 0.  1.
<mgrwt>
<rscale>  0 0.16444644E+04</rscale>
<asrwt>0</asrwt>
<pdfrwt beam="1">  1        2 0.33686978E+00 0.16444644E+04</pdfrwt>
<pdfrwt beam="2">  1       -2 0.47500722E-01 0.16444644E+04</pdfrwt>
<totfact> 0.21019748E+01</totfact>
</mgrwt>
</event>
<event>
12    1  0.2048318E-007  0.2730157E+04  0.7818608E-02  0.8325286E-01
          2   -1    0    0  501    0  0.00000000000E+00  0.00000000000E+00  0.27674938769E+04  0.27674938769E+04  0.00000000000E+00 0. -1.
         -2   -1    0    0    0  501 -0.00000000000E+00 -0.00000000000E+00 -0.67333118414E+03  0.67333118414E+03  0.00000000000E+00 0.  1.
         23    2    1    2    0    0  0.10559144459E+04  0.23800028008E+03  0.16204821251E+04  0.19507648872E+04  0.89004928427E+02 0.  0.
        254    2    1    2    0    0 -0.10559144459E+04 -0.23800028008E+03  0.47368056769E+03  0.14900601738E+04  0.90791331688E+03 0.  0.
        -24    2    4    4    0    0 -0.98459018294E+03 -0.35186069302E+02  0.66512159654E+03  0.11911951094E+04  0.76832041890E+02 0.  0.
         24    2    4    4    0    0 -0.71324262946E+02 -0.20281421078E+03 -0.19144102885E+03  0.29886506439E+03  0.80311298133E+02 0.  0.
         11    1    3    3    0    0  0.85232409197E+03  0.15553653688E+03  0.12916537716E+04  0.15553190791E+04  0.00000000000E+00 0.  1.
        -11    1    3    3    0    0  0.20359035392E+03  0.82463743197E+02  0.32882835344E+03  0.39544580814E+03  0.00000000000E+00 0. -1.
          4    1    6    6  502    0 -0.40826596177E+02 -0.22975358268E+02 -0.33649119671E+02  0.57679643702E+02  0.00000000000E+00 0. -1.
          3    1    5    5  503    0 -0.51011120133E+03  0.14063600691E+01  0.38383002709E+03  0.63838930542E+03  0.00000000000E+00 0. -1.
         -4    1    5    5    0  503 -0.47447898161E+03 -0.36592429371E+02  0.28129156944E+03  0.55280580398E+03  0.00000000000E+00 0.  1.
         -3    1    6    6    0  502 -0.30497666769E+02 -0.17983885251E+03 -0.15779190918E+03  0.24118542069E+03  0.00000000000E+00 0.  1.
<mgrwt>
<rscale>  0 0.27301575E+04</rscale>
<asrwt>0</asrwt>
<pdfrwt beam="1">  1        2 0.42576828E+00 0.27301575E+04</pdfrwt>
<pdfrwt beam="2">  1       -2 0.10358941E+00 0.27301575E+04</pdfrwt>
<totfact> 0.16071760E+00</totfact>
</mgrwt>
</event>
<event>
12    1  0.2048318E-007  0.2183589E+04  0.7818608E-02  0.8525290E-01
          2   -1    0    0  501    0  0.00000000000E+00  0.00000000000E+00  0.11525462177E+04  0.11525462177E+04  0.00000000000E+00 0. -1.
         -2   -1    0    0    0  501 -0.00000000000E+00 -0.00000000000E+00 -0.10342454301E+04  0.10342454301E+04  0.00000000000E+00 0.  1.
         23    2    1    2    0    0 -0.80772389466E+03 -0.38204828467E+03 -0.79738772770E+02  0.90162169274E+03  0.90468906908E+02 0.  0.
        254    2    1    2    0    0  0.80772389466E+03  0.38204828467E+03  0.19803956046E+03  0.12851699551E+04  0.90225460047E+03 0.  0.
        -24    2    4    4    0    0  0.96671532247E+01 -0.23926507721E+03  0.74628229424E+02  0.26322673077E+03  0.79860554359E+02 0.  0.
         24    2    4    4    0    0  0.79805674144E+03  0.62131336189E+03  0.12341133104E+03  0.10219432243E+04  0.78820941596E+02 0.  0.
         11    1    3    3    0    0 -0.29810924299E+03 -0.11829061502E+03 -0.67059993679E+02  0.32765657801E+03  0.00000000000E+00 0.  1.
        -11    1    3    3    0    0 -0.50961465167E+03 -0.26375766966E+03 -0.12678779091E+02  0.57396511474E+03  0.00000000000E+00 0. -1.
          4    1    6    6  502    0  0.37412404723E+03  0.28486927251E+03  0.96676740987E+02  0.48006842989E+03  0.00000000000E+00 0. -1.
          1    1    5    5  503    0 -0.26703913053E+02 -0.10288520981E+03  0.64850776023E+01  0.10649188514E+03  0.00000000000E+00 0. -1.
         -2    1    5    5    0  503  0.36371066278E+02 -0.13637986741E+03  0.68143151822E+02  0.15673484563E+03  0.00000000000E+00 0.  1.
         -3    1    6    6    0  502  0.42393269421E+03  0.33644408938E+03  0.26734590050E+02  0.54187479440E+03  0.00000000000E+00 0.  1.
<mgrwt>
<rscale>  0 0.21835894E+04</rscale>
<asrwt>0</asrwt>
<pdfrwt beam="1">  1        2 0.17731480E+00 0.21835894E+04</pdfrwt>
<pdfrwt beam="2">  1       -2 0.15911468E+00 0.21835894E+04</pdfrwt>
<totfact> 0.47351736E+00</totfact>
</mgrwt>
</event>
<event>
12    1  0.2048318E-007  0.3484456E+04  0.7818608E-02  0.8117484E-01
         -2   -1    0    0    0  501 -0.00000000000E+00  0.00000000000E+00  0.13581340906E+04  0.13581340906E+04  0.00000000000E+00 0.  1.
          2   -1    0    0  501    0  0.00000000000E+00 -0.00000000000E+00 -0.22349477216E+04  0.22349477216E+04  0.00000000000E+00 0. -1.
         23    2    1    2    0    0 -0.14669767443E+04  0.22208004285E+03  0.27355884590E+03  0.15116078304E+04  0.93720206958E+02 0.  0.
        254    2    1    2    0    0  0.14669767443E+04 -0.22208004285E+03 -0.11503724769E+04  0.20814739817E+04  0.89879741171E+03 0.  0.
        -24    2    4    4    0    0  0.42056374538E+03 -0.48965373576E+03 -0.46564796115E+03  0.80011018719E+03  0.81936823474E+02 0.  0.
         24    2    4    4    0    0  0.10464129989E+04  0.26757369292E+03 -0.68472451574E+03  0.12813637945E+04  0.80434234486E+02 0.  0.
         11    1    3    3    0    0 -0.54225846902E+03  0.63546880215E+02  0.58744834261E+02  0.54912057762E+03  0.00000000000E+00 0. -1.
        -11    1    3    3    0    0 -0.92471827523E+03  0.15853316263E+03  0.21481401164E+03  0.96248725280E+03  0.00000000000E+00 0.  1.
          2    1    6    6  502    0  0.96250884298E+03  0.22968721886E+03 -0.64438657633E+03  0.11808528914E+04  0.00000000000E+00 0. -1.
          3    1    5    5  503    0  0.27289642267E+03 -0.37236952640E+03 -0.34342638705E+03  0.57538961150E+03  0.00000000000E+00 0. -1.
         -4    1    5    5    0  503  0.14766732271E+03 -0.11728420936E+03 -0.12222157410E+03  0.22472057568E+03  0.00000000000E+00 0.  1.
         -1    1    6    6    0  502  0.83904155895E+02  0.37886474059E+02 -0.40337939406E+02  0.10051090313E+03  0.00000000000E+00 0.  1.
<mgrwt>
<rscale>  0 0.34844562E+04</rscale>
<asrwt>0</asrwt>
<pdfrwt beam="1">  1        2 0.34383811E+00 0.34844562E+04</pdfrwt>
<pdfrwt beam="2">  1       -2 0.20894371E+00 0.34844562E+04</pdfrwt>
<totfact> 0.47227392E-01</totfact>
</mgrwt>
</event>
<event>
12    1  0.2048318E-007  0.1586466E+04  0.7818608E-02  0.8828906E-01
         -1   -1    0    0    0  501 -0.00000000000E+00  0.00000000000E+00  0.37971158012E+03  0.37971158012E+03  0.00000000000E+00 0.  1.
          1   -1    0    0  501    0  0.00000000000E+00 -0.00000000000E+00 -0.16570961753E+04  0.16570961753E+04  0.00000000000E+00 0. -1.
         23    2    1    2    0    0 -0.88352947422E+02 -0.52409143205E+03 -0.44215694475E+03  0.69730567437E+03  0.90853548338E+02 0.  0.
        254    2    1    2    0    0  0.88352947422E+02  0.52409143205E+03 -0.83522765045E+03  0.13395020811E+04  0.90232063296E+03 0.  0.
        -24    2    4    4    0    0 -0.18444797530E+03  0.66453983677E+03 -0.40004012383E+03  0.80125133621E+03  0.79607492406E+02 0.  0.
         24    2    4    4    0    0  0.27280092273E+03 -0.14044840472E+03 -0.43518752662E+03  0.53825074487E+03  0.78610325027E+02 0.  0.
         11    1    3    3    0    0 -0.67089124395E+02 -0.50566596750E+03 -0.42767445838E+03  0.66566092243E+03  0.00000000000E+00 0. -1.
        -11    1    3    3    0    0 -0.21263823027E+02 -0.18425464546E+02 -0.14482486375E+02  0.31644751936E+02  0.00000000000E+00 0.  1.
          2    1    6    6  502    0  0.23939973548E+03 -0.10218793170E+03 -0.32097577260E+03  0.41325543351E+03  0.00000000000E+00 0. -1.
          3    1    5    5  503    0 -0.91584389618E+02  0.20760339079E+03 -0.15190537930E+03  0.27306063896E+03  0.00000000000E+00 0. -1.
         -4    1    5    5    0  503 -0.92863585685E+02  0.45693644598E+03 -0.24813474453E+03  0.52819069724E+03  0.00000000000E+00 0.  1.
         -1    1    6    6    0  502  0.33401187247E+02 -0.38260473022E+02 -0.11421175402E+03  0.12499531136E+03  0.00000000000E+00 0.  1.
<mgrwt>
<rscale>  0 0.15864660E+04</rscale>
<asrwt>0</asrwt>
<pdfrwt beam="1">  1        1 0.25493787E+00 0.15864660E+04</pdfrwt>
<pdfrwt beam="2">  1       -1 0.58417166E-01 0.15864660E+04</pdfrwt>
<totfact> 0.14544090E+01</totfact>
</mgrwt>
</event>
<event>
12    1  0.2048318E-007  0.1225646E+04  0.7818608E-02  0.9090700E-01
          4   -1    0    0  501    0  0.00000000000E+00  0.00000000000E+00  0.23306844131E+04  0.23306844131E+04  0.00000000000E+00 0. -1.
         -4   -1    0    0    0  501 -0.00000000000E+00 -0.00000000000E+00 -0.16113386378E+03  0.16113386378E+03  0.00000000000E+00 0.  1.
         23    2    1    2    0    0 -0.17009822128E+03  0.10537817485E+03  0.86116901803E+03  0.88875132624E+03  0.90713161505E+02 0.  0.
        254    2    1    2    0    0  0.17009822128E+03 -0.10537817485E+03  0.13083815313E+04  0.16030669507E+04  0.90439120530E+03 0.  0.
        -24    2    4    4    0    0  0.42515220971E+03 -0.19136012740E+03  0.30993403564E+03  0.56573796642E+03  0.81407864634E+02 0.  0.
         24    2    4    4    0    0 -0.25505398843E+03  0.85981952550E+02  0.99844749569E+03  0.10373289843E+04  0.81905962832E+02 0.  0.
         11    1    3    3    0    0 -0.67328738086E+01 -0.13425820878E+01  0.18137610015E+03  0.18150598839E+03  0.00000000000E+00 0.  1.
        -11    1    3    3    0    0 -0.16336534747E+03  0.10672075694E+03  0.67979291788E+03  0.70724533785E+03  0.00000000000E+00 0. -1.
          2    1    6    6  502    0 -0.22535020373E+03  0.89630942245E+02  0.94927867836E+03  0.97976855906E+03  0.00000000000E+00 0. -1.
          3    1    5    5  503    0  0.42701512144E+03 -0.19459381958E+03  0.30908882924E+03  0.56191153478E+03  0.00000000000E+00 0. -1.
         -4    1    5    5    0  503 -0.18629117293E+01  0.32336921838E+01  0.84520639759E+00  0.38264316413E+01  0.00000000000E+00 0.  1.
         -1    1    6    6    0  502 -0.29703784700E+02 -0.36489896945E+01  0.49168817332E+02  0.57560425199E+02  0.00000000000E+00 0.  1.
<mgrwt>
<rscale>  0 0.12256463E+04</rscale>
<asrwt>0</asrwt>
<pdfrwt beam="1">  1        4 0.35856681E+00 0.12256463E+04</pdfrwt>
<pdfrwt beam="2">  1       -4 0.24789827E-01 0.12256463E+04</pdfrwt>
<totfact> 0.40530973E-01</totfact>
</mgrwt>
</event>
<event>
12    1  0.2048318E-007  0.1697298E+04  0.7818608E-02  0.8762907E-01
          2   -1    0    0  501    0  0.00000000000E+00  0.00000000000E+00  0.10802668157E+04  0.10802668157E+04  0.00000000000E+00 0. -1.
         -2   -1    0    0    0  501 -0.00000000000E+00 -0.00000000000E+00 -0.66669222771E+03  0.66669222771E+03  0.00000000000E+00 0.  1.
         23    2    1    2    0    0 -0.87409739993E+02  0.18600818698E+03  0.73675910844E+03  0.77080580061E+03  0.95331474948E+02 0.  0.
        254    2    1    2    0    0  0.87409739993E+02 -0.18600818698E+03 -0.32318452042E+03  0.97615324284E+03  0.89787939668E+03 0.  0.
        -24    2    4    4    0    0 -0.31801343704E+03 -0.19838384777E+03 -0.40132398183E+03  0.55505399080E+03  0.80841184555E+02 0.  0.
         24    2    4    4    0    0  0.40542317703E+03  0.12375660782E+02  0.78139461410E+02  0.42109925204E+03  0.81839447606E+02 0.  0.
         13    1    3    3    0    0 -0.65937958092E+02  0.39449244942E+02  0.20995730839E+03  0.22357577818E+03  0.00000000000E+00 0. -1.
        -13    1    3    3    0    0 -0.21471781901E+02  0.14655894204E+03  0.52680180005E+03  0.54723002243E+03  0.00000000000E+00 0.  1.
          4    1    6    6  502    0  0.30353090065E+03 -0.21597442285E+02  0.39018019568E+02  0.30678960709E+03  0.00000000000E+00 0. -1.
          3    1    5    5  503    0 -0.26479129542E+03 -0.18761349874E+03 -0.30991137366E+03  0.44872966757E+03  0.00000000000E+00 0. -1.
         -4    1    5    5    0  503 -0.53222141616E+02 -0.10770349030E+02 -0.91412608175E+02  0.10632432323E+03  0.00000000000E+00 0.  1.
         -3    1    6    6    0  502  0.10189227637E+03  0.33973103067E+02  0.39121441843E+02  0.11430964495E+03  0.00000000000E+00 0.  1.
<mgrwt>
<rscale>  0 0.16972984E+04</rscale>
<asrwt>0</asrwt>
<pdfrwt beam="1">  1        2 0.16619490E+00 0.16972984E+04</pdfrwt>
<pdfrwt beam="2">  1       -2 0.10256803E+00 0.16972984E+04</pdfrwt>
<totfact> 0.16586375E+01</totfact>
</mgrwt>
</event>
<event>
12    1  0.2048318E-007  0.4984028E+04  0.7818608E-02  0.7830976E-01
         -1   -1    0    0    0  501 -0.00000000000E+00  0.00000000000E+00  0.23436632578E+04  0.23436632578E+04  0.00000000000E+00 0.  1.
          1   -1    0    0  501    0  0.00000000000E+00 -0.00000000000E+00 -0.26497550932E+04  0.26497550932E+04  0.00000000000E+00 0. -1.
         23    2    1    2    0    0  0.49707638788E+02 -0.16884477748E+04  0.15735511791E+04  0.23100839003E+04  0.84247108801E+02 0.  0.
        254    2    1    2    0    0 -0.49707638788E+02  0.16884477748E+04 -0.18796430146E+04  0.26833344507E+04  0.90216360727E+03 0.  0.
        -24    2    4    4    0    0  0.73718645647E+02  0.17285582755E+04 -0.18379147787E+04  0.25253858468E+04  0.79339720415E+02 0.  0.
         24    2    4    4    0    0 -0.12342628443E+03 -0.40110500660E+02 -0.41728235893E+02  0.15794860384E+03  0.79772274835E+02 0.  0.
         11    1    3    3    0    0  0.35299392327E+02 -0.12615032422E+04  0.11246692093E+04  0.16904192697E+04  0.00000000000E+00 0. -1.
        -11    1    3    3    0    0  0.14408246461E+02 -0.42694453268E+03  0.44888196983E+03  0.61966463057E+03  0.00000000000E+00 0.  1.
          2    1    6    6  502    0 -0.99697693797E+02 -0.48888378251E+02 -0.22535552002E+01  0.11106206457E+03  0.00000000000E+00 0. -1.
          1    1    5    5  503    0  0.57240650159E+02  0.14591695135E+04 -0.15913107652E+04  0.21597967758E+04  0.00000000000E+00 0. -1.
         -2    1    5    5    0  503  0.16477995488E+02  0.26938876201E+03 -0.24660401345E+03  0.36558907106E+03  0.00000000000E+00 0.  1.
         -1    1    6    6    0  502 -0.23728590638E+02  0.87778775916E+01 -0.39474680693E+02  0.46886539268E+02  0.00000000000E+00 0.  1.
<mgrwt>
<rscale>  0 0.49840280E+04</rscale>
<asrwt>0</asrwt>
<pdfrwt beam="1">  1        1 0.40765463E+00 0.49840280E+04</pdfrwt>
<pdfrwt beam="2">  1       -1 0.36056358E+00 0.49840280E+04</pdfrwt>
<totfact> 0.10173424E-02</totfact>
</mgrwt>
</event>
<event>
12    1  0.2048318E-007  0.1078683E+04  0.7818608E-02  0.9226221E-01
         -1   -1    0    0    0  501 -0.00000000000E+00  0.00000000000E+00  0.39728998970E+03  0.39728998970E+03  0.00000000000E+00 0.  1.
          1   -1    0    0  501    0  0.00000000000E+00 -0.00000000000E+00 -0.73218425846E+03  0.73218425846E+03  0.00000000000E+00 0. -1.
         23    2    1    2    0    0  0.47270073210E+02 -0.10198134400E+03 -0.14086369297E+03  0.20263116194E+03  0.92639912820E+02 0.  0.
        254    2    1    2    0    0 -0.47270073210E+02  0.10198134400E+03 -0.19403057580E+03  0.92684308623E+03  0.89930839416E+03 0.  0.
        -24    2    4    4    0    0 -0.22961089520E+03  0.34304438984E+03  0.16414975062E+03  0.45149395508E+03  0.80628991371E+02 0.  0.
         24    2    4    4    0    0  0.18234082199E+03 -0.24106304584E+03 -0.35818032642E+03  0.47534913115E+03  0.79398254471E+02 0.  0.
         13    1    3    3    0    0  0.39247842003E+02 -0.36156435668E+02 -0.77614579055E+01  0.53925144144E+02  0.00000000000E+00 0.  1.
        -13    1    3    3    0    0  0.80222312072E+01 -0.65824908332E+02 -0.13310223506E+03  0.14870601779E+03  0.00000000000E+00 0. -1.
          2    1    6    6  502    0  0.14682478013E+02 -0.25824629979E+02 -0.81636121363E+02  0.86873143061E+02  0.00000000000E+00 0. -1.
          1    1    5    5  503    0 -0.12587163652E+03  0.11874760194E+03  0.77635922827E+02  0.18966285445E+03  0.00000000000E+00 0. -1.
         -2    1    5    5    0  503 -0.10373925868E+03  0.22429678791E+03  0.86513827794E+02  0.26183110063E+03  0.00000000000E+00 0.  1.
         -3    1    6    6    0  502  0.16765834397E+03 -0.21523841587E+03 -0.27654420505E+03  0.38847598808E+03  0.00000000000E+00 0.  1.
<mgrwt>
<rscale>  0 0.10786834E+04</rscale>
<asrwt>0</asrwt>
<pdfrwt beam="1">  1        1 0.11264373E+00 0.10786834E+04</pdfrwt>
<pdfrwt beam="2">  1       -1 0.61121537E-01 0.10786834E+04</pdfrwt>
<totfact> 0.68888232E+01</totfact>
</mgrwt>
</event>
<event>
12    1  0.2048318E-007  0.1862270E+04  0.7818608E-02  0.8673868E-01
          2   -1    0    0  501    0  0.00000000000E+00  0.00000000000E+00  0.82712639802E+03  0.82712639802E+03  0.00000000000E+00 0. -1.
         -2   -1    0    0    0  501 -0.00000000000E+00 -0.00000000000E+00 -0.10482221610E+04  0.10482221610E+04  0.00000000000E+00 0.  1.
         23    2    1    2    0    0  0.70224570114E+03 -0.29353016166E+02 -0.17510754752E+03  0.73192171806E+03  0.10505295733E+03 0.  0.
        254    2    1    2    0    0 -0.70224570114E+03  0.29353016166E+02 -0.45988215500E+02  0.11434268410E+04  0.90072159983E+03 0.  0.
        -24    2    4    4    0    0  0.78674346494E+02  0.10105762710E+03  0.25780289945E+03  0.29866148522E+03  0.79586751384E+02 0.  0.
         24    2    4    4    0    0 -0.78092004763E+03 -0.71704610932E+02 -0.30379111495E+03  0.84476535577E+03  0.79760847275E+02 0.  0.
         11    1    3    3    0    0  0.12552852794E+03  0.35678282310E+01  0.82870754937E+01  0.12585235932E+03  0.00000000000E+00 0. -1.
        -11    1    3    3    0    0  0.57671717320E+03 -0.32920844397E+02 -0.18339462301E+03  0.60606935874E+03  0.00000000000E+00 0.  1.
          2    1    6    6  502    0 -0.49130422958E+02  0.14033449040E+02 -0.13522927457E+02  0.52854571411E+02  0.00000000000E+00 0. -1.
          1    1    5    5  503    0 -0.14330549817E+02  0.58891056311E+01  0.13872689138E+02  0.20796579698E+02  0.00000000000E+00 0. -1.
         -2    1    5    5    0  503  0.93004896311E+02  0.95168521466E+02  0.24393021031E+03  0.27786490552E+03  0.00000000000E+00 0.  1.
         -1    1    6    6    0  502 -0.73178962467E+03 -0.85738059972E+02 -0.29026818750E+03  0.79191078436E+03  0.00000000000E+00 0.  1.
<mgrwt>
<rscale>  0 0.18622698E+04</rscale>
<asrwt>0</asrwt>
<pdfrwt beam="1">  1        2 0.12725022E+00 0.18622698E+04</pdfrwt>
<pdfrwt beam="2">  1       -2 0.16126495E+00 0.18622698E+04</pdfrwt>
<totfact> 0.76250862E+00</totfact>
</mgrwt>
</event>
<event>
12    1  0.2048318E-007  0.1930195E+04  0.7818608E-02  0.8639971E-01
         -2   -1    0    0    0  501 -0.00000000000E+00  0.00000000000E+00  0.43543976790E+03  0.43543976790E+03  0.00000000000E+00 0.  1.
          2   -1    0    0  501    0  0.00000000000E+00 -0.00000000000E+00 -0.21390169266E+04  0.21390169266E+04  0.00000000000E+00 0. -1.
         23    2    1    2    0    0 -0.59453315751E+03 -0.17314089018E+03 -0.98533830745E+02  0.63335068417E+03  0.89312541720E+02 0.  0.
        254    2    1    2    0    0  0.59453315751E+03  0.17314089018E+03 -0.16050433280E+04  0.19411060103E+04  0.89904450141E+03 0.  0.
        -24    2    4    4    0    0  0.26735275774E+03 -0.26659254338E+03 -0.20810628175E+03  0.43835364700E+03  0.79351207153E+02 0.  0.
         24    2    4    4    0    0  0.32718039977E+03  0.43973343356E+03 -0.13969370462E+04  0.15027523633E+04  0.80118960846E+02 0.  0.
         13    1    3    3    0    0 -0.47167048683E+03 -0.17377419994E+03 -0.83915611959E+02  0.50961980990E+03  0.00000000000E+00 0.  1.
        -13    1    3    3    0    0 -0.12286267068E+03  0.63330975870E+00 -0.14618218786E+02  0.12373087427E+03  0.00000000000E+00 0. -1.
          2    1    6    6  502    0  0.33573337598E+02  0.96609428966E+02 -0.26592336791E+03  0.28491365071E+03  0.00000000000E+00 0. -1.
          1    1    5    5  503    0  0.48651239903E+02 -0.46676984589E+02 -0.74993007077E+02  0.10084460890E+03  0.00000000000E+00 0. -1.
         -2    1    5    5    0  503  0.21870151783E+03 -0.21991555879E+03 -0.13311327468E+03  0.33750903809E+03  0.00000000000E+00 0.  1.
         -1    1    6    6    0  502  0.29360706217E+03  0.34312400459E+03 -0.11310136783E+04  0.12178387126E+04  0.00000000000E+00 0.  1.
<mgrwt>
<rscale>  0 0.19301948E+04</rscale>
<asrwt>0</asrwt>
<pdfrwt beam="1">  1        2 0.32907953E+00 0.19301948E+04</pdfrwt>
<pdfrwt beam="2">  1       -2 0.66990734E-01 0.19301948E+04</pdfrwt>
<totfact> 0.10678727E+01</totfact>
</mgrwt>
</event>
<event>
12    1  0.2048318E-007  0.1772289E+04  0.7818608E-02  0.8721176E-01
         -1   -1    0    0    0  501 -0.00000000000E+00  0.00000000000E+00  0.55838572003E+03  0.55838572003E+03  0.00000000000E+00 0.  1.
          1   -1    0    0  501    0  0.00000000000E+00 -0.00000000000E+00 -0.14062904211E+04  0.14062904211E+04  0.00000000000E+00 0. -1.
         23    2    1    2    0    0 -0.63440693838E+03 -0.12160744288E+02 -0.44506162381E+03  0.78042454308E+03  0.91447095563E+02 0.  0.
        254    2    1    2    0    0  0.63440693838E+03  0.12160744288E+02 -0.40284307723E+03  0.11842515980E+04  0.91517717158E+03 0.  0.
        -24    2    4    4    0    0  0.84129780993E+03 -0.11121115567E+02 -0.44880121320E+03  0.95688399030E+03  0.79364713243E+02 0.  0.
         24    2    4    4    0    0 -0.20689087155E+03  0.23281859855E+02  0.45958135972E+02  0.22736760772E+03  0.78981017016E+02 0.  0.
         13    1    3    3    0    0 -0.26374075282E+03 -0.44287777828E+02 -0.21340225809E+03  0.34214195259E+03  0.00000000000E+00 0. -1.
        -13    1    3    3    0    0 -0.37066618556E+03  0.32127033539E+02 -0.23165936571E+03  0.43828259049E+03  0.00000000000E+00 0.  1.
          2    1    6    6  502    0  0.22371885694E+01  0.87365571960E+01  0.11985377384E+02  0.14999390500E+02  0.00000000000E+00 0. -1.
          3    1    5    5  503    0  0.89775888139E+02  0.13883429286E+02 -0.27248893387E+02  0.94841772920E+02  0.00000000000E+00 0. -1.
         -4    1    5    5    0  503  0.75152192179E+03 -0.25004544853E+02 -0.42155231981E+03  0.86204221738E+03  0.00000000000E+00 0.  1.
         -1    1    6    6    0  502 -0.20912806012E+03  0.14545302659E+02  0.33972758588E+02  0.21236821722E+03  0.00000000000E+00 0.  1.
<mgrwt>
<rscale>  0 0.17722895E+04</rscale>
<asrwt>0</asrwt>
<pdfrwt beam="1">  1        1 0.21635237E+00 0.17722895E+04</pdfrwt>
<pdfrwt beam="2">  1       -1 0.85905497E-01 0.17722895E+04</pdfrwt>
<totfact> 0.96235427E+00</totfact>
</mgrwt>
</event>
<event>
12    1  0.2048318E-007  0.1773771E+04  0.7818608E-02  0.8720373E-01
         -1   -1    0    0    0  501 -0.00000000000E+00  0.00000000000E+00  0.65324736207E+03  0.65324736207E+03  0.00000000000E+00 0.  1.
          1   -1    0    0  501    0  0.00000000000E+00 -0.00000000000E+00 -0.12040863269E+04  0.12040863269E+04  0.00000000000E+00 0. -1.
         23    2    1    2    0    0 -0.14108837247E+03 -0.24829737042E+03  0.41099886721E+03  0.50881535129E+03  0.91735924566E+02 0.  0.
        254    2    1    2    0    0  0.14108837247E+03  0.24829737042E+03 -0.96183783206E+03  0.13485183377E+04  0.90100620360E+03 0.  0.
        -24    2    4    4    0    0 -0.29265642600E+03  0.16161118183E+02 -0.48642431538E+02  0.30802876519E+03  0.81281416188E+02 0.  0.
         24    2    4    4    0    0  0.43374479847E+03  0.23213625224E+03 -0.91319540052E+03  0.10404895725E+04  0.81675707357E+02 0.  0.
         11    1    3    3    0    0 -0.84113262054E+02 -0.76487944502E+02  0.20638854762E+03  0.23563038662E+03  0.00000000000E+00 0.  1.
        -11    1    3    3    0    0 -0.56975110415E+02 -0.17180942592E+03  0.20461031959E+03  0.27318496467E+03  0.00000000000E+00 0. -1.
          4    1    6    6  502    0  0.16965906204E+03  0.11796656962E+03 -0.45061238050E+03  0.49573362438E+03  0.00000000000E+00 0. -1.
          1    1    5    5  503    0 -0.16149805610E+03  0.23190419419E+02  0.11516815963E+02  0.16356055370E+03  0.00000000000E+00 0. -1.
         -2    1    5    5    0  503 -0.13115836990E+03 -0.70293012357E+01 -0.60159247501E+02  0.14446821149E+03  0.00000000000E+00 0.  1.
         -1    1    6    6    0  502  0.26408573643E+03  0.11416968261E+03 -0.46258302002E+03  0.54475594813E+03  0.00000000000E+00 0.  1.
<mgrwt>
<rscale>  0 0.17737714E+04</rscale>
<asrwt>0</asrwt>
<pdfrwt beam="1">  1        1 0.18524405E+00 0.17737714E+04</pdfrwt>
<pdfrwt beam="2">  1       -1 0.10049959E+00 0.17737714E+04</pdfrwt>
<totfact> 0.94579345E+00</totfact>
</mgrwt>
</event>
<event>
12    1  0.2048318E-007  0.2426906E+04  0.7818608E-02  0.8429499E-01
         -1   -1    0    0    0  501 -0.00000000000E+00  0.00000000000E+00  0.53033097842E+03  0.53033097842E+03  0.00000000000E+00 0.  1.
          1   -1    0    0  501    0  0.00000000000E+00 -0.00000000000E+00 -0.27765074233E+04  0.27765074233E+04  0.00000000000E+00 0. -1.
         23    2    1    2    0    0  0.26835292046E+02 -0.94001271584E+03 -0.35266243544E+03  0.10090742911E+04  0.97550462204E+02 0.  0.
        254    2    1    2    0    0 -0.26835292046E+02  0.94001271584E+03 -0.18935140095E+04  0.22977641107E+04  0.89998920298E+03 0.  0.
        -24    2    4    4    0    0 -0.25078978161E+03  0.30445529072E+03 -0.14061474098E+04  0.14625879292E+04  0.79525931579E+02 0.  0.
         24    2    4    4    0    0  0.22395448957E+03  0.63555742512E+03 -0.48736659968E+03  0.83517618155E+03  0.76838777437E+02 0.  0.
         11    1    3    3    0    0 -0.27044841743E+02 -0.50320686494E+03 -0.16090703884E+03  0.52899872168E+03  0.00000000000E+00 0.  1.
        -11    1    3    3    0    0  0.53880133789E+02 -0.43680585090E+03 -0.19175539659E+03  0.48007556939E+03  0.00000000000E+00 0. -1.
          2    1    6    6  502    0  0.22899496256E+03  0.62964523520E+03 -0.47811572083E+03  0.82309565519E+03  0.00000000000E+00 0. -1.
          3    1    5    5  503    0 -0.24313609215E+03  0.25546003746E+03 -0.12204219576E+04  0.12703561487E+04  0.00000000000E+00 0. -1.
         -4    1    5    5    0  503 -0.76536894613E+01  0.48995253262E+02 -0.18572545222E+03  0.19223178043E+03  0.00000000000E+00 0.  1.
         -1    1    6    6    0  502 -0.50404729926E+01  0.59121899253E+01 -0.92508788434E+01  0.12080526358E+02  0.00000000000E+00 0.  1.
<mgrwt>
<rscale>  0 0.24269058E+04</rscale>
<asrwt>0</asrwt>
<pdfrwt beam="1">  1        1 0.42715500E+00 0.24269058E+04</pdfrwt>
<pdfrwt beam="2">  1       -1 0.81589380E-01 0.24269058E+04</pdfrwt>
<totfact> 0.11580576E+00</totfact>
</mgrwt>
</event>
<event>
12    1  0.2048318E-007  0.1144681E+04  0.7818608E-02  0.9162704E-01
         -2   -1    0    0    0  501 -0.00000000000E+00  0.00000000000E+00  0.30269522234E+03  0.30269522234E+03  0.00000000000E+00 0. -1.
          2   -1    0    0  501    0  0.00000000000E+00 -0.00000000000E+00 -0.10821905298E+04  0.10821905298E+04  0.00000000000E+00 0.  1.
         23    2    1    2    0    0  0.10999239940E+03  0.13848277053E+03 -0.27000524169E+03  0.33565946224E+03  0.92133807015E+02 0.  0.
        254    2    1    2    0    0 -0.10999239940E+03 -0.13848277053E+03 -0.50949006579E+03  0.10492262899E+04  0.90001104140E+03 0.  0.
        -24    2    4    4    0    0  0.30988447636E+03 -0.30164561679E+03 -0.14087704367E+03  0.46174152232E+03  0.79626786830E+02 0.  0.
         24    2    4    4    0    0 -0.41987687577E+03  0.16316284625E+03 -0.36861302212E+03  0.58748476759E+03  0.79649776351E+02 0.  0.
         11    1    3    3    0    0  0.24765332444E+02  0.81238746364E+02 -0.67023772170E+02  0.10819076503E+03  0.00000000000E+00 0. -1.
        -11    1    3    3    0    0  0.85227066959E+02  0.57244024170E+02 -0.20298146952E+03  0.22746869721E+03  0.00000000000E+00 0.  1.
          4    1    6    6  502    0 -0.38996210462E+03  0.12614821393E+03 -0.33084865189E+03  0.52673014474E+03  0.00000000000E+00 0. -1.
          1    1    5    5  503    0  0.30400723038E+03 -0.26773146815E+03 -0.12592120586E+03  0.42421301871E+03  0.00000000000E+00 0. -1.
         -2    1    5    5    0  503  0.58772459838E+01 -0.33914148637E+02 -0.14955837810E+02  0.37528503604E+02  0.00000000000E+00 0.  1.
         -3    1    6    6    0  502 -0.29914771143E+02  0.37014632328E+02 -0.37764370232E+02  0.60754622852E+02  0.00000000000E+00 0.  1.
<mgrwt>
<rscale>  0 0.11446814E+04</rscale>
<asrwt>0</asrwt>
<pdfrwt beam="1">  1        2 0.16649085E+00 0.11446814E+04</pdfrwt>
<pdfrwt beam="2">  1       -2 0.46568495E-01 0.11446814E+04</pdfrwt>
<totfact> 0.96697380E+01</totfact>
</mgrwt>
</event>
<event>
12    1  0.2048318E-007  0.1476478E+04  0.7818608E-02  0.8900247E-01
         -2   -1    0    0    0  501 -0.00000000000E+00  0.00000000000E+00  0.96564145570E+03  0.96564145570E+03  0.00000000000E+00 0.  1.
          2   -1    0    0  501    0  0.00000000000E+00 -0.00000000000E+00 -0.56438848704E+03  0.56438848704E+03  0.00000000000E+00 0. -1.
         23    2    1    2    0    0  0.23770716198E+03 -0.86638702198E+02  0.52228402558E+03  0.58749971146E+03  0.91456809499E+02 0.  0.
        254    2    1    2    0    0 -0.23770716198E+03  0.86638702198E+02 -0.12103105692E+03  0.94253023128E+03  0.89983540748E+03 0.  0.
        -24    2    4    4    0    0  0.10558033239E+03  0.16226366936E+03  0.31412776216E+03  0.37755802011E+03  0.79981889275E+02 0.  0.
         24    2    4    4    0    0 -0.34328749437E+03 -0.75624967166E+02 -0.43515881908E+03  0.56497221117E+03  0.79151513693E+02 0.  0.
         13    1    3    3    0    0  0.22448531620E+03 -0.50087714254E+02  0.43961465980E+03  0.49614865254E+03  0.00000000000E+00 0.  1.
        -13    1    3    3    0    0  0.13221845786E+02 -0.36550987944E+02  0.82669365785E+02  0.91351058915E+02  0.00000000000E+00 0. -1.
          2    1    6    6  502    0 -0.26733845512E+03 -0.68605381472E+02 -0.28608291418E+03  0.39751727225E+03  0.00000000000E+00 0. -1.
          1    1    5    5  503    0  0.83416927022E+02  0.12500106837E+03  0.16928154131E+03  0.22636230038E+03  0.00000000000E+00 0. -1.
         -2    1    5    5    0  503  0.22163405365E+02  0.37262600993E+02  0.14484622085E+03  0.15119571973E+03  0.00000000000E+00 0.  1.
         -1    1    6    6    0  502 -0.75949039256E+02 -0.70195856946E+01 -0.14907590490E+03  0.16745493892E+03  0.00000000000E+00 0.  1.
<mgrwt>
<rscale>  0 0.14764781E+04</rscale>
<asrwt>0</asrwt>
<pdfrwt beam="1">  1        2 0.86828998E-01 0.14764781E+04</pdfrwt>
<pdfrwt beam="2">  1       -2 0.14856022E+00 0.14764781E+04</pdfrwt>
<totfact> 0.15869952E+01</totfact>
</mgrwt>
</event>
<event>
12    1  0.2048318E-007  0.3762160E+04  0.7818608E-02  0.8054324E-01
         -1   -1    0    0    0  501 -0.00000000000E+00  0.00000000000E+00  0.19941216560E+04  0.19941216560E+04  0.00000000000E+00 0.  1.
          1   -1    0    0  501    0  0.00000000000E+00 -0.00000000000E+00 -0.17744465375E+04  0.17744465375E+04  0.00000000000E+00 0. -1.
         23    2    1    2    0    0 -0.47128560508E+03  0.10507546231E+04  0.14529322491E+04  0.18562110093E+04  0.91169023707E+02 0.  0.
        254    2    1    2    0    0  0.47128560508E+03 -0.10507546231E+04 -0.12332571306E+04  0.19123571842E+04  0.89999525007E+03 0.  0.
        -24    2    4    4    0    0  0.65013906153E+03 -0.55106530611E+03 -0.46139086252E+03  0.97225172886E+03  0.77705375187E+02 0.  0.
         24    2    4    4    0    0 -0.17885345645E+03 -0.49968931701E+03 -0.77186626810E+03  0.94010545533E+03  0.79641439532E+02 0.  0.
         11    1    3    3    0    0 -0.25276194598E+03  0.48747442068E+03  0.74527928134E+03  0.92572194494E+03  0.00000000000E+00 0.  1.
        -11    1    3    3    0    0 -0.21852365909E+03  0.56328020244E+03  0.70765296775E+03  0.93048906432E+03  0.00000000000E+00 0. -1.
          2    1    6    6  502    0 -0.13836344711E+03 -0.28117466555E+03 -0.48053515813E+03  0.57368778464E+03  0.00000000000E+00 0. -1.
          3    1    5    5  503    0  0.53717306378E+03 -0.48160274125E+03 -0.41153320745E+03  0.83057551233E+03  0.00000000000E+00 0. -1.
         -4    1    5    5    0  503  0.11296599775E+03 -0.69462564854E+02 -0.49857655063E+02  0.14167621653E+03  0.00000000000E+00 0.  1.
         -1    1    6    6    0  502 -0.40490009347E+02 -0.21851465146E+03 -0.29133110997E+03  0.36641767069E+03  0.00000000000E+00 0.  1.
<mgrwt>
<rscale>  0 0.37621602E+04</rscale>
<asrwt>0</asrwt>
<pdfrwt beam="1">  1        1 0.27299177E+00 0.37621602E+04</pdfrwt>
<pdfrwt beam="2">  1       -1 0.30678795E+00 0.37621602E+04</pdfrwt>
<totfact> 0.10097810E-01</totfact>
</mgrwt>
</event>
<event>
12    1  0.2048318E-007  0.1891847E+04  0.7818608E-02  0.8658926E-01
         -1   -1    0    0    0  501 -0.00000000000E+00  0.00000000000E+00  0.48513780357E+03  0.48513780357E+03  0.00000000000E+00 0.  1.
          1   -1    0    0  501    0  0.00000000000E+00 -0.00000000000E+00 -0.18443642766E+04  0.18443642766E+04  0.00000000000E+00 0. -1.
         23    2    1    2    0    0 -0.47606525451E+03  0.48983494810E+03 -0.83635004316E+03  0.10839373813E+04  0.94140581138E+02 0.  0.
        254    2    1    2    0    0  0.47606525451E+03 -0.48983494810E+03 -0.52287642985E+03  0.12455646988E+04  0.90080811225E+03 0.  0.
        -24    2    4    4    0    0 -0.25689468673E+03 -0.81844155580E+02 -0.69464551738E+02  0.28937208515E+03  0.78851340165E+02 0.  0.
         24    2    4    4    0    0  0.73295994124E+03 -0.40799079252E+03 -0.45341187811E+03  0.95619261366E+03  0.70959290869E+02 0.  0.
         11    1    3    3    0    0 -0.27874770101E+03  0.23121011958E+03 -0.48227679061E+03  0.60311632624E+03  0.00000000000E+00 0. -1.
        -11    1    3    3    0    0 -0.19731755350E+03  0.25862482852E+03 -0.35407325255E+03  0.48082105509E+03  0.00000000000E+00 0.  1.
          4    1    6    6  502    0  0.55559067649E+03 -0.33804311415E+03 -0.33244554906E+03  0.73039317488E+03  0.00000000000E+00 0. -1.
          1    1    5    5  503    0 -0.11210567646E+03 -0.37446920287E+02 -0.71078237585E+02  0.13792052201E+03  0.00000000000E+00 0. -1.
         -2    1    5    5    0  503 -0.14478901027E+03 -0.44397235293E+02  0.16136858477E+01  0.15145156314E+03  0.00000000000E+00 0.  1.
         -3    1    6    6    0  502  0.17736926475E+03 -0.69947678371E+02 -0.12096632905E+03  0.22579943878E+03  0.00000000000E+00 0.  1.
<mgrwt>
<rscale>  0 0.18918465E+04</rscale>
<asrwt>0</asrwt>
<pdfrwt beam="1">  1        1 0.28374834E+00 0.18918465E+04</pdfrwt>
<pdfrwt beam="2">  1       -1 0.74636587E-01 0.18918465E+04</pdfrwt>
<totfact> 0.64268610E+00</totfact>
</mgrwt>
</event>
<event>
12    1  0.2048318E-007  0.1821731E+04  0.7818608E-02  0.8694828E-01
          3   -1    0    0  501    0  0.00000000000E+00  0.00000000000E+00  0.85153772119E+03  0.85153772119E+03  0.00000000000E+00 0. -1.
         -3   -1    0    0    0  501 -0.00000000000E+00 -0.00000000000E+00 -0.97432724085E+03  0.97432724085E+03  0.00000000000E+00 0.  1.
         23    2    1    2    0    0  0.68604957894E+03 -0.40693361335E+02 -0.29867194174E+02  0.69435943965E+03  0.94461673317E+02 0.  0.
        254    2    1    2    0    0 -0.68604957894E+03  0.40693361335E+02 -0.92922325486E+02  0.11315055224E+04  0.89406387590E+03 0.  0.
        -24    2    4    4    0    0 -0.62361042463E+03 -0.64579839723E+02  0.30926559404E+03  0.70340343338E+03  0.77914472539E+02 0.  0.
         24    2    4    4    0    0 -0.62439154311E+02  0.10527320106E+03 -0.40218791952E+03  0.42810208900E+03  0.80840467258E+02 0.  0.
         13    1    3    3    0    0  0.52721095061E+03 -0.63248411895E+02  0.96182075478E+00  0.53099215921E+03  0.00000000000E+00 0. -1.
        -13    1    3    3    0    0  0.15883862834E+03  0.22555050560E+02 -0.30829014929E+02  0.16336728044E+03  0.00000000000E+00 0.  1.
          2    1    6    6  502    0 -0.59928506903E+02  0.89556794599E+02 -0.39699634237E+03  0.41136108378E+03  0.00000000000E+00 0. -1.
          1    1    5    5  503    0 -0.29355512722E+03  0.66618705594E+01  0.13017514595E+03  0.32119240629E+03  0.00000000000E+00 0. -1.
         -2    1    5    5    0  503 -0.33005529741E+03 -0.71241710282E+02  0.17909044809E+03  0.38221102709E+03  0.00000000000E+00 0.  1.
         -1    1    6    6    0  502 -0.25106474075E+01  0.15716406459E+02 -0.51915771555E+01  0.16741005219E+02  0.00000000000E+00 0.  1.
<mgrwt>
<rscale>  0 0.18217315E+04</rscale>
<asrwt>0</asrwt>
<pdfrwt beam="1">  1        3 0.13100580E+00 0.18217315E+04</pdfrwt>
<pdfrwt beam="2">  1       -3 0.14989650E+00 0.18217315E+04</pdfrwt>
<totfact> 0.36341058E-01</totfact>
</mgrwt>
</event>
<event>
12    1  0.2048318E-007  0.1648726E+04  0.7818608E-02  0.8791160E-01
          1   -1    0    0  501    0  0.00000000000E+00  0.00000000000E+00  0.12995322874E+04  0.12995322874E+04  0.00000000000E+00 0. -1.
         -1   -1    0    0    0  501 -0.00000000000E+00 -0.00000000000E+00 -0.52293787823E+03  0.52293787823E+03  0.00000000000E+00 0.  1.
         23    2    1    2    0    0  0.50071035391E+03 -0.19594824906E+03  0.49659059529E+03  0.73743652497E+03  0.90021298600E+02 0.  0.
        254    2    1    2    0    0 -0.50071035391E+03  0.19594824906E+03  0.28000381391E+03  0.10850336407E+04  0.89988293172E+03 0.  0.
        -24    2    4    4    0    0 -0.49063123182E+03  0.84425161060E+02  0.57226444925E+03  0.76216763946E+03  0.74607622257E+02 0.  0.
         24    2    4    4    0    0 -0.10079122090E+02  0.11152308800E+03 -0.29226063534E+03  0.32286600123E+03  0.79291789769E+02 0.  0.
         11    1    3    3    0    0  0.24617721869E+03 -0.13830158561E+03  0.22788431314E+03  0.36285232776E+03  0.00000000000E+00 0.  1.
        -11    1    3    3    0    0  0.25453313522E+03 -0.57646663452E+02  0.26870628215E+03  0.37458419721E+03  0.00000000000E+00 0. -1.
          2    1    6    6  502    0 -0.22190535015E+02  0.28098590838E+02 -0.27903256266E+02  0.45393197305E+02  0.00000000000E+00 0. -1.
          1    1    5    5  503    0 -0.29980547701E+02  0.24163174115E+01  0.67513616851E+02  0.73910488367E+02  0.00000000000E+00 0. -1.
         -4    1    5    5    0  503 -0.46065068412E+03  0.82008843649E+02  0.50475083240E+03  0.68825715109E+03  0.00000000000E+00 0.  1.
         -1    1    6    6    0  502  0.12111412925E+02  0.83424497162E+02 -0.26435737907E+03  0.27747280393E+03  0.00000000000E+00 0.  1.
<mgrwt>
<rscale>  0 0.16487264E+04</rscale>
<asrwt>0</asrwt>
<pdfrwt beam="1">  1        1 0.19992804E+00 0.16487264E+04</pdfrwt>
<pdfrwt beam="2">  1       -1 0.80451982E-01 0.16487264E+04</pdfrwt>
<totfact> 0.13334553E+01</totfact>
</mgrwt>
</event>
<event>
12    1  0.2048318E-007  0.2055259E+04  0.7818608E-02  0.8581212E-01
          2   -1    0    0  501    0  0.00000000000E+00  0.00000000000E+00  0.13201314301E+04  0.13201314301E+04  0.00000000000E+00 0.  1.
         -2   -1    0    0    0  501 -0.00000000000E+00 -0.00000000000E+00 -0.79993728953E+03  0.79993728953E+03  0.00000000000E+00 0. -1.
         23    2    1    2    0    0 -0.59309026257E+03  0.56830695869E+03  0.29802728888E+03  0.87840153259E+03  0.89666764712E+02 0.  0.
        254    2    1    2    0    0  0.59309026257E+03 -0.56830695869E+03  0.22216685170E+03  0.12416671871E+04  0.90424025268E+03 0.  0.
        -24    2    4    4    0    0  0.43862544351E+03 -0.57450691468E+03 -0.22557957847E+03  0.76130117385E+03  0.79011748324E+02 0.  0.
         24    2    4    4    0    0  0.15446481905E+03  0.61999559846E+01  0.44774643017E+03  0.48036601320E+03  0.79855000657E+02 0.  0.
         11    1    3    3    0    0 -0.40328296730E+03  0.35758654379E+03  0.23440648668E+03  0.58775138367E+03  0.00000000000E+00 0.  1.
        -11    1    3    3    0    0 -0.18980729527E+03  0.21072041491E+03  0.63620802203E+02  0.29065014892E+03  0.00000000000E+00 0. -1.
          4    1    6    6  502    0  0.90211648075E+02  0.12790315591E+01  0.36217869406E+03  0.37324681352E+03  0.00000000000E+00 0. -1.
          1    1    5    5  503    0  0.64124755248E+02 -0.46589119001E+02 -0.34314063461E+02  0.86371205828E+02  0.00000000000E+00 0. -1.
         -2    1    5    5    0  503  0.37450068827E+03 -0.52791779568E+03 -0.19126551501E+03  0.67492996802E+03  0.00000000000E+00 0.  1.
         -3    1    6    6    0  502  0.64253170978E+02  0.49209244254E+01  0.85567736110E+02  0.10711919968E+03  0.00000000000E+00 0.  1.
<mgrwt>
<rscale>  0 0.20552590E+04</rscale>
<asrwt>0</asrwt>
<pdfrwt beam="1">  1        2 0.20309714E+00 0.20552590E+04</pdfrwt>
<pdfrwt beam="2">  1       -2 0.12306728E+00 0.20552590E+04</pdfrwt>
<totfact> 0.74216129E+00</totfact>
</mgrwt>
</event>
<event>
12    1  0.2048318E-007  0.4911735E+04  0.7818608E-02  0.7842269E-01
         -1   -1    0    0    0  501 -0.00000000000E+00  0.00000000000E+00  0.24637369519E+04  0.24637369519E+04  0.00000000000E+00 0.  1.
          1   -1    0    0  501    0  0.00000000000E+00 -0.00000000000E+00 -0.24480226925E+04  0.24480226925E+04  0.00000000000E+00 0. -1.
         23    2    1    2    0    0 -0.53010344060E+03  0.22286720738E+04  0.62162759965E+03  0.23755006445E+04  0.92701505815E+02 0.  0.
        254    2    1    2    0    0  0.53010344060E+03 -0.22286720738E+04 -0.60591334021E+03  0.25362590000E+04  0.90415146348E+03 0.  0.
        -24    2    4    4    0    0 -0.10614200307E+03 -0.14302977191E+04 -0.29926506942E+03  0.14672115953E+04  0.78310877407E+02 0.  0.
         24    2    4    4    0    0  0.63624544367E+03 -0.79837435464E+03 -0.30664827079E+03  0.10690474046E+04  0.81359182910E+02 0.  0.
         11    1    3    3    0    0 -0.50842588895E+03  0.21864415677E+04  0.60170985228E+03  0.23240220222E+04  0.00000000000E+00 0. -1.
        -11    1    3    3    0    0 -0.21677551650E+02  0.42230506077E+02  0.19917747372E+02  0.51478622257E+02  0.00000000000E+00 0.  1.
          4    1    6    6  502    0  0.40266516538E+03 -0.54746188129E+03 -0.17443336025E+03  0.70162721159E+03  0.00000000000E+00 0. -1.
          3    1    5    5  503    0 -0.48144311698E+02 -0.25467143295E+03 -0.61579181269E+02  0.26639708909E+03  0.00000000000E+00 0. -1.
         -4    1    5    5    0  503 -0.57997691376E+02 -0.11756262862E+04 -0.23768588815E+03  0.12008145062E+04  0.00000000000E+00 0.  1.
         -3    1    6    6    0  502  0.23358027829E+03 -0.25091247335E+03 -0.13221491054E+03  0.36742019305E+03  0.00000000000E+00 0.  1.
<mgrwt>
<rscale>  0 0.49117345E+04</rscale>
<asrwt>0</asrwt>
<pdfrwt beam="1">  1        1 0.37661888E+00 0.49117345E+04</pdfrwt>
<pdfrwt beam="2">  1       -1 0.37903645E+00 0.49117345E+04</pdfrwt>
<totfact> 0.10630025E-02</totfact>
</mgrwt>
</event>
<event>
12    1  0.2048318E-007  0.1859045E+04  0.7818608E-02  0.8675515E-01
         -2   -1    0    0    0  501 -0.00000000000E+00  0.00000000000E+00  0.37237145034E+03  0.37237145034E+03  0.00000000000E+00 0.  1.
          2   -1    0    0  501    0  0.00000000000E+00 -0.00000000000E+00 -0.23202967698E+04  0.23202967698E+04  0.00000000000E+00 0. -1.
         23    2    1    2    0    0  0.26724002259E+03 -0.65699968125E+03 -0.70626883779E+03  0.10053203182E+04  0.93741453747E+02 0.  0.
        254    2    1    2    0    0 -0.26724002259E+03  0.65699968125E+03 -0.12416564817E+04  0.16873479019E+04  0.89574902334E+03 0.  0.
        -24    2    4    4    0    0 -0.51049781935E+02 -0.13734303115E+03 -0.64627725738E+03  0.66824996084E+03  0.86107655407E+02 0.  0.
         24    2    4    4    0    0 -0.21619024065E+03  0.79434271241E+03 -0.59537922431E+03  0.10190979411E+04  0.79784885122E+02 0.  0.
         13    1    3    3    0    0  0.77190804680E+02 -0.31076798995E+03 -0.32988130473E+03  0.45973561871E+03  0.00000000000E+00 0.  1.
        -13    1    3    3    0    0  0.19004921791E+03 -0.34623169131E+03 -0.37638753306E+03  0.54558469951E+03  0.00000000000E+00 0. -1.
          2    1    6    6  502    0 -0.10019125073E+03  0.26701491684E+03 -0.17282378505E+03  0.33347160781E+03  0.00000000000E+00 0. -1.
          3    1    5    5  503    0 -0.43800175832E+02 -0.13445166009E+02 -0.17938437699E+03  0.18514314084E+03  0.00000000000E+00 0. -1.
         -4    1    5    5    0  503 -0.72496061032E+01 -0.12389786514E+03 -0.46689288038E+03  0.48310682000E+03  0.00000000000E+00 0.  1.
         -1    1    6    6    0  502 -0.11599898992E+03  0.52732779556E+03 -0.42255543926E+03  0.68562633328E+03  0.00000000000E+00 0.  1.
<mgrwt>
<rscale>  0 0.18590452E+04</rscale>
<asrwt>0</asrwt>
<pdfrwt beam="1">  1        2 0.35696873E+00 0.18590452E+04</pdfrwt>
<pdfrwt beam="2">  1       -2 0.57287916E-01 0.18590452E+04</pdfrwt>
<totfact> 0.11848850E+01</totfact>
</mgrwt>
</event>
<event>
12    1  0.2048318E-007  0.2762683E+04  0.7818608E-02  0.8314948E-01
         -1   -1    0    0    0  501 -0.00000000000E+00  0.00000000000E+00  0.21514439778E+04  0.21514439778E+04  0.00000000000E+00 0.  1.
          1   -1    0    0  501    0  0.00000000000E+00 -0.00000000000E+00 -0.88689456989E+03  0.88689456989E+03  0.00000000000E+00 0. -1.
         23    2    1    2    0    0 -0.49493211363E+03 -0.11166028715E+04  0.75073168131E+03  0.14366148703E+04  0.92219620279E+02 0.  0.
        254    2    1    2    0    0  0.49493211363E+03  0.11166028715E+04  0.51381772663E+03  0.16017236775E+04  0.89986127429E+03 0.  0.
        -24    2    4    4    0    0  0.43532644866E+03  0.25422810124E+03  0.52716729568E+03  0.73369410318E+03  0.79124174878E+02 0.  0.
         24    2    4    4    0    0  0.59605664979E+02  0.86237477026E+03 -0.13349569056E+02  0.86802957427E+03  0.77807783248E+02 0.  0.
         13    1    3    3    0    0 -0.41099616245E+03 -0.93086006489E+03  0.66441766230E+03  0.12152650476E+04  0.00000000000E+00 0.  1.
        -13    1    3    3    0    0 -0.83935951185E+02 -0.18574280662E+03  0.86314019008E+02  0.22134982265E+03  0.00000000000E+00 0. -1.
          2    1    6    6  502    0  0.38018771946E+01  0.24446686606E+02 -0.13627277405E+02  0.28245308384E+02  0.00000000000E+00 0. -1.
          3    1    5    5  503    0  0.29050211780E+03  0.18818115576E+03  0.40684935898E+03  0.53416292339E+03  0.00000000000E+00 0. -1.
         -4    1    5    5    0  503  0.14482433085E+03  0.66046945485E+02  0.12031793671E+03  0.19953117979E+03  0.00000000000E+00 0.  1.
         -1    1    6    6    0  502  0.55803787784E+02  0.83792808366E+03  0.27770834896E+00  0.83978426589E+03  0.00000000000E+00 0.  1.
<mgrwt>
<rscale>  0 0.27626827E+04</rscale>
<asrwt>0</asrwt>
<pdfrwt beam="1">  1        1 0.13644532E+00 0.27626827E+04</pdfrwt>
<pdfrwt beam="2">  1       -1 0.33099138E+00 0.27626827E+04</pdfrwt>
<totfact> 0.33597885E-01</totfact>
</mgrwt>
</event>
<event>
12    1  0.2048318E-007  0.2497478E+04  0.7818608E-02  0.8403885E-01
         -2   -1    0    0    0  501 -0.00000000000E+00  0.00000000000E+00  0.67118536265E+03  0.67118536265E+03  0.00000000000E+00 0.  1.
          2   -1    0    0  501    0  0.00000000000E+00 -0.00000000000E+00 -0.23232759836E+04  0.23232759836E+04  0.00000000000E+00 0. -1.
         23    2    1    2    0    0 -0.34737367531E+03 -0.89513422960E+03 -0.11325692761E+03  0.97111028063E+03  0.91072971829E+02 0.  0.
        254    2    1    2    0    0  0.34737367531E+03  0.89513422960E+03 -0.15388336934E+04  0.20233510656E+04  0.89666417332E+03 0.  0.
        -24    2    4    4    0    0 -0.26658410593E+03  0.10045395468E+03 -0.25078716331E+03  0.38809225355E+03  0.81014279241E+02 0.  0.
         24    2    4    4    0    0  0.61395778124E+03  0.79468027492E+03 -0.12880465300E+04  0.16352588121E+04  0.80911201069E+02 0.  0.
         13    1    3    3    0    0 -0.25731054781E+03 -0.54225174095E+03 -0.64255689308E+02  0.60363437790E+03  0.00000000000E+00 0.  1.
        -13    1    3    3    0    0 -0.90063127494E+02 -0.35288248865E+03 -0.49001238303E+02  0.36747590273E+03  0.00000000000E+00 0. -1.
          2    1    6    6  502    0  0.27498247967E+03  0.41170072175E+03 -0.59825974147E+03  0.77654849602E+03  0.00000000000E+00 0. -1.
          1    1    5    5  503    0 -0.31412377587E+02  0.47432069633E+01 -0.68568612687E+02  0.75570431544E+02  0.00000000000E+00 0. -1.
         -2    1    5    5    0  503 -0.23517172834E+03  0.95710747714E+02 -0.18221855063E+03  0.31252182201E+03  0.00000000000E+00 0.  1.
         -1    1    6    6    0  502  0.33897530157E+03  0.38297955317E+03 -0.68978678857E+03  0.85871031606E+03  0.00000000000E+00 0.  1.
<mgrwt>
<rscale>  0 0.24974778E+04</rscale>
<asrwt>0</asrwt>
<pdfrwt beam="1">  1        2 0.35742707E+00 0.24974778E+04</pdfrwt>
<pdfrwt beam="2">  1       -2 0.10325929E+00 0.24974778E+04</pdfrwt>
<totfact> 0.30011752E+00</totfact>
</mgrwt>
</event>
<event>
12    1  0.2048318E-007  0.1157067E+04  0.7818608E-02  0.9151289E-01
          1   -1    0    0  501    0  0.00000000000E+00  0.00000000000E+00  0.90929901552E+03  0.90929901552E+03  0.00000000000E+00 0. -1.
         -1   -1    0    0    0  501 -0.00000000000E+00 -0.00000000000E+00 -0.36808674819E+03  0.36808674819E+03  0.00000000000E+00 0.  1.
         23    2    1    2    0    0 -0.19863716425E+03  0.47304374598E+02  0.15639945609E+03  0.27596177465E+03  0.99998421619E+02 0.  0.
        254    2    1    2    0    0  0.19863716425E+03 -0.47304374598E+02  0.38481281124E+03  0.10014239891E+04  0.90170653723E+03 0.  0.
        -24    2    4    4    0    0 -0.86754460889E+02  0.25301762679E+03  0.49255844062E+03  0.56586391217E+03  0.77742483359E+02 0.  0.
         24    2    4    4    0    0  0.28539162514E+03 -0.30032200138E+03 -0.10774562938E+03  0.43556007688E+03  0.80385170936E+02 0.  0.
         13    1    3    3    0    0 -0.17457162546E+02  0.15723223650E+02 -0.12191853284E+02  0.26469106004E+02  0.00000000000E+00 0.  1.
        -13    1    3    3    0    0 -0.18118000170E+03  0.31581150947E+02  0.16859130937E+03  0.24949266865E+03  0.00000000000E+00 0. -1.
          2    1    6    6  502    0  0.12696391963E+02 -0.50835979107E+02 -0.11878385683E+02  0.53727006124E+02  0.00000000000E+00 0. -1.
          1    1    5    5  503    0  0.19119213871E+01  0.83916149411E+02  0.11064956596E+03  0.13888449166E+03  0.00000000000E+00 0. -1.
         -2    1    5    5    0  503 -0.88666382276E+02  0.16910147738E+03  0.38190887466E+03  0.42697942051E+03  0.00000000000E+00 0.  1.
         -1    1    6    6    0  502  0.27269523318E+03 -0.24948602228E+03 -0.95867243699E+02  0.38183307076E+03  0.00000000000E+00 0.  1.
<mgrwt>
<rscale>  0 0.11570668E+04</rscale>
<asrwt>0</asrwt>
<pdfrwt beam="1">  1        1 0.13989216E+00 0.11570668E+04</pdfrwt>
<pdfrwt beam="2">  1       -1 0.56628731E-01 0.11570668E+04</pdfrwt>
<totfact> 0.56018598E+01</totfact>
</mgrwt>
</event>
<event>
12    1  0.2048318E-007  0.3149643E+04  0.7818608E-02  0.8202244E-01
          1   -1    0    0  501    0  0.00000000000E+00  0.00000000000E+00  0.25470537589E+04  0.25470537589E+04  0.00000000000E+00 0. -1.
         -1   -1    0    0    0  501 -0.00000000000E+00 -0.00000000000E+00 -0.97369869600E+03  0.97369869600E+03  0.00000000000E+00 0.  1.
         23    2    1    2    0    0 -0.75894551717E+03  0.11566391172E+04  0.25740954057E+03  0.14100804898E+04  0.90856868508E+02 0.  0.
        254    2    1    2    0    0  0.75894551717E+03 -0.11566391172E+04  0.13159455223E+04  0.21106719651E+04  0.89967281891E+03 0.  0.
        -24    2    4    4    0    0  0.48885307109E+03 -0.10690530041E+04  0.13763532108E+04  0.18117542427E+04  0.79079860287E+02 0.  0.
         24    2    4    4    0    0  0.27009244609E+03 -0.87586113132E+02 -0.60407688535E+02  0.29891772240E+03  0.71284355138E+02 0.  0.
         13    1    3    3    0    0 -0.28572445400E+03  0.49277563413E+03  0.13824317227E+03  0.58615481222E+03  0.00000000000E+00 0. -1.
        -13    1    3    3    0    0 -0.47322106317E+03  0.66386348308E+03  0.11916636831E+03  0.82392567755E+03  0.00000000000E+00 0.  1.
          4    1    6    6  502    0  0.55459242557E+00 -0.78478606171E+01 -0.10999063250E+02  0.13523160925E+02  0.00000000000E+00 0. -1.
          3    1    5    5  503    0  0.23530128277E+03 -0.59825347903E+03  0.72298561585E+03  0.96746168894E+03  0.00000000000E+00 0. -1.
         -4    1    5    5    0  503  0.25355178832E+03 -0.47079952505E+03  0.65336759496E+03  0.84429255374E+03  0.00000000000E+00 0.  1.
         -3    1    6    6    0  502  0.26953785366E+03 -0.79738252515E+02 -0.49408625286E+02  0.28539456148E+03  0.00000000000E+00 0.  1.
<mgrwt>
<rscale>  0 0.31496431E+04</rscale>
<asrwt>0</asrwt>
<pdfrwt beam="1">  1        1 0.39185442E+00 0.31496431E+04</pdfrwt>
<pdfrwt beam="2">  1       -1 0.14979980E+00 0.31496431E+04</pdfrwt>
<totfact> 0.36951731E-01</totfact>
</mgrwt>
</event>
<event>
12    1  0.2048318E-007  0.2055392E+04  0.7818608E-02  0.8581152E-01
         -2   -1    0    0    0  501 -0.00000000000E+00  0.00000000000E+00  0.46477021734E+03  0.46477021734E+03  0.00000000000E+00 0. -1.
          2   -1    0    0  501    0  0.00000000000E+00 -0.00000000000E+00 -0.22724319490E+04  0.22724319490E+04  0.00000000000E+00 0.  1.
         23    2    1    2    0    0 -0.72752686211E+03 -0.32271846346E+03 -0.42767149251E+03  0.90810741385E+03  0.91179097595E+02 0.  0.
        254    2    1    2    0    0  0.72752686211E+03  0.32271846346E+03 -0.13799902391E+04  0.18290947524E+04  0.89876137634E+03 0.  0.
        -24    2    4    4    0    0  0.27812552792E+03 -0.29995229303E+03 -0.36619692728E+03  0.55476625434E+03  0.79625498565E+02 0.  0.
         24    2    4    4    0    0  0.44940133419E+03  0.62267075650E+03 -0.10137933118E+04  0.12743284981E+04  0.80348066582E+02 0.  0.
         13    1    3    3    0    0 -0.60282368000E+03 -0.23478717684E+03 -0.36794248402E+03  0.74424665207E+03  0.00000000000E+00 0.  1.
        -13    1    3    3    0    0 -0.12470318212E+03 -0.87931286624E+02 -0.59729008489E+02  0.16386076178E+03  0.00000000000E+00 0. -1.
          4    1    6    6  502    0  0.26295771457E+03  0.33838075511E+03 -0.62568112888E+03  0.75837007464E+03  0.00000000000E+00 0. -1.
          1    1    5    5  503    0  0.16834161229E+03 -0.20854920965E+03 -0.19308661583E+03  0.33032425355E+03  0.00000000000E+00 0. -1.
         -2    1    5    5    0  503  0.10978391563E+03 -0.91403083385E+02 -0.17311031146E+03  0.22444200079E+03  0.00000000000E+00 0.  1.
         -3    1    6    6    0  502  0.18644361963E+03  0.28429000138E+03 -0.38811218295E+03  0.51595842346E+03  0.00000000000E+00 0.  1.
<mgrwt>
<rscale>  0 0.20553916E+04</rscale>
<asrwt>0</asrwt>
<pdfrwt beam="1">  1        2 0.34960492E+00 0.20553916E+04</pdfrwt>
<pdfrwt beam="2">  1       -2 0.71503109E-01 0.20553916E+04</pdfrwt>
<totfact> 0.77130983E+00</totfact>
</mgrwt>
</event>
<event>
12    1  0.2048318E-007  0.2810990E+04  0.7818608E-02  0.8299864E-01
         -2   -1    0    0    0  501 -0.00000000000E+00  0.00000000000E+00  0.59302832336E+03  0.59302832336E+03  0.00000000000E+00 0.  1.
          2   -1    0    0  501    0  0.00000000000E+00 -0.00000000000E+00 -0.33310663317E+04  0.33310663317E+04  0.00000000000E+00 0. -1.
         23    2    1    2    0    0  0.11937513285E+04 -0.10306869787E+03 -0.68859360392E+03  0.13856453489E+04  0.10092814677E+03 0.  0.
        254    2    1    2    0    0 -0.11937513285E+04  0.10306869787E+03 -0.20494444044E+04  0.25384493062E+04  0.89879759815E+03 0.  0.
        -24    2    4    4    0    0 -0.56940601120E+02 -0.26406054966E+03 -0.24980193113E+03  0.37684446257E+03  0.81489497688E+02 0.  0.
         24    2    4    4    0    0 -0.11368107274E+04  0.36712924753E+03 -0.17996424733E+04  0.21616048436E+04  0.81853246450E+02 0.  0.
         13    1    3    3    0    0  0.46809790968E+03 -0.29396583866E+00 -0.23547433784E+03  0.52398845717E+03  0.00000000000E+00 0. -1.
        -13    1    3    3    0    0  0.72565341880E+03 -0.10277473203E+03 -0.45311926608E+03  0.86165689172E+03  0.00000000000E+00 0.  1.
          2    1    6    6  502    0 -0.11131775685E+04  0.35847004624E+03 -0.17360405911E+04  0.20932037662E+04  0.00000000000E+00 0. -1.
          3    1    5    5  503    0 -0.68624627183E+02 -0.26000885637E+03 -0.24428508978E+03  0.36330311028E+03  0.00000000000E+00 0. -1.
         -4    1    5    5    0  503  0.11684026062E+02 -0.40516932890E+01 -0.55168413452E+01  0.13541352294E+02  0.00000000000E+00 0.  1.
         -1    1    6    6    0  502 -0.23633158859E+02  0.86592012822E+01 -0.63601882210E+02  0.68401077368E+02  0.00000000000E+00 0.  1.
<mgrwt>
<rscale>  0 0.28109903E+04</rscale>
<asrwt>0</asrwt>
<pdfrwt beam="1">  1        2 0.51247174E+00 0.28109903E+04</pdfrwt>
<pdfrwt beam="2">  1       -2 0.91235127E-01 0.28109903E+04</pdfrwt>
<totfact> 0.94487172E-01</totfact>
</mgrwt>
</event>
<event>
12    1  0.2048318E-007  0.2176903E+04  0.7818608E-02  0.8528104E-01
          1   -1    0    0  501    0  0.00000000000E+00  0.00000000000E+00  0.51525904888E+03  0.51525904888E+03  0.00000000000E+00 0. -1.
         -1   -1    0    0    0  501 -0.00000000000E+00 -0.00000000000E+00 -0.22992832268E+04  0.22992832268E+04  0.00000000000E+00 0.  1.
         23    2    1    2    0    0  0.45766522933E+03  0.10518718282E+03  0.25018133198E+03  0.54100139434E+03  0.97826398463E+02 0.  0.
        254    2    1    2    0    0 -0.45766522933E+03 -0.10518718282E+03 -0.20342055099E+04  0.22735408814E+04  0.90026344870E+03 0.  0.
        -24    2    4    4    0    0 -0.60929002363E+03 -0.34372525726E+03 -0.16118466527E+04  0.17589603495E+04  0.80687631688E+02 0.  0.
         24    2    4    4    0    0  0.15162479430E+03  0.23853807444E+03 -0.42235885726E+03  0.51458053190E+03  0.80719441926E+02 0.  0.
         13    1    3    3    0    0  0.43879219739E+03  0.12039129637E+03  0.24239239241E+03  0.51554507915E+03  0.00000000000E+00 0. -1.
        -13    1    3    3    0    0  0.18873031943E+02 -0.15204113553E+02  0.77889395697E+01  0.25456315194E+02  0.00000000000E+00 0.  1.
          2    1    6    6  502    0  0.19527883439E+02  0.94850941029E+02 -0.11326807473E+03  0.14902246810E+03  0.00000000000E+00 0. -1.
          3    1    5    5  503    0 -0.32419307451E+03 -0.18069882954E+03 -0.95498232547E+03  0.10245703775E+04  0.00000000000E+00 0. -1.
         -4    1    5    5    0  503 -0.28509694913E+03 -0.16302642772E+03 -0.65686432721E+03  0.73438997195E+03  0.00000000000E+00 0.  1.
         -1    1    6    6    0  502  0.13209691086E+03  0.14368713341E+03 -0.30909078253E+03  0.36555806380E+03  0.00000000000E+00 0.  1.
<mgrwt>
<rscale>  0 0.21769028E+04</rscale>
<asrwt>0</asrwt>
<pdfrwt beam="1">  1        1 0.79270625E-01 0.21769028E+04</pdfrwt>
<pdfrwt beam="2">  1       -1 0.35373587E+00 0.21769028E+04</pdfrwt>
<totfact> 0.57049970E-01</totfact>
</mgrwt>
</event>
<event>
12    1  0.2048318E-007  0.2068760E+04  0.7818608E-02  0.8575131E-01
         -1   -1    0    0    0  501 -0.00000000000E+00  0.00000000000E+00  0.15352701252E+04  0.15352701252E+04  0.00000000000E+00 0.  1.
          1   -1    0    0  501    0  0.00000000000E+00 -0.00000000000E+00 -0.69690811687E+03  0.69690811687E+03  0.00000000000E+00 0. -1.
         23    2    1    2    0    0  0.57340060553E+03  0.60642422659E+03  0.29590603577E+03  0.89000176593E+03  0.89465995407E+02 0.  0.
        254    2    1    2    0    0 -0.57340060553E+03 -0.60642422659E+03  0.54245597252E+03  0.13421764761E+04  0.90035582627E+03 0.  0.
        -24    2    4    4    0    0  0.18315520862E+03  0.67900061517E+02  0.88998065096E+02  0.22902822933E+03  0.79856279892E+02 0.  0.
         24    2    4    4    0    0 -0.75655581415E+03 -0.67432428810E+03  0.45345790743E+03  0.11131482468E+04  0.79906195366E+02 0.  0.
         11    1    3    3    0    0  0.53530954663E+03  0.58748204434E+03  0.26647421245E+03  0.83827201375E+03  0.00000000000E+00 0.  1.
        -11    1    3    3    0    0  0.38091058897E+02  0.18942182246E+02  0.29431823320E+02  0.51729752175E+02  0.00000000000E+00 0. -1.
          4    1    6    6  502    0 -0.71111732987E+03 -0.60496263814E+03  0.41942655603E+03  0.10235166273E+04  0.00000000000E+00 0. -1.
          1    1    5    5  503    0  0.15257807480E+03  0.81826652313E+02  0.56079631809E+02  0.18199064548E+03  0.00000000000E+00 0. -1.
         -2    1    5    5    0  503  0.30577133820E+02 -0.13926590796E+02  0.32918433287E+02  0.47037583845E+02  0.00000000000E+00 0.  1.
         -3    1    6    6    0  502 -0.45438484281E+02 -0.69361649966E+02  0.34031351399E+02  0.89631619520E+02  0.00000000000E+00 0.  1.
<mgrwt>
<rscale>  0 0.20687602E+04</rscale>
<asrwt>0</asrwt>
<pdfrwt beam="1">  1        1 0.10721663E+00 0.20687602E+04</pdfrwt>
<pdfrwt beam="2">  1       -1 0.23619540E+00 0.20687602E+04</pdfrwt>
<totfact> 0.21722414E+00</totfact>
</mgrwt>
</event>
<event>
12    1  0.2048318E-007  0.3557345E+04  0.7818608E-02  0.8100333E-01
          2   -1    0    0  501    0  0.00000000000E+00  0.00000000000E+00  0.32809538862E+04  0.32809538862E+04  0.00000000000E+00 0. -1.
         -2   -1    0    0    0  501 -0.00000000000E+00 -0.00000000000E+00 -0.96425483878E+03  0.96425483878E+03  0.00000000000E+00 0.  1.
         23    2    1    2    0    0  0.47966020991E+03 -0.97137017221E+03 -0.42310540658E+03  0.11648290758E+04  0.64611626851E+02 0.  0.
        254    2    1    2    0    0 -0.47966020991E+03  0.97137017221E+03  0.27398044540E+04  0.30803796492E+04  0.89920876800E+03 0.  0.
        -24    2    4    4    0    0  0.32331266151E+01 -0.15267038905E+03  0.47082022550E+03  0.50129762652E+03  0.79428740453E+02 0.  0.
         24    2    4    4    0    0 -0.48289333653E+03  0.11240405613E+04  0.22689842285E+04  0.25790820227E+04  0.81984709447E+02 0.  0.
         13    1    3    3    0    0  0.35532558085E+03 -0.65565554132E+03 -0.30127071000E+03  0.80430373489E+03  0.00000000000E+00 0.  1.
        -13    1    3    3    0    0  0.12433462907E+03 -0.31571463090E+03 -0.12183469658E+03  0.36052534091E+03  0.00000000000E+00 0. -1.
          4    1    6    6  502    0 -0.40994907267E+03  0.95583330520E+03  0.19870632627E+04  0.22427875422E+04  0.00000000000E+00 0. -1.
          3    1    5    5  503    0  0.46951869650E+01 -0.12536740716E+03  0.44934637333E+03  0.46653102231E+03  0.00000000000E+00 0. -1.
         -4    1    5    5    0  503 -0.14620603499E+01 -0.27302981891E+02  0.21473852172E+02  0.34766604202E+02  0.00000000000E+00 0.  1.
         -3    1    6    6    0  502 -0.72944263861E+02  0.16820725606E+03  0.28192096578E+03  0.33629448044E+03  0.00000000000E+00 0.  1.
<mgrwt>
<rscale>  0 0.35573449E+04</rscale>
<asrwt>0</asrwt>
<pdfrwt beam="1">  1        2 0.50476213E+00 0.35573449E+04</pdfrwt>
<pdfrwt beam="2">  1       -2 0.14834690E+00 0.35573449E+04</pdfrwt>
<totfact> 0.28906969E-01</totfact>
</mgrwt>
</event>
<event>
12    1  0.2048318E-007  0.2525873E+04  0.7818608E-02  0.8393826E-01
          2   -1    0    0  501    0  0.00000000000E+00  0.00000000000E+00  0.18630117048E+04  0.18630117048E+04  0.00000000000E+00 0. -1.
         -2   -1    0    0    0  501 -0.00000000000E+00 -0.00000000000E+00 -0.85614541147E+03  0.85614541147E+03  0.00000000000E+00 0.  1.
         23    2    1    2    0    0  0.98837514528E+03 -0.21390981739E+03 -0.21723384822E+02  0.10156320092E+04  0.91616782974E+02 0.  0.
        254    2    1    2    0    0 -0.98837514528E+03  0.21390981739E+03  0.10285896782E+04  0.17035251071E+04  0.90628815869E+03 0.  0.
        -24    2    4    4    0    0 -0.10103060560E+04  0.36788788049E+03  0.58453212789E+03  0.12263675773E+04  0.78992446799E+02 0.  0.
         24    2    4    4    0    0  0.21930910734E+02 -0.15397806310E+03  0.44405755027E+03  0.47715752977E+03  0.79385083653E+02 0.  0.
         11    1    3    3    0    0  0.29831147692E+03 -0.83824433881E+02  0.31147711970E+02  0.31142648079E+03  0.00000000000E+00 0. -1.
        -11    1    3    3    0    0  0.69006366836E+03 -0.13008538351E+03 -0.52871096792E+02  0.70420552843E+03  0.00000000000E+00 0.  1.
          2    1    6    6  502    0 -0.28834977103E+02 -0.37791334083E+02  0.10914862727E+03  0.11905067690E+03  0.00000000000E+00 0. -1.
          1    1    5    5  503    0 -0.27330141171E+03  0.13029092490E+03  0.18796940585E+03  0.35637323733E+03  0.00000000000E+00 0. -1.
         -2    1    5    5    0  503 -0.73700464431E+03  0.23759695559E+03  0.39656272203E+03  0.86999433995E+03  0.00000000000E+00 0.  1.
         -1    1    6    6    0  502  0.50765887838E+02 -0.11618672902E+03  0.33490892300E+03  0.35810685287E+03  0.00000000000E+00 0.  1.
<mgrwt>
<rscale>  0 0.25258733E+04</rscale>
<asrwt>0</asrwt>
<pdfrwt beam="1">  1        2 0.28661718E+00 0.25258733E+04</pdfrwt>
<pdfrwt beam="2">  1       -2 0.13171468E+00 0.25258733E+04</pdfrwt>
<totfact> 0.29767205E+00</totfact>
</mgrwt>
</event>
<event>
12    1  0.2048318E-007  0.1625874E+04  0.7818608E-02  0.8804808E-01
          1   -1    0    0  501    0  0.00000000000E+00  0.00000000000E+00  0.31723678594E+04  0.31723678594E+04  0.00000000000E+00 0. -1.
         -1   -1    0    0    0  501 -0.00000000000E+00 -0.00000000000E+00 -0.20831969071E+03  0.20831969071E+03  0.00000000000E+00 0.  1.
         23    2    1    2    0    0  0.20146025169E+03 -0.51778895408E+03  0.92418878471E+03  0.10821312021E+04  0.90506324740E+02 0.  0.
        254    2    1    2    0    0 -0.20146025169E+03  0.51778895408E+03  0.20398593840E+04  0.22985563480E+04  0.90202180935E+03 0.  0.
        -24    2    4    4    0    0 -0.44908594394E+03  0.60265842691E+03  0.12302589029E+04  0.14438498435E+04  0.79309759629E+02 0.  0.
         24    2    4    4    0    0  0.24762569226E+03 -0.84869472836E+02  0.80960048109E+03  0.85470650446E+03  0.80925638083E+02 0.  0.
         13    1    3    3    0    0  0.85034624165E+02 -0.23452831617E+03  0.33024744935E+03  0.41388137938E+03  0.00000000000E+00 0.  1.
        -13    1    3    3    0    0  0.11642562752E+03 -0.28326063790E+03  0.59394133536E+03  0.66824982273E+03  0.00000000000E+00 0. -1.
          2    1    6    6  502    0  0.11457575687E+03 -0.77649381516E+02  0.35670048801E+03  0.38261242617E+03  0.00000000000E+00 0. -1.
          3    1    5    5  503    0 -0.11398340714E+03  0.20643123445E+03  0.41966264784E+03  0.48137595458E+03  0.00000000000E+00 0. -1.
         -4    1    5    5    0  503 -0.33510253681E+03  0.39622719246E+03  0.81059625505E+03  0.96247388895E+03  0.00000000000E+00 0.  1.
         -1    1    6    6    0  502  0.13304993538E+03 -0.72200913194E+01  0.45289999309E+03  0.47209407830E+03  0.00000000000E+00 0.  1.
<mgrwt>
<rscale>  0 0.16258742E+04</rscale>
<asrwt>0</asrwt>
<pdfrwt beam="1">  1        1 0.48805656E+00 0.16258742E+04</pdfrwt>
<pdfrwt beam="2">  1       -1 0.32049185E-01 0.16258742E+04</pdfrwt>
<totfact> 0.38997898E+00</totfact>
</mgrwt>
</event>
<event>
12    1  0.2048318E-007  0.1538693E+04  0.7818608E-02  0.8859123E-01
         -1   -1    0    0    0  501 -0.00000000000E+00  0.00000000000E+00  0.50484821510E+03  0.50484821510E+03  0.00000000000E+00 0.  1.
          1   -1    0    0  501    0  0.00000000000E+00 -0.00000000000E+00 -0.11724195139E+04  0.11724195139E+04  0.00000000000E+00 0. -1.
         23    2    1    2    0    0 -0.49134102317E+03  0.96476355413E+02 -0.22558312210E+03  0.55682052764E+03  0.91856773433E+02 0.  0.
        254    2    1    2    0    0  0.49134102317E+03 -0.96476355413E+02 -0.44198817674E+03  0.11204472014E+04  0.89962475206E+03 0.  0.
        -24    2    4    4    0    0  0.64219149419E+03  0.20013454839E+03 -0.36549340631E+03  0.76977719077E+03  0.80670569032E+02 0.  0.
         24    2    4    4    0    0 -0.15085047101E+03 -0.29661090381E+03 -0.76494770430E+02  0.35067001062E+03  0.79900648209E+02 0.  0.
         11    1    3    3    0    0 -0.33198902040E+03  0.23404558395E+02 -0.16386514847E+03  0.37096666953E+03  0.00000000000E+00 0. -1.
        -11    1    3    3    0    0 -0.15935200278E+03  0.73071797018E+02 -0.61717973622E+02  0.18585385812E+03  0.00000000000E+00 0.  1.
          2    1    6    6  502    0 -0.15312563637E+03 -0.26318542646E+03 -0.51369460448E+02  0.30879256902E+03  0.00000000000E+00 0. -1.
          1    1    5    5  503    0  0.29901245581E+03  0.60532777252E+02 -0.19389405722E+03  0.36147969691E+03  0.00000000000E+00 0. -1.
         -2    1    5    5    0  503  0.34317903837E+03  0.13960177114E+03 -0.17159934910E+03  0.40829749386E+03  0.00000000000E+00 0.  1.
         -1    1    6    6    0  502  0.22751653617E+01 -0.33425477349E+02 -0.25125309982E+02  0.41877441602E+02  0.00000000000E+00 0.  1.
<mgrwt>
<rscale>  0 0.15386928E+04</rscale>
<asrwt>0</asrwt>
<pdfrwt beam="1">  1        1 0.18037223E+00 0.15386928E+04</pdfrwt>
<pdfrwt beam="2">  1       -1 0.77668957E-01 0.15386928E+04</pdfrwt>
<totfact> 0.17935641E+01</totfact>
</mgrwt>
</event>
<event>
12    1  0.2048318E-007  0.4539644E+04  0.7818608E-02  0.7903733E-01
         -2   -1    0    0    0  501 -0.00000000000E+00  0.00000000000E+00  0.47275762361E+04  0.47275762361E+04  0.00000000000E+00 0.  1.
          2   -1    0    0  501    0  0.00000000000E+00 -0.00000000000E+00 -0.10897954070E+04  0.10897954070E+04  0.00000000000E+00 0. -1.
         23    2    1    2    0    0  0.49861291502E+03  0.18622510410E+04  0.44481927660E+03  0.19803950367E+04  0.86640254583E+02 0.  0.
        254    2    1    2    0    0 -0.49861291502E+03 -0.18622510410E+04  0.31929615525E+04  0.38369766064E+04  0.90044001676E+03 0.  0.
        -24    2    4    4    0    0 -0.41401050338E+03 -0.17562958701E+04  0.32061780160E+04  0.36799256764E+04  0.79345026125E+02 0.  0.
         24    2    4    4    0    0 -0.84602411639E+02 -0.10595517091E+03 -0.13216463548E+02  0.15705093001E+03  0.78142519860E+02 0.  0.
         11    1    3    3    0    0  0.29959124982E+03  0.12737664611E+04  0.30764289697E+03  0.13442023905E+04  0.00000000000E+00 0.  1.
        -11    1    3    3    0    0  0.19902166520E+03  0.58848457986E+03  0.13717637964E+03  0.63619264620E+03  0.00000000000E+00 0. -1.
          2    1    6    6  502    0 -0.85443413616E+02 -0.81480947903E+02  0.15758453654E+02  0.11911360402E+03  0.00000000000E+00 0. -1.
          3    1    5    5  503    0 -0.21862407905E+03 -0.10714237556E+04  0.19827967723E+04  0.22643384005E+04  0.00000000000E+00 0. -1.
         -4    1    5    5    0  503 -0.19538642433E+03 -0.68487211453E+03  0.12233812437E+04  0.14155872759E+04  0.00000000000E+00 0.  1.
         -1    1    6    6    0  502  0.84100197743E+00 -0.24474223012E+02 -0.28974917202E+02  0.37937325990E+02  0.00000000000E+00 0.  1.
<mgrwt>
<rscale>  0 0.45396435E+04</rscale>
<asrwt>0</asrwt>
<pdfrwt beam="1">  1        2 0.16766083E+00 0.45396435E+04</pdfrwt>
<pdfrwt beam="2">  1       -2 0.72731941E+00 0.45396435E+04</pdfrwt>
<totfact> 0.30040735E-03</totfact>
</mgrwt>
</event>
<event>
12    1  0.2048318E-007  0.2369336E+04  0.7818608E-02  0.8451074E-01
          2   -1    0    0  501    0  0.00000000000E+00  0.00000000000E+00  0.16842564579E+04  0.16842564579E+04  0.00000000000E+00 0.  1.
         -2   -1    0    0    0  501 -0.00000000000E+00 -0.00000000000E+00 -0.83326899169E+03  0.83326899169E+03  0.00000000000E+00 0. -1.
         23    2    1    2    0    0  0.14981717094E+03  0.99528289385E+03  0.22983468724E+03  0.10366269290E+04  0.93478248289E+02 0.  0.
        254    2    1    2    0    0 -0.14981717094E+03 -0.99528289385E+03  0.62115277896E+03  0.14808985206E+04  0.89117699139E+03 0.  0.
        -24    2    4    4    0    0 -0.34390985082E+03 -0.71527759765E+03  0.35636548414E+02  0.79811781048E+03  0.76328557116E+02 0.  0.
         24    2    4    4    0    0  0.19409267988E+03 -0.28000529620E+03  0.58551623054E+03  0.68278071011E+03  0.85354013290E+02 0.  0.
         13    1    3    3    0    0  0.61868302208E+02  0.59224828444E+03  0.17382356787E+03  0.62032277887E+03  0.00000000000E+00 0.  1.
        -13    1    3    3    0    0  0.87948868730E+02  0.40303460942E+03  0.56011119365E+02  0.41630415010E+03  0.00000000000E+00 0. -1.
          2    1    6    6  502    0  0.17483688198E+03 -0.21062924035E+03  0.40906928924E+03  0.49220960534E+03  0.00000000000E+00 0. -1.
          3    1    5    5  503    0 -0.10757373533E+03 -0.15709911060E+03 -0.64395255285E+01  0.19050907215E+03  0.00000000000E+00 0. -1.
         -4    1    5    5    0  503 -0.23633611549E+03 -0.55817848705E+03  0.42076073943E+02  0.60760873833E+03  0.00000000000E+00 0.  1.
         -3    1    6    6    0  502  0.19255797909E+02 -0.69376055849E+02  0.17644694130E+03  0.19057110477E+03  0.00000000000E+00 0.  1.
<mgrwt>
<rscale>  0 0.23693363E+04</rscale>
<asrwt>0</asrwt>
<pdfrwt beam="1">  1        2 0.25911638E+00 0.23693363E+04</pdfrwt>
<pdfrwt beam="2">  1       -2 0.12819523E+00 0.23693363E+04</pdfrwt>
<totfact> 0.40595351E+00</totfact>
</mgrwt>
</event>
<event>
12    1  0.2048318E-007  0.1475044E+04  0.7818608E-02  0.8901220E-01
         -1   -1    0    0    0  501 -0.00000000000E+00  0.00000000000E+00  0.38717794294E+03  0.38717794294E+03  0.00000000000E+00 0.  1.
          1   -1    0    0  501    0  0.00000000000E+00 -0.00000000000E+00 -0.14048799606E+04  0.14048799606E+04  0.00000000000E+00 0. -1.
         23    2    1    2    0    0 -0.23547256053E+03  0.24366768322E+03 -0.69121157378E+03  0.77536204218E+03  0.92690830760E+02 0.  0.
        254    2    1    2    0    0  0.23547256053E+03 -0.24366768322E+03 -0.32649044384E+03  0.10166958613E+04  0.90125090730E+03 0.  0.
        -24    2    4    4    0    0  0.63616636834E+02 -0.37767989120E+03 -0.56130001936E+03  0.68496596396E+03  0.86206051754E+02 0.  0.
         24    2    4    4    0    0  0.17185592370E+03  0.13401220798E+03  0.23480957552E+03  0.33172989737E+03  0.86113051597E+02 0.  0.
         11    1    3    3    0    0 -0.10404178895E+03  0.67987451962E+02 -0.17678593465E+03  0.21610241591E+03  0.00000000000E+00 0.  1.
        -11    1    3    3    0    0 -0.13143077158E+03  0.17568023126E+03 -0.51442563913E+03  0.55925962626E+03  0.00000000000E+00 0. -1.
          4    1    6    6  502    0  0.17616049805E+03  0.13643482448E+03  0.23786289386E+03  0.32592290297E+03  0.00000000000E+00 0. -1.
          3    1    5    5  503    0  0.50707265842E+02 -0.32723472979E+03 -0.52770636451E+03  0.62299903879E+03  0.00000000000E+00 0. -1.
         -4    1    5    5    0  503  0.12909370993E+02 -0.50445161416E+02 -0.33593654846E+02  0.61966925175E+02  0.00000000000E+00 0.  1.
         -3    1    6    6    0  502 -0.43045743490E+01 -0.24226165052E+01 -0.30533183417E+01  0.58069943993E+01  0.00000000000E+00 0.  1.
<mgrwt>
<rscale>  0 0.14750438E+04</rscale>
<asrwt>0</asrwt>
<pdfrwt beam="1">  1        1 0.21613538E+00 0.14750438E+04</pdfrwt>
<pdfrwt beam="2">  1       -1 0.59565838E-01 0.14750438E+04</pdfrwt>
<totfact> 0.21109721E+01</totfact>
</mgrwt>
</event>
<event>
12    1  0.2048318E-007  0.2215984E+04  0.7818608E-02  0.8511805E-01
          2   -1    0    0  501    0  0.00000000000E+00  0.00000000000E+00  0.20116900997E+04  0.20116900997E+04  0.00000000000E+00 0. -1.
         -2   -1    0    0    0  501 -0.00000000000E+00 -0.00000000000E+00 -0.61025606219E+03  0.61025606219E+03  0.00000000000E+00 0.  1.
         23    2    1    2    0    0  0.76446241657E+03  0.38433899992E+03  0.99568238129E+03  0.13157490450E+04  0.87709132557E+02 0.  0.
        254    2    1    2    0    0 -0.76446241657E+03 -0.38433899992E+03  0.40575165625E+03  0.13061971169E+04  0.89966507565E+03 0.  0.
        -24    2    4    4    0    0 -0.19226662395E+02 -0.41053557589E+03 -0.60981610690E+02  0.42287768303E+03  0.78725182422E+02 0.  0.
         24    2    4    4    0    0 -0.74523575418E+03  0.26196575963E+02  0.46673326694E+03  0.88331943384E+03  0.79691215537E+02 0.  0.
         11    1    3    3    0    0  0.42071136079E+03  0.23802400775E+03  0.61695692778E+03  0.78376611824E+03  0.00000000000E+00 0. -1.
        -11    1    3    3    0    0  0.34375105578E+03  0.14631499217E+03  0.37872545350E+03  0.53198292681E+03  0.00000000000E+00 0.  1.
          2    1    6    6  502    0 -0.35393196169E+03 -0.13008741479E+02  0.25728618524E+03  0.43775934253E+03  0.00000000000E+00 0. -1.
          3    1    5    5  503    0  0.61791637063E+01 -0.33848978707E+03 -0.70755162132E+02  0.34586097059E+03  0.00000000000E+00 0. -1.
         -2    1    5    5    0  503 -0.25405826101E+02 -0.72045788819E+02  0.97735514416E+01  0.77016712435E+02  0.00000000000E+00 0.  1.
         -1    1    6    6    0  502 -0.39130379249E+03  0.39205317443E+02  0.20944708169E+03  0.44556009130E+03  0.00000000000E+00 0.  1.
<mgrwt>
<rscale>  0 0.22159838E+04</rscale>
<asrwt>0</asrwt>
<pdfrwt beam="1">  1        2 0.30949078E+00 0.22159838E+04</pdfrwt>
<pdfrwt beam="2">  1       -2 0.93885549E-01 0.22159838E+04</pdfrwt>
<totfact> 0.57556551E+00</totfact>
</mgrwt>
</event>
<event>
12    1  0.2048318E-007  0.1530329E+04  0.7818608E-02  0.8864531E-01
          2   -1    0    0  501    0  0.00000000000E+00  0.00000000000E+00  0.12864467530E+04  0.12864467530E+04  0.00000000000E+00 0. -1.
         -2   -1    0    0    0  501 -0.00000000000E+00 -0.00000000000E+00 -0.45511141931E+03  0.45511141931E+03  0.00000000000E+00 0.  1.
         23    2    1    2    0    0  0.41678059665E+03  0.13332288984E+03  0.53714459419E+03  0.69870710385E+03  0.90477860298E+02 0.  0.
        254    2    1    2    0    0 -0.41678059665E+03 -0.13332288984E+03  0.29419073946E+03  0.10428510684E+04  0.89972723700E+03 0.  0.
        -24    2    4    4    0    0 -0.45051270552E+03 -0.11995996021E+03 -0.22000709177E+03  0.52142023558E+03  0.78255042967E+02 0.  0.
         24    2    4    4    0    0  0.33732108871E+02 -0.13362929630E+02  0.51419783123E+03  0.52143083284E+03  0.78576591500E+02 0.  0.
         11    1    3    3    0    0  0.16332343167E+03  0.73951424382E+02  0.28224225495E+03  0.33437112163E+03  0.00000000000E+00 0. -1.
        -11    1    3    3    0    0  0.25345716498E+03  0.59371465459E+02  0.25490233924E+03  0.36433598222E+03  0.00000000000E+00 0.  1.
          2    1    6    6  502    0  0.29790257960E+02 -0.37125427142E+02  0.17436514056E+03  0.18074556441E+03  0.00000000000E+00 0. -1.
          3    1    5    5  503    0 -0.31695764159E+03 -0.51788148398E+02 -0.12958201521E+03  0.34631727872E+03  0.00000000000E+00 0. -1.
         -4    1    5    5    0  503 -0.13355506393E+03 -0.68171811814E+02 -0.90425076563E+02  0.17510295685E+03  0.00000000000E+00 0.  1.
         -1    1    6    6    0  502  0.39418509114E+01  0.23762497512E+02  0.33983269067E+03  0.34068526843E+03  0.00000000000E+00 0.  1.
<mgrwt>
<rscale>  0 0.15303289E+04</rscale>
<asrwt>0</asrwt>
<pdfrwt beam="1">  1        2 0.19791488E+00 0.15303289E+04</pdfrwt>
<pdfrwt beam="2">  1       -2 0.70017142E-01 0.15303289E+04</pdfrwt>
<totfact> 0.30154555E+01</totfact>
</mgrwt>
</event>
<event>
12    1  0.2048318E-007  0.2294780E+04  0.7818608E-02  0.8479982E-01
         -2   -1    0    0    0  501 -0.00000000000E+00  0.00000000000E+00  0.10135857776E+04  0.10135857776E+04  0.00000000000E+00 0.  1.
          2   -1    0    0  501    0  0.00000000000E+00 -0.00000000000E+00 -0.12988581083E+04  0.12988581083E+04  0.00000000000E+00 0. -1.
         23    2    1    2    0    0  0.53807414336E+03  0.75544075542E+03 -0.40477629366E+03  0.10159518748E+04  0.89999140739E+02 0.  0.
        254    2    1    2    0    0 -0.53807414336E+03 -0.75544075542E+03  0.11950396292E+03  0.12964920111E+04  0.89799544489E+03 0.  0.
        -24    2    4    4    0    0  0.19643212062E+03  0.13006232936E+02 -0.44810681653E+02  0.21707613605E+03  0.79745291677E+02 0.  0.
         24    2    4    4    0    0 -0.73450626398E+03 -0.76844698836E+03  0.16431464458E+03  0.10794158751E+04  0.90161539419E+02 0.  0.
         13    1    3    3    0    0  0.52618057050E+03  0.70837238838E+03 -0.39312680820E+03  0.96602594205E+03  0.00000000000E+00 0. -1.
        -13    1    3    3    0    0  0.11893572861E+02  0.47068367037E+02 -0.11649485461E+02  0.49925932765E+02  0.00000000000E+00 0.  1.
          4    1    6    6  502    0 -0.50932981114E+03 -0.53223061723E+03  0.71542222458E+02  0.74013821413E+03  0.00000000000E+00 0. -1.
          1    1    5    5  503    0  0.73428678514E+02  0.16159615607E+01 -0.56967255159E+02  0.92949719313E+02  0.00000000000E+00 0. -1.
         -2    1    5    5    0  503  0.12300344211E+03  0.11390271376E+02  0.12156573506E+02  0.12412641673E+03  0.00000000000E+00 0.  1.
         -3    1    6    6    0  502 -0.22517645284E+03 -0.23621637113E+03  0.92772422119E+02  0.33927766094E+03  0.00000000000E+00 0.  1.
<mgrwt>
<rscale>  0 0.22947803E+04</rscale>
<asrwt>0</asrwt>
<pdfrwt beam="1">  1        2 0.19982432E+00 0.22947803E+04</pdfrwt>
<pdfrwt beam="2">  1       -2 0.15593627E+00 0.22947803E+04</pdfrwt>
<totfact> 0.40566179E+00</totfact>
</mgrwt>
</event>
<event>
12    1  0.2048318E-007  0.1961781E+04  0.7818608E-02  0.8624701E-01
         -2   -1    0    0    0  501 -0.00000000000E+00  0.00000000000E+00  0.43951613570E+03  0.43951613570E+03  0.00000000000E+00 0.  1.
          2   -1    0    0  501    0  0.00000000000E+00 -0.00000000000E+00 -0.21891035194E+04  0.21891035194E+04  0.00000000000E+00 0. -1.
         23    2    1    2    0    0 -0.45894765257E+03  0.54377767636E+03 -0.29910820976E+03  0.77858010417E+03  0.10195169613E+03 0.  0.
        254    2    1    2    0    0  0.45894765257E+03 -0.54377767636E+03 -0.14504791739E+04  0.18500395509E+04  0.90134865445E+03 0.  0.
        -24    2    4    4    0    0  0.70831002981E+03 -0.31833134484E+03 -0.82848189939E+03  0.11383963973E+04  0.80784629327E+02 0.  0.
         24    2    4    4    0    0 -0.24936237723E+03 -0.22544633152E+03 -0.62199727450E+03  0.71164315360E+03  0.80918014040E+02 0.  0.
         11    1    3    3    0    0 -0.26450473301E+03  0.35400572642E+03 -0.23022415097E+03  0.49828301980E+03  0.00000000000E+00 0. -1.
        -11    1    3    3    0    0 -0.19444291956E+03  0.18977194994E+03 -0.68884058794E+02  0.28029708437E+03  0.00000000000E+00 0.  1.
          4    1    6    6  502    0 -0.36276027471E+02 -0.79566718446E+02 -0.15059350907E+03  0.17414137310E+03  0.00000000000E+00 0. -1.
          3    1    5    5  503    0  0.33688353733E+03 -0.10869430412E+03 -0.39034091246E+03  0.52694496621E+03  0.00000000000E+00 0. -1.
         -4    1    5    5    0  503  0.37142649248E+03 -0.20963704072E+03 -0.43814098693E+03  0.61145143110E+03  0.00000000000E+00 0.  1.
         -3    1    6    6    0  502 -0.21308634976E+03 -0.14587961308E+03 -0.47140376544E+03  0.53750178050E+03  0.00000000000E+00 0.  1.
<mgrwt>
<rscale>  0 0.19617811E+04</rscale>
<asrwt>0</asrwt>
<pdfrwt beam="1">  1        2 0.33678517E+00 0.19617811E+04</pdfrwt>
<pdfrwt beam="2">  1       -2 0.67617865E-01 0.19617811E+04</pdfrwt>
<totfact> 0.97842528E+00</totfact>
</mgrwt>
</event>
<event>
12    1  0.2048318E-007  0.2054324E+04  0.7818608E-02  0.8581635E-01
         -1   -1    0    0    0  501 -0.00000000000E+00  0.00000000000E+00  0.11422836330E+04  0.11422836330E+04  0.00000000000E+00 0.  1.
          1   -1    0    0  501    0  0.00000000000E+00 -0.00000000000E+00 -0.92364223355E+03  0.92364223355E+03  0.00000000000E+00 0. -1.
         23    2    1    2    0    0  0.37342394753E+02  0.83007527659E+03  0.17794893563E+03  0.85553576263E+03  0.99278387317E+02 0.  0.
        254    2    1    2    0    0 -0.37342394753E+02 -0.83007527659E+03  0.40692463765E+02  0.12103901039E+04  0.87918650336E+03 0.  0.
        -24    2    4    4    0    0 -0.18597424394E+03  0.42214200361E+02  0.22120830162E+03  0.30353775708E+03  0.82665586236E+02 0.  0.
         24    2    4    4    0    0  0.14863184919E+03 -0.87228947695E+03 -0.18051583786E+03  0.90685234679E+03  0.82552122713E+02 0.  0.
         13    1    3    3    0    0  0.68521539820E+02  0.42387278179E+03  0.86551047463E+02  0.43801189525E+03  0.00000000000E+00 0.  1.
        -13    1    3    3    0    0 -0.31179145067E+02  0.40620249480E+03  0.91397888171E+02  0.41752386738E+03  0.00000000000E+00 0. -1.
          2    1    6    6  502    0  0.15602031461E+03 -0.74370452299E+03 -0.15609663989E+03  0.77576086333E+03  0.00000000000E+00 0. -1.
          3    1    5    5  503    0 -0.18518208592E+03  0.32470492478E+02  0.22486015683E+03  0.29310207771E+03  0.00000000000E+00 0. -1.
         -4    1    5    5    0  503 -0.79215802337E+00  0.97437078825E+01 -0.36518552066E+01  0.10435679378E+02  0.00000000000E+00 0.  1.
         -1    1    6    6    0  502 -0.73884654182E+01 -0.12858495397E+03 -0.24419197965E+02  0.13109148346E+03  0.00000000000E+00 0.  1.
<mgrwt>
<rscale>  0 0.20543236E+04</rscale>
<asrwt>0</asrwt>
<pdfrwt beam="1">  1        1 0.14209881E+00 0.20543236E+04</pdfrwt>
<pdfrwt beam="2">  1       -1 0.17573594E+00 0.20543236E+04</pdfrwt>
<totfact> 0.35905115E+00</totfact>
</mgrwt>
</event>
<event>
12    1  0.2048318E-007  0.3265935E+04  0.7818608E-02  0.8171618E-01
         -2   -1    0    0    0  501 -0.00000000000E+00  0.00000000000E+00  0.51126350054E+03  0.51126350054E+03  0.00000000000E+00 0. -1.
          2   -1    0    0  501    0  0.00000000000E+00 -0.00000000000E+00 -0.52156709723E+04  0.52156709723E+04  0.00000000000E+00 0.  1.
         23    2    1    2    0    0 -0.12636166053E+04  0.67097575420E+03 -0.30057594986E+04  0.33302197366E+04  0.94010331320E+02 0.  0.
        254    2    1    2    0    0  0.12636166053E+04 -0.67097575420E+03 -0.16986479732E+04  0.23967147363E+04  0.90105560453E+03 0.  0.
        -24    2    4    4    0    0  0.75704889954E+03 -0.14944400452E+03 -0.14115317537E+04  0.16106242686E+04  0.78943626463E+02 0.  0.
         24    2    4    4    0    0  0.50656770578E+03 -0.52153174968E+03 -0.28711621953E+03  0.78609046773E+03  0.83043924999E+02 0.  0.
         13    1    3    3    0    0 -0.20471210986E+03  0.79613087622E+02 -0.51401551525E+03  0.55897874876E+03  0.00000000000E+00 0. -1.
        -13    1    3    3    0    0 -0.10589044955E+04  0.59136266658E+03 -0.24917439833E+04  0.27712409878E+04  0.00000000000E+00 0.  1.
          4    1    6    6  502    0  0.36905773817E+03 -0.34255023904E+03 -0.22815421772E+03  0.55280975699E+03  0.00000000000E+00 0. -1.
          1    1    5    5  503    0  0.79050017804E+02 -0.37076754446E+02 -0.18818988797E+03  0.20745848975E+03  0.00000000000E+00 0. -1.
         -2    1    5    5    0  503  0.67799888173E+03 -0.11236725008E+03 -0.12233418657E+04  0.14031657788E+04  0.00000000000E+00 0.  1.
         -3    1    6    6    0  502  0.13750996762E+03 -0.17898151064E+03 -0.58962001810E+02  0.23328071074E+03  0.00000000000E+00 0.  1.
<mgrwt>
<rscale>  0 0.32659346E+04</rscale>
<asrwt>0</asrwt>
<pdfrwt beam="1">  1        2 0.80241091E+00 0.32659346E+04</pdfrwt>
<pdfrwt beam="2">  1       -2 0.78655924E-01 0.32659346E+04</pdfrwt>
<totfact> 0.20926053E-02</totfact>
</mgrwt>
</event>
<event>
12    1  0.2048318E-007  0.2852308E+04  0.7818608E-02  0.8287210E-01
          2   -1    0    0  501    0  0.00000000000E+00  0.00000000000E+00  0.31186548455E+04  0.31186548455E+04  0.00000000000E+00 0. -1.
         -2   -1    0    0    0  501 -0.00000000000E+00 -0.00000000000E+00 -0.65217702869E+03  0.65217702869E+03  0.00000000000E+00 0.  1.
         23    2    1    2    0    0 -0.11230915819E+04  0.60627355023E+03  0.12654238411E+04  0.17995060495E+04  0.89566766344E+02 0.  0.
        254    2    1    2    0    0  0.11230915819E+04 -0.60627355023E+03  0.12010539756E+04  0.19713258246E+04  0.90260319928E+03 0.  0.
        -24    2    4    4    0    0  0.11667484056E+04 -0.70583091230E+03  0.12165898399E+04  0.18292902028E+04  0.81930999555E+02 0.  0.
         24    2    4    4    0    0 -0.43656823735E+02  0.99557362065E+02 -0.15535864226E+02  0.14203562184E+03  0.90084228338E+02 0.  0.
         11    1    3    3    0    0 -0.80809625347E+03  0.41562462355E+03  0.95055954075E+03  0.13150387154E+04  0.00000000000E+00 0. -1.
        -11    1    3    3    0    0 -0.31499532842E+03  0.19064892668E+03  0.31486430038E+03  0.48446733411E+03  0.00000000000E+00 0.  1.
          4    1    6    6  502    0 -0.67591016407E+02  0.71880213200E+02  0.72444416867E+01  0.98933272887E+02  0.00000000000E+00 0. -1.
          1    1    5    5  503    0  0.11249339962E+04 -0.66296475561E+03  0.11725537168E+04  0.17549589687E+04  0.00000000000E+00 0. -1.
         -2    1    5    5    0  503  0.41814409399E+02 -0.42866156692E+02  0.44036123052E+02  0.74331234056E+02  0.00000000000E+00 0.  1.
         -3    1    6    6    0  502  0.23934192672E+02  0.27677148865E+02 -0.22780305913E+02  0.43102348957E+02  0.00000000000E+00 0.  1.
<mgrwt>
<rscale>  0 0.28523079E+04</rscale>
<asrwt>0</asrwt>
<pdfrwt beam="1">  1        2 0.47979305E+00 0.28523079E+04</pdfrwt>
<pdfrwt beam="2">  1       -2 0.10033493E+00 0.28523079E+04</pdfrwt>
<totfact> 0.10389709E+00</totfact>
</mgrwt>
</event>
<event>
12    1  0.2048318E-007  0.1526742E+04  0.7818608E-02  0.8866862E-01
         -1   -1    0    0    0  501 -0.00000000000E+00  0.00000000000E+00  0.40531561356E+03  0.40531561356E+03  0.00000000000E+00 0.  1.
          1   -1    0    0  501    0  0.00000000000E+00 -0.00000000000E+00 -0.14377319245E+04  0.14377319245E+04  0.00000000000E+00 0. -1.
         23    2    1    2    0    0 -0.12311990456E+03 -0.45152773646E+03 -0.51811511300E+03  0.70408550483E+03  0.90869797572E+02 0.  0.
        254    2    1    2    0    0  0.12311990456E+03  0.45152773646E+03 -0.51430119794E+03  0.11389620332E+04  0.90204932417E+03 0.  0.
        -24    2    4    4    0    0  0.13339096740E+02  0.65363782289E+03 -0.11140271794E+03  0.66828690616E+03  0.82319428785E+02 0.  0.
         24    2    4    4    0    0  0.10978080782E+03 -0.20211008644E+03 -0.40289848000E+03  0.47067512707E+03  0.79420257137E+02 0.  0.
         13    1    3    3    0    0 -0.78022626231E+02 -0.23814424270E+03 -0.21212643344E+03  0.32832580511E+03  0.00000000000E+00 0.  1.
        -13    1    3    3    0    0 -0.45097278328E+02 -0.21338349375E+03 -0.30598867955E+03  0.37575969972E+03  0.00000000000E+00 0. -1.
          2    1    6    6  502    0  0.20421493080E+02 -0.87297358368E+02 -0.97873139319E+02  0.13272911345E+03  0.00000000000E+00 0. -1.
          1    1    5    5  503    0  0.13988119056E+02  0.63775309289E+03 -0.12160910591E+03  0.64939467938E+03  0.00000000000E+00 0. -1.
         -2    1    5    5    0  503 -0.64902231519E+00  0.15884730008E+02  0.10206387968E+02  0.18892226781E+02  0.00000000000E+00 0.  1.
         -1    1    6    6    0  502  0.89359314738E+02 -0.11481272807E+03 -0.30502534068E+03  0.33794601361E+03  0.00000000000E+00 0.  1.
<mgrwt>
<rscale>  0 0.15267419E+04</rscale>
<asrwt>0</asrwt>
<pdfrwt beam="1">  1        1 0.22118952E+00 0.15267419E+04</pdfrwt>
<pdfrwt beam="2">  1       -1 0.62356250E-01 0.15267419E+04</pdfrwt>
<totfact> 0.18200455E+01</totfact>
</mgrwt>
</event>
<event>
12    1  0.2048318E-007  0.1304541E+04  0.7818608E-02  0.9025972E-01
          2   -1    0    0  501    0  0.00000000000E+00  0.00000000000E+00  0.42592376221E+03  0.42592376221E+03  0.00000000000E+00 0. -1.
         -2   -1    0    0    0  501 -0.00000000000E+00 -0.00000000000E+00 -0.99890342218E+03  0.99890342218E+03  0.00000000000E+00 0.  1.
         23    2    1    2    0    0 -0.20469689072E+03 -0.20814744022E+03  0.21890811547E+02  0.30734752755E+03  0.93579490896E+02 0.  0.
        254    2    1    2    0    0  0.20469689072E+03  0.20814744022E+03 -0.59487047152E+03  0.11174796568E+04  0.89981316485E+03 0.  0.
        -24    2    4    4    0    0 -0.29332864923E+03 -0.13716881337E+03 -0.23458054291E+03  0.40776393243E+03  0.79915040255E+02 0.  0.
         24    2    4    4    0    0  0.49802553995E+03  0.34531625359E+03 -0.36028992861E+03  0.70971572442E+03  0.81331564566E+02 0.  0.
         11    1    3    3    0    0 -0.73051784928E+01 -0.55957254403E+02 -0.49919587525E+01  0.56652445713E+02  0.00000000000E+00 0. -1.
        -11    1    3    3    0    0 -0.19739171223E+03 -0.15219018582E+03  0.26882770299E+02  0.25069508183E+03  0.00000000000E+00 0.  1.
          2    1    6    6  502    0  0.20371655606E+03  0.11310601862E+03 -0.17582582170E+03  0.29190431007E+03  0.00000000000E+00 0. -1.
          1    1    5    5  503    0 -0.21888952754E+03 -0.12748332637E+03 -0.20919009107E+03  0.32851958537E+03  0.00000000000E+00 0. -1.
         -2    1    5    5    0  503 -0.74439121686E+02 -0.96854869987E+01 -0.25390451833E+02  0.79244347054E+02  0.00000000000E+00 0.  1.
         -1    1    6    6    0  502  0.29430898389E+03  0.23221023497E+03 -0.18446410691E+03  0.41781141435E+03  0.00000000000E+00 0.  1.
<mgrwt>
<rscale>  0 0.13045408E+04</rscale>
<asrwt>0</asrwt>
<pdfrwt beam="1">  1        2 0.65526734E-01 0.13045408E+04</pdfrwt>
<pdfrwt beam="2">  1       -2 0.15367745E+00 0.13045408E+04</pdfrwt>
<totfact> 0.20361329E+01</totfact>
</mgrwt>
</event>
<event>
12    1  0.2480126E-007  0.2665494E+04  0.7818608E-02  0.8346289E-01
         -1   -1    0    0    0  501 -0.00000000000E+00  0.00000000000E+00  0.17071675614E+04  0.17071675614E+04  0.00000000000E+00 0.  1.
          1   -1    0    0  501    0  0.00000000000E+00 -0.00000000000E+00 -0.10404449741E+04  0.10404449741E+04  0.00000000000E+00 0. -1.
         23    2    1    2    0    0 -0.35862177854E+03 -0.11150546258E+04  0.22014244354E+03  0.11956501909E+04  0.95709377315E+02 0.  0.
        254    2    1    2    0    0  0.35862177854E+03  0.11150546258E+04  0.44658014385E+03  0.15519623446E+04  0.91498464225E+03 0.  0.
        -24    2    4    4    0    0 -0.28848020523E+03  0.44621522160E+03  0.27009454357E+03  0.60122613893E+03  0.78695329379E+02 0.  0.
         24    2    4    4    0    0  0.64710198376E+03  0.66883940423E+03  0.17648560028E+03  0.95073620568E+03  0.81639693992E+02 0.  0.
         13    1    3    3    0    0 -0.27591955223E+03 -0.74717175969E+03  0.17892138556E+03  0.81633945145E+03  0.00000000000E+00 0.  1.
        -13    1    3    3    0    0 -0.82702226305E+02 -0.36788286614E+03  0.41221057979E+02  0.37931073945E+03  0.00000000000E+00 0. -1.
          4    1    6    6  502    0  0.37603326515E+03  0.33757016816E+03  0.11570013254E+03  0.51840250347E+03  0.00000000000E+00 0. -1.
          3    1    5    5  503    0 -0.80515994734E+02  0.16162626745E+03  0.57058844459E+02  0.18937155929E+03  0.00000000000E+00 0. -1.
         -4    1    5    5    0  503 -0.20796421049E+03  0.28458895416E+03  0.21303569911E+03  0.41185457964E+03  0.00000000000E+00 0.  1.
         -3    1    6    6    0  502  0.27106871861E+03  0.33126923607E+03  0.60785467734E+02  0.43233370221E+03  0.00000000000E+00 0.  1.
<mgrwt>
<rscale>  0 0.26654935E+04</rscale>
<asrwt>0</asrwt>
<pdfrwt beam="1">  1        1 0.16006846E+00 0.26654935E+04</pdfrwt>
<pdfrwt beam="2">  1       -1 0.26264116E+00 0.26654935E+04</pdfrwt>
<totfact> 0.71091475E-01</totfact>
</mgrwt>
</event>
<event>
12    1  0.2048318E-007  0.1914666E+04  0.7818608E-02  0.8647590E-01
         -2   -1    0    0    0  501 -0.00000000000E+00  0.00000000000E+00  0.63440222499E+03  0.63440222499E+03  0.00000000000E+00 0. -1.
          2   -1    0    0  501    0  0.00000000000E+00 -0.00000000000E+00 -0.14446456036E+04  0.14446456036E+04  0.00000000000E+00 0.  1.
         23    2    1    2    0    0 -0.64848750339E+03  0.15585018000E+03 -0.66600835428E+03  0.94662767094E+03  0.87815139655E+02 0.  0.
        254    2    1    2    0    0  0.64848750339E+03 -0.15585018000E+03 -0.14423502433E+03  0.11324201577E+04  0.90374020081E+03 0.  0.
        -24    2    4    4    0    0  0.62892768773E+03 -0.46892600816E+03 -0.25837878313E+02  0.78902427725E+03  0.80312368931E+02 0.  0.
         24    2    4    4    0    0  0.19559815656E+02  0.31307582816E+03 -0.11839714602E+03  0.34339588041E+03  0.74187505221E+02 0.  0.
         11    1    3    3    0    0 -0.29737701944E+03  0.58278287811E+02 -0.36167829272E+03  0.47184810898E+03  0.00000000000E+00 0.  1.
        -11    1    3    3    0    0 -0.35111048394E+03  0.97571892192E+02 -0.30433006156E+03  0.47477956196E+03  0.00000000000E+00 0. -1.
          4    1    6    6  502    0  0.37139543924E+02  0.19366128465E+03 -0.10066433303E+03  0.22139861526E+03  0.00000000000E+00 0. -1.
          3    1    5    5  503    0  0.50066421757E+03 -0.39741033918E+03  0.37036350823E+01  0.63922871757E+03  0.00000000000E+00 0. -1.
         -4    1    5    5    0  503  0.12826347016E+03 -0.71515668977E+02 -0.29541513395E+02  0.14979555968E+03  0.00000000000E+00 0.  1.
         -3    1    6    6    0  502 -0.17579728269E+02  0.11941454351E+03 -0.17732812993E+02  0.12199726515E+03  0.00000000000E+00 0.  1.
<mgrwt>
<rscale>  0 0.19146659E+04</rscale>
<asrwt>0</asrwt>
<pdfrwt beam="1">  1        2 0.22225317E+00 0.19146659E+04</pdfrwt>
<pdfrwt beam="2">  1       -2 0.97600344E-01 0.19146659E+04</pdfrwt>
<totfact> 0.11167695E+01</totfact>
</mgrwt>
</event>
<event>
12    1  0.2048318E-007  0.1408783E+04  0.7818608E-02  0.8947485E-01
         -1   -1    0    0    0  501 -0.00000000000E+00  0.00000000000E+00  0.20666558758E+03  0.20666558758E+03  0.00000000000E+00 0.  1.
          1   -1    0    0  501    0  0.00000000000E+00 -0.00000000000E+00 -0.24008237937E+04  0.24008237937E+04  0.00000000000E+00 0. -1.
         23    2    1    2    0    0  0.14888667041E+03 -0.28169083255E+03 -0.10721088625E+04  0.11221882025E+04  0.91498541956E+02 0.  0.
        254    2    1    2    0    0 -0.14888667041E+03  0.28169083255E+03 -0.11220493436E+04  0.14853011787E+04  0.91956940802E+03 0.  0.
        -24    2    4    4    0    0 -0.38628682889E+03  0.79037909930E+01 -0.11257919886E+03  0.40983715793E+03  0.77539898895E+02 0.  0.
         24    2    4    4    0    0  0.23740015847E+03  0.27378704156E+03 -0.10094701448E+04  0.10754640208E+04  0.79213051020E+02 0.  0.
         11    1    3    3    0    0  0.17716716014E+02  0.18805214955E+01 -0.83626305242E+02  0.85503083663E+02  0.00000000000E+00 0. -1.
        -11    1    3    3    0    0  0.13116995440E+03 -0.28357135405E+03 -0.98848255722E+03  0.10366851189E+04  0.00000000000E+00 0.  1.
          2    1    6    6  502    0  0.62107969505E+02  0.35160020811E+02 -0.14340340868E+03  0.16018166112E+03  0.00000000000E+00 0. -1.
          1    1    5    5  503    0 -0.33263296043E+03  0.73992086484E+01 -0.12383425759E+03  0.35501318004E+03  0.00000000000E+00 0. -1.
         -2    1    5    5    0  503 -0.53653868459E+02  0.50458234457E+00  0.11255058736E+02  0.54823977885E+02  0.00000000000E+00 0.  1.
         -1    1    6    6    0  502  0.17529218897E+03  0.23862702075E+03 -0.86606673608E+03  0.91528235965E+03  0.00000000000E+00 0.  1.
<mgrwt>
<rscale>  0 0.14087834E+04</rscale>
<asrwt>0</asrwt>
<pdfrwt beam="1">  1        1 0.36935750E+00 0.14087834E+04</pdfrwt>
<pdfrwt beam="2">  1       -1 0.31794707E-01 0.14087834E+04</pdfrwt>
<totfact> 0.14277654E+01</totfact>
</mgrwt>
</event>
<event>
12    1  0.2048318E-007  0.2417237E+04  0.7818608E-02  0.8433078E-01
         -1   -1    0    0    0  501 -0.00000000000E+00  0.00000000000E+00  0.85017277735E+03  0.85017277735E+03  0.00000000000E+00 0.  1.
          1   -1    0    0  501    0  0.00000000000E+00 -0.00000000000E+00 -0.17181903193E+04  0.17181903193E+04  0.00000000000E+00 0. -1.
         23    2    1    2    0    0 -0.70103376754E+03 -0.66931693614E+02  0.43615250134E+03  0.83319852053E+03  0.89791844539E+02 0.  0.
        254    2    1    2    0    0  0.70103376754E+03  0.66931693614E+02 -0.13041700432E+04  0.17351645761E+04  0.90222414595E+03 0.  0.
        -24    2    4    4    0    0  0.23158805204E+03 -0.23520222189E+03 -0.10728652111E+04  0.11254444252E+04  0.81438823235E+02 0.  0.
         24    2    4    4    0    0  0.46944571550E+03  0.30213391551E+03 -0.23130483214E+03  0.60972015091E+03  0.81194546310E+02 0.  0.
         11    1    3    3    0    0 -0.12378750335E+03 -0.40833768372E+02  0.10357314401E+03  0.16648765356E+03  0.00000000000E+00 0. -1.
        -11    1    3    3    0    0 -0.57724626419E+03 -0.26097925242E+02  0.33257935733E+03  0.66671086698E+03  0.00000000000E+00 0.  1.
          2    1    6    6  502    0  0.26703845635E+03  0.18835397666E+03 -0.94290200323E+02  0.34011380385E+03  0.00000000000E+00 0. -1.
          1    1    5    5  503    0  0.23328657232E+03 -0.21261351929E+03 -0.96800716735E+03  0.10181674761E+04  0.00000000000E+00 0. -1.
         -2    1    5    5    0  503 -0.16985202797E+01 -0.22588702604E+02 -0.10485804375E+03  0.10727694904E+03  0.00000000000E+00 0.  1.
         -1    1    6    6    0  502  0.20240725915E+03  0.11377993885E+03 -0.13701463182E+03  0.26960634706E+03  0.00000000000E+00 0.  1.
<mgrwt>
<rscale>  0 0.24172370E+04</rscale>
<asrwt>0</asrwt>
<pdfrwt beam="1">  1        1 0.26433697E+00 0.24172370E+04</pdfrwt>
<pdfrwt beam="2">  1       -1 0.13079581E+00 0.24172370E+04</pdfrwt>
<totfact> 0.20694436E+00</totfact>
</mgrwt>
</event>
<event>
12    1  0.2048318E-007  0.1100875E+04  0.7818608E-02  0.9204340E-01
         -2   -1    0    0    0  501 -0.00000000000E+00  0.00000000000E+00  0.13160341670E+03  0.13160341670E+03  0.00000000000E+00 0.  1.
          2   -1    0    0  501    0  0.00000000000E+00 -0.00000000000E+00 -0.23022294098E+04  0.23022294098E+04  0.00000000000E+00 0. -1.
         23    2    1    2    0    0 -0.61942451652E+02  0.71654580908E+02 -0.80749278668E+02  0.15642671218E+03  0.94750324524E+02 0.  0.
        254    2    1    2    0    0  0.61942451652E+02 -0.71654580908E+02 -0.20898767144E+04  0.22774061143E+04  0.90001260088E+03 0.  0.
        -24    2    4    4    0    0 -0.46753847511E+01 -0.18092411597E+03 -0.16785464252E+02  0.19878056919E+03  0.80477126668E+02 0.  0.
         24    2    4    4    0    0  0.66617836403E+02  0.10926953506E+03 -0.20730912502E+04  0.20786255451E+04  0.81234585406E+02 0.  0.
         11    1    3    3    0    0 -0.31702033734E+02  0.59379410312E+02 -0.98478575114E+02  0.11928521731E+03  0.00000000000E+00 0. -1.
        -11    1    3    3    0    0 -0.30240417918E+02  0.12275170597E+02  0.17729296447E+02  0.37141494875E+02  0.00000000000E+00 0.  1.
          2    1    6    6  502    0  0.25515931846E+02  0.58720657271E+02 -0.15737834417E+04  0.15750852357E+04  0.00000000000E+00 0. -1.
          3    1    5    5  503    0 -0.11204841836E+02 -0.11797734339E+03  0.27353062573E+02  0.12162397817E+03  0.00000000000E+00 0. -1.
         -4    1    5    5    0  503  0.65294570853E+01 -0.62946772582E+02 -0.44138526825E+02  0.77156591025E+02  0.00000000000E+00 0.  1.
         -1    1    6    6    0  502  0.41101904557E+02  0.50548877791E+02 -0.49930780847E+03  0.50354030941E+03  0.00000000000E+00 0.  1.
<mgrwt>
<rscale>  0 0.11008747E+04</rscale>
<asrwt>0</asrwt>
<pdfrwt beam="1">  1        2 0.35418911E+00 0.11008747E+04</pdfrwt>
<pdfrwt beam="2">  1       -2 0.20246681E-01 0.11008747E+04</pdfrwt>
<totfact> 0.94420969E+01</totfact>
</mgrwt>
</event>
<event>
12    1  0.2048318E-007  0.1140417E+04  0.7818608E-02  0.9166670E-01
          2   -1    0    0  501    0  0.00000000000E+00  0.00000000000E+00  0.16513873083E+04  0.16513873083E+04  0.00000000000E+00 0. -1.
         -2   -1    0    0    0  501 -0.00000000000E+00 -0.00000000000E+00 -0.19688755692E+03  0.19688755692E+03  0.00000000000E+00 0.  1.
         23    2    1    2    0    0 -0.28356426477E+02 -0.20233870601E+03  0.25228112512E+03  0.33714466657E+03  0.90970991175E+02 0.  0.
        254    2    1    2    0    0  0.28356426477E+02  0.20233870601E+03  0.12022186263E+04  0.15111301987E+04  0.89243476686E+03 0.  0.
        -24    2    4    4    0    0 -0.33809110801E+03  0.25950684016E+02  0.14757928706E+03  0.37795863603E+03  0.78064391778E+02 0.  0.
         24    2    4    4    0    0  0.36644753449E+03  0.17638802199E+03  0.10546393392E+04  0.11331715626E+04  0.80106957968E+02 0.  0.
         13    1    3    3    0    0 -0.19385623388E+02 -0.16612590679E+03  0.13770559533E+03  0.21664821782E+03  0.00000000000E+00 0.  1.
        -13    1    3    3    0    0 -0.89708030889E+01 -0.36212799219E+02  0.11457552978E+03  0.12049644875E+03  0.00000000000E+00 0. -1.
          4    1    6    6  502    0  0.13693773280E+03  0.32685781015E+02  0.42699900951E+03  0.44960922707E+03  0.00000000000E+00 0. -1.
          3    1    5    5  503    0 -0.14802272078E+03  0.40617322590E+02  0.38205707864E+02  0.15817764974E+03  0.00000000000E+00 0. -1.
         -4    1    5    5    0  503 -0.19006838723E+03 -0.14666638574E+02  0.10937357920E+03  0.21978098629E+03  0.00000000000E+00 0.  1.
         -3    1    6    6    0  502  0.22950980168E+03  0.14370224097E+03  0.62764032972E+03  0.68356233558E+03  0.00000000000E+00 0.  1.
<mgrwt>
<rscale>  0 0.11404168E+04</rscale>
<asrwt>0</asrwt>
<pdfrwt beam="1">  1        2 0.25405958E+00 0.11404168E+04</pdfrwt>
<pdfrwt beam="2">  1       -2 0.30290394E-01 0.11404168E+04</pdfrwt>
<totfact> 0.10409408E+02</totfact>
</mgrwt>
</event>
<event>
12    1  0.2048318E-007  0.2968646E+04  0.7818608E-02  0.8252741E-01
          2   -1    0    0  501    0  0.00000000000E+00  0.00000000000E+00  0.16045235631E+04  0.16045235631E+04  0.00000000000E+00 0. -1.
         -2   -1    0    0    0  501 -0.00000000000E+00 -0.00000000000E+00 -0.13731275059E+04  0.13731275059E+04  0.00000000000E+00 0.  1.
         23    2    1    2    0    0 -0.82117094686E+02 -0.12856978446E+04 -0.28797557559E+03  0.13233382488E+04  0.92368954382E+02 0.  0.
        254    2    1    2    0    0  0.82117094686E+02  0.12856978446E+04  0.51937163280E+03  0.16543128201E+04  0.89846638713E+03 0.  0.
        -24    2    4    4    0    0  0.46086677661E+03  0.71757977647E+03  0.13766254632E+03  0.86759775863E+03  0.80349068104E+02 0.  0.
         24    2    4    4    0    0 -0.37874968193E+03  0.56811806817E+03  0.38170908648E+03  0.78671506145E+03  0.83721563953E+02 0.  0.
         11    1    3    3    0    0 -0.51251829103E+02 -0.96498355342E+03 -0.25523894610E+03  0.99948333051E+03  0.00000000000E+00 0. -1.
        -11    1    3    3    0    0 -0.30865265583E+02 -0.32071429121E+03 -0.32736629491E+02  0.32385491832E+03  0.00000000000E+00 0.  1.
          4    1    6    6  502    0 -0.30816024261E+03  0.42945053071E+03  0.32816386943E+03  0.62215915862E+03  0.00000000000E+00 0. -1.
          1    1    5    5  503    0  0.28489658247E+03  0.51261424983E+03  0.95056508166E+02  0.59411713624E+03  0.00000000000E+00 0. -1.
         -2    1    5    5    0  503  0.17597019414E+03  0.20496552664E+03  0.42606038153E+02  0.27348062239E+03  0.00000000000E+00 0.  1.
         -3    1    6    6    0  502 -0.70589439320E+02  0.13866753746E+03  0.53545217050E+02  0.16455590283E+03  0.00000000000E+00 0.  1.
<mgrwt>
<rscale>  0 0.29686465E+04</rscale>
<asrwt>0</asrwt>
<pdfrwt beam="1">  1        2 0.24684978E+00 0.29686465E+04</pdfrwt>
<pdfrwt beam="2">  1       -2 0.21125038E+00 0.29686465E+04</pdfrwt>
<totfact> 0.10696625E+00</totfact>
</mgrwt>
</event>
<event>
12    1  0.2048318E-007  0.2166239E+04  0.7818608E-02  0.8532613E-01
          2   -1    0    0  501    0  0.00000000000E+00  0.00000000000E+00  0.99233675619E+03  0.99233675619E+03  0.00000000000E+00 0. -1.
         -2   -1    0    0    0  501 -0.00000000000E+00 -0.00000000000E+00 -0.11822072911E+04  0.11822072911E+04  0.00000000000E+00 0.  1.
         23    2    1    2    0    0  0.34959244175E+03 -0.27987162596E+03 -0.85511091267E+03  0.96961052557E+03  0.91579997698E+02 0.  0.
        254    2    1    2    0    0 -0.34959244175E+03  0.27987162596E+03  0.66524037780E+03  0.12049335217E+04  0.89932031505E+03 0.  0.
        -24    2    4    4    0    0  0.39972743196E+02 -0.29363395348E+03  0.21109297622E+03  0.37223716991E+03  0.78622816164E+02 0.  0.
         24    2    4    4    0    0 -0.38956518494E+03  0.57350557944E+03  0.45414740158E+03  0.83269635176E+03  0.80396945833E+02 0.  0.
         13    1    3    3    0    0  0.26725108357E+03 -0.20497990242E+03 -0.55119201067E+03  0.64595087637E+03  0.00000000000E+00 0. -1.
        -13    1    3    3    0    0  0.82341358181E+02 -0.74891723543E+02 -0.30391890200E+03  0.32365964920E+03  0.00000000000E+00 0.  1.
          4    1    6    6  502    0 -0.83121570910E+02  0.82470952855E+02  0.53410283064E+02  0.12869853128E+03  0.00000000000E+00 0. -1.
          3    1    5    5  503    0  0.22391474536E+02 -0.29600131415E+02  0.50598085660E+02  0.62751192691E+02  0.00000000000E+00 0. -1.
         -4    1    5    5    0  503  0.17581268660E+02 -0.26403382207E+03  0.16049489056E+03  0.30948597722E+03  0.00000000000E+00 0.  1.
         -3    1    6    6    0  502 -0.30644361403E+03  0.49103462659E+03  0.40073711852E+03  0.70399782049E+03  0.00000000000E+00 0.  1.
<mgrwt>
<rscale>  0 0.21662389E+04</rscale>
<asrwt>0</asrwt>
<pdfrwt beam="1">  1        2 0.15266719E+00 0.21662389E+04</pdfrwt>
<pdfrwt beam="2">  1       -2 0.18187804E+00 0.21662389E+04</pdfrwt>
<totfact> 0.41089252E+00</totfact>
</mgrwt>
</event>
<event>
12    1  0.2048318E-007  0.3417914E+04  0.7818608E-02  0.8133524E-01
          1   -1    0    0  501    0  0.00000000000E+00  0.00000000000E+00  0.17119046912E+04  0.17119046912E+04  0.00000000000E+00 0. -1.
         -1   -1    0    0    0  501 -0.00000000000E+00 -0.00000000000E+00 -0.17060145315E+04  0.17060145315E+04  0.00000000000E+00 0.  1.
         23    2    1    2    0    0 -0.83031810219E+03  0.10449106068E+04  0.86140108543E+03  0.15913806829E+04  0.95991254121E+02 0.  0.
        254    2    1    2    0    0  0.83031810219E+03 -0.10449106068E+04 -0.85551092569E+03  0.18265385399E+04  0.90723633456E+03 0.  0.
        -24    2    4    4    0    0  0.75065596677E+03 -0.33603493807E+03 -0.19013835714E+03  0.84784266750E+03  0.79251081629E+02 0.  0.
         24    2    4    4    0    0  0.79662135428E+02 -0.70887566869E+03 -0.66537256855E+03  0.97869587238E+03  0.79209760440E+02 0.  0.
         11    1    3    3    0    0 -0.60042874621E+03  0.74794121048E+03  0.66911464991E+03  0.11694636157E+04  0.00000000000E+00 0. -1.
        -11    1    3    3    0    0 -0.22988935598E+03  0.29696939627E+03  0.19228643552E+03  0.42191706721E+03  0.00000000000E+00 0.  1.
          4    1    6    6  502    0  0.50342620755E+02 -0.59403575614E+03 -0.51960705718E+03  0.79082510893E+03  0.00000000000E+00 0. -1.
          1    1    5    5  503    0  0.65296637270E+03 -0.30210303716E+03 -0.19113931605E+03  0.74442297592E+03  0.00000000000E+00 0. -1.
         -2    1    5    5    0  503  0.97689594069E+02 -0.33931900906E+02  0.10009589147E+01  0.10341969158E+03  0.00000000000E+00 0.  1.
         -3    1    6    6    0  502  0.29319514673E+02 -0.11483991255E+03 -0.14576551137E+03  0.18787076345E+03  0.00000000000E+00 0.  1.
<mgrwt>
<rscale>  0 0.34179141E+04</rscale>
<asrwt>0</asrwt>
<pdfrwt beam="1">  1        1 0.26336995E+00 0.34179141E+04</pdfrwt>
<pdfrwt beam="2">  1       -1 0.26246378E+00 0.34179141E+04</pdfrwt>
<totfact> 0.22221422E-01</totfact>
</mgrwt>
</event>
<event>
12    1  0.2048318E-007  0.2109913E+04  0.7818608E-02  0.8556889E-01
         -2   -1    0    0    0  501 -0.00000000000E+00  0.00000000000E+00  0.44638415785E+03  0.44638415785E+03  0.00000000000E+00 0.  1.
          2   -1    0    0  501    0  0.00000000000E+00 -0.00000000000E+00 -0.24932178951E+04  0.24932178951E+04  0.00000000000E+00 0. -1.
         23    2    1    2    0    0  0.59368645451E+03 -0.32787238055E+03 -0.15742395327E+04  0.17166492922E+04  0.93224363483E+02 0.  0.
        254    2    1    2    0    0 -0.59368645451E+03  0.32787238055E+03 -0.47259420450E+03  0.12229527607E+04  0.90127924004E+03 0.  0.
        -24    2    4    4    0    0  0.74280173947E+02 -0.13896481771E+03  0.11740506634E+03  0.21327929828E+03  0.82917698177E+02 0.  0.
         24    2    4    4    0    0 -0.66796662846E+03  0.46683719826E+03 -0.58999927085E+03  0.10096734624E+04  0.84999850922E+02 0.  0.
         11    1    3    3    0    0  0.20658658081E+03 -0.64887937520E+02 -0.48711007684E+03  0.53307099599E+03  0.00000000000E+00 0.  1.
        -11    1    3    3    0    0  0.38709987370E+03 -0.26298444303E+03 -0.10871294559E+04  0.11835782962E+04  0.00000000000E+00 0. -1.
          2    1    6    6  502    0 -0.64515473655E+03  0.42800881344E+03 -0.55388973346E+03  0.95195063701E+03  0.00000000000E+00 0. -1.
          3    1    5    5  503    0  0.70278735491E+02 -0.14995068675E+03  0.11418197192E+03  0.20115126605E+03  0.00000000000E+00 0. -1.
         -4    1    5    5    0  503  0.40014384564E+01  0.10985869042E+02  0.32230944183E+01  0.12128032238E+02  0.00000000000E+00 0.  1.
         -1    1    6    6    0  502 -0.22811891908E+02  0.38828384820E+02 -0.36109537388E+02  0.57722825386E+02  0.00000000000E+00 0.  1.
<mgrwt>
<rscale>  0 0.21099128E+04</rscale>
<asrwt>0</asrwt>
<pdfrwt beam="1">  1        2 0.38357198E+00 0.21099128E+04</pdfrwt>
<pdfrwt beam="2">  1       -2 0.68674486E-01 0.21099128E+04</pdfrwt>
<totfact> 0.62706907E+00</totfact>
</mgrwt>
</event>
<event>
12    1  0.2048318E-007  0.3312850E+04  0.7818608E-02  0.8159633E-01
         -1   -1    0    0    0  501 -0.00000000000E+00  0.00000000000E+00  0.97813397984E+03  0.97813397984E+03  0.00000000000E+00 0.  1.
          1   -1    0    0  501    0  0.00000000000E+00 -0.00000000000E+00 -0.28050789939E+04  0.28050789939E+04  0.00000000000E+00 0. -1.
         23    2    1    2    0    0  0.11510094266E+04  0.15923526377E+03  0.29248283187E+03  0.12016413420E+04  0.90648433938E+02 0.  0.
        254    2    1    2    0    0 -0.11510094266E+04 -0.15923526377E+03 -0.21194278459E+04  0.25815716317E+04  0.90684018776E+03 0.  0.
        -24    2    4    4    0    0  0.34555202774E+02 -0.11610934223E+03 -0.76754314362E+03  0.78114607666E+03  0.79945446150E+02 0.  0.
         24    2    4    4    0    0 -0.11855646294E+04 -0.43125921535E+02 -0.13518847023E+04  0.18004255551E+04  0.80725432034E+02 0.  0.
         13    1    3    3    0    0  0.56536908949E+03  0.11686778824E+03  0.17001127903E+03  0.60183396570E+03  0.00000000000E+00 0.  1.
        -13    1    3    3    0    0  0.58564033713E+03  0.42367475534E+02  0.12247155284E+03  0.59980737634E+03  0.00000000000E+00 0. -1.
          2    1    6    6  502    0 -0.46336649787E+03  0.20371501477E+02 -0.50799497536E+03  0.68788255132E+03  0.00000000000E+00 0. -1.
          1    1    5    5  503    0  0.28357323372E+02 -0.12714953631E+03 -0.72979703240E+03  0.74133315781E+03  0.00000000000E+00 0. -1.
         -2    1    5    5    0  503  0.61978794016E+01  0.11040194078E+02 -0.37746111226E+02  0.39812918846E+02  0.00000000000E+00 0.  1.
         -1    1    6    6    0  502 -0.72219813152E+03 -0.63497423012E+02 -0.84388972696E+03  0.11125430037E+04  0.00000000000E+00 0.  1.
<mgrwt>
<rscale>  0 0.33128496E+04</rscale>
<asrwt>0</asrwt>
<pdfrwt beam="1">  1        1 0.43155062E+00 0.33128496E+04</pdfrwt>
<pdfrwt beam="2">  1       -1 0.15048215E+00 0.33128496E+04</pdfrwt>
<totfact> 0.23676290E-01</totfact>
</mgrwt>
</event>
<event>
12    1  0.2048318E-007  0.1839880E+04  0.7818608E-02  0.8685375E-01
         -1   -1    0    0    0  501 -0.00000000000E+00  0.00000000000E+00  0.36918366537E+03  0.36918366537E+03  0.00000000000E+00 0.  1.
          1   -1    0    0  501    0  0.00000000000E+00 -0.00000000000E+00 -0.22923272143E+04  0.22923272143E+04  0.00000000000E+00 0. -1.
         23    2    1    2    0    0 -0.20262892910E+03  0.29408065930E+03 -0.15966925028E+04  0.16387117101E+04  0.91690802788E+02 0.  0.
        254    2    1    2    0    0  0.20262892910E+03 -0.29408065930E+03 -0.32645104618E+03  0.10227991696E+04  0.90111372128E+03 0.  0.
        -24    2    4    4    0    0  0.33010886228E+03 -0.50237086765E+03  0.80148077355E+00  0.60653177107E+03  0.80819535583E+02 0.  0.
         24    2    4    4    0    0 -0.12747993318E+03  0.20829020834E+03 -0.32725252695E+03  0.41626739852E+03  0.80922100936E+02 0.  0.
         11    1    3    3    0    0 -0.76719993623E+02  0.11736627011E+03 -0.43861380052E+03  0.46048112316E+03  0.00000000000E+00 0.  1.
        -11    1    3    3    0    0 -0.12590893547E+03  0.17671438919E+03 -0.11580787023E+04  0.11782305869E+04  0.00000000000E+00 0. -1.
          2    1    6    6  502    0 -0.10892669539E+03  0.10203768012E+03 -0.18294568245E+03  0.23610556084E+03  0.00000000000E+00 0. -1.
          3    1    5    5  503    0  0.17073445760E+03 -0.33127736958E+03 -0.20294546047E+01  0.37269165445E+03  0.00000000000E+00 0. -1.
         -4    1    5    5    0  503  0.15937440468E+03 -0.17109349806E+03  0.28309353783E+01  0.23384011662E+03  0.00000000000E+00 0.  1.
         -1    1    6    6    0  502 -0.18553237791E+02  0.10625252822E+03 -0.14430684450E+03  0.18016183768E+03  0.00000000000E+00 0.  1.
<mgrwt>
<rscale>  0 0.18398802E+04</rscale>
<asrwt>0</asrwt>
<pdfrwt beam="1">  1        1 0.35266572E+00 0.18398802E+04</pdfrwt>
<pdfrwt beam="2">  1       -1 0.56797487E-01 0.18398802E+04</pdfrwt>
<totfact> 0.55616728E+00</totfact>
</mgrwt>
</event>
<event>
12    1  0.2048318E-007  0.2462066E+04  0.7818608E-02  0.8416626E-01
         -1   -1    0    0    0  501 -0.00000000000E+00  0.00000000000E+00  0.12338550498E+04  0.12338550498E+04  0.00000000000E+00 0.  1.
          1   -1    0    0  501    0  0.00000000000E+00 -0.00000000000E+00 -0.12282172863E+04  0.12282172863E+04  0.00000000000E+00 0. -1.
         23    2    1    2    0    0 -0.11943625440E+03  0.10439999058E+04  0.17037576560E+03  0.10681216931E+04  0.87494157320E+02 0.  0.
        254    2    1    2    0    0  0.11943625440E+03 -0.10439999058E+04 -0.16473800207E+03  0.13939506430E+04  0.90097667210E+03 0.  0.
        -24    2    4    4    0    0 -0.26693940407E+03 -0.12629269515E+03  0.15808427785E+03  0.34433366066E+03  0.79803136948E+02 0.  0.
         24    2    4    4    0    0  0.38637565847E+03 -0.91770721066E+03 -0.32282227992E+03  0.10496169824E+04  0.77517167715E+02 0.  0.
         13    1    3    3    0    0 -0.58921587384E+02  0.21072892734E+03  0.43132002530E+02  0.22302198080E+03  0.00000000000E+00 0.  1.
        -13    1    3    3    0    0 -0.60514667013E+02  0.83327097848E+03  0.12724376307E+03  0.84509971230E+03  0.00000000000E+00 0. -1.
          2    1    6    6  502    0  0.29139176258E+03 -0.72279388685E+03 -0.22084447471E+03  0.81000768156E+03  0.00000000000E+00 0. -1.
          1    1    5    5  503    0 -0.23182593308E+03 -0.80175928240E+02  0.14486885137E+03  0.28488318100E+03  0.00000000000E+00 0. -1.
         -2    1    5    5    0  503 -0.35113470993E+02 -0.46116766911E+02  0.13215426482E+02  0.59450479667E+02  0.00000000000E+00 0.  1.
         -1    1    6    6    0  502  0.94983895891E+02 -0.19491332381E+03 -0.10197780521E+03  0.23960930080E+03  0.00000000000E+00 0.  1.
<mgrwt>
<rscale>  0 0.24620659E+04</rscale>
<asrwt>0</asrwt>
<pdfrwt beam="1">  1        1 0.18895650E+00 0.24620659E+04</pdfrwt>
<pdfrwt beam="2">  1       -1 0.18982386E+00 0.24620659E+04</pdfrwt>
<totfact> 0.16096727E+00</totfact>
</mgrwt>
</event>
<event>
12    1  0.2048318E-007  0.3591963E+04  0.7818608E-02  0.8092335E-01
         -1   -1    0    0    0  501 -0.00000000000E+00  0.00000000000E+00  0.11863127261E+04  0.11863127261E+04  0.00000000000E+00 0.  1.
          1   -1    0    0  501    0  0.00000000000E+00 -0.00000000000E+00 -0.27189700354E+04  0.27189700354E+04  0.00000000000E+00 0. -1.
         23    2    1    2    0    0  0.12183715102E+04  0.10838362457E+04 -0.11705318814E+04  0.20093906958E+04  0.91520153936E+02 0.  0.
        254    2    1    2    0    0 -0.12183715102E+04 -0.10838362457E+04 -0.36212542787E+03  0.18958920657E+04  0.89673951350E+03 0.  0.
        -24    2    4    4    0    0 -0.50297726358E+03 -0.37168891470E+03 -0.58347756018E+03  0.85922830214E+03  0.81782852513E+02 0.  0.
         24    2    4    4    0    0 -0.71539424660E+03 -0.71214733100E+03  0.22135213231E+03  0.10366637636E+04  0.82050247697E+02 0.  0.
         13    1    3    3    0    0  0.56646945092E+03  0.49518768366E+03 -0.48464899339E+03  0.89497660733E+03  0.00000000000E+00 0.  1.
        -13    1    3    3    0    0  0.65190205926E+03  0.58864856204E+03 -0.68588288798E+03  0.11144140884E+04  0.00000000000E+00 0. -1.
          4    1    6    6  502    0 -0.67045422032E+03 -0.64511387592E+03  0.18737689908E+03  0.94910003516E+03  0.00000000000E+00 0. -1.
          3    1    5    5  503    0 -0.30029727876E+03 -0.17805349955E+03 -0.35100550376E+03  0.49506198400E+03  0.00000000000E+00 0. -1.
         -4    1    5    5    0  503 -0.20267998482E+03 -0.19363541515E+03 -0.23247205642E+03  0.36416631814E+03  0.00000000000E+00 0.  1.
         -3    1    6    6    0  502 -0.44940026280E+02 -0.67033455085E+02  0.33975233234E+02  0.87563728427E+02  0.00000000000E+00 0.  1.
<mgrwt>
<rscale>  0 0.35919626E+04</rscale>
<asrwt>0</asrwt>
<pdfrwt beam="1">  1        1 0.41830308E+00 0.35919626E+04</pdfrwt>
<pdfrwt beam="2">  1       -1 0.18250965E+00 0.35919626E+04</pdfrwt>
<totfact> 0.15376184E-01</totfact>
</mgrwt>
</event>
<event>
12    1  0.2048318E-007  0.4785715E+04  0.7818608E-02  0.7862440E-01
          2   -1    0    0  501    0  0.00000000000E+00  0.00000000000E+00  0.18644469422E+04  0.18644469422E+04  0.00000000000E+00 0. -1.
         -2   -1    0    0    0  501 -0.00000000000E+00 -0.00000000000E+00 -0.30710272363E+04  0.30710272363E+04  0.00000000000E+00 0.  1.
         23    2    1    2    0    0 -0.16729132468E+04 -0.12826371410E+03 -0.22143069136E+04  0.27796210854E+04  0.89710418395E+02 0.  0.
        254    2    1    2    0    0  0.16729132468E+04  0.12826371410E+03  0.10077266195E+04  0.21558530932E+04  0.90393545575E+03 0.  0.
        -24    2    4    4    0    0  0.18994959601E+03 -0.29034908641E+03  0.11651587057E+03  0.37399268404E+03  0.76883929517E+02 0.  0.
         24    2    4    4    0    0  0.14829636508E+04  0.41861280051E+03  0.89121074891E+03  0.17818604091E+04  0.79699764350E+02 0.  0.
         13    1    3    3    0    0 -0.22732422121E+03 -0.48423589606E+02 -0.30814452348E+03  0.38597175147E+03  0.00000000000E+00 0. -1.
        -13    1    3    3    0    0 -0.14455890256E+04 -0.79840124497E+02 -0.19061623901E+04  0.23936493339E+04  0.00000000000E+00 0.  1.
          4    1    6    6  502    0  0.12305223685E+04  0.34715058490E+03  0.77331512399E+03  0.14942272615E+04  0.00000000000E+00 0. -1.
          3    1    5    5  503    0  0.18501740219E+03 -0.23564879814E+03  0.88873218549E+02  0.31250639058E+03  0.00000000000E+00 0. -1.
         -4    1    5    5    0  503  0.49321938174E+01 -0.54700288269E+02  0.27642652021E+02  0.61486293459E+02  0.00000000000E+00 0.  1.
         -3    1    6    6    0  502  0.25244128231E+03  0.71462215612E+02  0.11789562492E+03  0.28763314769E+03  0.00000000000E+00 0.  1.
<mgrwt>
<rscale>  0 0.47857151E+04</rscale>
<asrwt>0</asrwt>
<pdfrwt beam="1">  1        2 0.28683799E+00 0.47857151E+04</pdfrwt>
<pdfrwt beam="2">  1       -2 0.47246573E+00 0.47857151E+04</pdfrwt>
<totfact> 0.14590876E-02</totfact>
</mgrwt>
</event>
<event>
12    1  0.2048318E-007  0.1398396E+04  0.7818608E-02  0.8954980E-01
          1   -1    0    0  501    0  0.00000000000E+00  0.00000000000E+00  0.10641130240E+04  0.10641130240E+04  0.00000000000E+00 0. -1.
         -1   -1    0    0    0  501 -0.00000000000E+00 -0.00000000000E+00 -0.45942282430E+03  0.45942282430E+03  0.00000000000E+00 0.  1.
         23    2    1    2    0    0 -0.22658794174E+03  0.28088296104E+03 -0.16605714781E+02  0.37165998262E+03  0.87281497288E+02 0.  0.
        254    2    1    2    0    0  0.22658794174E+03 -0.28088296104E+03  0.62129591444E+03  0.11518758656E+04  0.90031775691E+03 0.  0.
        -24    2    4    4    0    0 -0.26352009528E+02  0.22344304044E+03 -0.76728418303E+02  0.25065312119E+03  0.79489095226E+02 0.  0.
         24    2    4    4    0    0  0.25293995127E+03 -0.50432600148E+03  0.69802433275E+03  0.90122274445E+03  0.81493136491E+02 0.  0.
         13    1    3    3    0    0 -0.28281010772E+02  0.56119588680E+02  0.27674623054E+02  0.68666648128E+02  0.00000000000E+00 0. -1.
        -13    1    3    3    0    0 -0.19830693097E+03  0.22476337236E+03 -0.44280337835E+02  0.30299333449E+03  0.00000000000E+00 0.  1.
          4    1    6    6  502    0  0.11381737968E+03 -0.26538625515E+03  0.41481508545E+03  0.50542636997E+03  0.00000000000E+00 0. -1.
          3    1    5    5  503    0  0.18496585521E+02  0.14482212361E+03 -0.63375002255E+02  0.15916017741E+03  0.00000000000E+00 0. -1.
         -4    1    5    5    0  503 -0.44848595050E+02  0.78620916832E+02 -0.13353416048E+02  0.91492943780E+02  0.00000000000E+00 0.  1.
         -3    1    6    6    0  502  0.13912257160E+03 -0.23893974633E+03  0.28320924730E+03  0.39579637449E+03  0.00000000000E+00 0.  1.
<mgrwt>
<rscale>  0 0.13983960E+04</rscale>
<asrwt>0</asrwt>
<pdfrwt beam="1">  1        1 0.16370970E+00 0.13983960E+04</pdfrwt>
<pdfrwt beam="2">  1       -1 0.70680435E-01 0.13983960E+04</pdfrwt>
<totfact> 0.26628353E+01</totfact>
</mgrwt>
</event>
<event>
12    1  0.2048318E-007  0.1427606E+04  0.7818608E-02  0.8934075E-01
         -2   -1    0    0    0  501 -0.00000000000E+00  0.00000000000E+00  0.58643951486E+03  0.58643951486E+03  0.00000000000E+00 0.  1.
          2   -1    0    0  501    0  0.00000000000E+00 -0.00000000000E+00 -0.86882728717E+03  0.86882728717E+03  0.00000000000E+00 0. -1.
         23    2    1    2    0    0 -0.34191395861E+01 -0.29476642371E+03 -0.39733140087E+03  0.50326721784E+03  0.92231856599E+02 0.  0.
        254    2    1    2    0    0  0.34191395861E+01  0.29476642371E+03  0.11494362856E+03  0.95199958419E+03  0.89788208329E+03 0.  0.
        -24    2    4    4    0    0 -0.17453740442E+03 -0.60419920299E+02  0.40606559362E+03  0.45303044830E+03  0.78952190919E+02 0.  0.
         24    2    4    4    0    0  0.17795654400E+03  0.35518634401E+03 -0.29112196506E+03  0.49896913589E+03  0.79952045044E+02 0.  0.
         13    1    3    3    0    0 -0.31570732500E+02 -0.40177952752E+02 -0.48117808878E+02  0.70187624046E+02  0.00000000000E+00 0.  1.
        -13    1    3    3    0    0  0.28151592914E+02 -0.25458847096E+03 -0.34921359199E+03  0.43307959379E+03  0.00000000000E+00 0. -1.
          2    1    6    6  502    0  0.92959645567E+02  0.22648789718E+03 -0.21991965979E+03  0.32909408994E+03  0.00000000000E+00 0. -1.
          3    1    5    5  503    0 -0.82503777368E+02 -0.40619150501E+02  0.28623048143E+03  0.30064044499E+03  0.00000000000E+00 0. -1.
         -2    1    5    5    0  503 -0.92033627047E+02 -0.19800769798E+02  0.11983511219E+03  0.15239000330E+03  0.00000000000E+00 0.  1.
         -1    1    6    6    0  502  0.84996898434E+02  0.12869844684E+03 -0.71202305270E+02  0.16987504595E+03  0.00000000000E+00 0.  1.
<mgrwt>
<rscale>  0 0.14276059E+04</rscale>
<asrwt>0</asrwt>
<pdfrwt beam="1">  1        2 0.13366573E+00 0.14276059E+04</pdfrwt>
<pdfrwt beam="2">  1       -2 0.90221465E-01 0.14276059E+04</pdfrwt>
<totfact> 0.31445146E+01</totfact>
</mgrwt>
</event>
<event>
12    1  0.2210955E-007  0.1710318E+04  0.7818608E-02  0.8755501E-01
          2   -1    0    0  501    0  0.00000000000E+00  0.00000000000E+00  0.16241161942E+04  0.16241161942E+04  0.00000000000E+00 0. -1.
         -2   -1    0    0    0  501 -0.00000000000E+00 -0.00000000000E+00 -0.45027391218E+03  0.45027391218E+03  0.00000000000E+00 0.  1.
         23    2    1    2    0    0 -0.38388659574E+03  0.44878857553E+03  0.21872272304E+03  0.63631672207E+03  0.90990314256E+02 0.  0.
        254    2    1    2    0    0  0.38388659574E+03 -0.44878857553E+03  0.95511955899E+03  0.14380733843E+04  0.89834379988E+03 0.  0.
        -24    2    4    4    0    0  0.35256355580E+03 -0.66625769061E+03  0.45037265219E+03  0.88175289029E+03  0.80325976541E+02 0.  0.
         24    2    4    4    0    0  0.31323039944E+02  0.21746911508E+03  0.50474690679E+03  0.55632049403E+03  0.80306309316E+02 0.  0.
         13    1    3    3    0    0 -0.10750215497E+03  0.14676599512E+03  0.25819179174E+02  0.18374874329E+03  0.00000000000E+00 0.  1.
        -13    1    3    3    0    0 -0.27638444078E+03  0.30202258042E+03  0.19290354386E+03  0.45256797878E+03  0.00000000000E+00 0. -1.
          4    1    6    6  502    0 -0.10364917530E+02  0.10403611235E+01  0.89272170345E+01  0.13718931104E+02  0.00000000000E+00 0. -1.
          1    1    5    5  503    0  0.16566400331E+02 -0.72629625294E+01  0.14446981424E+02  0.23149762783E+02  0.00000000000E+00 0. -1.
         -2    1    5    5    0  503  0.33599715547E+03 -0.65899472808E+03  0.43592567077E+03  0.85860312750E+03  0.00000000000E+00 0.  1.
         -3    1    6    6    0  502  0.41687957474E+02  0.21642875395E+03  0.49581968976E+03  0.54260156292E+03  0.00000000000E+00 0.  1.
<mgrwt>
<rscale>  0 0.17103183E+04</rscale>
<asrwt>0</asrwt>
<pdfrwt beam="1">  1        2 0.24986403E+00 0.17103183E+04</pdfrwt>
<pdfrwt beam="2">  1       -2 0.69272910E-01 0.17103183E+04</pdfrwt>
<totfact> 0.19546133E+01</totfact>
</mgrwt>
</event>
<event>
12    1  0.2048318E-007  0.3083808E+04  0.7818608E-02  0.8220196E-01
          2   -1    0    0  501    0  0.00000000000E+00  0.00000000000E+00  0.16706522081E+04  0.16706522081E+04  0.00000000000E+00 0. -1.
         -2   -1    0    0    0  501 -0.00000000000E+00 -0.00000000000E+00 -0.14230778138E+04  0.14230778138E+04  0.00000000000E+00 0.  1.
         23    2    1    2    0    0 -0.96721949526E+03  0.13559772502E+03 -0.90510576168E+03  0.13346674235E+04  0.90666402287E+02 0.  0.
        254    2    1    2    0    0  0.96721949526E+03 -0.13559772502E+03  0.11526801559E+04  0.17590625984E+04  0.90096025895E+03 0.  0.
        -24    2    4    4    0    0  0.63661035754E+03 -0.34305184977E+03  0.11495744301E+04  0.13604251913E+04  0.79233905438E+02 0.  0.
         24    2    4    4    0    0  0.33060913772E+03  0.20745412475E+03  0.31057258517E+01  0.39863740715E+03  0.81009388511E+02 0.  0.
         11    1    3    3    0    0 -0.36834535131E+03  0.96057865164E+01 -0.32126525356E+03  0.48885778311E+03  0.00000000000E+00 0. -1.
        -11    1    3    3    0    0 -0.59887414395E+03  0.12599193850E+03 -0.58384050812E+03  0.84580964039E+03  0.00000000000E+00 0.  1.
          4    1    6    6  502    0  0.29324902523E+02  0.51649732161E+02  0.26020566183E+01  0.59450949857E+02  0.00000000000E+00 0. -1.
          3    1    5    5  503    0  0.14751919579E+03 -0.70896542696E+02  0.20313518371E+03  0.26086804280E+03  0.00000000000E+00 0. -1.
         -4    1    5    5    0  503  0.48909116175E+03 -0.27215530707E+03  0.94643924637E+03  0.10995571485E+04  0.00000000000E+00 0.  1.
         -3    1    6    6    0  502  0.30128423520E+03  0.15580439259E+03  0.50366923344E+00  0.33918645729E+03  0.00000000000E+00 0.  1.
<mgrwt>
<rscale>  0 0.30838081E+04</rscale>
<asrwt>0</asrwt>
<pdfrwt beam="1">  1        2 0.25702341E+00 0.30838081E+04</pdfrwt>
<pdfrwt beam="2">  1       -2 0.21893505E+00 0.30838081E+04</pdfrwt>
<totfact> 0.86912439E-01</totfact>
</mgrwt>
</event>
<event>
12    1  0.2048318E-007  0.2360351E+04  0.7818608E-02  0.8454499E-01
          1   -1    0    0  501    0  0.00000000000E+00  0.00000000000E+00  0.13874252040E+04  0.13874252040E+04  0.00000000000E+00 0. -1.
         -1   -1    0    0    0  501 -0.00000000000E+00 -0.00000000000E+00 -0.10038841232E+04  0.10038841232E+04  0.00000000000E+00 0.  1.
         23    2    1    2    0    0  0.29407014962E+03  0.95348431690E+03  0.29804904120E+03  0.10451988843E+04  0.89430874533E+02 0.  0.
        254    2    1    2    0    0 -0.29407014962E+03 -0.95348431690E+03  0.85492039606E+02  0.13461104430E+04  0.89949699298E+03 0.  0.
        -24    2    4    4    0    0 -0.86997618712E+02 -0.55388288831E+03 -0.38908684340E+03  0.68699636114E+03  0.78870709959E+02 0.  0.
         24    2    4    4    0    0 -0.20707253091E+03 -0.39960142859E+03  0.47457888300E+03  0.65911408183E+03  0.81522523841E+02 0.  0.
         13    1    3    3    0    0  0.75674987244E+02  0.24659821005E+03  0.11852250553E+03  0.28387491121E+03  0.00000000000E+00 0. -1.
        -13    1    3    3    0    0  0.21839516237E+03  0.70688610685E+03  0.17952653567E+03  0.76132397310E+03  0.00000000000E+00 0.  1.
          4    1    6    6  502    0 -0.25883939215E+02 -0.64100085976E+02  0.11966450799E+03  0.13819693848E+03  0.00000000000E+00 0. -1.
          1    1    5    5  503    0 -0.18621237114E+02 -0.33804942775E+03 -0.21084745521E+03  0.39884936435E+03  0.00000000000E+00 0. -1.
         -2    1    5    5    0  503 -0.68376381598E+02 -0.21583346057E+03 -0.17823938819E+03  0.28814699679E+03  0.00000000000E+00 0.  1.
         -3    1    6    6    0  502 -0.18118859169E+03 -0.33550134261E+03  0.35491437501E+03  0.52091714336E+03  0.00000000000E+00 0.  1.
<mgrwt>
<rscale>  0 0.23603509E+04</rscale>
<asrwt>0</asrwt>
<pdfrwt beam="1">  1        1 0.21345003E+00 0.23603509E+04</pdfrwt>
<pdfrwt beam="2">  1       -1 0.15444371E+00 0.23603509E+04</pdfrwt>
<totfact> 0.22724487E+00</totfact>
</mgrwt>
</event>
<event>
12    1  0.2048318E-007  0.2504674E+04  0.7818608E-02  0.8401322E-01
         -2   -1    0    0    0  501 -0.00000000000E+00  0.00000000000E+00  0.11144198069E+04  0.11144198069E+04  0.00000000000E+00 0.  1.
          2   -1    0    0  501    0  0.00000000000E+00 -0.00000000000E+00 -0.14073225947E+04  0.14073225947E+04  0.00000000000E+00 0. -1.
         23    2    1    2    0    0 -0.10390160496E+04  0.30501640822E+03 -0.24488883443E+03  0.11140367052E+04  0.92292354548E+02 0.  0.
        254    2    1    2    0    0  0.10390160496E+04 -0.30501640822E+03 -0.48013953296E+02  0.14077056964E+04  0.89818741211E+03 0.  0.
        -24    2    4    4    0    0  0.72372112917E+03 -0.13411574424E+02 -0.41315855744E+03  0.83706061569E+03  0.77577945468E+02 0.  0.
         24    2    4    4    0    0  0.31529492045E+03 -0.29160483380E+03  0.36514460414E+03  0.57064508069E+03  0.88662056316E+02 0.  0.
         13    1    3    3    0    0 -0.47852190658E+03  0.18808748547E+03 -0.10968923390E+03  0.52572982159E+03  0.00000000000E+00 0.  1.
        -13    1    3    3    0    0 -0.56049414304E+03  0.11692892275E+03 -0.13519960053E+03  0.58830688364E+03  0.00000000000E+00 0. -1.
          4    1    6    6  502    0  0.12292887128E+03 -0.60670558468E+02  0.13143713779E+03  0.18991615321E+03  0.00000000000E+00 0. -1.
          3    1    5    5  503    0  0.21967323437E+03 -0.38028690763E+02 -0.13949870096E+03  0.26298744987E+03  0.00000000000E+00 0. -1.
         -4    1    5    5    0  503  0.50404789479E+03  0.24617116339E+02 -0.27365985647E+03  0.57407316582E+03  0.00000000000E+00 0.  1.
         -3    1    6    6    0  502  0.19236604917E+03 -0.23093427533E+03  0.23370746635E+03  0.38072892748E+03  0.00000000000E+00 0.  1.
<mgrwt>
<rscale>  0 0.25046742E+04</rscale>
<asrwt>0</asrwt>
<pdfrwt beam="1">  1        2 0.21651117E+00 0.25046742E+04</pdfrwt>
<pdfrwt beam="2">  1       -2 0.17144920E+00 0.25046742E+04</pdfrwt>
<totfact> 0.26597832E+00</totfact>
</mgrwt>
</event>
<event>
12    1  0.2048318E-007  0.1411133E+04  0.7818608E-02  0.8945799E-01
          1   -1    0    0  501    0  0.00000000000E+00  0.00000000000E+00  0.91623442774E+03  0.91623442774E+03  0.00000000000E+00 0. -1.
         -1   -1    0    0    0  501 -0.00000000000E+00 -0.00000000000E+00 -0.54333721630E+03  0.54333721630E+03  0.00000000000E+00 0.  1.
         23    2    1    2    0    0  0.15430060021E+03  0.30368710248E+03 -0.13114182305E+03  0.37659910354E+03  0.92704776571E+02 0.  0.
        254    2    1    2    0    0 -0.15430060021E+03 -0.30368710248E+03  0.50403903449E+03  0.10829725405E+04  0.89595738946E+03 0.  0.
        -24    2    4    4    0    0  0.18379181012E+03  0.17918864631E+03 -0.46373869941E+02  0.27250430858E+03  0.78867369339E+02 0.  0.
         24    2    4    4    0    0 -0.33809241033E+03 -0.48287574879E+03  0.55041290443E+03  0.81046823191E+03  0.80180564154E+02 0.  0.
         11    1    3    3    0    0  0.11076792507E+03  0.12805585685E+03 -0.86940955657E+02  0.19033277561E+03  0.00000000000E+00 0.  1.
        -11    1    3    3    0    0  0.43532675135E+02  0.17563124563E+03 -0.44200867393E+02  0.18626632794E+03  0.00000000000E+00 0. -1.
          4    1    6    6  502    0 -0.75902308484E+02 -0.57971669257E+02  0.93998302599E+02  0.13400580495E+03  0.00000000000E+00 0. -1.
          1    1    5    5  503    0  0.70259912916E+02  0.62311002394E+02 -0.55893828943E+02  0.10928511562E+03  0.00000000000E+00 0. -1.
         -2    1    5    5    0  503  0.11353189721E+03  0.11687764392E+03  0.95199590023E+01  0.16321919296E+03  0.00000000000E+00 0.  1.
         -3    1    6    6    0  502 -0.26219010185E+03 -0.42490407954E+03  0.45641460183E+03  0.67646242695E+03  0.00000000000E+00 0.  1.
<mgrwt>
<rscale>  0 0.14111333E+04</rscale>
<asrwt>0</asrwt>
<pdfrwt beam="1">  1        1 0.14095914E+00 0.14111333E+04</pdfrwt>
<pdfrwt beam="2">  1       -1 0.83590341E-01 0.14111333E+04</pdfrwt>
<totfact> 0.24415658E+01</totfact>
</mgrwt>
</event>
<event>
12    1  0.2048318E-007  0.4510496E+04  0.7818608E-02  0.7908802E-01
         -1   -1    0    0    0  501 -0.00000000000E+00  0.00000000000E+00  0.18124230344E+04  0.18124230344E+04  0.00000000000E+00 0.  1.
          1   -1    0    0  501    0  0.00000000000E+00 -0.00000000000E+00 -0.28062678018E+04  0.28062678018E+04  0.00000000000E+00 0. -1.
         23    2    1    2    0    0 -0.16937679369E+04  0.10285532658E+04  0.41397471458E+03  0.20264389614E+04  0.91149082593E+02 0.  0.
        254    2    1    2    0    0  0.16937679369E+04 -0.10285532658E+04 -0.14078194819E+04  0.25922518748E+04  0.90057894920E+03 0.  0.
        -24    2    4    4    0    0  0.14601068555E+04 -0.11041490467E+04 -0.94351903418E+03  0.20610574769E+04  0.81686037159E+02 0.  0.
         24    2    4    4    0    0  0.23366108139E+03  0.75595780806E+02 -0.46430044777E+03  0.53119439783E+03  0.79248718964E+02 0.  0.
         13    1    3    3    0    0 -0.10587300678E+04  0.59095686401E+03  0.25414926685E+03  0.12388426944E+04  0.00000000000E+00 0.  1.
        -13    1    3    3    0    0 -0.63503786905E+03  0.43759640184E+03  0.15982544774E+03  0.78759626699E+03  0.00000000000E+00 0. -1.
          2    1    6    6  502    0  0.16994756059E+03  0.70102823289E+02 -0.40139429697E+03  0.44149061238E+03  0.00000000000E+00 0. -1.
          3    1    5    5  503    0  0.14393321221E+04 -0.10960948091E+04 -0.92417759348E+03  0.20315523652E+04  0.00000000000E+00 0. -1.
         -4    1    5    5    0  503  0.20774733413E+02 -0.80542375566E+01 -0.19341440701E+02  0.29505111750E+02  0.00000000000E+00 0.  1.
         -1    1    6    6    0  502  0.63713520805E+02  0.54929575174E+01 -0.62906150799E+02  0.89703785449E+02  0.00000000000E+00 0.  1.
<mgrwt>
<rscale>  0 0.45104964E+04</rscale>
<asrwt>0</asrwt>
<pdfrwt beam="1">  1        1 0.43173351E+00 0.45104964E+04</pdfrwt>
<pdfrwt beam="2">  1       -1 0.27883431E+00 0.45104964E+04</pdfrwt>
<totfact> 0.28044778E-02</totfact>
</mgrwt>
</event>
<event>
12    1  0.2048318E-007  0.1900069E+04  0.7818608E-02  0.8654822E-01
         -2   -1    0    0    0  501 -0.00000000000E+00  0.00000000000E+00  0.24642790916E+03  0.24642790916E+03  0.00000000000E+00 0.  1.
          2   -1    0    0  501    0  0.00000000000E+00 -0.00000000000E+00 -0.36625930687E+04  0.36625930687E+04  0.00000000000E+00 0. -1.
         23    2    1    2    0    0  0.21354564937E+03 -0.44788867939E+03 -0.24421124398E+04  0.24936568216E+04  0.90582347281E+02 0.  0.
        254    2    1    2    0    0 -0.21354564937E+03  0.44788867939E+03 -0.97405271974E+03  0.14153641563E+04  0.89903892051E+03 0.  0.
        -24    2    4    4    0    0 -0.10020008162E+03 -0.82362092939E+02  0.11811526534E+03  0.19372306513E+03  0.82181745842E+02 0.  0.
         24    2    4    4    0    0 -0.11334556775E+03  0.53025077233E+03 -0.10921679851E+04  0.12216410912E+04  0.74585177438E+02 0.  0.
         13    1    3    3    0    0  0.13461994993E+03 -0.28618780682E+03 -0.13303180494E+04  0.13673961036E+04  0.00000000000E+00 0.  1.
        -13    1    3    3    0    0  0.78925699441E+02 -0.16170087256E+03 -0.11117943904E+04  0.11262607179E+04  0.00000000000E+00 0. -1.
          4    1    6    6  502    0 -0.60882370270E+02  0.42607994616E+03 -0.87531047614E+03  0.97540720377E+03  0.00000000000E+00 0. -1.
          3    1    5    5  503    0 -0.51362758276E+02 -0.38264572179E+02  0.67933393232E+01  0.64408538882E+02  0.00000000000E+00 0. -1.
         -4    1    5    5    0  503 -0.48837323344E+02 -0.44097520760E+02  0.11132192601E+03  0.12931452625E+03  0.00000000000E+00 0.  1.
         -3    1    6    6    0  502 -0.52463197483E+02  0.10417082617E+03 -0.21685750894E+03  0.24623388738E+03  0.00000000000E+00 0.  1.
<mgrwt>
<rscale>  0 0.19000686E+04</rscale>
<asrwt>0</asrwt>
<pdfrwt beam="1">  1        2 0.56347585E+00 0.19000686E+04</pdfrwt>
<pdfrwt beam="2">  1       -2 0.37911987E-01 0.19000686E+04</pdfrwt>
<totfact> 0.38568754E+00</totfact>
</mgrwt>
</event>
<event>
12    1  0.2048318E-007  0.1913599E+04  0.7818608E-02  0.8648117E-01
          1   -1    0    0  501    0  0.00000000000E+00  0.00000000000E+00  0.80567451446E+03  0.80567451446E+03  0.00000000000E+00 0. -1.
         -1   -1    0    0    0  501 -0.00000000000E+00 -0.00000000000E+00 -0.11362724321E+04  0.11362724321E+04  0.00000000000E+00 0.  1.
         23    2    1    2    0    0  0.42394817324E+03  0.59904001072E+03 -0.20470754874E+02  0.73965707242E+03  0.89958573436E+02 0.  0.
        254    2    1    2    0    0 -0.42394817324E+03 -0.59904001072E+03 -0.31012716275E+03  0.12022898741E+04  0.90041162605E+03 0.  0.
        -24    2    4    4    0    0 -0.39020140348E+02  0.10892906638E+03 -0.36448665273E+03  0.39064434131E+03  0.79776992438E+02 0.  0.
         24    2    4    4    0    0 -0.38492803289E+03 -0.70796907711E+03  0.54359489972E+02  0.81164553283E+03  0.80148064001E+02 0.  0.
         11    1    3    3    0    0  0.15346769333E+03  0.14664217294E+03 -0.34469493238E+01  0.21229258405E+03  0.00000000000E+00 0. -1.
        -11    1    3    3    0    0  0.27048047990E+03  0.45239783778E+03 -0.17023805550E+02  0.52736448837E+03  0.00000000000E+00 0.  1.
          4    1    6    6  502    0 -0.37990935009E+03 -0.68262289947E+03  0.64522769395E+02  0.78388030014E+03  0.00000000000E+00 0. -1.
          1    1    5    5  503    0 -0.29605500812E+02  0.10727070047E+03 -0.22683406976E+03  0.25266021464E+03  0.00000000000E+00 0. -1.
         -2    1    5    5    0  503 -0.94146395360E+01  0.16583659185E+01 -0.13765258297E+03  0.13798412667E+03  0.00000000000E+00 0.  1.
         -3    1    6    6    0  502 -0.50186827991E+01 -0.25346177635E+02 -0.10163279424E+02  0.27765232692E+02  0.00000000000E+00 0.  1.
<mgrwt>
<rscale>  0 0.19135995E+04</rscale>
<asrwt>0</asrwt>
<pdfrwt beam="1">  1        1 0.12394993E+00 0.19135995E+04</pdfrwt>
<pdfrwt beam="2">  1       -1 0.17481114E+00 0.19135995E+04</pdfrwt>
<totfact> 0.46350551E+00</totfact>
</mgrwt>
</event>
<event>
12    1  0.2048318E-007  0.1650286E+04  0.7818608E-02  0.8790237E-01
         -2   -1    0    0    0  501 -0.00000000000E+00  0.00000000000E+00  0.30547448902E+03  0.30547448902E+03  0.00000000000E+00 0.  1.
          2   -1    0    0  501    0  0.00000000000E+00 -0.00000000000E+00 -0.22288632091E+04  0.22288632091E+04  0.00000000000E+00 0. -1.
         23    2    1    2    0    0 -0.51944610995E+03 -0.12421434247E+03 -0.10206830663E+04  0.11553237524E+04  0.87895318721E+02 0.  0.
        254    2    1    2    0    0  0.51944610995E+03  0.12421434247E+03 -0.90270565378E+03  0.13790139457E+04  0.89529241093E+03 0.  0.
        -24    2    4    4    0    0 -0.22010136242E+03  0.17439392324E+03 -0.31631784981E+03  0.43067171281E+03  0.81014146310E+02 0.  0.
         24    2    4    4    0    0  0.73954747237E+03 -0.50179580769E+02 -0.58638780397E+03  0.94834223290E+03  0.77806682443E+02 0.  0.
         13    1    3    3    0    0 -0.69779526044E+02 -0.41290626496E+02 -0.11432563536E+03  0.14015865650E+03  0.00000000000E+00 0. -1.
        -13    1    3    3    0    0 -0.44966658390E+03 -0.82923715979E+02 -0.90635743091E+03  0.10151650959E+04  0.00000000000E+00 0.  1.
          2    1    6    6  502    0  0.42212489772E+03 -0.50282031953E+02 -0.29484742492E+03  0.51735163669E+03  0.00000000000E+00 0. -1.
          3    1    5    5  503    0 -0.46686407700E+02  0.34879905823E+02 -0.12203182044E+03  0.13523310872E+03  0.00000000000E+00 0. -1.
         -4    1    5    5    0  503 -0.17341495472E+03  0.13951401742E+03 -0.19428602937E+03  0.29543860409E+03  0.00000000000E+00 0.  1.
         -1    1    6    6    0  502  0.31742257466E+03  0.10245118435E+00 -0.29154037905E+03  0.43099059620E+03  0.00000000000E+00 0.  1.
<mgrwt>
<rscale>  0 0.16502859E+04</rscale>
<asrwt>0</asrwt>
<pdfrwt beam="1">  1        2 0.34290202E+00 0.16502859E+04</pdfrwt>
<pdfrwt beam="2">  1       -2 0.46996077E-01 0.16502859E+04</pdfrwt>
<totfact> 0.20406363E+01</totfact>
</mgrwt>
</event>
<event>
12    1  0.2048318E-007  0.1346223E+04  0.7818608E-02  0.8993692E-01
          2   -1    0    0  501    0  0.00000000000E+00  0.00000000000E+00  0.32937327959E+04  0.32937327959E+04  0.00000000000E+00 0. -1.
         -2   -1    0    0    0  501 -0.00000000000E+00 -0.00000000000E+00 -0.13755793966E+03  0.13755793966E+03  0.00000000000E+00 0.  1.
         23    2    1    2    0    0 -0.23688407607E+03  0.27545438786E+03  0.82707864287E+03  0.90787024979E+03  0.90444036105E+02 0.  0.
        254    2    1    2    0    0  0.23688407607E+03 -0.27545438786E+03  0.23290962133E+04  0.25234204857E+04  0.90054016658E+03 0.  0.
        -24    2    4    4    0    0  0.16449575180E+03  0.30756098525E+03  0.64121830038E+03  0.73428382314E+03  0.79744668616E+02 0.  0.
         24    2    4    4    0    0  0.72388324268E+02 -0.58301537311E+03  0.16878779130E+04  0.17891366626E+04  0.83253550508E+02 0.  0.
         13    1    3    3    0    0 -0.21722516600E+03  0.27903660408E+03  0.79464239156E+03  0.86977280345E+03  0.00000000000E+00 0.  1.
        -13    1    3    3    0    0 -0.19658910066E+02 -0.35822162206E+01  0.32436251315E+02  0.38097446337E+02  0.00000000000E+00 0. -1.
          4    1    6    6  502    0  0.38356805641E+02 -0.76754402006E+02  0.25876287533E+03  0.27261824667E+03  0.00000000000E+00 0. -1.
          3    1    5    5  503    0  0.83370321376E+02  0.80978737543E+02  0.18504095687E+03  0.21851389461E+03  0.00000000000E+00 0. -1.
         -4    1    5    5    0  503  0.81125430422E+02  0.22658224771E+03  0.45617734351E+03  0.51576992852E+03  0.00000000000E+00 0.  1.
         -3    1    6    6    0  502  0.34031518627E+02 -0.50626097111E+03  0.14291150376E+04  0.15165184159E+04  0.00000000000E+00 0.  1.
<mgrwt>
<rscale>  0 0.13462230E+04</rscale>
<asrwt>0</asrwt>
<pdfrwt beam="1">  1        2 0.50672806E+00 0.13462230E+04</pdfrwt>
<pdfrwt beam="2">  1       -2 0.21162762E-01 0.13462230E+04</pdfrwt>
<totfact> 0.21580309E+01</totfact>
</mgrwt>
</event>
<event>
12    1  0.2048318E-007  0.2447267E+04  0.7818608E-02  0.8422017E-01
          2   -1    0    0  501    0  0.00000000000E+00  0.00000000000E+00  0.13794604441E+04  0.13794604441E+04  0.00000000000E+00 0. -1.
         -2   -1    0    0    0  501 -0.00000000000E+00 -0.00000000000E+00 -0.10854090035E+04  0.10854090035E+04  0.00000000000E+00 0.  1.
         23    2    1    2    0    0 -0.73010346339E+03  0.63770778709E+03 -0.31768499439E+03  0.10243816150E+04  0.93336212106E+02 0.  0.
        254    2    1    2    0    0  0.73010346339E+03 -0.63770778709E+03  0.61173643499E+03  0.14404878327E+04  0.87238835458E+03 0.  0.
        -24    2    4    4    0    0  0.10066830917E+03  0.13239955189E+03 -0.10477427507E+03  0.21203795585E+03  0.79490227008E+02 0.  0.
         24    2    4    4    0    0  0.62943515422E+03 -0.77010733899E+03  0.71651071006E+03  0.12284498768E+04  0.80296795079E+02 0.  0.
         11    1    3    3    0    0 -0.58056542872E+03  0.47791208152E+03 -0.27944894657E+03  0.80221436563E+03  0.00000000000E+00 0.  1.
        -11    1    3    3    0    0 -0.14953803467E+03  0.15979570558E+03 -0.38236047814E+02  0.22216724935E+03  0.00000000000E+00 0. -1.
          2    1    6    6  502    0  0.31659266648E+03 -0.44986066522E+03  0.38830485363E+03  0.67333958292E+03  0.00000000000E+00 0. -1.
          1    1    5    5  503    0  0.26112127666E+02 -0.42821484877E+01 -0.27713293770E+02  0.38317184898E+02  0.00000000000E+00 0. -1.
         -4    1    5    5    0  503  0.74556181504E+02  0.13668170038E+03 -0.77060981304E+02  0.17372077095E+03  0.00000000000E+00 0.  1.
         -1    1    6    6    0  502  0.31284248774E+03 -0.32024667377E+03  0.32820585644E+03  0.55511029390E+03  0.00000000000E+00 0.  1.
<mgrwt>
<rscale>  0 0.24472669E+04</rscale>
<asrwt>0</asrwt>
<pdfrwt beam="1">  1        2 0.21222468E+00 0.24472669E+04</pdfrwt>
<pdfrwt beam="2">  1       -2 0.16698600E+00 0.24472669E+04</pdfrwt>
<totfact> 0.29836747E+00</totfact>
</mgrwt>
</event>
<event>
12    1  0.2048318E-007  0.1662344E+04  0.7818608E-02  0.8783137E-01
          2   -1    0    0  501    0  0.00000000000E+00  0.00000000000E+00  0.98241262809E+03  0.98241262809E+03  0.00000000000E+00 0. -1.
         -2   -1    0    0    0  501 -0.00000000000E+00 -0.00000000000E+00 -0.70321421223E+03  0.70321421223E+03  0.00000000000E+00 0.  1.
         23    2    1    2    0    0 -0.36576030380E+03  0.52236842162E+02 -0.34920183839E+03  0.51645890299E+03  0.90986740979E+02 0.  0.
        254    2    1    2    0    0  0.36576030380E+03 -0.52236842162E+02  0.62840025425E+03  0.11691679373E+04  0.91408834290E+03 0.  0.
        -24    2    4    4    0    0  0.72596204882E+02  0.38114010234E+03  0.75157341524E+02  0.40314324616E+03  0.79610705081E+02 0.  0.
         24    2    4    4    0    0  0.29316409892E+03 -0.43337694450E+03  0.55324291272E+03  0.76602469118E+03  0.83398693612E+02 0.  0.
         13    1    3    3    0    0 -0.32098628559E+02  0.21343852732E+01 -0.18639837403E+01  0.32223469572E+02  0.00000000000E+00 0. -1.
        -13    1    3    3    0    0 -0.33366167524E+03  0.50102456889E+02 -0.34733785465E+03  0.48423543342E+03  0.00000000000E+00 0.  1.
          4    1    6    6  502    0  0.20231893205E+02 -0.69509107076E+02  0.10403388589E+03  0.12674342146E+03  0.00000000000E+00 0. -1.
          1    1    5    5  503    0  0.54006082525E+02  0.15372321158E+03  0.81075672570E-01  0.16293400290E+03  0.00000000000E+00 0. -1.
         -2    1    5    5    0  503  0.18590122357E+02  0.22741689076E+03  0.75076265852E+02  0.24020924326E+03  0.00000000000E+00 0.  1.
         -3    1    6    6    0  502  0.27293220571E+03 -0.36386783742E+03  0.44920902683E+03  0.63928126972E+03  0.00000000000E+00 0.  1.
<mgrwt>
<rscale>  0 0.16623436E+04</rscale>
<asrwt>0</asrwt>
<pdfrwt beam="1">  1        2 0.15114041E+00 0.16623436E+04</pdfrwt>
<pdfrwt beam="2">  1       -2 0.10818680E+00 0.16623436E+04</pdfrwt>
<totfact> 0.16880348E+01</totfact>
</mgrwt>
</event>
<event>
12    1  0.2048318E-007  0.2310868E+04  0.7818608E-02  0.8473648E-01
         -1   -1    0    0    0  501 -0.00000000000E+00  0.00000000000E+00  0.71996961689E+03  0.71996961689E+03  0.00000000000E+00 0.  1.
          1   -1    0    0  501    0  0.00000000000E+00 -0.00000000000E+00 -0.18542828719E+04  0.18542828719E+04  0.00000000000E+00 0. -1.
         23    2    1    2    0    0  0.54391583028E+03  0.56874039213E+03  0.16488067756E+03  0.80917863539E+03  0.90963520583E+02 0.  0.
        254    2    1    2    0    0 -0.54391583028E+03 -0.56874039213E+03 -0.12991939326E+04  0.17650738534E+04  0.89903880310E+03 0.  0.
        -24    2    4    4    0    0  0.21451113952E+03 -0.55464873832E+02 -0.10245873746E+03  0.25599205801E+03  0.77089296768E+02 0.  0.
         24    2    4    4    0    0 -0.75842696980E+03 -0.51327551830E+03 -0.11967351952E+04  0.15090817954E+04  0.80557505867E+02 0.  0.
         11    1    3    3    0    0  0.37308840670E+03  0.44801977251E+03  0.12097268164E+03  0.59544190773E+03  0.00000000000E+00 0. -1.
        -11    1    3    3    0    0  0.17082742357E+03  0.12072061961E+03  0.43907995920E+02  0.21373672766E+03  0.00000000000E+00 0.  1.
          4    1    6    6  502    0 -0.67628522908E+03 -0.48111608561E+03 -0.11028284766E+04  0.13802409383E+04  0.00000000000E+00 0. -1.
          3    1    5    5  503    0  0.12510665652E+03 -0.32572188510E+02 -0.17324441382E+02  0.13043296838E+03  0.00000000000E+00 0. -1.
         -2    1    5    5    0  503  0.89404482999E+02 -0.22892685322E+02 -0.85134296079E+02  0.12555908964E+03  0.00000000000E+00 0.  1.
         -3    1    6    6    0  502 -0.82141740716E+02 -0.32159432691E+02 -0.93906718525E+02  0.12884085712E+03  0.00000000000E+00 0.  1.
<mgrwt>
<rscale>  0 0.23108677E+04</rscale>
<asrwt>0</asrwt>
<pdfrwt beam="1">  1        1 0.28527429E+00 0.23108677E+04</pdfrwt>
<pdfrwt beam="2">  1       -1 0.11076456E+00 0.23108677E+04</pdfrwt>
<totfact> 0.25367256E+00</totfact>
</mgrwt>
</event>
<event>
12    1  0.2048318E-007  0.1231753E+04  0.7818608E-02  0.9085508E-01
         -2   -1    0    0    0  501 -0.00000000000E+00  0.00000000000E+00  0.10359255191E+04  0.10359255191E+04  0.00000000000E+00 0. -1.
          2   -1    0    0  501    0  0.00000000000E+00 -0.00000000000E+00 -0.36614993759E+03  0.36614993759E+03  0.00000000000E+00 0.  1.
         23    2    1    2    0    0  0.66566983730E+02  0.75121805789E+02  0.46177122255E+03  0.48122158657E+03  0.90923618357E+02 0.  0.
        254    2    1    2    0    0 -0.66566983730E+02 -0.75121805789E+02  0.20800435894E+03  0.92085387011E+03  0.89142110572E+03 0.  0.
        -24    2    4    4    0    0  0.20690957504E+03  0.29114188413E+03  0.26721231456E+03  0.45315086144E+03  0.79800458824E+02 0.  0.
         24    2    4    4    0    0 -0.27347655877E+03 -0.36626368992E+03 -0.59207955621E+02  0.46770300866E+03  0.79385159503E+02 0.  0.
         13    1    3    3    0    0  0.71286383365E+00  0.43175358128E+02  0.30692675242E+03  0.30994943309E+03  0.00000000000E+00 0. -1.
        -13    1    3    3    0    0  0.65854119897E+02  0.31946447661E+02  0.15484447013E+03  0.17127215347E+03  0.00000000000E+00 0.  1.
          2    1    6    6  502    0 -0.47169247016E+02 -0.10505445517E+03 -0.38698637082E+02  0.12148646396E+03  0.00000000000E+00 0. -1.
          1    1    5    5  503    0 -0.41138540313E+01  0.13999175114E+02  0.24771842598E+02  0.28749693643E+02  0.00000000000E+00 0. -1.
         -2    1    5    5    0  503  0.21102342907E+03  0.27714270902E+03  0.24244047197E+03  0.42440116780E+03  0.00000000000E+00 0.  1.
         -1    1    6    6    0  502 -0.22630731176E+03 -0.26120923476E+03 -0.20509318539E+02  0.34621654470E+03  0.00000000000E+00 0.  1.
<mgrwt>
<rscale>  0 0.12317533E+04</rscale>
<asrwt>0</asrwt>
<pdfrwt beam="1">  1        2 0.56330760E-01 0.12317533E+04</pdfrwt>
<pdfrwt beam="2">  1       -2 0.15937316E+00 0.12317533E+04</pdfrwt>
<totfact> 0.21997714E+01</totfact>
</mgrwt>
</event>
<event>
12    1  0.2330355E-007  0.3261714E+04  0.7818608E-02  0.8172706E-01
          2   -1    0    0  501    0  0.00000000000E+00  0.00000000000E+00  0.22180316318E+04  0.22180316318E+04  0.00000000000E+00 0.  1.
         -2   -1    0    0    0  501 -0.00000000000E+00 -0.00000000000E+00 -0.11991234889E+04  0.11991234889E+04  0.00000000000E+00 0. -1.
         23    2    1    2    0    0  0.13574606239E+04  0.11648892364E+03  0.11315263878E+04  0.17734467410E+04  0.92154013354E+02 0.  0.
        254    2    1    2    0    0 -0.13574606239E+04 -0.11648892364E+03 -0.11261824490E+03  0.16437083797E+04  0.91259265481E+03 0.  0.
        -24    2    4    4    0    0 -0.10224029117E+04  0.32669133345E+03 -0.32890007982E+02  0.10768439089E+04  0.80474283085E+02 0.  0.
         24    2    4    4    0    0 -0.33505771220E+03 -0.44318025709E+03 -0.79728236921E+02  0.56686447082E+03  0.79412377742E+02 0.  0.
         13    1    3    3    0    0  0.68837966280E+03  0.10477463589E+03  0.56792493990E+03  0.89854494704E+03  0.00000000000E+00 0.  1.
        -13    1    3    3    0    0  0.66908096107E+03  0.11714287758E+02  0.56360144787E+03  0.87490179395E+03  0.00000000000E+00 0. -1.
          2    1    6    6  502    0 -0.32867861365E+02 -0.44999591198E+02 -0.33132921542E+02  0.64830934041E+02  0.00000000000E+00 0. -1.
          1    1    5    5  503    0 -0.12769802193E+03  0.69172168289E+02  0.16289643180E+00  0.14522947430E+03  0.00000000000E+00 0. -1.
         -2    1    5    5    0  503 -0.89470488975E+03  0.25751916516E+03 -0.33052904414E+02  0.93161443455E+03  0.00000000000E+00 0.  1.
         -1    1    6    6    0  502 -0.30218985083E+03 -0.39818066589E+03 -0.46595315379E+02  0.50203353678E+03  0.00000000000E+00 0.  1.
<mgrwt>
<rscale>  0 0.32617136E+04</rscale>
<asrwt>0</asrwt>
<pdfrwt beam="1">  1        2 0.34123563E+00 0.32617136E+04</pdfrwt>
<pdfrwt beam="2">  1       -2 0.18448054E+00 0.32617136E+04</pdfrwt>
<totfact> 0.71392119E-01</totfact>
</mgrwt>
</event>
<event>
12    1  0.2048318E-007  0.1875801E+04  0.7818608E-02  0.8666996E-01
          1   -1    0    0  501    0  0.00000000000E+00  0.00000000000E+00  0.16091562847E+04  0.16091562847E+04  0.00000000000E+00 0. -1.
         -1   -1    0    0    0  501 -0.00000000000E+00 -0.00000000000E+00 -0.54665740942E+03  0.54665740942E+03  0.00000000000E+00 0.  1.
         23    2    1    2    0    0 -0.33027502039E+03  0.51781005360E+03 -0.17124099675E+02  0.62095631065E+03  0.89914760988E+02 0.  0.
        254    2    1    2    0    0  0.33027502039E+03 -0.51781005360E+03  0.10796229749E+04  0.15348573835E+04  0.90166101104E+03 0.  0.
        -24    2    4    4    0    0  0.47895384881E+03 -0.52261225931E+03  0.11487983168E+04  0.13522631389E+04  0.79734944580E+02 0.  0.
         24    2    4    4    0    0 -0.14867882842E+03  0.48022057111E+01 -0.69175341825E+02  0.18259424454E+03  0.80168416624E+02 0.  0.
         13    1    3    3    0    0 -0.26432295703E+03  0.33829798754E+03 -0.53297560832E+01  0.42934899591E+03  0.00000000000E+00 0. -1.
        -13    1    3    3    0    0 -0.65952063362E+02  0.17951206606E+03 -0.11794343592E+02  0.19160731474E+03  0.00000000000E+00 0.  1.
          2    1    6    6  502    0 -0.56795684877E+02 -0.31336704082E+02 -0.50270040813E+02  0.82065923785E+02  0.00000000000E+00 0. -1.
          3    1    5    5  503    0  0.40852042613E+02 -0.21277788529E+02  0.98233433930E+02  0.10849627280E+03  0.00000000000E+00 0. -1.
         -4    1    5    5    0  503  0.43810180619E+03 -0.50133447078E+03  0.10505648828E+04  0.12437668661E+04  0.00000000000E+00 0.  1.
         -1    1    6    6    0  502 -0.91883143540E+02  0.36138909793E+02 -0.18905301012E+02  0.10052832076E+03  0.00000000000E+00 0.  1.
<mgrwt>
<rscale>  0 0.18758008E+04</rscale>
<asrwt>0</asrwt>
<pdfrwt beam="1">  1        1 0.24756250E+00 0.18758008E+04</pdfrwt>
<pdfrwt beam="2">  1       -1 0.84101140E-01 0.18758008E+04</pdfrwt>
<totfact> 0.72235869E+00</totfact>
</mgrwt>
</event>
<event>
12    1  0.2048318E-007  0.1974647E+04  0.7818608E-02  0.8618567E-01
         -2   -1    0    0    0  501 -0.00000000000E+00  0.00000000000E+00  0.24916260532E+03  0.24916260532E+03  0.00000000000E+00 0.  1.
          2   -1    0    0  501    0  0.00000000000E+00 -0.00000000000E+00 -0.39123340229E+04  0.39123340229E+04  0.00000000000E+00 0. -1.
         23    2    1    2    0    0  0.51007584021E+03 -0.30746868577E+03 -0.39747310720E+03  0.72194190247E+03  0.92200239178E+02 0.  0.
        254    2    1    2    0    0 -0.51007584021E+03  0.30746868577E+03 -0.32656983104E+04  0.34395547258E+04  0.90057587215E+03 0.  0.
        -24    2    4    4    0    0 -0.47559621695E+03  0.30394856485E+03 -0.32979955004E+04  0.33468997492E+04  0.79919454353E+02 0.  0.
         24    2    4    4    0    0 -0.34479623255E+02  0.35201209167E+01  0.32297189983E+02  0.92654976538E+02  0.79627887862E+02 0.  0.
         13    1    3    3    0    0  0.44855612039E+03 -0.30233840350E+03 -0.35588696609E+03  0.64750802003E+03  0.00000000000E+00 0.  1.
        -13    1    3    3    0    0  0.61519719818E+02 -0.51302822643E+01 -0.41586141109E+02  0.74433882439E+02  0.00000000000E+00 0. -1.
          2    1    6    6  502    0 -0.51902272975E+02 -0.20726480139E+02  0.27936727655E+02  0.62481146524E+02  0.00000000000E+00 0. -1.
          3    1    5    5  503    0 -0.30362646704E+03  0.20410494847E+03 -0.23462581286E+04  0.23746105086E+04  0.00000000000E+00 0. -1.
         -4    1    5    5    0  503 -0.17196974991E+03  0.99843616380E+02 -0.95173737184E+03  0.97228924069E+03  0.00000000000E+00 0.  1.
         -1    1    6    6    0  502  0.17422649719E+02  0.24246601055E+02  0.43604623280E+01  0.30173830014E+02  0.00000000000E+00 0.  1.
<mgrwt>
<rscale>  0 0.19746466E+04</rscale>
<asrwt>0</asrwt>
<pdfrwt beam="1">  1        2 0.60189757E+00 0.19746466E+04</pdfrwt>
<pdfrwt beam="2">  1       -2 0.38332706E-01 0.19746466E+04</pdfrwt>
<totfact> 0.24294740E+00</totfact>
</mgrwt>
</event>
<event>
12    1  0.2048318E-007  0.1956618E+04  0.7818608E-02  0.8627176E-01
          2   -1    0    0  501    0  0.00000000000E+00  0.00000000000E+00  0.18753949202E+04  0.18753949202E+04  0.00000000000E+00 0. -1.
         -2   -1    0    0    0  501 -0.00000000000E+00 -0.00000000000E+00 -0.51033995539E+03  0.51033995539E+03  0.00000000000E+00 0.  1.
         23    2    1    2    0    0 -0.55099916643E+03 -0.49578228388E+03  0.79348156774E+03  0.10892581232E+04  0.86429775788E+02 0.  0.
        254    2    1    2    0    0  0.55099916643E+03  0.49578228388E+03  0.57157339709E+03  0.12964767524E+04  0.89708175042E+03 0.  0.
        -24    2    4    4    0    0 -0.11126863323E+03  0.45458932260E+03  0.11903322345E+03  0.48926268121E+03  0.78593269242E+02 0.  0.
         24    2    4    4    0    0  0.66226779967E+03  0.41192961275E+02  0.45254017364E+03  0.80721407123E+03  0.80662565665E+02 0.  0.
         11    1    3    3    0    0  0.37678377199E+00  0.39018975824E+00  0.11223770108E+02  0.11236869203E+02  0.00000000000E+00 0. -1.
        -11    1    3    3    0    0 -0.55137595021E+03 -0.49617247364E+03  0.78225779763E+03  0.10780212540E+04  0.00000000000E+00 0.  1.
          2    1    6    6  502    0  0.63688612496E+03  0.29076947167E+02  0.44675996806E+03  0.77850104308E+03  0.00000000000E+00 0. -1.
          3    1    5    5  503    0 -0.12320120391E+03  0.41387708732E+03  0.11339112707E+03  0.44646425137E+03  0.00000000000E+00 0. -1.
         -4    1    5    5    0  503  0.11932570680E+02  0.40712235286E+02  0.56420963774E+01  0.42798429838E+02  0.00000000000E+00 0.  1.
         -1    1    6    6    0  502  0.25381674711E+02  0.12116014108E+02  0.57802055835E+01  0.28713028150E+02  0.00000000000E+00 0.  1.
<mgrwt>
<rscale>  0 0.19566185E+04</rscale>
<asrwt>0</asrwt>
<pdfrwt beam="1">  1        2 0.28852229E+00 0.19566185E+04</pdfrwt>
<pdfrwt beam="2">  1       -2 0.78513840E-01 0.19566185E+04</pdfrwt>
<totfact> 0.10532256E+01</totfact>
</mgrwt>
</event>
<event>
12    1  0.2048318E-007  0.3970370E+04  0.7818608E-02  0.8010551E-01
          2   -1    0    0  501    0  0.00000000000E+00  0.00000000000E+00  0.19878762004E+04  0.19878762004E+04  0.00000000000E+00 0.  1.
         -2   -1    0    0    0  501 -0.00000000000E+00 -0.00000000000E+00 -0.19824975542E+04  0.19824975542E+04  0.00000000000E+00 0. -1.
         23    2    1    2    0    0 -0.40493788324E+03  0.15669864064E+04 -0.95521164800E+03  0.18814863230E+04  0.90224186333E+02 0.  0.
        254    2    1    2    0    0  0.40493788324E+03 -0.15669864064E+04  0.96059029420E+03  0.20888874317E+04  0.90625377342E+03 0.  0.
        -24    2    4    4    0    0 -0.11325082452E+03 -0.10260643943E+04  0.27730597759E+03  0.10718942298E+04  0.80154501346E+02 0.  0.
         24    2    4    4    0    0  0.51818870776E+03 -0.54092201211E+03  0.68328431661E+03  0.10169932019E+04  0.79256264194E+02 0.  0.
         13    1    3    3    0    0 -0.31291413966E+03  0.11915058923E+04 -0.77061318832E+03  0.14530816344E+04  0.00000000000E+00 0.  1.
        -13    1    3    3    0    0 -0.92023743581E+02  0.37548051416E+03 -0.18459845968E+03  0.42840468860E+03  0.00000000000E+00 0. -1.
          2    1    6    6  502    0  0.46751212687E+03 -0.44905268439E+03  0.58235362227E+03  0.87140785141E+03  0.00000000000E+00 0. -1.
          3    1    5    5  503    0 -0.77013360789E+02 -0.86795123859E+03  0.25664876284E+03  0.90837161877E+03  0.00000000000E+00 0. -1.
         -4    1    5    5    0  503 -0.36237463728E+02 -0.15811315572E+03  0.20657214748E+02  0.16352261101E+03  0.00000000000E+00 0.  1.
         -1    1    6    6    0  502  0.50676580891E+02 -0.91869327720E+02  0.10093069434E+03  0.14558535052E+03  0.00000000000E+00 0.  1.
<mgrwt>
<rscale>  0 0.39703701E+04</rscale>
<asrwt>0</asrwt>
<pdfrwt beam="1">  1        2 0.30582711E+00 0.39703701E+04</pdfrwt>
<pdfrwt beam="2">  1       -2 0.30499962E+00 0.39703701E+04</pdfrwt>
<totfact> 0.15893040E-01</totfact>
</mgrwt>
</event>
<event>
12    1  0.2048318E-007  0.2532341E+04  0.7818608E-02  0.8391554E-01
          2   -1    0    0  501    0  0.00000000000E+00  0.00000000000E+00  0.21759603399E+04  0.21759603399E+04  0.00000000000E+00 0. -1.
         -2   -1    0    0    0  501 -0.00000000000E+00 -0.00000000000E+00 -0.73677226939E+03  0.73677226939E+03  0.00000000000E+00 0.  1.
         23    2    1    2    0    0 -0.37070447657E+03  0.10112193763E+04  0.34943362136E+03  0.11360290490E+04  0.92041884075E+02 0.  0.
        254    2    1    2    0    0  0.37070447657E+03 -0.10112193763E+04  0.10897544492E+04  0.17767035603E+04  0.89951339381E+03 0.  0.
        -24    2    4    4    0    0  0.21777400024E+03 -0.22352088403E+02  0.63230808128E+03  0.67362923060E+03  0.77702635970E+02 0.  0.
         24    2    4    4    0    0  0.15293047633E+03 -0.98886728794E+03  0.45744636788E+03  0.11030743297E+04  0.79180512613E+02 0.  0.
         11    1    3    3    0    0 -0.34236000249E+03  0.88655560550E+03  0.28108469851E+03  0.99105994807E+03  0.00000000000E+00 0.  1.
        -11    1    3    3    0    0 -0.28344474086E+02  0.12466377085E+03  0.68348922844E+02  0.14496910094E+03  0.00000000000E+00 0. -1.
          2    1    6    6  502    0  0.11534422483E+02 -0.11812451820E+02  0.69689143507E+01  0.17920454438E+02  0.00000000000E+00 0. -1.
          1    1    5    5  503    0  0.29966118607E+02 -0.61250593462E+01  0.19554123701E+03  0.19791882171E+03  0.00000000000E+00 0. -1.
         -2    1    5    5    0  503  0.18780788163E+03 -0.16227029057E+02  0.43676684426E+03  0.47571040889E+03  0.00000000000E+00 0.  1.
         -1    1    6    6    0  502  0.14139605385E+03 -0.97705483612E+03  0.45047745353E+03  0.10851538753E+04  0.00000000000E+00 0.  1.
<mgrwt>
<rscale>  0 0.25323406E+04</rscale>
<asrwt>0</asrwt>
<pdfrwt beam="1">  1        2 0.33476313E+00 0.25323406E+04</pdfrwt>
<pdfrwt beam="2">  1       -2 0.11334958E+00 0.25323406E+04</pdfrwt>
<totfact> 0.28941046E+00</totfact>
</mgrwt>
</event>
<event>
12    1  0.2048318E-007  0.1662936E+04  0.7818608E-02  0.8782790E-01
          1   -1    0    0  501    0  0.00000000000E+00  0.00000000000E+00  0.80075497358E+03  0.80075497358E+03  0.00000000000E+00 0. -1.
         -1   -1    0    0    0  501 -0.00000000000E+00 -0.00000000000E+00 -0.86335904424E+03  0.86335904424E+03  0.00000000000E+00 0.  1.
         23    2    1    2    0    0  0.51163617331E+03  0.82339686895E+02 -0.28728901834E+03  0.59937704030E+03  0.90368459692E+02 0.  0.
        254    2    1    2    0    0 -0.51163617331E+03 -0.82339686895E+02  0.22468494768E+03  0.10647369775E+04  0.90256861662E+03 0.  0.
        -24    2    4    4    0    0 -0.71727080090E+03  0.10663621142E+03  0.62574503821E+02  0.73215691674E+03  0.79306360419E+02 0.  0.
         24    2    4    4    0    0  0.20563462759E+03 -0.18897589832E+03  0.16211044386E+03  0.33258006077E+03  0.79575188397E+02 0.  0.
         11    1    3    3    0    0  0.24203828066E+03  0.44188336736E+02 -0.18766386628E+03  0.30943959849E+03  0.00000000000E+00 0. -1.
        -11    1    3    3    0    0  0.26959789265E+03  0.38151350158E+02 -0.99625152059E+02  0.28993744181E+03  0.00000000000E+00 0.  1.
          2    1    6    6  502    0  0.98380766520E+02 -0.77650564136E+02  0.29145833984E+02  0.12867736775E+03  0.00000000000E+00 0. -1.
          1    1    5    5  503    0 -0.67511407241E+03  0.10613662257E+03  0.76693012158E+02  0.68769601680E+03  0.00000000000E+00 0. -1.
         -2    1    5    5    0  503 -0.42156728488E+02  0.49958885254E+00 -0.14118508337E+02  0.44460899941E+02  0.00000000000E+00 0.  1.
         -1    1    6    6    0  502  0.10725386107E+03 -0.11132533418E+03  0.13296460988E+03  0.20390269303E+03  0.00000000000E+00 0.  1.
<mgrwt>
<rscale>  0 0.16629360E+04</rscale>
<asrwt>0</asrwt>
<pdfrwt beam="1">  1        1 0.12319307E+00 0.16629360E+04</pdfrwt>
<pdfrwt beam="2">  1       -1 0.13282447E+00 0.16629360E+04</pdfrwt>
<totfact> 0.10120973E+01</totfact>
</mgrwt>
</event>
<event>
12    1  0.2048318E-007  0.2025197E+04  0.7818608E-02  0.8594930E-01
          1   -1    0    0  501    0  0.00000000000E+00  0.00000000000E+00  0.15935438010E+04  0.15935438010E+04  0.00000000000E+00 0. -1.
         -1   -1    0    0    0  501 -0.00000000000E+00 -0.00000000000E+00 -0.64344398126E+03  0.64344398126E+03  0.00000000000E+00 0.  1.
         23    2    1    2    0    0  0.63695269890E+02 -0.27092176683E+03  0.12209431634E+04  0.12555516538E+04  0.90840828318E+02 0.  0.
        254    2    1    2    0    0 -0.63695269890E+02  0.27092176683E+03 -0.27084334362E+03  0.98143612845E+03  0.90133515758E+03 0.  0.
        -24    2    4    4    0    0  0.40902267291E+03  0.76350694644E+02 -0.89677352845E+02  0.43333605901E+03  0.81296598316E+02 0.  0.
         24    2    4    4    0    0 -0.47271794280E+03  0.19457107219E+03 -0.18116599078E+03  0.54810006944E+03  0.79198575279E+02 0.  0.
         13    1    3    3    0    0  0.49346653141E+02 -0.17534016463E+03  0.96341717297E+03  0.98048555047E+03  0.00000000000E+00 0. -1.
        -13    1    3    3    0    0  0.14348616749E+02 -0.95581602204E+02  0.25752599041E+03  0.27506610336E+03  0.00000000000E+00 0.  1.
          2    1    6    6  502    0 -0.43142186597E+03  0.18521531250E+03 -0.14221196990E+03  0.49056475903E+03  0.00000000000E+00 0. -1.
          3    1    5    5  503    0  0.40586763024E+03  0.68033671607E+02 -0.95804450545E+02  0.42253473999E+03  0.00000000000E+00 0. -1.
         -4    1    5    5    0  503  0.31550426681E+01  0.83170230372E+01  0.61270976997E+01  0.10801319024E+02  0.00000000000E+00 0.  1.
         -1    1    6    6    0  502 -0.41296076834E+02  0.93557596822E+01 -0.38954020878E+02  0.57535310407E+02  0.00000000000E+00 0.  1.
<mgrwt>
<rscale>  0 0.20251974E+04</rscale>
<asrwt>0</asrwt>
<pdfrwt beam="1">  1        1 0.24516058E+00 0.20251974E+04</pdfrwt>
<pdfrwt beam="2">  1       -1 0.98991382E-01 0.20251974E+04</pdfrwt>
<totfact> 0.50898537E+00</totfact>
</mgrwt>
</event>
<event>
12    1  0.2048318E-007  0.1568554E+04  0.7818608E-02  0.8840103E-01
         -3   -1    0    0    0  501 -0.00000000000E+00  0.00000000000E+00  0.10139889438E+04  0.10139889438E+04  0.00000000000E+00 0.  1.
          3   -1    0    0  501    0  0.00000000000E+00 -0.00000000000E+00 -0.60660479421E+03  0.60660479421E+03  0.00000000000E+00 0. -1.
         23    2    1    2    0    0 -0.15959153867E+03 -0.48770040585E+03  0.22584101459E+03  0.56815821712E+03  0.92078503091E+02 0.  0.
        254    2    1    2    0    0  0.15959153867E+03  0.48770040585E+03  0.18154313504E+03  0.10524355209E+04  0.90074495323E+03 0.  0.
        -24    2    4    4    0    0  0.95753123836E+01  0.29702410340E+03  0.53431104443E+03  0.61688631120E+03  0.82130531132E+02 0.  0.
         24    2    4    4    0    0  0.15001622629E+03  0.19067630245E+03 -0.35276790939E+03  0.43554920973E+03  0.79972468622E+02 0.  0.
         13    1    3    3    0    0  0.41003377474E+01 -0.97407426234E+02  0.31634639866E+02  0.10249765800E+03  0.00000000000E+00 0.  1.
        -13    1    3    3    0    0 -0.16369187642E+03 -0.39029297962E+03  0.19420637472E+03  0.46566055913E+03  0.00000000000E+00 0. -1.
          2    1    6    6  502    0  0.61904497099E+02  0.31881086817E+02 -0.13578831595E+03  0.15260090827E+03  0.00000000000E+00 0. -1.
          3    1    5    5  503    0  0.22795331243E+02  0.24749815300E+03  0.37806665369E+03  0.45244818212E+03  0.00000000000E+00 0. -1.
         -4    1    5    5    0  503 -0.13220018860E+02  0.49525950401E+02  0.15624439074E+03  0.16443812909E+03  0.00000000000E+00 0.  1.
         -1    1    6    6    0  502  0.88111729191E+02  0.15879521563E+03 -0.21697959344E+03  0.28294830146E+03  0.00000000000E+00 0.  1.
<mgrwt>
<rscale>  0 0.15685542E+04</rscale>
<asrwt>0</asrwt>
<pdfrwt beam="1">  1        3 0.93323814E-01 0.15685542E+04</pdfrwt>
<pdfrwt beam="2">  1       -3 0.15599830E+00 0.15685542E+04</pdfrwt>
<totfact> 0.75232216E-01</totfact>
</mgrwt>
</event>
<event>
12    1  0.2048318E-007  0.1502448E+04  0.7818608E-02  0.8882826E-01
          1   -1    0    0  501    0  0.00000000000E+00  0.00000000000E+00  0.55910159725E+03  0.55910159725E+03  0.00000000000E+00 0. -1.
         -1   -1    0    0    0  501 -0.00000000000E+00 -0.00000000000E+00 -0.10093653220E+04  0.10093653220E+04  0.00000000000E+00 0.  1.
         23    2    1    2    0    0  0.34483681065E+03  0.32987434244E+03 -0.12257748983E+03  0.50081069466E+03  0.89758582293E+02 0.  0.
        254    2    1    2    0    0 -0.34483681065E+03 -0.32987434244E+03 -0.32768623490E+03  0.10676562246E+04  0.89709644830E+03 0.  0.
        -24    2    4    4    0    0  0.13868984000E+03 -0.40254252681E+03 -0.37098952045E+03  0.57030449735E+03  0.79615562576E+02 0.  0.
         24    2    4    4    0    0 -0.48352665065E+03  0.72668184367E+02  0.43303285547E+02  0.49735172722E+03  0.80030488753E+02 0.  0.
         13    1    3    3    0    0  0.13508126700E+03  0.15179562347E+03 -0.94910974030E+02  0.22426982184E+03  0.00000000000E+00 0.  1.
        -13    1    3    3    0    0  0.20975554365E+03  0.17807871897E+03 -0.27666515803E+02  0.27654087282E+03  0.00000000000E+00 0. -1.
          4    1    6    6  502    0 -0.24689000089E+03  0.33724532973E+02 -0.17964741680E+02  0.24982943903E+03  0.00000000000E+00 0. -1.
          3    1    5    5  503    0  0.14517466353E+03 -0.35213093717E+03 -0.31135863151E+03  0.49195129562E+03  0.00000000000E+00 0. -1.
         -4    1    5    5    0  503 -0.64848235278E+01 -0.50411589636E+02 -0.59630888937E+02  0.78353201729E+02  0.00000000000E+00 0.  1.
         -3    1    6    6    0  502 -0.23663664976E+03  0.38943651395E+02  0.61268027226E+02  0.24752228819E+03  0.00000000000E+00 0.  1.
<mgrwt>
<rscale>  0 0.15024484E+04</rscale>
<asrwt>0</asrwt>
<pdfrwt beam="1">  1        1 0.86015631E-01 0.15024484E+04</pdfrwt>
<pdfrwt beam="2">  1       -1 0.15528697E+00 0.15024484E+04</pdfrwt>
<totfact> 0.11638135E+01</totfact>
</mgrwt>
</event>
<event>
12    1  0.2048318E-007  0.2864624E+04  0.7818608E-02  0.8283481E-01
          2   -1    0    0  501    0  0.00000000000E+00  0.00000000000E+00  0.11387017919E+04  0.11387017919E+04  0.00000000000E+00 0.  1.
         -2   -1    0    0    0  501 -0.00000000000E+00 -0.00000000000E+00 -0.18016280555E+04  0.18016280555E+04  0.00000000000E+00 0. -1.
         23    2    1    2    0    0 -0.11698727063E+04 -0.49179744771E+03 -0.53017008490E+03  0.13783253510E+04  0.90739054426E+02 0.  0.
        254    2    1    2    0    0  0.11698727063E+04  0.49179744771E+03 -0.13275617871E+03  0.15620044964E+04  0.90098111270E+03 0.  0.
        -24    2    4    4    0    0  0.31315342814E+03  0.47964968555E+02  0.35127434657E+03  0.47947864372E+03  0.78360675444E+02 0.  0.
         24    2    4    4    0    0  0.85671927812E+03  0.44383247916E+03 -0.48403052528E+03  0.10825258527E+04  0.81372484996E+02 0.  0.
         11    1    3    3    0    0 -0.51850418695E+03 -0.22504859815E+03 -0.18792754260E+03  0.59565948719E+03  0.00000000000E+00 0.  1.
        -11    1    3    3    0    0 -0.65136851931E+03 -0.26674884956E+03 -0.34224254230E+03  0.78266586386E+03  0.00000000000E+00 0. -1.
          4    1    6    6  502    0  0.26997741166E+03  0.17135335164E+03 -0.18961711951E+03  0.37175855865E+03  0.00000000000E+00 0. -1.
          3    1    5    5  503    0  0.12060485608E+02 -0.14350091490E+02  0.17112620400E+02  0.25381532969E+02  0.00000000000E+00 0. -1.
         -4    1    5    5    0  503  0.30109294253E+03  0.62315060046E+02  0.33416172617E+03  0.45409711075E+03  0.00000000000E+00 0.  1.
         -3    1    6    6    0  502  0.58674186646E+03  0.27247912752E+03 -0.29441340578E+03  0.71076729405E+03  0.00000000000E+00 0.  1.
<mgrwt>
<rscale>  0 0.28646236E+04</rscale>
<asrwt>0</asrwt>
<pdfrwt beam="1">  1        2 0.17518489E+00 0.28646236E+04</pdfrwt>
<pdfrwt beam="2">  1       -2 0.27717355E+00 0.28646236E+04</pdfrwt>
<totfact> 0.78228773E-01</totfact>
</mgrwt>
</event>
<event>
12    1  0.2048318E-007  0.1289488E+04  0.7818608E-02  0.9037943E-01
          1   -1    0    0  501    0  0.00000000000E+00  0.00000000000E+00  0.10561786753E+04  0.10561786753E+04  0.00000000000E+00 0. -1.
         -1   -1    0    0    0  501 -0.00000000000E+00 -0.00000000000E+00 -0.39358389736E+03  0.39358389736E+03  0.00000000000E+00 0.  1.
         23    2    1    2    0    0  0.14035490589E+03 -0.25866711661E+03  0.27402086934E+02  0.30907335919E+03  0.90373061091E+02 0.  0.
        254    2    1    2    0    0 -0.14035490589E+03  0.25866711661E+03  0.63519269099E+03  0.11406892134E+04  0.90060754502E+03 0.  0.
        -24    2    4    4    0    0  0.37751283624E+03  0.13606824671E+03  0.28956624366E+03  0.50114991464E+03  0.79196705683E+02 0.  0.
         24    2    4    4    0    0 -0.51786774213E+03  0.12259886990E+03  0.34562644733E+03  0.63953929880E+03  0.79595178090E+02 0.  0.
         11    1    3    3    0    0  0.37062823166E+02 -0.11376405123E+03 -0.27649882787E+02  0.12280239506E+03  0.00000000000E+00 0.  1.
        -11    1    3    3    0    0  0.10329208272E+03 -0.14490306538E+03  0.55051969721E+02  0.18627096414E+03  0.00000000000E+00 0. -1.
          2    1    6    6  502    0 -0.11129987015E+03  0.39675302948E+02  0.42099612834E+02  0.12543591256E+03  0.00000000000E+00 0. -1.
          3    1    5    5  503    0  0.29377076036E+03  0.80743941081E+02  0.24665614274E+03  0.39199502090E+03  0.00000000000E+00 0. -1.
         -4    1    5    5    0  503  0.83742075884E+02  0.55324305628E+02  0.42910100923E+02  0.10915489374E+03  0.00000000000E+00 0.  1.
         -1    1    6    6    0  502 -0.40656787198E+03  0.82923566953E+02  0.30352683449E+03  0.51410338624E+03  0.00000000000E+00 0.  1.
<mgrwt>
<rscale>  0 0.12894881E+04</rscale>
<asrwt>0</asrwt>
<pdfrwt beam="1">  1        1 0.16248903E+00 0.12894881E+04</pdfrwt>
<pdfrwt beam="2">  1       -1 0.60551369E-01 0.12894881E+04</pdfrwt>
<totfact> 0.37229518E+01</totfact>
</mgrwt>
</event>
<event>
12    1  0.2048318E-007  0.2238789E+04  0.7818608E-02  0.8502455E-01
          2   -1    0    0  501    0  0.00000000000E+00  0.00000000000E+00  0.21999962559E+04  0.21999962559E+04  0.00000000000E+00 0. -1.
         -2   -1    0    0    0  501 -0.00000000000E+00 -0.00000000000E+00 -0.56956634315E+03  0.56956634315E+03  0.00000000000E+00 0.  1.
         23    2    1    2    0    0  0.87420201192E+03 -0.23384380530E+03  0.98152030118E+03  0.13379634373E+04  0.88611371064E+02 0.  0.
        254    2    1    2    0    0 -0.87420201192E+03  0.23384380530E+03  0.64890961154E+03  0.14315991617E+04  0.89971128307E+03 0.  0.
        -24    2    4    4    0    0 -0.88957737389E+03  0.29849613466E+02  0.77192561351E+03  0.11807115711E+04  0.77277149022E+02 0.  0.
         24    2    4    4    0    0  0.15375361972E+02  0.20399419183E+03 -0.12301600197E+03  0.25088759060E+03  0.77211490837E+02 0.  0.
         11    1    3    3    0    0  0.45390985841E+03 -0.90702628309E+02  0.45253048600E+03  0.64733682662E+03  0.00000000000E+00 0. -1.
        -11    1    3    3    0    0  0.42029215351E+03 -0.14314117699E+03  0.52898981517E+03  0.69062661070E+03  0.00000000000E+00 0.  1.
          2    1    6    6  502    0  0.30611032909E+02  0.70610931553E+02 -0.77268067542E+02  0.10905637649E+03  0.00000000000E+00 0. -1.
          3    1    5    5  503    0 -0.24110009912E+02 -0.12002814724E+02  0.22107716816E+02  0.34844099673E+02  0.00000000000E+00 0. -1.
         -4    1    5    5    0  503 -0.86546736398E+03  0.41852428189E+02  0.74981789670E+03  0.11458674714E+04  0.00000000000E+00 0.  1.
         -1    1    6    6    0  502 -0.15235670938E+02  0.13338326028E+03 -0.45747934429E+02  0.14183121411E+03  0.00000000000E+00 0.  1.
<mgrwt>
<rscale>  0 0.22387888E+04</rscale>
<asrwt>0</asrwt>
<pdfrwt beam="1">  1        2 0.33846096E+00 0.22387888E+04</pdfrwt>
<pdfrwt beam="2">  1       -2 0.87625593E-01 0.22387888E+04</pdfrwt>
<totfact> 0.52873389E+00</totfact>
</mgrwt>
</event>
<event>
12    1  0.2048318E-007  0.1504796E+04  0.7818608E-02  0.8881270E-01
          1   -1    0    0  501    0  0.00000000000E+00  0.00000000000E+00  0.16510498873E+04  0.16510498873E+04  0.00000000000E+00 0. -1.
         -1   -1    0    0    0  501 -0.00000000000E+00 -0.00000000000E+00 -0.34287425473E+03  0.34287425473E+03  0.00000000000E+00 0.  1.
         23    2    1    2    0    0 -0.29913509465E+03  0.17726937319E+03 -0.12172899345E+02  0.35841323642E+03  0.86055987830E+02 0.  0.
        254    2    1    2    0    0  0.29913509465E+03 -0.17726937319E+03  0.13203485319E+04  0.16355109056E+04  0.90037183491E+03 0.  0.
        -24    2    4    4    0    0 -0.25765287042E+03  0.14809940046E+03  0.51347023094E+03  0.59951307354E+03  0.86289125761E+02 0.  0.
         24    2    4    4    0    0  0.55678796507E+03 -0.32536877365E+03  0.80687830098E+03  0.10359978321E+04  0.79757373078E+02 0.  0.
         11    1    3    3    0    0 -0.10764992100E+03  0.10774617008E+03  0.14330873241E+02  0.15298077195E+03  0.00000000000E+00 0. -1.
        -11    1    3    3    0    0 -0.19148517365E+03  0.69523203112E+02 -0.26503772586E+02  0.20543246448E+03  0.00000000000E+00 0.  1.
          4    1    6    6  502    0  0.54933587659E+02 -0.56070497890E+02  0.74436389219E+02  0.10817751997E+03  0.00000000000E+00 0. -1.
          3    1    5    5  503    0 -0.19292872923E+01 -0.79713435210E+01  0.58276588315E+01  0.10061116958E+02  0.00000000000E+00 0. -1.
         -4    1    5    5    0  503 -0.25572358313E+03  0.15607074398E+03  0.50764257211E+03  0.58945195658E+03  0.00000000000E+00 0.  1.
         -3    1    6    6    0  502  0.50185437741E+03 -0.26929827576E+03  0.73244191177E+03  0.92782031211E+03  0.00000000000E+00 0.  1.
<mgrwt>
<rscale>  0 0.15047957E+04</rscale>
<asrwt>0</asrwt>
<pdfrwt beam="1">  1        1 0.25400767E+00 0.15047957E+04</pdfrwt>
<pdfrwt beam="2">  1       -1 0.52749886E-01 0.15047957E+04</pdfrwt>
<totfact> 0.18031851E+01</totfact>
</mgrwt>
</event>
<event>
12    1  0.2048318E-007  0.1318826E+04  0.7818608E-02  0.9014768E-01
         -1   -1    0    0    0  501 -0.00000000000E+00  0.00000000000E+00  0.27129646660E+03  0.27129646660E+03  0.00000000000E+00 0.  1.
          1   -1    0    0  501    0  0.00000000000E+00 -0.00000000000E+00 -0.16027676691E+04  0.16027676691E+04  0.00000000000E+00 0. -1.
         23    2    1    2    0    0 -0.11217327325E+03  0.31467280730E+03 -0.23509458425E+03  0.41805450448E+03  0.88872303268E+02 0.  0.
        254    2    1    2    0    0  0.11217327325E+03 -0.31467280730E+03 -0.10963766183E+04  0.14560096312E+04  0.89795352790E+03 0.  0.
        -24    2    4    4    0    0 -0.22315876309E+03  0.20463146155E+03 -0.22749537263E+03  0.38719333956E+03  0.80564688460E+02 0.  0.
         24    2    4    4    0    0  0.33533203634E+03 -0.51930426885E+03 -0.86888124563E+03  0.10688162917E+04  0.72726529474E+02 0.  0.
         11    1    3    3    0    0 -0.10758885161E+03  0.24029046329E+03 -0.14307261550E+03  0.29964085343E+03  0.00000000000E+00 0.  1.
        -11    1    3    3    0    0 -0.45844216377E+01  0.74382344012E+02 -0.92021968754E+02  0.11841365105E+03  0.00000000000E+00 0. -1.
          2    1    6    6  502    0  0.17930483189E+03 -0.32485407762E+03 -0.56176551551E+03  0.67324652907E+03  0.00000000000E+00 0. -1.
          1    1    5    5  503    0 -0.13789066321E+03  0.17133244575E+03 -0.14095341125E+03  0.26122118235E+03  0.00000000000E+00 0. -1.
         -2    1    5    5    0  503 -0.85268099882E+02  0.33299015805E+02 -0.86541961382E+02  0.12597215720E+03  0.00000000000E+00 0.  1.
         -1    1    6    6    0  502  0.15602720445E+03 -0.19445019123E+03 -0.30711573012E+03  0.39556976260E+03  0.00000000000E+00 0.  1.
<mgrwt>
<rscale>  0 0.13188255E+04</rscale>
<asrwt>0</asrwt>
<pdfrwt beam="1">  1        1 0.24657964E+00 0.13188255E+04</pdfrwt>
<pdfrwt beam="2">  1       -1 0.41737918E-01 0.13188255E+04</pdfrwt>
<totfact> 0.30702215E+01</totfact>
</mgrwt>
</event>
<event>
12    1  0.2048318E-007  0.2550936E+04  0.7818608E-02  0.8385061E-01
          1   -1    0    0  501    0  0.00000000000E+00  0.00000000000E+00  0.40526571434E+04  0.40526571434E+04  0.00000000000E+00 0. -1.
         -1   -1    0    0    0  501 -0.00000000000E+00 -0.00000000000E+00 -0.40142029310E+03  0.40142029310E+03  0.00000000000E+00 0.  1.
         23    2    1    2    0    0  0.15551638453E+03 -0.81577815777E+03  0.29031912712E+04  0.30206524217E+04  0.78371847924E+02 0.  0.
        254    2    1    2    0    0 -0.15551638453E+03  0.81577815777E+03  0.74804557908E+03  0.14334250149E+04  0.89747185822E+03 0.  0.
        -24    2    4    4    0    0 -0.49341680501E+03  0.45051287175E+03  0.61699489455E+03  0.91306245445E+03  0.81107057324E+02 0.  0.
         24    2    4    4    0    0  0.33790042048E+03  0.36526528602E+03  0.13105068453E+03  0.52036256041E+03  0.77507993327E+02 0.  0.
         11    1    3    3    0    0  0.13939415921E+03 -0.53683729522E+03  0.19539794526E+04  0.20311722513E+04  0.00000000000E+00 0.  1.
        -11    1    3    3    0    0  0.16122225321E+02 -0.27894086255E+03  0.94921181858E+03  0.98948017033E+03  0.00000000000E+00 0. -1.
          4    1    6    6  502    0  0.31075514804E+03  0.32942906247E+03  0.14100907201E+03  0.47431616842E+03  0.00000000000E+00 0. -1.
          1    1    5    5  503    0 -0.39787158068E+03  0.34886057706E+03  0.44347851642E+03  0.69041921430E+03  0.00000000000E+00 0. -1.
         -2    1    5    5    0  503 -0.95545224325E+02  0.10165229469E+03  0.17351637813E+03  0.22264324015E+03  0.00000000000E+00 0.  1.
         -3    1    6    6    0  502  0.27145272447E+02  0.35836223547E+02 -0.99583874859E+01  0.46046391994E+02  0.00000000000E+00 0.  1.
<mgrwt>
<rscale>  0 0.25509362E+04</rscale>
<asrwt>0</asrwt>
<pdfrwt beam="1">  1        1 0.62348569E+00 0.25509362E+04</pdfrwt>
<pdfrwt beam="2">  1       -1 0.61756971E-01 0.25509362E+04</pdfrwt>
<totfact> 0.20316596E-01</totfact>
</mgrwt>
</event>
<event>
12    1  0.2048318E-007  0.2398880E+04  0.7818608E-02  0.8439923E-01
          2   -1    0    0  501    0  0.00000000000E+00  0.00000000000E+00  0.33505601780E+04  0.33505601780E+04  0.00000000000E+00 0. -1.
         -2   -1    0    0    0  501 -0.00000000000E+00 -0.00000000000E+00 -0.42937790085E+03  0.42937790085E+03  0.00000000000E+00 0.  1.
         23    2    1    2    0    0 -0.63606239445E+03 -0.77197093914E+03  0.16317713275E+04  0.19159740653E+04  0.88116135094E+02 0.  0.
        254    2    1    2    0    0  0.63606239445E+03  0.77197093914E+03  0.12894109497E+04  0.18639640135E+04  0.90070347290E+03 0.  0.
        -24    2    4    4    0    0 -0.15420817903E+03  0.48500179238E+02 -0.57870942203E+01  0.18102243622E+03  0.81260089162E+02 0.  0.
         24    2    4    4    0    0  0.79027057348E+03  0.72347075991E+03  0.12951980439E+04  0.16829415773E+04  0.82564277964E+02 0.  0.
         11    1    3    3    0    0 -0.34387903186E+03 -0.37606759631E+03  0.76260942735E+03  0.91719832328E+03  0.00000000000E+00 0.  1.
        -11    1    3    3    0    0 -0.29218336259E+03 -0.39590334284E+03  0.86916190011E+03  0.99877574202E+03  0.00000000000E+00 0. -1.
          4    1    6    6  502    0  0.22512441275E+03  0.24032191935E+03  0.44303653524E+03  0.55201177315E+03  0.00000000000E+00 0. -1.
          1    1    5    5  503    0  0.38834255310E+01 -0.86956100256E+01 -0.86685225326E+01  0.12877806897E+02  0.00000000000E+00 0. -1.
         -2    1    5    5    0  503 -0.15809160456E+03  0.57195789263E+02  0.28814283123E+01  0.16814462932E+03  0.00000000000E+00 0.  1.
         -3    1    6    6    0  502  0.56514616073E+03  0.48314884055E+03  0.85216150867E+03  0.11309298042E+04  0.00000000000E+00 0.  1.
<mgrwt>
<rscale>  0 0.23988802E+04</rscale>
<asrwt>0</asrwt>
<pdfrwt beam="1">  1        2 0.51547078E+00 0.23988802E+04</pdfrwt>
<pdfrwt beam="2">  1       -2 0.66058141E-01 0.23988802E+04</pdfrwt>
<totfact> 0.19559510E+00</totfact>
</mgrwt>
</event>
<event>
12    1  0.2048318E-007  0.1596445E+04  0.7818608E-02  0.8822735E-01
          1   -1    0    0  501    0  0.00000000000E+00  0.00000000000E+00  0.27879025165E+04  0.27879025165E+04  0.00000000000E+00 0. -1.
         -1   -1    0    0    0  501 -0.00000000000E+00 -0.00000000000E+00 -0.22854422456E+03  0.22854422456E+03  0.00000000000E+00 0.  1.
         23    2    1    2    0    0 -0.10877613207E+03 -0.52306458678E+03  0.98786983829E+03  0.11277762218E+04  0.10277927879E+03 0.  0.
        254    2    1    2    0    0  0.10877613207E+03  0.52306458678E+03  0.15714884537E+04  0.18886705193E+04  0.90115013269E+03 0.  0.
        -24    2    4    4    0    0  0.38144426912E+03  0.44695504615E+03  0.49438952656E+03  0.77210780114E+03  0.80379779076E+02 0.  0.
         24    2    4    4    0    0 -0.27266813705E+03  0.76109540632E+02  0.10770989271E+04  0.11165627182E+04  0.80184971777E+02 0.  0.
         11    1    3    3    0    0  0.16340665250E+02 -0.57963939562E+02  0.14487449313E+03  0.15689313048E+03  0.00000000000E+00 0. -1.
        -11    1    3    3    0    0 -0.12511679732E+03 -0.46510064722E+03  0.84299534516E+03  0.97088309130E+03  0.00000000000E+00 0.  1.
          2    1    6    6  502    0 -0.24140156076E+03  0.51888920287E+02  0.81771717807E+03  0.85418297624E+03  0.00000000000E+00 0. -1.
          1    1    5    5  503    0  0.30946741674E+03  0.34366364402E+03  0.42632997637E+03  0.62899287039E+03  0.00000000000E+00 0. -1.
         -2    1    5    5    0  503  0.71976852381E+02  0.10329140213E+03  0.68059550189E+02  0.14311493075E+03  0.00000000000E+00 0.  1.
         -1    1    6    6    0  502 -0.31266576284E+02  0.24220620345E+02  0.25938174904E+03  0.26237974193E+03  0.00000000000E+00 0.  1.
<mgrwt>
<rscale>  0 0.15964448E+04</rscale>
<asrwt>0</asrwt>
<pdfrwt beam="1">  1        1 0.42890806E+00 0.15964448E+04</pdfrwt>
<pdfrwt beam="2">  1       -1 0.35160652E-01 0.15964448E+04</pdfrwt>
<totfact> 0.63022553E+00</totfact>
</mgrwt>
</event>
<event>
12    1  0.2048318E-007  0.1671267E+04  0.7818608E-02  0.8777924E-01
         -1   -1    0    0    0  501 -0.00000000000E+00  0.00000000000E+00  0.73107268054E+03  0.73107268054E+03  0.00000000000E+00 0.  1.
          1   -1    0    0  501    0  0.00000000000E+00 -0.00000000000E+00 -0.95514912373E+03  0.95514912373E+03  0.00000000000E+00 0. -1.
         23    2    1    2    0    0  0.35171124924E+03  0.47015997254E+03 -0.13126880479E+03  0.60796741313E+03  0.87416667078E+02 0.  0.
        254    2    1    2    0    0 -0.35171124924E+03 -0.47015997254E+03 -0.92807638404E+02  0.10782543911E+04  0.89959328124E+03 0.  0.
        -24    2    4    4    0    0 -0.13662195405E+03 -0.67810036317E+03 -0.23741145852E+03  0.73584398109E+03  0.81341889680E+02 0.  0.
         24    2    4    4    0    0 -0.21508929520E+03  0.20794039063E+03  0.14460382012E+03  0.34241041005E+03  0.82655992862E+02 0.  0.
         13    1    3    3    0    0  0.19569265353E+03  0.26738112324E+03 -0.29631746185E+02  0.33266547776E+03  0.00000000000E+00 0.  1.
        -13    1    3    3    0    0  0.15601859571E+03  0.20277884930E+03 -0.10163705861E+03  0.27530193536E+03  0.00000000000E+00 0. -1.
          2    1    6    6  502    0 -0.19662261446E+03  0.14970793345E+03  0.13147166909E+03  0.27992448558E+03  0.00000000000E+00 0. -1.
          3    1    5    5  503    0 -0.25966109101E+02 -0.14319247486E+03 -0.85893340939E+02  0.16898517597E+03  0.00000000000E+00 0. -1.
         -4    1    5    5    0  503 -0.11065584495E+03 -0.53490788831E+03 -0.15151811758E+03  0.56685880513E+03  0.00000000000E+00 0.  1.
         -1    1    6    6    0  502 -0.18466680740E+02  0.58232457176E+02  0.13132151027E+02  0.62485924470E+02  0.00000000000E+00 0.  1.
<mgrwt>
<rscale>  0 0.16712671E+04</rscale>
<asrwt>0</asrwt>
<pdfrwt beam="1">  1        1 0.14694602E+00 0.16712671E+04</pdfrwt>
<pdfrwt beam="2">  1       -1 0.11247272E+00 0.16712671E+04</pdfrwt>
<totfact> 0.11339988E+01</totfact>
</mgrwt>
</event>
<event>
12    1  0.2048318E-007  0.1611809E+04  0.7818608E-02  0.8813326E-01
         -3   -1    0    0    0  501 -0.00000000000E+00  0.00000000000E+00  0.51554046752E+03  0.51554046752E+03  0.00000000000E+00 0.  1.
          3   -1    0    0  501    0  0.00000000000E+00 -0.00000000000E+00 -0.12598082525E+04  0.12598082525E+04  0.00000000000E+00 0. -1.
         23    2    1    2    0    0  0.15521606482E+03  0.49375516836E+03 -0.50248648759E+02  0.52816276810E+03  0.92438032440E+02 0.  0.
        254    2    1    2    0    0 -0.15521606482E+03 -0.49375516836E+03 -0.69401913619E+03  0.12471859519E+04  0.89773272421E+03 0.  0.
        -24    2    4    4    0    0 -0.23155810913E+03 -0.20218103055E+03 -0.84351531212E+03  0.90135076138E+03  0.80117328008E+02 0.  0.
         24    2    4    4    0    0  0.76342044306E+02 -0.29157413781E+03  0.14949617592E+03  0.34583519051E+03  0.80058021527E+02 0.  0.
         11    1    3    3    0    0  0.11090757101E+03  0.26913653557E+03 -0.66661696609E+02  0.29862810631E+03  0.00000000000E+00 0. -1.
        -11    1    3    3    0    0  0.44308493814E+02  0.22461863279E+03  0.16413047850E+02  0.22953466179E+03  0.00000000000E+00 0.  1.
          4    1    6    6  502    0 -0.24141386637E+01 -0.20585880798E+01 -0.68193290146E+01  0.75212431539E+01  0.00000000000E+00 0. -1.
          1    1    5    5  503    0 -0.23370891444E+02 -0.62447192221E+02 -0.16272655462E+03  0.17585727725E+03  0.00000000000E+00 0. -1.
         -2    1    5    5    0  503 -0.20818721769E+03 -0.13973383833E+03 -0.68078875749E+03  0.72549348413E+03  0.00000000000E+00 0.  1.
         -3    1    6    6    0  502  0.78756182969E+02 -0.28951554973E+03  0.15631550494E+03  0.33831394735E+03  0.00000000000E+00 0.  1.
<mgrwt>
<rscale>  0 0.16118091E+04</rscale>
<asrwt>0</asrwt>
<pdfrwt beam="1">  1        3 0.19381665E+00 0.16118091E+04</pdfrwt>
<pdfrwt beam="2">  1       -3 0.79313919E-01 0.16118091E+04</pdfrwt>
<totfact> 0.59973853E-01</totfact>
</mgrwt>
</event>
<event>
12    1  0.2048318E-007  0.2538137E+04  0.7818608E-02  0.8389524E-01
          2   -1    0    0  501    0  0.00000000000E+00  0.00000000000E+00  0.54769853563E+03  0.54769853563E+03  0.00000000000E+00 0.  1.
         -2   -1    0    0    0  501 -0.00000000000E+00 -0.00000000000E+00 -0.29405496353E+04  0.29405496353E+04  0.00000000000E+00 0. -1.
         23    2    1    2    0    0  0.58979579439E+03 -0.83607207916E+03 -0.16124274471E+04  0.19118572952E+04  0.91653939856E+02 0.  0.
        254    2    1    2    0    0 -0.58979579439E+03  0.83607207916E+03 -0.78042365263E+03  0.15763908757E+04  0.91053364287E+03 0.  0.
        -24    2    4    4    0    0 -0.13365813898E+03  0.82336012395E+03 -0.72780203014E+03  0.11099044481E+04  0.80035598488E+02 0.  0.
         24    2    4    4    0    0 -0.45613765540E+03  0.12711955209E+02 -0.52621622493E+02  0.46648642760E+03  0.81347387795E+02 0.  0.
         11    1    3    3    0    0  0.34772322444E+03 -0.44545778212E+03 -0.95670753619E+03  0.11111405790E+04  0.00000000000E+00 0. -1.
        -11    1    3    3    0    0  0.24207256995E+03 -0.39061429704E+03 -0.65571991087E+03  0.80071671625E+03  0.00000000000E+00 0.  1.
          2    1    6    6  502    0 -0.42013592390E+03 -0.10992560743E+02 -0.50855769626E+02  0.42334541481E+03  0.00000000000E+00 0. -1.
          3    1    5    5  503    0 -0.91054433985E+02  0.65713280159E+03 -0.61444184743E+03  0.90424178887E+03  0.00000000000E+00 0. -1.
         -4    1    5    5    0  503 -0.42603704999E+02  0.16622732236E+03 -0.11336018271E+03  0.20566265923E+03  0.00000000000E+00 0.  1.
         -1    1    6    6    0  502 -0.36001731508E+02  0.23704515952E+02 -0.17658528671E+01  0.43141012789E+02  0.00000000000E+00 0.  1.
<mgrwt>
<rscale>  0 0.25381369E+04</rscale>
<asrwt>0</asrwt>
<pdfrwt beam="1">  1        2 0.84261313E-01 0.25381369E+04</pdfrwt>
<pdfrwt beam="2">  1       -2 0.45239225E+00 0.25381369E+04</pdfrwt>
<totfact> 0.16445251E-01</totfact>
</mgrwt>
</event>
<event>
12    1  0.2048318E-007  0.1329607E+04  0.7818608E-02  0.9006410E-01
          2   -1    0    0  501    0  0.00000000000E+00  0.00000000000E+00  0.88189891754E+03  0.88189891754E+03  0.00000000000E+00 0. -1.
         -2   -1    0    0    0  501 -0.00000000000E+00 -0.00000000000E+00 -0.50115032052E+03  0.50115032052E+03  0.00000000000E+00 0.  1.
         23    2    1    2    0    0 -0.29713098236E+03 -0.16713079450E+03  0.24564475036E+02  0.35588062779E+03  0.99136696796E+02 0.  0.
        254    2    1    2    0    0  0.29713098236E+03  0.16713079450E+03  0.35618412199E+03  0.10271686103E+04  0.90110415714E+03 0.  0.
        -24    2    4    4    0    0 -0.22618038582E+03  0.17450968235E+03 -0.11545027055E+03  0.31778141292E+03  0.77750017791E+02 0.  0.
         24    2    4    4    0    0  0.52331136818E+03 -0.73788878411E+01  0.47163439253E+03  0.70938719735E+03  0.82957576447E+02 0.  0.
         11    1    3    3    0    0 -0.26873243919E+03 -0.14481634073E+03  0.53098764065E+02  0.30985218276E+03  0.00000000000E+00 0. -1.
        -11    1    3    3    0    0 -0.28398543170E+02 -0.22314453771E+02 -0.28534289029E+02  0.46028445028E+02  0.00000000000E+00 0.  1.
          2    1    6    6  502    0  0.51337665344E+03 -0.19171335082E+02  0.46365535721E+03  0.69202559104E+03  0.00000000000E+00 0. -1.
          3    1    5    5  503    0 -0.23016618479E+03  0.15993871359E+03 -0.11410060897E+03  0.30261495946E+03  0.00000000000E+00 0. -1.
         -4    1    5    5    0  503  0.39857989718E+01  0.14570968760E+02 -0.13496615788E+01  0.15166453456E+02  0.00000000000E+00 0.  1.
         -1    1    6    6    0  502  0.99347147415E+01  0.11792447241E+02  0.79790353210E+01  0.17361606307E+02  0.00000000000E+00 0.  1.
<mgrwt>
<rscale>  0 0.13296073E+04</rscale>
<asrwt>0</asrwt>
<pdfrwt beam="1">  1        2 0.13567676E+00 0.13296073E+04</pdfrwt>
<pdfrwt beam="2">  1       -2 0.77100050E-01 0.13296073E+04</pdfrwt>
<totfact> 0.44324460E+01</totfact>
</mgrwt>
</event>
<event>
12    1  0.2048318E-007  0.2089017E+04  0.7818608E-02  0.8566097E-01
          2   -1    0    0  501    0  0.00000000000E+00  0.00000000000E+00  0.12839266196E+04  0.12839266196E+04  0.00000000000E+00 0. -1.
         -2   -1    0    0    0  501 -0.00000000000E+00 -0.00000000000E+00 -0.84973567653E+03  0.84973567653E+03  0.00000000000E+00 0.  1.
         23    2    1    2    0    0  0.58614284734E+03 -0.46587265387E+03  0.58340169953E+03  0.95319878982E+03  0.87347712013E+02 0.  0.
        254    2    1    2    0    0 -0.58614284734E+03  0.46587265387E+03 -0.14921075647E+03  0.11804635063E+04  0.90034963916E+03 0.  0.
        -24    2    4    4    0    0 -0.32724074208E+03  0.64121909780E+03 -0.34715443065E+03  0.80304321992E+03  0.78190662383E+02 0.  0.
         24    2    4    4    0    0 -0.25890210527E+03 -0.17534644394E+03  0.19794367418E+03  0.37742028637E+03  0.74079004480E+02 0.  0.
         13    1    3    3    0    0  0.43844310046E+03 -0.33641060702E+03  0.38150209509E+03  0.67152684043E+03  0.00000000000E+00 0.  1.
        -13    1    3    3    0    0  0.14769974688E+03 -0.12946204684E+03  0.20189960444E+03  0.28167194939E+03  0.00000000000E+00 0. -1.
          4    1    6    6  502    0 -0.29642675932E+02  0.30113095444E+01  0.98976154228E+01  0.31396162387E+02  0.00000000000E+00 0. -1.
          3    1    5    5  503    0 -0.74708533524E+02  0.18551994802E+03 -0.13043448467E+03  0.23877221548E+03  0.00000000000E+00 0. -1.
         -4    1    5    5    0  503 -0.25253220855E+03  0.45569914978E+03 -0.21671994598E+03  0.56427100444E+03  0.00000000000E+00 0.  1.
         -3    1    6    6    0  502 -0.22925942933E+03 -0.17835775348E+03  0.18804605875E+03  0.34602412398E+03  0.00000000000E+00 0.  1.
<mgrwt>
<rscale>  0 0.20890172E+04</rscale>
<asrwt>0</asrwt>
<pdfrwt beam="1">  1        2 0.19752717E+00 0.20890172E+04</pdfrwt>
<pdfrwt beam="2">  1       -2 0.13072857E+00 0.20890172E+04</pdfrwt>
<totfact> 0.66730848E+00</totfact>
</mgrwt>
</event>
<event>
12    1  0.2048318E-007  0.2089355E+04  0.7818608E-02  0.8565947E-01
         -2   -1    0    0    0  501 -0.00000000000E+00  0.00000000000E+00  0.89550081447E+03  0.89550081447E+03  0.00000000000E+00 0.  1.
          2   -1    0    0  501    0  0.00000000000E+00 -0.00000000000E+00 -0.12187050447E+04  0.12187050447E+04  0.00000000000E+00 0. -1.
         23    2    1    2    0    0 -0.63123823176E+03 -0.49588397915E+03 -0.40851974624E+03  0.90535865648E+03  0.91778471221E+02 0.  0.
        254    2    1    2    0    0  0.63123823176E+03  0.49588397915E+03  0.85315516015E+02  0.12088472027E+04  0.89981675698E+03 0.  0.
        -24    2    4    4    0    0 -0.18939983750E+02 -0.13731211624E+03 -0.19790390315E+03  0.25467839168E+03  0.80509552595E+02 0.  0.
         24    2    4    4    0    0  0.65017821551E+03  0.63319609539E+03  0.28321941916E+03  0.95416881100E+03  0.80968347818E+02 0.  0.
         11    1    3    3    0    0 -0.53271335861E+03 -0.37309246715E+03 -0.33574916698E+03  0.73192145385E+03  0.00000000000E+00 0.  1.
        -11    1    3    3    0    0 -0.98524873156E+02 -0.12279151200E+03 -0.72770579265E+02  0.17343720263E+03  0.00000000000E+00 0. -1.
          2    1    6    6  502    0  0.81553706604E+02  0.11530490727E+03  0.29485408229E+02  0.14427618653E+03  0.00000000000E+00 0. -1.
          1    1    5    5  503    0  0.51745407641E+01 -0.54364473586E+02 -0.22318452552E+02  0.58994789471E+02  0.00000000000E+00 0. -1.
         -4    1    5    5    0  503 -0.24114524514E+02 -0.82947642653E+02 -0.17558545060E+03  0.19568360221E+03  0.00000000000E+00 0.  1.
         -1    1    6    6    0  502  0.56862450891E+03  0.51789118812E+03  0.25373401093E+03  0.80989262447E+03  0.00000000000E+00 0.  1.
<mgrwt>
<rscale>  0 0.20893553E+04</rscale>
<asrwt>0</asrwt>
<pdfrwt beam="1">  1        2 0.18749308E+00 0.20893553E+04</pdfrwt>
<pdfrwt beam="2">  1       -2 0.13776936E+00 0.20893553E+04</pdfrwt>
<totfact> 0.63763412E+00</totfact>
</mgrwt>
</event>
<event>
12    1  0.2048318E-007  0.2268350E+04  0.7818608E-02  0.8490506E-01
         -2   -1    0    0    0  501 -0.00000000000E+00  0.00000000000E+00  0.45888000323E+03  0.45888000323E+03  0.00000000000E+00 0. -1.
          2   -1    0    0  501    0  0.00000000000E+00 -0.00000000000E+00 -0.28032438613E+04  0.28032438613E+04  0.00000000000E+00 0.  1.
         23    2    1    2    0    0 -0.86644908195E+03 -0.13427260504E+03 -0.15276855514E+04  0.17631022426E+04  0.77092346177E+02 0.  0.
        254    2    1    2    0    0  0.86644908195E+03  0.13427260504E+03 -0.81667830672E+03  0.14990216220E+04  0.90074370516E+03 0.  0.
        -24    2    4    4    0    0  0.73381230647E+03  0.19964424446E+02 -0.84712681602E+02  0.74272144961E+03  0.74698285940E+02 0.  0.
         24    2    4    4    0    0  0.13263677548E+03  0.11430818059E+03 -0.73196562512E+03  0.75630017236E+03  0.74547971100E+02 0.  0.
         13    1    3    3    0    0 -0.15345167239E+03 -0.53437202711E+02 -0.27094107742E+03  0.31593040029E+03  0.00000000000E+00 0. -1.
        -13    1    3    3    0    0 -0.71299740956E+03 -0.80835402327E+02 -0.12567444740E+04  0.14471718423E+04  0.00000000000E+00 0.  1.
          4    1    6    6  502    0  0.10289654013E+02  0.55326600974E+01 -0.82569106654E+01  0.14306078471E+02  0.00000000000E+00 0. -1.
          3    1    5    5  503    0  0.77114711464E+02  0.25142259055E+02 -0.67023943708E+01  0.81386325663E+02  0.00000000000E+00 0. -1.
         -4    1    5    5    0  503  0.65669759500E+03 -0.51778346093E+01 -0.78010287232E+02  0.66133512395E+03  0.00000000000E+00 0.  1.
         -3    1    6    6    0  502  0.12234712147E+03  0.10877552049E+03 -0.72370871445E+03  0.74199409389E+03  0.00000000000E+00 0.  1.
<mgrwt>
<rscale>  0 0.22683497E+04</rscale>
<asrwt>0</asrwt>
<pdfrwt beam="1">  1        2 0.43126829E+00 0.22683497E+04</pdfrwt>
<pdfrwt beam="2">  1       -2 0.70596923E-01 0.22683497E+04</pdfrwt>
<totfact> 0.38196972E+00</totfact>
</mgrwt>
</event>
<event>
12    1  0.2048318E-007  0.1567136E+04  0.7818608E-02  0.8840996E-01
          2   -1    0    0  501    0  0.00000000000E+00  0.00000000000E+00  0.10811681844E+04  0.10811681844E+04  0.00000000000E+00 0.  1.
         -2   -1    0    0    0  501 -0.00000000000E+00 -0.00000000000E+00 -0.56788491376E+03  0.56788491376E+03  0.00000000000E+00 0. -1.
         23    2    1    2    0    0  0.51893082941E+03  0.24516238771E+02  0.18032638843E+03  0.55723293005E+03  0.90003779340E+02 0.  0.
        254    2    1    2    0    0 -0.51893082941E+03 -0.24516238771E+02  0.33295688226E+03  0.10918201681E+04  0.90073344695E+03 0.  0.
        -24    2    4    4    0    0 -0.11758331452E+03  0.23212960194E+03 -0.22455551825E+03  0.35423819817E+03  0.85729413351E+02 0.  0.
         24    2    4    4    0    0 -0.40134751489E+03 -0.25664584071E+03  0.55751240051E+03  0.73758196998E+03  0.79121238996E+02 0.  0.
         11    1    3    3    0    0  0.39029255366E+03 -0.13575378888E+02  0.10982710838E+03  0.40567790436E+03  0.00000000000E+00 0. -1.
        -11    1    3    3    0    0  0.12863827575E+03  0.38091617658E+02  0.70499280053E+02  0.15155502569E+03  0.00000000000E+00 0.  1.
          4    1    6    6  502    0 -0.19217805537E+03 -0.12654802201E+03  0.20931059939E+03  0.31105905204E+03  0.00000000000E+00 0. -1.
          3    1    5    5  503    0 -0.49022801745E+02  0.13348468042E+03 -0.70031394239E+02  0.15851117051E+03  0.00000000000E+00 0. -1.
         -4    1    5    5    0  503 -0.68560512775E+02  0.98644921523E+02 -0.15452412401E+03  0.19572702766E+03  0.00000000000E+00 0.  1.
         -3    1    6    6    0  502 -0.20916945952E+03 -0.13009781870E+03  0.34820180112E+03  0.42652291794E+03  0.00000000000E+00 0.  1.
<mgrwt>
<rscale>  0 0.15671364E+04</rscale>
<asrwt>0</asrwt>
<pdfrwt beam="1">  1        2 0.16633357E+00 0.15671364E+04</pdfrwt>
<pdfrwt beam="2">  1       -2 0.87366910E-01 0.15671364E+04</pdfrwt>
<totfact> 0.24349990E+01</totfact>
</mgrwt>
</event>
<event>
12    1  0.3668202E-007  0.2802308E+04  0.7818608E-02  0.8302552E-01
         -2   -1    0    0    0  501 -0.00000000000E+00  0.00000000000E+00  0.89459921152E+03  0.89459921152E+03  0.00000000000E+00 0.  1.
          2   -1    0    0  501    0  0.00000000000E+00 -0.00000000000E+00 -0.21945388316E+04  0.21945388316E+04  0.00000000000E+00 0. -1.
         23    2    1    2    0    0  0.90874879132E+03  0.75486078056E+03 -0.11731777931E+03  0.11894831548E+04  0.73942885967E+02 0.  0.
        254    2    1    2    0    0 -0.90874879132E+03 -0.75486078056E+03 -0.11826218408E+04  0.18996548883E+04  0.90247166869E+03 0.  0.
        -24    2    4    4    0    0 -0.26673951862E+03  0.90012289704E+02 -0.64301313551E+03  0.70652427052E+03  0.80364602317E+02 0.  0.
         24    2    4    4    0    0 -0.64200927269E+03 -0.84487307027E+03 -0.53960870525E+03  0.11931306178E+04  0.79979405424E+02 0.  0.
         11    1    3    3    0    0  0.37714323698E+03  0.35731828063E+03 -0.37341349747E+02  0.52087210644E+03  0.00000000000E+00 0. -1.
        -11    1    3    3    0    0  0.53160555434E+03  0.39754249994E+03 -0.79976429559E+02  0.66861104833E+03  0.00000000000E+00 0.  1.
          2    1    6    6  502    0 -0.61294438211E+03 -0.82470201010E+03 -0.51075381266E+03  0.11474770927E+04  0.00000000000E+00 0. -1.
          1    1    5    5  503    0 -0.20598613393E+03  0.10287944815E+03 -0.49052615868E+03  0.54187672083E+03  0.00000000000E+00 0. -1.
         -2    1    5    5    0  503 -0.60753384688E+02 -0.12867158450E+02 -0.15248697683E+03  0.16464754969E+03  0.00000000000E+00 0.  1.
         -1    1    6    6    0  502 -0.29064890583E+02 -0.20171060171E+02 -0.28854892591E+02  0.45653525160E+02  0.00000000000E+00 0.  1.
<mgrwt>
<rscale>  0 0.28023081E+04</rscale>
<asrwt>0</asrwt>
<pdfrwt beam="1">  1        2 0.33762135E+00 0.28023081E+04</pdfrwt>
<pdfrwt beam="2">  1       -2 0.13763065E+00 0.28023081E+04</pdfrwt>
<totfact> 0.16984924E+00</totfact>
</mgrwt>
</event>
<event>
12    1  0.2048318E-007  0.1016090E+04  0.7818608E-02  0.9291071E-01
          1   -1    0    0  501    0  0.00000000000E+00  0.00000000000E+00  0.17541376391E+04  0.17541376391E+04  0.00000000000E+00 0. -1.
         -1   -1    0    0    0  501 -0.00000000000E+00 -0.00000000000E+00 -0.14714350342E+03  0.14714350342E+03  0.00000000000E+00 0.  1.
         23    2    1    2    0    0 -0.29750891870E+02 -0.54617667219E+02  0.14769285008E+03  0.18417059823E+03  0.90760267453E+02 0.  0.
        254    2    1    2    0    0  0.29750891870E+02  0.54617667219E+02  0.14593012856E+04  0.17171105443E+04  0.90279575432E+03 0.  0.
        -24    2    4    4    0    0  0.16769708531E+03  0.23594298045E+03  0.71225879267E+02  0.30825116481E+03  0.78449042602E+02 0.  0.
         24    2    4    4    0    0 -0.13794619344E+03 -0.18132531324E+03  0.13880754063E+04  0.14088593795E+04  0.78888503452E+02 0.  0.
         11    1    3    3    0    0 -0.47038189466E+02 -0.42974142680E+02  0.15022209944E+03  0.16317489809E+03  0.00000000000E+00 0. -1.
        -11    1    3    3    0    0  0.17287297596E+02 -0.11643524540E+02 -0.25292493621E+01  0.20995700136E+02  0.00000000000E+00 0.  1.
          2    1    6    6  502    0 -0.12613140744E+03 -0.18563764259E+03  0.13552346831E+04  0.13736926558E+04  0.00000000000E+00 0. -1.
          1    1    5    5  503    0  0.10609683753E+03  0.15200672659E+03  0.83699747541E+02  0.20339181793E+03  0.00000000000E+00 0. -1.
         -2    1    5    5    0  503  0.61600247776E+02  0.83936253866E+02 -0.12473868274E+02  0.10485934688E+03  0.00000000000E+00 0.  1.
         -1    1    6    6    0  502 -0.11814785996E+02  0.43123293576E+01  0.32840723216E+02  0.35166723674E+02  0.00000000000E+00 0.  1.
<mgrwt>
<rscale>  0 0.10160905E+04</rscale>
<asrwt>0</asrwt>
<pdfrwt beam="1">  1        1 0.26986731E+00 0.10160905E+04</pdfrwt>
<pdfrwt beam="2">  1       -1 0.22637463E-01 0.10160905E+04</pdfrwt>
<totfact> 0.72901647E+01</totfact>
</mgrwt>
</event>
<event>
12    1  0.2048318E-007  0.2725361E+04  0.7818608E-02  0.8326823E-01
          2   -1    0    0  501    0  0.00000000000E+00  0.00000000000E+00  0.99269662495E+03  0.99269662495E+03  0.00000000000E+00 0. -1.
         -2   -1    0    0    0  501 -0.00000000000E+00 -0.00000000000E+00 -0.18705591293E+04  0.18705591293E+04  0.00000000000E+00 0.  1.
         23    2    1    2    0    0 -0.99721677907E+03 -0.18539088722E+03 -0.10887817432E+04  0.14908841996E+04  0.92081088629E+02 0.  0.
        254    2    1    2    0    0  0.99721677907E+03  0.18539088722E+03  0.21091923886E+03  0.13723715546E+04  0.90005870534E+03 0.  0.
        -24    2    4    4    0    0  0.10450735626E+04  0.39150154894E+03  0.23953868973E+03  0.11442462171E+04  0.80426409096E+02 0.  0.
         24    2    4    4    0    0 -0.47856783574E+02 -0.20611066171E+03 -0.28619450870E+02  0.22812533752E+03  0.80313261960E+02 0.  0.
         11    1    3    3    0    0 -0.18516967122E+03 -0.25707415349E-01 -0.21377264229E+03  0.28281893570E+03  0.00000000000E+00 0. -1.
        -11    1    3    3    0    0 -0.81204710785E+03 -0.18536517981E+03 -0.87500910092E+03  0.12080652639E+04  0.00000000000E+00 0.  1.
          2    1    6    6  502    0 -0.10814255590E+02 -0.34107883823E+01 -0.18651074167E+02  0.21827601081E+02  0.00000000000E+00 0. -1.
          1    1    5    5  503    0  0.25565125642E+03  0.59993596857E+02  0.62466916543E+02  0.26992390082E+03  0.00000000000E+00 0. -1.
         -2    1    5    5    0  503  0.78942230623E+03  0.33150795208E+03  0.17707177319E+03  0.87432231627E+03  0.00000000000E+00 0.  1.
         -1    1    6    6    0  502 -0.37042527984E+02 -0.20269987333E+03 -0.99683767028E+01  0.20629773644E+03  0.00000000000E+00 0.  1.
<mgrwt>
<rscale>  0 0.27253607E+04</rscale>
<asrwt>0</asrwt>
<pdfrwt beam="1">  1        2 0.15272256E+00 0.27253607E+04</pdfrwt>
<pdfrwt beam="2">  1       -2 0.28777833E+00 0.27253607E+04</pdfrwt>
<totfact> 0.84156107E-01</totfact>
</mgrwt>
</event>
<event>
12    1  0.2048318E-007  0.3017199E+04  0.7818608E-02  0.8238837E-01
         -1   -1    0    0    0  501 -0.00000000000E+00  0.00000000000E+00  0.17653555805E+04  0.17653555805E+04  0.00000000000E+00 0.  1.
          1   -1    0    0  501    0  0.00000000000E+00 -0.00000000000E+00 -0.12891865374E+04  0.12891865374E+04  0.00000000000E+00 0. -1.
         23    2    1    2    0    0 -0.68865017010E+03  0.90244274301E+03 -0.56377765653E+03  0.12708476712E+04  0.92555908006E+02 0.  0.
        254    2    1    2    0    0  0.68865017010E+03 -0.90244274301E+03  0.10399466996E+04  0.17836944467E+04  0.90079674739E+03 0.  0.
        -24    2    4    4    0    0  0.60052955896E+02 -0.72521968535E+03  0.29426482777E+03  0.78913675094E+03  0.81210056533E+02 0.  0.
         24    2    4    4    0    0  0.62859721420E+03 -0.17722305765E+03  0.74568187185E+03  0.99455769581E+03  0.81000533447E+02 0.  0.
         13    1    3    3    0    0 -0.22712860817E+03  0.34633325451E+03 -0.16847432767E+03  0.44712160193E+03  0.00000000000E+00 0.  1.
        -13    1    3    3    0    0 -0.46152156193E+03  0.55610948850E+03 -0.39530332886E+03  0.82372606923E+03  0.00000000000E+00 0. -1.
          2    1    6    6  502    0  0.61027860801E+03 -0.18391560947E+03  0.71185747565E+03  0.95551347266E+03  0.00000000000E+00 0. -1.
          3    1    5    5  503    0 -0.12695512761E+02 -0.33650207154E+03  0.13751822305E+03  0.36373902989E+03  0.00000000000E+00 0. -1.
         -4    1    5    5    0  503  0.72748468657E+02 -0.38871761381E+03  0.15674660472E+03  0.42539772104E+03  0.00000000000E+00 0.  1.
         -1    1    6    6    0  502  0.18318606191E+02  0.66925518199E+01  0.33824396197E+02  0.39044223141E+02  0.00000000000E+00 0.  1.
<mgrwt>
<rscale>  0 0.30171991E+04</rscale>
<asrwt>0</asrwt>
<pdfrwt beam="1">  1        1 0.19833639E+00 0.30171991E+04</pdfrwt>
<pdfrwt beam="2">  1       -1 0.27159317E+00 0.30171991E+04</pdfrwt>
<totfact> 0.39479917E-01</totfact>
</mgrwt>
</event>
<event>
12    1  0.2048318E-007  0.2248892E+04  0.7818608E-02  0.8498349E-01
         -1   -1    0    0    0  501 -0.00000000000E+00  0.00000000000E+00  0.57008604892E+03  0.57008604892E+03  0.00000000000E+00 0.  1.
          1   -1    0    0  501    0  0.00000000000E+00 -0.00000000000E+00 -0.22178731379E+04  0.22178731379E+04  0.00000000000E+00 0. -1.
         23    2    1    2    0    0 -0.61120102282E+03  0.69794434453E+03 -0.89448411465E+03  0.12918851616E+04  0.90401554680E+02 0.  0.
        254    2    1    2    0    0  0.61120102282E+03 -0.69794434453E+03 -0.75330297437E+03  0.14960740252E+04  0.90004395418E+03 0.  0.
        -24    2    4    4    0    0  0.83076740420E+03 -0.43727744949E+03 -0.53593699113E+03  0.10839090078E+04  0.79020447246E+02 0.  0.
         24    2    4    4    0    0 -0.21956638138E+03 -0.26066689503E+03 -0.21736598325E+03  0.41216501742E+03  0.80469900650E+02 0.  0.
         13    1    3    3    0    0 -0.21834355522E+03  0.25047454447E+03 -0.38165344203E+03  0.50603434206E+03  0.00000000000E+00 0. -1.
        -13    1    3    3    0    0 -0.39285746760E+03  0.44746980006E+03 -0.51283067262E+03  0.78585081955E+03  0.00000000000E+00 0.  1.
          2    1    6    6  502    0 -0.83384048708E+02 -0.10072153227E+03 -0.13083381788E+03  0.18497355093E+03  0.00000000000E+00 0. -1.
          1    1    5    5  503    0  0.14905594821E+03 -0.10219562322E+03 -0.77185543648E+02  0.19651775811E+03  0.00000000000E+00 0. -1.
         -2    1    5    5    0  503  0.68171145598E+03 -0.33508182627E+03 -0.45875144748E+03  0.88739124972E+03  0.00000000000E+00 0.  1.
         -1    1    6    6    0  502 -0.13618233267E+03 -0.15994536277E+03 -0.86532165362E+02  0.22719146649E+03  0.00000000000E+00 0.  1.
<mgrwt>
<rscale>  0 0.22488918E+04</rscale>
<asrwt>0</asrwt>
<pdfrwt beam="1">  1        1 0.34121126E+00 0.22488918E+04</pdfrwt>
<pdfrwt beam="2">  1       -1 0.87705544E-01 0.22488918E+04</pdfrwt>
<totfact> 0.24583702E+00</totfact>
</mgrwt>
</event>
<event>
12    1  0.2048318E-007  0.1624389E+04  0.7818608E-02  0.8805703E-01
         -2   -1    0    0    0  501 -0.00000000000E+00  0.00000000000E+00  0.68899826090E+03  0.68899826090E+03  0.00000000000E+00 0.  1.
          2   -1    0    0  501    0  0.00000000000E+00 -0.00000000000E+00 -0.95741927910E+03  0.95741927910E+03  0.00000000000E+00 0. -1.
         23    2    1    2    0    0 -0.77784581050E+02 -0.52563161918E+03  0.75292151503E+02  0.54511076759E+03  0.95591844508E+02 0.  0.
        254    2    1    2    0    0  0.77784581050E+02  0.52563161918E+03 -0.34371316969E+03  0.11013067724E+04  0.90133169466E+03 0.  0.
        -24    2    4    4    0    0 -0.29707532838E+03 -0.90232936077E+02 -0.98181297312E+02  0.33552987885E+03  0.80901167935E+02 0.  0.
         24    2    4    4    0    0  0.37485990943E+03  0.61586455526E+03 -0.24553187238E+03  0.76577689356E+03  0.79493699287E+02 0.  0.
         13    1    3    3    0    0  0.86449890242E+01 -0.12657599873E+03  0.48839500452E+02  0.13594673992E+03  0.00000000000E+00 0.  1.
        -13    1    3    3    0    0 -0.86429570075E+02 -0.39905562045E+03  0.26452651051E+02  0.40916402767E+03  0.00000000000E+00 0. -1.
          2    1    6    6  502    0  0.23980258817E+03  0.32239765268E+03 -0.15008954799E+03  0.42892003936E+03  0.00000000000E+00 0. -1.
          3    1    5    5  503    0 -0.29987141321E+03 -0.86027020801E+02 -0.87962325289E+02  0.32413096649E+03  0.00000000000E+00 0. -1.
         -4    1    5    5    0  503  0.27960848308E+01 -0.42059152762E+01 -0.10218972024E+02  0.11398912357E+02  0.00000000000E+00 0.  1.
         -1    1    6    6    0  502  0.13505732126E+03  0.29346690257E+03 -0.95442324392E+02  0.33685685419E+03  0.00000000000E+00 0.  1.
<mgrwt>
<rscale>  0 0.16243894E+04</rscale>
<asrwt>0</asrwt>
<pdfrwt beam="1">  1        2 0.14729527E+00 0.16243894E+04</pdfrwt>
<pdfrwt beam="2">  1       -2 0.10599973E+00 0.16243894E+04</pdfrwt>
<totfact> 0.18465827E+01</totfact>
</mgrwt>
</event>
<event>
12    1  0.2048318E-007  0.1793547E+04  0.7818608E-02  0.8709738E-01
         -2   -1    0    0    0  501 -0.00000000000E+00  0.00000000000E+00  0.56294403614E+03  0.56294403614E+03  0.00000000000E+00 0.  1.
          2   -1    0    0  501    0  0.00000000000E+00 -0.00000000000E+00 -0.14285664543E+04  0.14285664543E+04  0.00000000000E+00 0. -1.
         23    2    1    2    0    0  0.66112612660E+03 -0.67185377168E+02 -0.40182783560E+03  0.78211121072E+03  0.92901594688E+02 0.  0.
        254    2    1    2    0    0 -0.66112612660E+03  0.67185377168E+02 -0.46379458252E+03  0.12093992797E+04  0.89774137298E+03 0.  0.
        -24    2    4    4    0    0 -0.70942449449E+03 -0.14619168457E+03 -0.59603864679E+03  0.94152595044E+03  0.80956314560E+02 0.  0.
         24    2    4    4    0    0  0.48298367889E+02  0.21337706174E+03  0.13224406426E+03  0.26787332925E+03  0.80032025913E+02 0.  0.
         13    1    3    3    0    0  0.23054932113E+02  0.11890986809E+02 -0.28891260231E+02  0.38828216283E+02  0.00000000000E+00 0. -1.
        -13    1    3    3    0    0  0.63807119448E+03 -0.79076363977E+02 -0.37293657537E+03  0.74328299443E+03  0.00000000000E+00 0.  1.
          2    1    6    6  502    0  0.21148965498E+02  0.44974255076E+02 -0.35774130174E+01  0.49827304214E+02  0.00000000000E+00 0. -1.
          1    1    5    5  503    0 -0.78774464790E+01 -0.12336365332E+02 -0.11726961797E+02  0.18755311398E+02  0.00000000000E+00 0. -1.
         -2    1    5    5    0  503 -0.70154704801E+03 -0.13385531924E+03 -0.58431168499E+03  0.92277063904E+03  0.00000000000E+00 0.  1.
         -1    1    6    6    0  502  0.27149402391E+02  0.16840280667E+03  0.13582147728E+03  0.21804602504E+03  0.00000000000E+00 0.  1.
<mgrwt>
<rscale>  0 0.17935473E+04</rscale>
<asrwt>0</asrwt>
<pdfrwt beam="1">  1        2 0.21977945E+00 0.17935473E+04</pdfrwt>
<pdfrwt beam="2">  1       -2 0.86606776E-01 0.17935473E+04</pdfrwt>
<totfact> 0.15197765E+01</totfact>
</mgrwt>
</event>
<event>
12    1  0.2048318E-007  0.2743194E+04  0.7818608E-02  0.8321124E-01
          1   -1    0    0  501    0  0.00000000000E+00  0.00000000000E+00  0.10291621387E+04  0.10291621387E+04  0.00000000000E+00 0. -1.
         -1   -1    0    0    0  501 -0.00000000000E+00 -0.00000000000E+00 -0.18279713646E+04  0.18279713646E+04  0.00000000000E+00 0.  1.
         23    2    1    2    0    0  0.42870889873E+03 -0.31469145278E+03  0.78905333705E+03  0.95613965311E+03  0.93679438673E+02 0.  0.
        254    2    1    2    0    0 -0.42870889873E+03  0.31469145278E+03 -0.15878625630E+04  0.19009938502E+04  0.89980446153E+03 0.  0.
        -24    2    4    4    0    0 -0.35865126138E+03 -0.11451445630E+02 -0.15030822295E+04  0.15476025358E+04  0.83997363928E+02 0.  0.
         24    2    4    4    0    0 -0.70057637346E+02  0.32614289841E+03 -0.84780333501E+02  0.35339131438E+03  0.80127731763E+02 0.  0.
         11    1    3    3    0    0  0.40274653500E+03 -0.28537738279E+03  0.67996794071E+03  0.84023890797E+03  0.00000000000E+00 0. -1.
        -11    1    3    3    0    0  0.25962363726E+02 -0.29314069993E+02  0.10908539634E+03  0.11590074514E+03  0.00000000000E+00 0.  1.
          2    1    6    6  502    0 -0.53075833147E+02  0.29136338402E+03 -0.48045865403E+02  0.30003011648E+03  0.00000000000E+00 0. -1.
          1    1    5    5  503    0 -0.30265320664E+03  0.19528692168E+02 -0.12863763060E+04  0.13216445566E+04  0.00000000000E+00 0. -1.
         -4    1    5    5    0  503 -0.55998054736E+02 -0.30980137797E+02 -0.21670592352E+03  0.22595797919E+03  0.00000000000E+00 0.  1.
         -1    1    6    6    0  502 -0.16981804200E+02  0.34779514389E+02 -0.36734468099E+02  0.53361197902E+02  0.00000000000E+00 0.  1.
<mgrwt>
<rscale>  0 0.27431944E+04</rscale>
<asrwt>0</asrwt>
<pdfrwt beam="1">  1        1 0.15833264E+00 0.27431944E+04</pdfrwt>
<pdfrwt beam="2">  1       -1 0.28122636E+00 0.27431944E+04</pdfrwt>
<totfact> 0.54591090E-01</totfact>
</mgrwt>
</event>
<event>
12    1  0.2048318E-007  0.1570856E+04  0.7818608E-02  0.8838655E-01
          2   -1    0    0  501    0  0.00000000000E+00  0.00000000000E+00  0.21701971761E+04  0.21701971761E+04  0.00000000000E+00 0. -1.
         -2   -1    0    0    0  501 -0.00000000000E+00 -0.00000000000E+00 -0.28425849941E+03  0.28425849941E+03  0.00000000000E+00 0.  1.
         23    2    1    2    0    0 -0.47420087456E+03 -0.20245614868E+03  0.52757326484E+03  0.74473550016E+03  0.10218832544E+03 0.  0.
        254    2    1    2    0    0  0.47420087456E+03  0.20245614868E+03  0.13583654119E+04  0.17097201754E+04  0.90118340216E+03 0.  0.
        -24    2    4    4    0    0  0.60046617104E+03 -0.12141457844E+03  0.55447440506E+03  0.83012605816E+03  0.79788997670E+02 0.  0.
         24    2    4    4    0    0 -0.12626529648E+03  0.32387072712E+03  0.80389100684E+03  0.87959411723E+03  0.81301212836E+02 0.  0.
         11    1    3    3    0    0 -0.29252684160E+03 -0.72489757651E+02  0.28144861104E+03  0.41235911373E+03  0.00000000000E+00 0.  1.
        -11    1    3    3    0    0 -0.18167403296E+03 -0.12996639102E+03  0.24612465381E+03  0.33237638643E+03  0.00000000000E+00 0. -1.
          2    1    6    6  502    0 -0.11864374072E+02  0.94621941564E+02  0.15541950020E+03  0.18234389554E+03  0.00000000000E+00 0. -1.
          3    1    5    5  503    0  0.21079203137E+03 -0.98211620834E+01  0.21706330408E+03  0.30273125655E+03  0.00000000000E+00 0. -1.
         -4    1    5    5    0  503  0.38967413967E+03 -0.11159341636E+03  0.33741110097E+03  0.52739480161E+03  0.00000000000E+00 0.  1.
         -1    1    6    6    0  502 -0.11440092241E+03  0.22924878555E+03  0.64847150664E+03  0.69725022169E+03  0.00000000000E+00 0.  1.
<mgrwt>
<rscale>  0 0.15708558E+04</rscale>
<asrwt>0</asrwt>
<pdfrwt beam="1">  1        2 0.33387648E+00 0.15708558E+04</pdfrwt>
<pdfrwt beam="2">  1       -2 0.43732078E-01 0.15708558E+04</pdfrwt>
<totfact> 0.25594148E+01</totfact>
</mgrwt>
</event>
<event>
12    1  0.2048318E-007  0.2928270E+04  0.7818608E-02  0.8264516E-01
          2   -1    0    0  501    0  0.00000000000E+00  0.00000000000E+00  0.17739342675E+04  0.17739342675E+04  0.00000000000E+00 0. -1.
         -2   -1    0    0    0  501 -0.00000000000E+00 -0.00000000000E+00 -0.12084390833E+04  0.12084390833E+04  0.00000000000E+00 0.  1.
         23    2    1    2    0    0 -0.11980931430E+04  0.52337127516E+03  0.34900391570E+02  0.13111393293E+04  0.92323520028E+02 0.  0.
        254    2    1    2    0    0  0.11980931430E+04 -0.52337127516E+03  0.53059479269E+03  0.16712340216E+04  0.89562695903E+03 0.  0.
        -24    2    4    4    0    0  0.58270726904E+03 -0.80146725169E+02  0.67084842004E+03  0.89576135503E+03  0.79872044888E+02 0.  0.
         24    2    4    4    0    0  0.61538587400E+03 -0.44322454999E+03 -0.14025362735E+03  0.77547266653E+03  0.80864089192E+02 0.  0.
         13    1    3    3    0    0 -0.44856544055E+03  0.15998123989E+03  0.42485503570E+02  0.47813174919E+03  0.00000000000E+00 0. -1.
        -13    1    3    3    0    0 -0.74952770249E+03  0.36339003526E+03 -0.75851120008E+01  0.83300758007E+03  0.00000000000E+00 0.  1.
          4    1    6    6  502    0  0.10161122879E+03 -0.57255113950E+02  0.46945851959E+01  0.11672629960E+03  0.00000000000E+00 0. -1.
          3    1    5    5  503    0  0.39138378301E+03 -0.15884305563E+02  0.44864008044E+03  0.59557661014E+03  0.00000000000E+00 0. -1.
         -4    1    5    5    0  503  0.19132348603E+03 -0.64262419606E+02  0.22220833959E+03  0.30018474489E+03  0.00000000000E+00 0.  1.
         -3    1    6    6    0  502  0.51377464521E+03 -0.38596943604E+03 -0.14494821255E+03  0.65874636693E+03  0.00000000000E+00 0.  1.
<mgrwt>
<rscale>  0 0.29282701E+04</rscale>
<asrwt>0</asrwt>
<pdfrwt beam="1">  1        2 0.27291296E+00 0.29282701E+04</pdfrwt>
<pdfrwt beam="2">  1       -2 0.18591370E+00 0.29282701E+04</pdfrwt>
<totfact> 0.12689737E+00</totfact>
</mgrwt>
</event>
<event>
12    1  0.2048318E-007  0.1474510E+04  0.7818608E-02  0.8901583E-01
         -2   -1    0    0    0  501 -0.00000000000E+00  0.00000000000E+00  0.34195748896E+03  0.34195748896E+03  0.00000000000E+00 0.  1.
          2   -1    0    0  501    0  0.00000000000E+00 -0.00000000000E+00 -0.15895097511E+04  0.15895097511E+04  0.00000000000E+00 0. -1.
         23    2    1    2    0    0 -0.20120506784E+03 -0.35083999809E+03 -0.11691641922E+03  0.43056959321E+03  0.90269274532E+02 0.  0.
        254    2    1    2    0    0  0.20120506784E+03  0.35083999809E+03 -0.11306358429E+04  0.15008976469E+04  0.90043553544E+03 0.  0.
        -24    2    4    4    0    0 -0.25371062706E+03  0.16109406193E+03 -0.89777577839E+03  0.95016408941E+03  0.80560967427E+02 0.  0.
         24    2    4    4    0    0  0.45491569489E+03  0.18974593617E+03 -0.23286006456E+03  0.55073355747E+03  0.78306014524E+02 0.  0.
         13    1    3    3    0    0 -0.20095789558E+03 -0.33387583783E+03 -0.91959514080E+02  0.40039193687E+03  0.00000000000E+00 0.  1.
        -13    1    3    3    0    0 -0.24717225692E+00 -0.16964160264E+02 -0.24956905141E+02  0.30177656334E+02  0.00000000000E+00 0. -1.
          4    1    6    6  502    0  0.32139905433E+03  0.13523720957E+03 -0.12414809172E+03  0.37013403471E+03  0.00000000000E+00 0. -1.
          3    1    5    5  503    0 -0.19122481772E+03  0.13702740497E+03 -0.58965767342E+03  0.63485400877E+03  0.00000000000E+00 0. -1.
         -4    1    5    5    0  503 -0.62485809335E+02  0.24066656959E+02 -0.30811810496E+03  0.31531008063E+03  0.00000000000E+00 0.  1.
         -3    1    6    6    0  502  0.13351664057E+03  0.54508726595E+02 -0.10871197284E+03  0.18059952276E+03  0.00000000000E+00 0.  1.
<mgrwt>
<rscale>  0 0.14745098E+04</rscale>
<asrwt>0</asrwt>
<pdfrwt beam="1">  1        2 0.24453996E+00 0.14745098E+04</pdfrwt>
<pdfrwt beam="2">  1       -2 0.52608845E-01 0.14745098E+04</pdfrwt>
<totfact> 0.37296084E+01</totfact>
</mgrwt>
</event>
<event>
12    1  0.2048318E-007  0.3874994E+04  0.7818608E-02  0.8030250E-01
         -1   -1    0    0    0  501 -0.00000000000E+00  0.00000000000E+00  0.14873180080E+04  0.14873180080E+04  0.00000000000E+00 0.  1.
          1   -1    0    0  501    0  0.00000000000E+00 -0.00000000000E+00 -0.25239358063E+04  0.25239358063E+04  0.00000000000E+00 0. -1.
         23    2    1    2    0    0  0.16000631871E+04 -0.74401268862E+03  0.18225805206E+02  0.17670567235E+04  0.91652607089E+02 0.  0.
        254    2    1    2    0    0 -0.16000631871E+04  0.74401268862E+03 -0.10548436035E+04  0.22441970908E+04  0.89998248375E+03 0.  0.
        -24    2    4    4    0    0 -0.37138335584E+03  0.63020830491E+03 -0.49527488286E+03  0.88723201671E+03  0.82433835992E+02 0.  0.
         24    2    4    4    0    0 -0.12286798313E+04  0.11380438371E+03 -0.55956872062E+03  0.13569650741E+04  0.75043278899E+02 0.  0.
         11    1    3    3    0    0  0.46107937582E+03 -0.17451226645E+03 -0.14444605970E+02  0.49321128190E+03  0.00000000000E+00 0. -1.
        -11    1    3    3    0    0  0.11389838113E+04 -0.56950042217E+03  0.32670411176E+02  0.12738454416E+04  0.00000000000E+00 0.  1.
          4    1    6    6  502    0 -0.11408637478E+04  0.12125828083E+03 -0.53190547473E+03  0.12645936484E+04  0.00000000000E+00 0. -1.
          3    1    5    5  503    0 -0.28705260114E+03  0.51704078719E+03 -0.43309417372E+03  0.73300814099E+03  0.00000000000E+00 0. -1.
         -4    1    5    5    0  503 -0.84330754701E+02  0.11316751772E+03 -0.62180709132E+02  0.15422387572E+03  0.00000000000E+00 0.  1.
         -3    1    6    6    0  502 -0.87816083542E+02 -0.74538971180E+01 -0.27663245891E+02  0.92371425690E+02  0.00000000000E+00 0.  1.
<mgrwt>
<rscale>  0 0.38749943E+04</rscale>
<asrwt>0</asrwt>
<pdfrwt beam="1">  1        1 0.38829781E+00 0.38749943E+04</pdfrwt>
<pdfrwt beam="2">  1       -1 0.22881816E+00 0.38749943E+04</pdfrwt>
<totfact> 0.99086733E-02</totfact>
</mgrwt>
</event>
<event>
12    1  0.2048318E-007  0.1971621E+04  0.7818608E-02  0.8620005E-01
         -2   -1    0    0    0  501 -0.00000000000E+00  0.00000000000E+00  0.29618814235E+03  0.29618814235E+03  0.00000000000E+00 0.  1.
          2   -1    0    0  501    0  0.00000000000E+00 -0.00000000000E+00 -0.32810997252E+04  0.32810997252E+04  0.00000000000E+00 0. -1.
         23    2    1    2    0    0  0.34642278738E+03  0.69149316470E+03 -0.11609295333E+04  0.13979612316E+04  0.91469553219E+02 0.  0.
        254    2    1    2    0    0 -0.34642278738E+03 -0.69149316470E+03 -0.18239820495E+04  0.21793266360E+04  0.90795513372E+03 0.  0.
        -24    2    4    4    0    0 -0.51293140849E+03 -0.40862192514E+03 -0.54504483845E+03  0.85662878160E+03  0.81660798555E+02 0.  0.
         24    2    4    4    0    0  0.16650862111E+03 -0.28287123955E+03 -0.12789372111E+04  0.13226978544E+04  0.78153471038E+02 0.  0.
         13    1    3    3    0    0  0.19968313051E+03  0.32782168272E+03 -0.51511873467E+03  0.64240775142E+03  0.00000000000E+00 0.  1.
        -13    1    3    3    0    0  0.14673965687E+03  0.36367148198E+03 -0.64581079864E+03  0.75555348014E+03  0.00000000000E+00 0. -1.
          4    1    6    6  502    0  0.14485849229E+03 -0.23375161736E+03 -0.93517315409E+03  0.97476798754E+03  0.00000000000E+00 0. -1.
          1    1    5    5  503    0 -0.41856591612E+03 -0.33876672573E+03 -0.40442479514E+03  0.67343873924E+03  0.00000000000E+00 0. -1.
         -2    1    5    5    0  503 -0.94365492376E+02 -0.69855199417E+02 -0.14062004332E+03  0.18319004236E+03  0.00000000000E+00 0.  1.
         -3    1    6    6    0  502  0.21650128821E+02 -0.49119622195E+02 -0.34376405697E+03  0.34792986683E+03  0.00000000000E+00 0.  1.
<mgrwt>
<rscale>  0 0.19716215E+04</rscale>
<asrwt>0</asrwt>
<pdfrwt beam="1">  1        2 0.50478457E+00 0.19716215E+04</pdfrwt>
<pdfrwt beam="2">  1       -2 0.45567407E-01 0.19716215E+04</pdfrwt>
<totfact> 0.48972726E+00</totfact>
</mgrwt>
</event>
<event>
12    1  0.2048318E-007  0.2868188E+04  0.7818608E-02  0.8282406E-01
          1   -1    0    0  501    0  0.00000000000E+00  0.00000000000E+00  0.35839543521E+04  0.35839543521E+04  0.00000000000E+00 0. -1.
         -1   -1    0    0    0  501 -0.00000000000E+00 -0.00000000000E+00 -0.57384256414E+03  0.57384256414E+03  0.00000000000E+00 0.  1.
         23    2    1    2    0    0 -0.26367244028E+03 -0.12475117859E+04  0.16607167868E+04  0.20957126156E+04  0.90676951154E+02 0.  0.
        254    2    1    2    0    0  0.26367244028E+03  0.12475117859E+04  0.13493950011E+04  0.20620843006E+04  0.89750542168E+03 0.  0.
        -24    2    4    4    0    0  0.23104938140E+03  0.10307726159E+04  0.14599846322E+04  0.18038637003E+04  0.80579903102E+02 0.  0.
         24    2    4    4    0    0  0.32623058887E+02  0.21673917006E+03 -0.11058963111E+03  0.25822060026E+03  0.80047986126E+02 0.  0.
         13    1    3    3    0    0 -0.18847940439E+03 -0.78071587043E+03  0.98340124194E+03  0.12696927813E+04  0.00000000000E+00 0. -1.
        -13    1    3    3    0    0 -0.75193035896E+02 -0.46679591549E+03  0.67731554489E+03  0.82601983433E+03  0.00000000000E+00 0.  1.
          2    1    6    6  502    0  0.58899939461E+02  0.16367976361E+03 -0.78097742132E+02  0.19068173801E+03  0.00000000000E+00 0. -1.
          1    1    5    5  503    0  0.65224884492E+02  0.43796747068E+03  0.65087029091E+03  0.78721148780E+03  0.00000000000E+00 0. -1.
         -2    1    5    5    0  503  0.16582449691E+03  0.59280514518E+03  0.80911434131E+03  0.10166522125E+04  0.00000000000E+00 0.  1.
         -1    1    6    6    0  502 -0.26276880574E+02  0.53059406446E+02 -0.32491888979E+02  0.67538862253E+02  0.00000000000E+00 0.  1.
<mgrwt>
<rscale>  0 0.28681880E+04</rscale>
<asrwt>0</asrwt>
<pdfrwt beam="1">  1        1 0.55137758E+00 0.28681880E+04</pdfrwt>
<pdfrwt beam="2">  1       -1 0.88283473E-01 0.28681880E+04</pdfrwt>
<totfact> 0.23233320E-01</totfact>
</mgrwt>
</event>
<event>
12    1  0.2048318E-007  0.2096639E+04  0.7818608E-02  0.8562725E-01
          2   -1    0    0  501    0  0.00000000000E+00  0.00000000000E+00  0.22471751267E+04  0.22471751267E+04  0.00000000000E+00 0. -1.
         -2   -1    0    0    0  501 -0.00000000000E+00 -0.00000000000E+00 -0.48904694987E+03  0.48904694987E+03  0.00000000000E+00 0.  1.
         23    2    1    2    0    0 -0.61330615404E+03 -0.30584674700E+03  0.13807092394E+04  0.15442537906E+04  0.93140188675E+02 0.  0.
        254    2    1    2    0    0  0.61330615404E+03  0.30584674700E+03  0.37741893738E+03  0.11919682859E+04  0.89925339540E+03 0.  0.
        -24    2    4    4    0    0  0.18047209596E+03  0.29699984727E+03  0.60053527007E+03  0.69844345367E+03  0.80009753583E+02 0.  0.
         24    2    4    4    0    0  0.43283405808E+03  0.88468997303E+01 -0.22311633270E+03  0.49352483226E+03  0.79763855695E+02 0.  0.
         11    1    3    3    0    0 -0.48540298235E+03 -0.27203514067E+03  0.10560777813E+04  0.11936999008E+04  0.00000000000E+00 0.  1.
        -11    1    3    3    0    0 -0.12790317169E+03 -0.33811606328E+02  0.32463145812E+03  0.35055388980E+03  0.00000000000E+00 0. -1.
          4    1    6    6  502    0  0.15886584395E+03  0.31344454529E+02 -0.11270359806E+03  0.19728895616E+03  0.00000000000E+00 0. -1.
          1    1    5    5  503    0  0.62179460800E+02  0.51369584384E+02  0.18032209924E+03  0.19753779137E+03  0.00000000000E+00 0. -1.
         -2    1    5    5    0  503  0.11829263516E+03  0.24563026288E+03  0.42021317084E+03  0.50090566230E+03  0.00000000000E+00 0.  1.
         -3    1    6    6    0  502  0.27396821412E+03 -0.22497554799E+02 -0.11041273463E+03  0.29623587610E+03  0.00000000000E+00 0.  1.
<mgrwt>
<rscale>  0 0.20966394E+04</rscale>
<asrwt>0</asrwt>
<pdfrwt beam="1">  1        2 0.34571924E+00 0.20966394E+04</pdfrwt>
<pdfrwt beam="2">  1       -2 0.75237994E-01 0.20966394E+04</pdfrwt>
<totfact> 0.70988712E+00</totfact>
</mgrwt>
</event>
<event>
12    1  0.2048318E-007  0.2204860E+04  0.7818608E-02  0.8516408E-01
          2   -1    0    0  501    0  0.00000000000E+00  0.00000000000E+00  0.26822181289E+04  0.26822181289E+04  0.00000000000E+00 0. -1.
         -2   -1    0    0    0  501 -0.00000000000E+00 -0.00000000000E+00 -0.45311452235E+03  0.45311452235E+03  0.00000000000E+00 0.  1.
         23    2    1    2    0    0  0.82964569941E+03 -0.10150022482E+02  0.14786417082E+04  0.16993365066E+04  0.11379038610E+03 0.  0.
        254    2    1    2    0    0 -0.82964569941E+03  0.10150022482E+02  0.75046189834E+03  0.14359961446E+04  0.90026488161E+03 0.  0.
        -24    2    4    4    0    0 -0.90744878238E+03 -0.68239380530E+02  0.86481049562E+03  0.12579114034E+04  0.79523580138E+02 0.  0.
         24    2    4    4    0    0  0.77803082968E+02  0.78389403012E+02 -0.11434859728E+03  0.17808474123E+03  0.80251823258E+02 0.  0.
         13    1    3    3    0    0  0.71717275777E+03 -0.43582407156E+02  0.13060071772E+04  0.14906008646E+04  0.00000000000E+00 0. -1.
        -13    1    3    3    0    0  0.11247294164E+03  0.33432384674E+02  0.17263453106E+03  0.20873564205E+03  0.00000000000E+00 0.  1.
          4    1    6    6  502    0  0.22822601720E+02  0.77877743198E+02 -0.74680726133E+02  0.11028610470E+03  0.00000000000E+00 0. -1.
          3    1    5    5  503    0 -0.10332674839E+03 -0.28375549562E+02  0.81519016185E+02  0.13463632031E+03  0.00000000000E+00 0. -1.
         -2    1    5    5    0  503 -0.80412203399E+03 -0.39863830968E+02  0.78329147944E+03  0.11232750831E+04  0.00000000000E+00 0.  1.
         -3    1    6    6    0  502  0.54980481248E+02  0.51165981485E+00 -0.39667871146E+02  0.67798636530E+02  0.00000000000E+00 0.  1.
<mgrwt>
<rscale>  0 0.22048601E+04</rscale>
<asrwt>0</asrwt>
<pdfrwt beam="1">  1        2 0.41264893E+00 0.22048601E+04</pdfrwt>
<pdfrwt beam="2">  1       -2 0.69709928E-01 0.22048601E+04</pdfrwt>
<totfact> 0.46654609E+00</totfact>
</mgrwt>
</event>
<event>
12    1  0.2048318E-007  0.1267911E+04  0.7818608E-02  0.9055406E-01
          2   -1    0    0  501    0  0.00000000000E+00  0.00000000000E+00  0.14704331444E+04  0.14704331444E+04  0.00000000000E+00 0.  1.
         -2   -1    0    0    0  501 -0.00000000000E+00 -0.00000000000E+00 -0.27332074954E+03  0.27332074954E+03  0.00000000000E+00 0. -1.
         23    2    1    2    0    0  0.56266513317E+02  0.19892618471E+02 -0.11314281311E+03  0.15413506385E+03  0.85992354074E+02 0.  0.
        254    2    1    2    0    0 -0.56266513317E+02 -0.19892618471E+02  0.13102552080E+04  0.15896188301E+04  0.89808556281E+03 0.  0.
        -24    2    4    4    0    0  0.30602327102E+03 -0.29041440835E+03  0.50628095543E+03  0.66382695755E+03  0.79718584729E+02 0.  0.
         24    2    4    4    0    0 -0.36228978434E+03  0.27052178988E+03  0.80397425255E+03  0.92579187253E+03  0.79246866514E+02 0.  0.
         13    1    3    3    0    0 -0.14067685626E+02  0.30448395415E+02 -0.35294886478E+02  0.48690179438E+02  0.00000000000E+00 0.  1.
        -13    1    3    3    0    0  0.70334198943E+02 -0.10555776943E+02 -0.77847926637E+02  0.10544488442E+03  0.00000000000E+00 0. -1.
          2    1    6    6  502    0 -0.25282166644E+03  0.20240490791E+03  0.63926397992E+03  0.71662052566E+03  0.00000000000E+00 0. -1.
          3    1    5    5  503    0  0.31099558366E+03 -0.28763478816E+03  0.49846690019E+03  0.65415691925E+03  0.00000000000E+00 0. -1.
         -4    1    5    5    0  503 -0.49723126407E+01 -0.27796201938E+01  0.78140552351E+01  0.96700382954E+01  0.00000000000E+00 0.  1.
         -1    1    6    6    0  502 -0.10946811789E+03  0.68116881974E+02  0.16471027263E+03  0.20917134688E+03  0.00000000000E+00 0.  1.
<mgrwt>
<rscale>  0 0.12679115E+04</rscale>
<asrwt>0</asrwt>
<pdfrwt beam="1">  1        2 0.22622048E+00 0.12679115E+04</pdfrwt>
<pdfrwt beam="2">  1       -2 0.42049347E-01 0.12679115E+04</pdfrwt>
<totfact> 0.69431988E+01</totfact>
</mgrwt>
</event>
<event>
12    1  0.2048318E-007  0.2251153E+04  0.7818608E-02  0.8497434E-01
          2   -1    0    0  501    0  0.00000000000E+00  0.00000000000E+00  0.11591157231E+04  0.11591157231E+04  0.00000000000E+00 0. -1.
         -2   -1    0    0    0  501 -0.00000000000E+00 -0.00000000000E+00 -0.10930079092E+04  0.10930079092E+04  0.00000000000E+00 0.  1.
         23    2    1    2    0    0  0.11893879051E+03  0.74298694408E+02 -0.90447788097E+03  0.91990662535E+03  0.92093595450E+02 0.  0.
        254    2    1    2    0    0 -0.11893879051E+03 -0.74298694408E+02  0.97058569487E+03  0.13322170069E+04  0.90171992912E+03 0.  0.
        -24    2    4    4    0    0 -0.40871161711E+03 -0.12487613886E+03  0.15550122928E+03  0.46199972616E+03  0.81387214289E+02 0.  0.
         24    2    4    4    0    0  0.28977282660E+03  0.50577444449E+02  0.81508446559E+03  0.87021728076E+03  0.79931600511E+02 0.  0.
         13    1    3    3    0    0  0.36145473091E+02  0.49930436110E+02 -0.60816658405E+03  0.61128237144E+03  0.00000000000E+00 0. -1.
        -13    1    3    3    0    0  0.82793317418E+02  0.24368258298E+02 -0.29631129692E+03  0.30862425391E+03  0.00000000000E+00 0.  1.
          4    1    6    6  502    0  0.72572735213E+02  0.48558334388E+02  0.25124938708E+03  0.26599054164E+03  0.00000000000E+00 0. -1.
          1    1    5    5  503    0 -0.13111396746E+02 -0.21751845887E+02  0.26353342186E+01  0.25534222342E+02  0.00000000000E+00 0. -1.
         -2    1    5    5    0  503 -0.39560022037E+03 -0.10312429297E+03  0.15286589506E+03  0.43646550382E+03  0.00000000000E+00 0.  1.
         -3    1    6    6    0  502  0.21720009139E+03  0.20191100613E+01  0.56383507851E+03  0.60422673912E+03  0.00000000000E+00 0.  1.
<mgrwt>
<rscale>  0 0.22511532E+04</rscale>
<asrwt>0</asrwt>
<pdfrwt beam="1">  1        2 0.17832550E+00 0.22511532E+04</pdfrwt>
<pdfrwt beam="2">  1       -2 0.16815506E+00 0.22511532E+04</pdfrwt>
<totfact> 0.40086673E+00</totfact>
</mgrwt>
</event>
<event>
12    1  0.2048318E-007  0.1441514E+04  0.7818608E-02  0.8924305E-01
          2   -1    0    0  501    0  0.00000000000E+00  0.00000000000E+00  0.53277890002E+03  0.53277890002E+03  0.00000000000E+00 0. -1.
         -2   -1    0    0    0  501 -0.00000000000E+00 -0.00000000000E+00 -0.97505893101E+03  0.97505893101E+03  0.00000000000E+00 0.  1.
         23    2    1    2    0    0 -0.12084585468E+03  0.11553394176E+03  0.28094280102E+03  0.34003269295E+03  0.93496323647E+02 0.  0.
        254    2    1    2    0    0  0.12084585468E+03 -0.11553394176E+03 -0.72322283201E+03  0.11678051381E+04  0.90153522587E+03 0.  0.
        -24    2    4    4    0    0 -0.13806365551E+03  0.33387541581E+03 -0.42890753631E+03  0.56644753576E+03  0.79792041064E+02 0.  0.
         24    2    4    4    0    0  0.25890951019E+03 -0.44940935757E+03 -0.29431529571E+03  0.60135760232E+03  0.77502047979E+02 0.  0.
         11    1    3    3    0    0 -0.84678281321E+02  0.72768821251E+02  0.97497528540E+02  0.14822780018E+03  0.00000000000E+00 0.  1.
        -11    1    3    3    0    0 -0.36167573355E+02  0.42765120511E+02  0.18344527248E+03  0.19180489277E+03  0.00000000000E+00 0. -1.
          4    1    6    6  502    0  0.21379584000E+03 -0.31940070949E+03 -0.24168443502E+03  0.45402295157E+03  0.00000000000E+00 0. -1.
          3    1    5    5  503    0 -0.11328189902E+03  0.17131819089E+03 -0.22935147178E+03  0.30787141599E+03  0.00000000000E+00 0. -1.
         -4    1    5    5    0  503 -0.24781756489E+02  0.16255722492E+03 -0.19955606453E+03  0.25857611977E+03  0.00000000000E+00 0.  1.
         -3    1    6    6    0  502  0.45113670185E+02 -0.13000864808E+03 -0.52630860688E+02  0.14733465074E+03  0.00000000000E+00 0.  1.
<mgrwt>
<rscale>  0 0.14415142E+04</rscale>
<asrwt>0</asrwt>
<pdfrwt beam="1">  1        2 0.81965984E-01 0.14415142E+04</pdfrwt>
<pdfrwt beam="2">  1       -2 0.15000907E+00 0.14415142E+04</pdfrwt>
<totfact> 0.16603261E+01</totfact>
</mgrwt>
</event>
<event>
12    1  0.2048318E-007  0.1752731E+04  0.7818608E-02  0.8731848E-01
          2   -1    0    0  501    0  0.00000000000E+00  0.00000000000E+00  0.73433801536E+03  0.73433801536E+03  0.00000000000E+00 0. -1.
         -2   -1    0    0    0  501 -0.00000000000E+00 -0.00000000000E+00 -0.10458627973E+04  0.10458627973E+04  0.00000000000E+00 0.  1.
         23    2    1    2    0    0  0.18914218155E+02 -0.64004180768E+03 -0.15495719483E+03  0.66507137857E+03  0.91087557543E+02 0.  0.
        254    2    1    2    0    0 -0.18914218155E+02  0.64004180768E+03 -0.15656758713E+03  0.11151294341E+04  0.89943814809E+03 0.  0.
        -24    2    4    4    0    0  0.16567340244E+03 -0.45846143460E+02  0.23339996543E+03  0.30068688891E+03  0.79921937884E+02 0.  0.
         24    2    4    4    0    0 -0.18458762059E+03  0.68588795114E+03 -0.38996755256E+03  0.81444254519E+03  0.82018876912E+02 0.  0.
         13    1    3    3    0    0  0.54726148754E+02 -0.31319034271E+03 -0.79055484768E+02  0.32761702001E+03  0.00000000000E+00 0. -1.
        -13    1    3    3    0    0 -0.35811930599E+02 -0.32685146497E+03 -0.75901710060E+02  0.33745435856E+03  0.00000000000E+00 0.  1.
          4    1    6    6  502    0 -0.67666653800E+02  0.30316524515E+03 -0.12696373006E+03  0.33557075357E+03  0.00000000000E+00 0. -1.
          1    1    5    5  503    0  0.63752228070E+01  0.88862589157E+01  0.52025767038E+02  0.53162858269E+02  0.00000000000E+00 0. -1.
         -2    1    5    5    0  503  0.15929817963E+03 -0.54732402376E+02  0.18137419839E+03  0.24752403064E+03  0.00000000000E+00 0.  1.
         -1    1    6    6    0  502 -0.11692096679E+03  0.38272270600E+03 -0.26300382250E+03  0.47887179162E+03  0.00000000000E+00 0.  1.
<mgrwt>
<rscale>  0 0.17527314E+04</rscale>
<asrwt>0</asrwt>
<pdfrwt beam="1">  1        2 0.11297508E+00 0.17527314E+04</pdfrwt>
<pdfrwt beam="2">  1       -2 0.16090197E+00 0.17527314E+04</pdfrwt>
<totfact> 0.90537461E+00</totfact>
</mgrwt>
</event>
<event>
12    1  0.2048318E-007  0.1310996E+04  0.7818608E-02  0.9020891E-01
          1   -1    0    0  501    0  0.00000000000E+00  0.00000000000E+00  0.97634943593E+03  0.97634943593E+03  0.00000000000E+00 0. -1.
         -1   -1    0    0    0  501 -0.00000000000E+00 -0.00000000000E+00 -0.44008562701E+03  0.44008562701E+03  0.00000000000E+00 0.  1.
         23    2    1    2    0    0 -0.90888648919E+02 -0.70661646920E+02  0.48817310074E+03  0.50917598216E+03  0.87711969907E+02 0.  0.
        254    2    1    2    0    0  0.90888648919E+02  0.70661646920E+02  0.48090708172E+02  0.90725908079E+03  0.89863925388E+03 0.  0.
        -24    2    4    4    0    0  0.52620240068E+02  0.92885808402E+01  0.46573169866E+03  0.47555889704E+03  0.79969256710E+02 0.  0.
         24    2    4    4    0    0  0.38268408851E+02  0.61373066080E+02 -0.41764099049E+03  0.43170018375E+03  0.81914146258E+02 0.  0.
         11    1    3    3    0    0 -0.67856914654E+02  0.25258700872E+01  0.21969798834E+03  0.22995248850E+03  0.00000000000E+00 0.  1.
        -11    1    3    3    0    0 -0.23031734266E+02 -0.73187517008E+02  0.26847511241E+03  0.27922349366E+03  0.00000000000E+00 0. -1.
          4    1    6    6  502    0  0.56167965548E+02  0.49507322884E+02 -0.38764343989E+03  0.39480786703E+03  0.00000000000E+00 0. -1.
          1    1    5    5  503    0  0.89710070244E+00  0.37374301818E+01  0.33263825761E+03  0.33266046293E+03  0.00000000000E+00 0. -1.
         -2    1    5    5    0  503  0.51723139365E+02  0.55511506584E+01  0.13309344105E+03  0.14289843411E+03  0.00000000000E+00 0.  1.
         -3    1    6    6    0  502 -0.17899556697E+02  0.11865743196E+02 -0.29997550593E+02  0.36892316722E+02  0.00000000000E+00 0.  1.
<mgrwt>
<rscale>  0 0.13109956E+04</rscale>
<asrwt>0</asrwt>
<pdfrwt beam="1">  1        1 0.15020761E+00 0.13109956E+04</pdfrwt>
<pdfrwt beam="2">  1       -1 0.67705481E-01 0.13109956E+04</pdfrwt>
<totfact> 0.34255907E+01</totfact>
</mgrwt>
</event>
<event>
12    1  0.2048318E-007  0.1767761E+04  0.7818608E-02  0.8723634E-01
          2   -1    0    0  501    0  0.00000000000E+00  0.00000000000E+00  0.91025975887E+03  0.91025975887E+03  0.00000000000E+00 0. -1.
         -2   -1    0    0    0  501 -0.00000000000E+00 -0.00000000000E+00 -0.85826566412E+03  0.85826566412E+03  0.00000000000E+00 0.  1.
         23    2    1    2    0    0  0.30166233009E+03  0.52023497176E+03 -0.22773665155E+03  0.64994379920E+03  0.94437134760E+02 0.  0.
        254    2    1    2    0    0 -0.30166233009E+03 -0.52023497176E+03  0.27973074630E+03  0.11185816238E+04  0.90073912505E+03 0.  0.
        -24    2    4    4    0    0 -0.43250643875E+03 -0.37524893710E+02  0.40199257225E+03  0.59751768028E+03  0.83423095711E+02 0.  0.
         24    2    4    4    0    0  0.13084410866E+03 -0.48271007805E+03 -0.12226182595E+03  0.52106394350E+03  0.80190266910E+02 0.  0.
         11    1    3    3    0    0  0.11005155695E+03  0.11990861375E+03 -0.37199151603E+02  0.16695268108E+03  0.00000000000E+00 0. -1.
        -11    1    3    3    0    0  0.19161077314E+03  0.40032635801E+03 -0.19053749995E+03  0.48299111812E+03  0.00000000000E+00 0.  1.
          2    1    6    6  502    0  0.22543672982E+02 -0.21556178478E+03 -0.32597220916E+02  0.21917499643E+03  0.00000000000E+00 0. -1.
          1    1    5    5  503    0 -0.45647686259E+02  0.21656029220E+02  0.51680984838E+02  0.72274608654E+02  0.00000000000E+00 0. -1.
         -2    1    5    5    0  503 -0.38685875250E+03 -0.59180922930E+02  0.35031158741E+03  0.52524307163E+03  0.00000000000E+00 0.  1.
         -1    1    6    6    0  502  0.10830043568E+03 -0.26714829327E+03 -0.89664605029E+02  0.30188894706E+03  0.00000000000E+00 0.  1.
<mgrwt>
<rscale>  0 0.17677610E+04</rscale>
<asrwt>0</asrwt>
<pdfrwt beam="1">  1        2 0.14003996E+00 0.17677610E+04</pdfrwt>
<pdfrwt beam="2">  1       -2 0.13204087E+00 0.17677610E+04</pdfrwt>
<totfact> 0.11400995E+01</totfact>
</mgrwt>
</event>
<event>
12    1  0.2048318E-007  0.1312892E+04  0.7818608E-02  0.9019404E-01
          1   -1    0    0  501    0  0.00000000000E+00  0.00000000000E+00  0.83140016922E+03  0.83140016922E+03  0.00000000000E+00 0. -1.
         -1   -1    0    0    0  501 -0.00000000000E+00 -0.00000000000E+00 -0.51830764491E+03  0.51830764491E+03  0.00000000000E+00 0.  1.
         23    2    1    2    0    0 -0.15251561616E+02  0.34002071109E+03 -0.34282539062E+01  0.35347652003E+03  0.95326823000E+02 0.  0.
        254    2    1    2    0    0  0.15251561616E+02 -0.34002071109E+03  0.31652077821E+03  0.99623129410E+03  0.88116099222E+03 0.  0.
        -24    2    4    4    0    0  0.29187847648E+02 -0.58281574452E+03  0.41872700221E+03  0.72262046109E+03  0.79510413765E+02 0.  0.
         24    2    4    4    0    0 -0.13936286032E+02  0.24279503343E+03 -0.10220622400E+03  0.27361083301E+03  0.72616302503E+02 0.  0.
         13    1    3    3    0    0  0.32431282163E+02  0.22459410120E+03  0.14117392176E+02  0.22736226406E+03  0.00000000000E+00 0. -1.
        -13    1    3    3    0    0 -0.47682843779E+02  0.11542660989E+03 -0.17545646082E+02  0.12611425597E+03  0.00000000000E+00 0.  1.
          4    1    6    6  502    0 -0.17417157167E+02  0.14619295575E+03 -0.97987867469E+02  0.17685406370E+03  0.00000000000E+00 0. -1.
          3    1    5    5  503    0 -0.72913934814E+01 -0.17892463470E+02  0.30797397875E+02  0.36356352729E+02  0.00000000000E+00 0. -1.
         -4    1    5    5    0  503  0.36479241130E+02 -0.56492328105E+03  0.38792960434E+03  0.68626410836E+03  0.00000000000E+00 0.  1.
         -3    1    6    6    0  502  0.34808711349E+01  0.96602077680E+02 -0.42183565278E+01  0.96756769312E+02  0.00000000000E+00 0.  1.
<mgrwt>
<rscale>  0 0.13128916E+04</rscale>
<asrwt>0</asrwt>
<pdfrwt beam="1">  1        1 0.12790772E+00 0.13128916E+04</pdfrwt>
<pdfrwt beam="2">  1       -1 0.79739638E-01 0.13128916E+04</pdfrwt>
<totfact> 0.32036804E+01</totfact>
</mgrwt>
</event>
<event>
12    1  0.2048318E-007  0.1523436E+04  0.7818608E-02  0.8869016E-01
          1   -1    0    0  501    0  0.00000000000E+00  0.00000000000E+00  0.10845759507E+04  0.10845759507E+04  0.00000000000E+00 0. -1.
         -1   -1    0    0    0  501 -0.00000000000E+00 -0.00000000000E+00 -0.53496849499E+03  0.53496849499E+03  0.00000000000E+00 0.  1.
         23    2    1    2    0    0  0.37496235682E+03  0.24486092983E+03  0.35900497010E+03  0.58120454481E+03  0.91435826495E+02 0.  0.
        254    2    1    2    0    0 -0.37496235682E+03 -0.24486092983E+03  0.19060248565E+03  0.10383399009E+04  0.91720597377E+03 0.  0.
        -24    2    4    4    0    0  0.25562055395E+03  0.71188872960E+02 -0.62930660196E+02  0.28451654939E+03  0.81115199882E+02 0.  0.
         24    2    4    4    0    0 -0.63058291076E+03 -0.31604980280E+03  0.25353314584E+03  0.75382335153E+03  0.80301332938E+02 0.  0.
         13    1    3    3    0    0  0.32586383564E+03  0.17701157706E+03  0.31517425855E+03  0.48667766648E+03  0.00000000000E+00 0. -1.
        -13    1    3    3    0    0  0.49098521173E+02  0.67849352773E+02  0.43830711544E+02  0.94526878334E+02  0.00000000000E+00 0.  1.
          2    1    6    6  502    0 -0.15095240691E+03 -0.99267759854E+02  0.35587353728E+02  0.18413901554E+03  0.00000000000E+00 0. -1.
          3    1    5    5  503    0  0.17645449342E+03  0.44242524876E+02 -0.35478737783E+01  0.18195102820E+03  0.00000000000E+00 0. -1.
         -4    1    5    5    0  503  0.79166060531E+02  0.26946348085E+02 -0.59382786417E+02  0.10256552119E+03  0.00000000000E+00 0.  1.
         -1    1    6    6    0  502 -0.47963050386E+03 -0.21678204294E+03  0.21794579212E+03  0.56968433599E+03  0.00000000000E+00 0.  1.
<mgrwt>
<rscale>  0 0.15234355E+04</rscale>
<asrwt>0</asrwt>
<pdfrwt beam="1">  1        1 0.16685784E+00 0.15234355E+04</pdfrwt>
<pdfrwt beam="2">  1       -1 0.82302846E-01 0.15234355E+04</pdfrwt>
<totfact> 0.18461690E+01</totfact>
</mgrwt>
</event>
<event>
12    1  0.2048318E-007  0.1420584E+04  0.7818608E-02  0.8939052E-01
          1   -1    0    0  501    0  0.00000000000E+00  0.00000000000E+00  0.69463733893E+03  0.69463733893E+03  0.00000000000E+00 0. -1.
         -1   -1    0    0    0  501 -0.00000000000E+00 -0.00000000000E+00 -0.72629961071E+03  0.72629961071E+03  0.00000000000E+00 0.  1.
         23    2    1    2    0    0 -0.34157866114E+03  0.13298734461E+03  0.18798508054E+03  0.42190433727E+03  0.91122246032E+02 0.  0.
        254    2    1    2    0    0  0.34157866114E+03 -0.13298734461E+03 -0.21964735233E+03  0.99903261237E+03  0.90302800933E+03 0.  0.
        -24    2    4    4    0    0  0.56817260628E+03 -0.65279945026E+02 -0.38956037537E+03  0.69642392878E+03  0.78532927925E+02 0.  0.
         24    2    4    4    0    0 -0.22659394514E+03 -0.67707399586E+02  0.16991302305E+03  0.30260868359E+03  0.82295030560E+02 0.  0.
         13    1    3    3    0    0 -0.33121071402E+03  0.10923211752E+03  0.15983703775E+03  0.38364054949E+03  0.00000000000E+00 0.  1.
        -13    1    3    3    0    0 -0.10367947128E+02  0.23755227096E+02  0.28148042790E+02  0.38263787775E+02  0.00000000000E+00 0. -1.
          2    1    6    6  502    0 -0.13760804451E+03 -0.68845109203E+02  0.70710946434E+02  0.16933889370E+03  0.00000000000E+00 0. -1.
          3    1    5    5  503    0  0.35806109726E+03 -0.69204849027E+02 -0.27752665922E+03  0.45827732551E+03  0.00000000000E+00 0. -1.
         -4    1    5    5    0  503  0.21011150902E+03  0.39249040006E+01 -0.11203371615E+03  0.23814660327E+03  0.00000000000E+00 0.  1.
         -1    1    6    6    0  502 -0.88985900627E+02  0.11377096178E+01  0.99202076612E+02  0.13326978989E+03  0.00000000000E+00 0.  1.
<mgrwt>
<rscale>  0 0.14205841E+04</rscale>
<asrwt>0</asrwt>
<pdfrwt beam="1">  1        1 0.10686728E+00 0.14205841E+04</pdfrwt>
<pdfrwt beam="2">  1       -1 0.11173840E+00 0.14205841E+04</pdfrwt>
<totfact> 0.19738809E+01</totfact>
</mgrwt>
</event>
<event>
12    1  0.2048318E-007  0.3951832E+04  0.7818608E-02  0.8014335E-01
          1   -1    0    0  501    0  0.00000000000E+00  0.00000000000E+00  0.18208770012E+04  0.18208770012E+04  0.00000000000E+00 0. -1.
         -1   -1    0    0    0  501 -0.00000000000E+00 -0.00000000000E+00 -0.21441560799E+04  0.21441560799E+04  0.00000000000E+00 0.  1.
         23    2    1    2    0    0  0.13325443374E+04  0.76232711242E+03 -0.12361763016E+04  0.19731648840E+04  0.91819242497E+02 0.  0.
        254    2    1    2    0    0 -0.13325443374E+04 -0.76232711242E+03  0.91289722292E+03  0.19918681971E+04  0.88166917681E+03 0.  0.
        -24    2    4    4    0    0 -0.10013951875E+04 -0.19478643853E+03  0.84297004726E+03  0.13259340233E+04  0.82270622970E+02 0.  0.
         24    2    4    4    0    0 -0.33114914990E+03 -0.56754067389E+03  0.69927175657E+02  0.66593417374E+03  0.82561115890E+02 0.  0.
         11    1    3    3    0    0  0.88501364631E+03  0.54936807668E+03 -0.81041383389E+03  0.13197821866E+04  0.00000000000E+00 0. -1.
        -11    1    3    3    0    0  0.44753069113E+03  0.21295903574E+03 -0.42576246770E+03  0.65338269744E+03  0.00000000000E+00 0.  1.
          4    1    6    6  502    0 -0.25689956155E+03 -0.41840871822E+03  0.86408703432E+02  0.49852753609E+03  0.00000000000E+00 0. -1.
          3    1    5    5  503    0 -0.88073715430E+03 -0.17589926381E+03  0.77430235841E+03  0.11858257158E+04  0.00000000000E+00 0. -1.
         -4    1    5    5    0  503 -0.12065803324E+03 -0.18887174719E+02  0.68667688858E+02  0.14010830756E+03  0.00000000000E+00 0.  1.
         -3    1    6    6    0  502 -0.74249588353E+02 -0.14913195567E+03 -0.16481527775E+02  0.16740663765E+03  0.00000000000E+00 0.  1.
<mgrwt>
<rscale>  0 0.39518322E+04</rscale>
<asrwt>0</asrwt>
<pdfrwt beam="1">  1        1 0.28013492E+00 0.39518322E+04</pdfrwt>
<pdfrwt beam="2">  1       -1 0.32987017E+00 0.39518322E+04</pdfrwt>
<totfact> 0.65334237E-02</totfact>
</mgrwt>
</event>
<event>
12    1  0.2048318E-007  0.1500042E+04  0.7818608E-02  0.8884425E-01
          1   -1    0    0  501    0  0.00000000000E+00  0.00000000000E+00  0.88119498901E+03  0.88119498901E+03  0.00000000000E+00 0. -1.
         -1   -1    0    0    0  501 -0.00000000000E+00 -0.00000000000E+00 -0.63837383105E+03  0.63837383105E+03  0.00000000000E+00 0.  1.
         23    2    1    2    0    0 -0.15907567160E+03 -0.42812845765E+03  0.22024115577E+03  0.51387352760E+03  0.83431349797E+02 0.  0.
        254    2    1    2    0    0  0.15907567160E+03  0.42812845765E+03  0.22580002198E+02  0.10056952925E+04  0.89571988882E+03 0.  0.
        -24    2    4    4    0    0  0.14645842403E+02 -0.22983780509E+03  0.18714912870E+03  0.30720466578E+03  0.79435464051E+02 0.  0.
         24    2    4    4    0    0  0.14442982920E+03  0.65796626275E+03 -0.16456912651E+03  0.69849062668E+03  0.83824696174E+02 0.  0.
         13    1    3    3    0    0 -0.14072587844E+03 -0.28966454645E+03  0.17796406351E+03  0.36794093307E+03  0.00000000000E+00 0.  1.
        -13    1    3    3    0    0 -0.18349793156E+02 -0.13846391121E+03  0.42277092261E+02  0.14593259453E+03  0.00000000000E+00 0. -1.
          4    1    6    6  502    0  0.42657145230E+01  0.15848862615E+03 -0.18986716389E+02  0.15967885376E+03  0.00000000000E+00 0. -1.
          3    1    5    5  503    0  0.28154504346E-01  0.61355446070E+01  0.10166272862E+02  0.11874291735E+02  0.00000000000E+00 0. -1.
         -4    1    5    5    0  503  0.14617687898E+02 -0.23597334970E+03  0.17698285584E+03  0.29533037404E+03  0.00000000000E+00 0.  1.
         -3    1    6    6    0  502  0.14016411467E+03  0.49947763660E+03 -0.14558241012E+03  0.53881177292E+03  0.00000000000E+00 0.  1.
<mgrwt>
<rscale>  0 0.15000424E+04</rscale>
<asrwt>0</asrwt>
<pdfrwt beam="1">  1        1 0.13556846E+00 0.15000424E+04</pdfrwt>
<pdfrwt beam="2">  1       -1 0.98211357E-01 0.15000424E+04</pdfrwt>
<totfact> 0.18124939E+01</totfact>
</mgrwt>
</event>
<event>
12    1  0.2048318E-007  0.2606026E+04  0.7818608E-02  0.8366157E-01
          1   -1    0    0  501    0  0.00000000000E+00  0.00000000000E+00  0.99834989647E+03  0.99834989647E+03  0.00000000000E+00 0.  1.
         -1   -1    0    0    0  501 -0.00000000000E+00 -0.00000000000E+00 -0.17006487454E+04  0.17006487454E+04  0.00000000000E+00 0. -1.
         23    2    1    2    0    0 -0.26141805077E+03  0.52731542343E+02 -0.14632513301E+04  0.14901324392E+04  0.90940741784E+02 0.  0.
        254    2    1    2    0    0  0.26141805077E+03 -0.52731542343E+02  0.76095248123E+03  0.12088662026E+04  0.90066020468E+03 0.  0.
        -24    2    4    4    0    0 -0.15793165150E+03 -0.28373280818E+03  0.61792381812E+03  0.70283599973E+03  0.81865038508E+02 0.  0.
         24    2    4    4    0    0  0.41934970227E+03  0.23100126583E+03  0.14302866311E+03  0.50603020288E+03  0.79960053425E+02 0.  0.
         13    1    3    3    0    0 -0.23640213962E+03  0.67573947616E+02 -0.11769628003E+04  0.12023700110E+04  0.00000000000E+00 0.  1.
        -13    1    3    3    0    0 -0.25015911149E+02 -0.14842405273E+02 -0.28628852982E+03  0.28776242825E+03  0.00000000000E+00 0. -1.
          2    1    6    6  502    0  0.13926985430E+03  0.12097738659E+03  0.55387507318E+02  0.19261203584E+03  0.00000000000E+00 0. -1.
          1    1    5    5  503    0  0.93581173954E+01 -0.23853342221E+02  0.41236169410E+02  0.48548717428E+02  0.00000000000E+00 0. -1.
         -2    1    5    5    0  503 -0.16728976890E+03 -0.25987946596E+03  0.57668764871E+03  0.65428728230E+03  0.00000000000E+00 0.  1.
         -3    1    6    6    0  502  0.28007984797E+03  0.11002387925E+03  0.87641155791E+02  0.31341816704E+03  0.00000000000E+00 0.  1.
<mgrwt>
<rscale>  0 0.26060257E+04</rscale>
<asrwt>0</asrwt>
<pdfrwt beam="1">  1        1 0.15359229E+00 0.26060257E+04</pdfrwt>
<pdfrwt beam="2">  1       -1 0.26163827E+00 0.26060257E+04</pdfrwt>
<totfact> 0.78212302E-01</totfact>
</mgrwt>
</event>
<event>
12    1  0.2048318E-007  0.1848357E+04  0.7818608E-02  0.8680998E-01
          2   -1    0    0  501    0  0.00000000000E+00  0.00000000000E+00  0.15288873250E+04  0.15288873250E+04  0.00000000000E+00 0. -1.
         -2   -1    0    0    0  501 -0.00000000000E+00 -0.00000000000E+00 -0.55864527221E+03  0.55864527221E+03  0.00000000000E+00 0.  1.
         23    2    1    2    0    0 -0.58838907520E+03  0.15568891565E+03  0.76530568256E+03  0.98204131243E+03  0.90948388047E+02 0.  0.
        254    2    1    2    0    0  0.58838907520E+03 -0.15568891565E+03  0.20493637019E+03  0.11054912847E+04  0.89981738290E+03 0.  0.
        -24    2    4    4    0    0  0.75134660788E+03 -0.24272555595E+03 -0.32111759145E+02  0.79411417017E+03  0.78413834936E+02 0.  0.
         24    2    4    4    0    0 -0.16295753268E+03  0.87036640299E+02  0.23704812934E+03  0.31137711458E+03  0.81445427420E+02 0.  0.
         13    1    3    3    0    0 -0.44834879893E+03  0.15324524615E+03  0.56069695491E+03  0.73408570768E+03  0.00000000000E+00 0.  1.
        -13    1    3    3    0    0 -0.14004027627E+03  0.24436695045E+01  0.20460872764E+03  0.24795560475E+03  0.00000000000E+00 0. -1.
          2    1    6    6  502    0 -0.12861198411E+03  0.43651232165E+02  0.11728963302E+03  0.17945286439E+03  0.00000000000E+00 0. -1.
          1    1    5    5  503    0  0.51847570181E+03 -0.13444546198E+03 -0.27825360518E+01  0.53563082261E+03  0.00000000000E+00 0. -1.
         -2    1    5    5    0  503  0.23287090606E+03 -0.10828009397E+03 -0.29329223093E+02  0.25848334757E+03  0.00000000000E+00 0.  1.
         -1    1    6    6    0  502 -0.34345548575E+02  0.43385408134E+02  0.11975849632E+03  0.13192425018E+03  0.00000000000E+00 0.  1.
<mgrwt>
<rscale>  0 0.18483568E+04</rscale>
<asrwt>0</asrwt>
<pdfrwt beam="1">  1        2 0.23521343E+00 0.18483568E+04</pdfrwt>
<pdfrwt beam="2">  1       -2 0.85945427E-01 0.18483568E+04</pdfrwt>
<totfact> 0.13508640E+01</totfact>
</mgrwt>
</event>
<event>
12    1  0.2048318E-007  0.3988239E+04  0.7818608E-02  0.8006923E-01
         -2   -1    0    0    0  501 -0.00000000000E+00  0.00000000000E+00  0.12695509434E+04  0.12695509434E+04  0.00000000000E+00 0.  1.
          2   -1    0    0  501    0  0.00000000000E+00 -0.00000000000E+00 -0.31322201145E+04  0.31322201145E+04  0.00000000000E+00 0. -1.
         23    2    1    2    0    0  0.99396829727E+03  0.14852690907E+04 -0.15679159640E+04  0.23791962238E+04  0.90647411702E+02 0.  0.
        254    2    1    2    0    0 -0.99396829727E+03 -0.14852690907E+04 -0.29475320701E+03  0.20225748342E+04  0.89996236529E+03 0.  0.
        -24    2    4    4    0    0 -0.70551914950E+03 -0.69695865551E+03  0.24075139569E+03  0.10236676230E+04  0.80159404575E+02 0.  0.
         24    2    4    4    0    0 -0.28844914776E+03 -0.78831043520E+03 -0.53550460270E+03  0.99890721111E+03  0.80088599754E+02 0.  0.
         11    1    3    3    0    0  0.45217237678E+03  0.74000911817E+03 -0.79718181512E+03  0.11779525456E+04  0.00000000000E+00 0. -1.
        -11    1    3    3    0    0  0.54179592049E+03  0.74525997254E+03 -0.77073414891E+03  0.12012436782E+04  0.00000000000E+00 0.  1.
          4    1    6    6  502    0 -0.24877360286E+02 -0.15938257594E+03 -0.10322638309E+03  0.19151338004E+03  0.00000000000E+00 0. -1.
          3    1    5    5  503    0 -0.26114966966E+03 -0.21311643655E+03  0.60605468092E+02  0.34247742737E+03  0.00000000000E+00 0. -1.
         -4    1    5    5    0  503 -0.44436947984E+03 -0.48384221895E+03  0.18014592760E+03  0.68119019568E+03  0.00000000000E+00 0.  1.
         -3    1    6    6    0  502 -0.26357178748E+03 -0.62892785925E+03 -0.43227821961E+03  0.80739383107E+03  0.00000000000E+00 0.  1.
<mgrwt>
<rscale>  0 0.39882392E+04</rscale>
<asrwt>0</asrwt>
<pdfrwt beam="1">  1        2 0.48188001E+00 0.39882392E+04</pdfrwt>
<pdfrwt beam="2">  1       -2 0.19531553E+00 0.39882392E+04</pdfrwt>
<totfact> 0.16168613E-01</totfact>
</mgrwt>
</event>
<event>
12    1  0.2048318E-007  0.1668887E+04  0.7818608E-02  0.8779311E-01
         -2   -1    0    0    0  501 -0.00000000000E+00  0.00000000000E+00  0.69797415282E+03  0.69797415282E+03  0.00000000000E+00 0. -1.
          2   -1    0    0  501    0  0.00000000000E+00 -0.00000000000E+00 -0.99759563330E+03  0.99759563330E+03  0.00000000000E+00 0.  1.
         23    2    1    2    0    0  0.25450748993E+03  0.40482279160E+02  0.42546934399E+03  0.50512715856E+03  0.87843077631E+02 0.  0.
        254    2    1    2    0    0 -0.25450748993E+03 -0.40482279160E+02 -0.72509082447E+03  0.11904426276E+04  0.90828633613E+03 0.  0.
        -24    2    4    4    0    0 -0.26212669365E+03 -0.89381985632E+02 -0.92570946706E+03  0.96910712965E+03  0.74371153367E+02 0.  0.
         24    2    4    4    0    0  0.76192037204E+01  0.48899706472E+02  0.20061864259E+03  0.22133549790E+03  0.79324203879E+02 0.  0.
         11    1    3    3    0    0  0.86626890069E+02  0.23908963901E+00  0.22191125682E+03  0.23822023665E+03  0.00000000000E+00 0. -1.
        -11    1    3    3    0    0  0.16788059986E+03  0.40243189521E+02  0.20355808717E+03  0.26690692191E+03  0.00000000000E+00 0.  1.
          2    1    6    6  502    0 -0.31479546343E+02  0.64020865877E+01  0.10323315049E+03  0.10811582637E+03  0.00000000000E+00 0. -1.
          1    1    5    5  503    0 -0.56367303143E+02  0.10654544139E+02 -0.21195970620E+03  0.21958531196E+03  0.00000000000E+00 0. -1.
         -2    1    5    5    0  503 -0.20575939051E+03 -0.10003652977E+03 -0.71374976086E+03  0.74952181769E+03  0.00000000000E+00 0.  1.
         -1    1    6    6    0  502  0.39098750064E+02  0.42497619884E+02  0.97385492092E+02  0.11321967153E+03  0.00000000000E+00 0.  1.
<mgrwt>
<rscale>  0 0.16688870E+04</rscale>
<asrwt>0</asrwt>
<pdfrwt beam="1">  1        2 0.15347625E+00 0.16688870E+04</pdfrwt>
<pdfrwt beam="2">  1       -2 0.10738064E+00 0.16688870E+04</pdfrwt>
<totfact> 0.16795412E+01</totfact>
</mgrwt>
</event>
<event>
12    1  0.2048318E-007  0.1812067E+04  0.7818608E-02  0.8699908E-01
          2   -1    0    0  501    0  0.00000000000E+00  0.00000000000E+00  0.20395095061E+04  0.20395095061E+04  0.00000000000E+00 0.  1.
         -2   -1    0    0    0  501 -0.00000000000E+00 -0.00000000000E+00 -0.40249721593E+03  0.40249721593E+03  0.00000000000E+00 0. -1.
         23    2    1    2    0    0  0.25497198795E+03 -0.53961200530E+03  0.18270293709E+03  0.62991277969E+03  0.84958318498E+02 0.  0.
        254    2    1    2    0    0 -0.25497198795E+03  0.53961200530E+03  0.14543093531E+04  0.18120939424E+04  0.90137502215E+03 0.  0.
        -24    2    4    4    0    0 -0.49370859187E+03  0.20198428668E+03  0.38280141005E+03  0.66081136802E+03  0.74759071846E+02 0.  0.
         24    2    4    4    0    0  0.23873660391E+03  0.33762771862E+03  0.10715079431E+04  0.11512825744E+04  0.79590524122E+02 0.  0.
         13    1    3    3    0    0  0.13344139377E+03 -0.24554218480E+03  0.12665663384E+03  0.30682156538E+03  0.00000000000E+00 0.  1.
        -13    1    3    3    0    0  0.12153059419E+03 -0.29406982050E+03  0.56046303256E+02  0.32309121431E+03  0.00000000000E+00 0. -1.
          2    1    6    6  502    0  0.90125295418E+02  0.17453687046E+03  0.58446038467E+03  0.61658708166E+03  0.00000000000E+00 0. -1.
          1    1    5    5  503    0 -0.17295225866E+03  0.39377187220E+02  0.10256388827E+03  0.20489606591E+03  0.00000000000E+00 0. -1.
         -2    1    5    5    0  503 -0.32075633321E+03  0.16260709946E+03  0.28023752177E+03  0.45591530211E+03  0.00000000000E+00 0.  1.
         -1    1    6    6    0  502  0.14861130850E+03  0.16309084816E+03  0.48704755841E+03  0.53469549271E+03  0.00000000000E+00 0.  1.
<mgrwt>
<rscale>  0 0.18120672E+04</rscale>
<asrwt>0</asrwt>
<pdfrwt beam="1">  1        2 0.31377069E+00 0.18120672E+04</pdfrwt>
<pdfrwt beam="2">  1       -2 0.61922650E-01 0.18120672E+04</pdfrwt>
<totfact> 0.14509019E+01</totfact>
</mgrwt>
</event>
<event>
12    1  0.2065275E-007  0.2387136E+04  0.7818608E-02  0.8444336E-01
          1   -1    0    0  501    0  0.00000000000E+00  0.00000000000E+00  0.27706994410E+04  0.27706994410E+04  0.00000000000E+00 0. -1.
         -1   -1    0    0    0  501 -0.00000000000E+00 -0.00000000000E+00 -0.51416764823E+03  0.51416764823E+03  0.00000000000E+00 0.  1.
         23    2    1    2    0    0  0.10510881575E+03  0.93212581482E+03  0.41224127973E+03  0.10283782361E+04  0.87820987654E+02 0.  0.
        254    2    1    2    0    0 -0.10510881575E+03 -0.93212581482E+03  0.18442905130E+04  0.22564888531E+04  0.90023777424E+03 0.  0.
        -24    2    4    4    0    0 -0.47159108402E+02 -0.33313966058E+03  0.15382538270E+04  0.15766785775E+04  0.80526302748E+02 0.  0.
         24    2    4    4    0    0 -0.57949707347E+02 -0.59898615424E+03  0.30603668600E+03  0.67981027565E+03  0.79630246457E+02 0.  0.
         11    1    3    3    0    0  0.71092580985E+02  0.79775251550E+03  0.32341977126E+03  0.86374972040E+03  0.00000000000E+00 0. -1.
        -11    1    3    3    0    0  0.34016234764E+02  0.13437329932E+03  0.88821508474E+02  0.16462851565E+03  0.00000000000E+00 0.  1.
          2    1    6    6  502    0 -0.58793852860E+02 -0.46323468623E+03  0.20197357521E+03  0.50875968466E+03  0.00000000000E+00 0. -1.
          3    1    5    5  503    0 -0.27718261962E+02 -0.29052338410E+03  0.11887635595E+04  0.12240632905E+04  0.00000000000E+00 0. -1.
         -4    1    5    5    0  503 -0.19440846440E+02 -0.42616276479E+02  0.34949026752E+03  0.35261528700E+03  0.00000000000E+00 0.  1.
         -1    1    6    6    0  502  0.84414551313E+00 -0.13575146802E+03  0.10406311079E+03  0.17105059099E+03  0.00000000000E+00 0.  1.
<mgrwt>
<rscale>  0 0.23871355E+04</rscale>
<asrwt>0</asrwt>
<pdfrwt beam="1">  1        1 0.42626144E+00 0.23871355E+04</pdfrwt>
<pdfrwt beam="2">  1       -1 0.79102717E-01 0.23871355E+04</pdfrwt>
<totfact> 0.12534119E+00</totfact>
</mgrwt>
</event>
<event>
12    1  0.2048318E-007  0.2486835E+04  0.7818608E-02  0.8407691E-01
         -2   -1    0    0    0  501 -0.00000000000E+00  0.00000000000E+00  0.90024834830E+03  0.90024834830E+03  0.00000000000E+00 0.  1.
          2   -1    0    0  501    0  0.00000000000E+00 -0.00000000000E+00 -0.17174006213E+04  0.17174006213E+04  0.00000000000E+00 0. -1.
         23    2    1    2    0    0  0.99867035287E+03 -0.27952642174E+02 -0.78057151969E+03  0.12718591064E+04  0.10104387756E+03 0.  0.
        254    2    1    2    0    0 -0.99867035287E+03  0.27952642174E+02 -0.36580753336E+02  0.13457898633E+04  0.90093750095E+03 0.  0.
        -24    2    4    4    0    0 -0.14897515012E+03 -0.27062494136E+03  0.24117653224E+03  0.40001732243E+03  0.80101712201E+02 0.  0.
         24    2    4    4    0    0 -0.84969520275E+03  0.29857758354E+03 -0.27775728558E+03  0.94577254083E+03  0.78778666665E+02 0.  0.
         13    1    3    3    0    0  0.57672657244E+03  0.33606328154E+02 -0.44329247121E+03  0.72818345195E+03  0.00000000000E+00 0.  1.
        -13    1    3    3    0    0  0.42194378043E+03 -0.61558970328E+02 -0.33727904848E+03  0.54367565442E+03  0.00000000000E+00 0. -1.
          4    1    6    6  502    0 -0.90166323567E+02  0.30556159264E+02 -0.47191829812E+01  0.95320068520E+02  0.00000000000E+00 0. -1.
          1    1    5    5  503    0 -0.94201742146E+02 -0.22174499981E+03  0.15352144490E+03  0.28568102354E+03  0.00000000000E+00 0. -1.
         -2    1    5    5    0  503 -0.54773407977E+02 -0.48879941551E+02  0.87655087344E+02  0.11433629889E+03  0.00000000000E+00 0.  1.
         -3    1    6    6    0  502 -0.75952887918E+03  0.26802142427E+03 -0.27303810260E+03  0.85045247231E+03  0.00000000000E+00 0.  1.
<mgrwt>
<rscale>  0 0.24868350E+04</rscale>
<asrwt>0</asrwt>
<pdfrwt beam="1">  1        2 0.26421548E+00 0.24868350E+04</pdfrwt>
<pdfrwt beam="2">  1       -2 0.13849975E+00 0.24868350E+04</pdfrwt>
<totfact> 0.31632093E+00</totfact>
</mgrwt>
</event>
<event>
12    1  0.2048318E-007  0.1236043E+04  0.7818608E-02  0.9081881E-01
          3   -1    0    0  501    0  0.00000000000E+00  0.00000000000E+00  0.89553344517E+03  0.89553344517E+03  0.00000000000E+00 0. -1.
         -3   -1    0    0    0  501 -0.00000000000E+00 -0.00000000000E+00 -0.42650596766E+03  0.42650596766E+03  0.00000000000E+00 0.  1.
         23    2    1    2    0    0  0.10057856906E+03  0.25426297084E+03  0.41932127270E+02  0.29055616202E+03  0.88875604603E+02 0.  0.
        254    2    1    2    0    0 -0.10057856906E+03 -0.25426297084E+03  0.42709535024E+03  0.10314832508E+04  0.89821019345E+03 0.  0.
        -24    2    4    4    0    0  0.70933912399E+02  0.24576713150E+03  0.41970486205E+03  0.49687860242E+03  0.72822190690E+02 0.  0.
         24    2    4    4    0    0 -0.17151248146E+03 -0.50003010234E+03  0.73904881880E+01  0.53460464840E+03  0.79378058849E+02 0.  0.
         13    1    3    3    0    0 -0.90111731056E+01  0.82003676682E+02  0.22249729254E+02  0.85445038955E+02  0.00000000000E+00 0. -1.
        -13    1    3    3    0    0  0.10958974217E+03  0.17225929416E+03  0.19682398016E+02  0.20511112306E+03  0.00000000000E+00 0.  1.
          4    1    6    6  502    0 -0.15210510884E+03 -0.41391069637E+03 -0.22107149972E+02  0.44152775086E+03  0.00000000000E+00 0. -1.
          1    1    5    5  503    0  0.71301790427E+02  0.24247222778E+03  0.37600053492E+03  0.45304870469E+03  0.00000000000E+00 0. -1.
         -2    1    5    5    0  503 -0.36787802807E+00  0.32949037227E+01  0.43704327131E+02  0.43829897727E+02  0.00000000000E+00 0.  1.
         -3    1    6    6    0  502 -0.19407372623E+02 -0.86119405971E+02  0.29497638160E+02  0.93076897531E+02  0.00000000000E+00 0.  1.
<mgrwt>
<rscale>  0 0.12360427E+04</rscale>
<asrwt>0</asrwt>
<pdfrwt beam="1">  1        3 0.13777438E+00 0.12360427E+04</pdfrwt>
<pdfrwt beam="2">  1       -3 0.65616303E-01 0.12360427E+04</pdfrwt>
<totfact> 0.23290983E+00</totfact>
</mgrwt>
</event>
<event>
12    1  0.2048318E-007  0.3902694E+04  0.7818608E-02  0.8024469E-01
         -2   -1    0    0    0  501 -0.00000000000E+00  0.00000000000E+00  0.12438230240E+04  0.12438230240E+04  0.00000000000E+00 0.  1.
          2   -1    0    0  501    0  0.00000000000E+00 -0.00000000000E+00 -0.30613318900E+04  0.30613318900E+04  0.00000000000E+00 0. -1.
         23    2    1    2    0    0  0.10406391013E+04  0.15130563114E+04 -0.99969530160E+03  0.20927652613E+04  0.89479618057E+02 0.  0.
        254    2    1    2    0    0 -0.10406391013E+04 -0.15130563114E+04 -0.81781356436E+03  0.22123896528E+04  0.92389383003E+03 0.  0.
        -24    2    4    4    0    0 -0.77536516808E+03 -0.80430738442E+03 -0.91370536592E+03  0.14454521141E+04  0.79829857029E+02 0.  0.
         24    2    4    4    0    0 -0.26527393326E+03 -0.70874892694E+03  0.95891801558E+02  0.76693753866E+03  0.79389227747E+02 0.  0.
         13    1    3    3    0    0  0.62125553381E+03  0.96015194146E+03 -0.58897359184E+03  0.12863670086E+04  0.00000000000E+00 0.  1.
        -13    1    3    3    0    0  0.41938356754E+03  0.55290436990E+03 -0.41072170976E+03  0.80639825263E+03  0.00000000000E+00 0. -1.
          2    1    6    6  502    0 -0.20518886338E+03 -0.47784339097E+03  0.93238715572E+02  0.52832777140E+03  0.00000000000E+00 0. -1.
          1    1    5    5  503    0 -0.28170976480E+03 -0.30167169761E+03 -0.38714893226E+03  0.56590679486E+03  0.00000000000E+00 0. -1.
         -2    1    5    5    0  503 -0.49365540329E+03 -0.50263568681E+03 -0.52655643366E+03  0.87954531929E+03  0.00000000000E+00 0.  1.
         -1    1    6    6    0  502 -0.60085069883E+02 -0.23090553597E+03  0.26530859854E+01  0.23860976725E+03  0.00000000000E+00 0.  1.
<mgrwt>
<rscale>  0 0.39026940E+04</rscale>
<asrwt>0</asrwt>
<pdfrwt beam="1">  1        2 0.47097413E+00 0.39026940E+04</pdfrwt>
<pdfrwt beam="2">  1       -2 0.19135739E+00 0.39026940E+04</pdfrwt>
<totfact> 0.19207436E-01</totfact>
</mgrwt>
</event>
<event>
12    1  0.2048318E-007  0.1517191E+04  0.7818608E-02  0.8873101E-01
          1   -1    0    0  501    0  0.00000000000E+00  0.00000000000E+00  0.51770583461E+03  0.51770583461E+03  0.00000000000E+00 0. -1.
         -1   -1    0    0    0  501 -0.00000000000E+00 -0.00000000000E+00 -0.11115717674E+04  0.11115717674E+04  0.00000000000E+00 0.  1.
         23    2    1    2    0    0  0.56189009190E+02 -0.12616690947E+03  0.30498274578E+03  0.34678840649E+03  0.90401492546E+02 0.  0.
        254    2    1    2    0    0 -0.56189009190E+02  0.12616690947E+03 -0.89884867854E+03  0.12824891955E+04  0.90430873921E+03 0.  0.
        -24    2    4    4    0    0 -0.72899538233E+02 -0.97958758743E+02  0.14854462570E+03  0.20826944491E+03  0.80002467278E+02 0.  0.
         24    2    4    4    0    0  0.16710529043E+02  0.22412566821E+03 -0.10473933042E+04  0.10742197506E+04  0.80023632756E+02 0.  0.
         13    1    3    3    0    0  0.37524003583E+02 -0.95127068056E+02  0.11718513689E+03  0.15552995284E+03  0.00000000000E+00 0.  1.
        -13    1    3    3    0    0  0.18665005607E+02 -0.31039841413E+02  0.18779760889E+03  0.19125845365E+03  0.00000000000E+00 0. -1.
          2    1    6    6  502    0 -0.21182661202E+02  0.35018666451E+02 -0.11439850256E+03  0.12149909268E+03  0.00000000000E+00 0. -1.
          1    1    5    5  503    0 -0.84114015065E+01 -0.69648897540E+02  0.10219491322E+03  0.12395773833E+03  0.00000000000E+00 0. -1.
         -2    1    5    5    0  503 -0.64488136726E+02 -0.28309861203E+02  0.46349712481E+02  0.84311706583E+02  0.00000000000E+00 0.  1.
         -1    1    6    6    0  502  0.37893190245E+02  0.18910700176E+03 -0.93299480168E+03  0.95272065788E+03  0.00000000000E+00 0.  1.
<mgrwt>
<rscale>  0 0.15171911E+04</rscale>
<asrwt>0</asrwt>
<pdfrwt beam="1">  1        1 0.79647053E-01 0.15171911E+04</pdfrwt>
<pdfrwt beam="2">  1       -1 0.17101104E+00 0.15171911E+04</pdfrwt>
<totfact> 0.98670393E+00</totfact>
</mgrwt>
</event>
<event>
12    1  0.2048318E-007  0.1975870E+04  0.7818608E-02  0.8617986E-01
         -1   -1    0    0    0  501 -0.00000000000E+00  0.00000000000E+00  0.16968790659E+04  0.16968790659E+04  0.00000000000E+00 0.  1.
          1   -1    0    0  501    0  0.00000000000E+00 -0.00000000000E+00 -0.57518275959E+03  0.57518275959E+03  0.00000000000E+00 0. -1.
         23    2    1    2    0    0  0.63187367378E+03 -0.17660769770E+03 -0.39767254914E+02  0.66313299684E+03  0.87802724511E+02 0.  0.
        254    2    1    2    0    0 -0.63187367378E+03  0.17660769770E+03  0.11614635612E+04  0.16089288286E+04  0.89955530852E+03 0.  0.
        -24    2    4    4    0    0 -0.66002823959E+03 -0.62779972319E+02  0.34073404297E+03  0.75039950307E+03  0.86145947081E+02 0.  0.
         24    2    4    4    0    0  0.28154565804E+02  0.23938767002E+03  0.82072951824E+03  0.85852932556E+03  0.73324788447E+02 0.  0.
         11    1    3    3    0    0  0.21245512235E+03 -0.47570360411E+02  0.26557651445E+02  0.21932949426E+03  0.00000000000E+00 0. -1.
        -11    1    3    3    0    0  0.41941855143E+03 -0.12903733729E+03 -0.66324906359E+02  0.44380350258E+03  0.00000000000E+00 0.  1.
          4    1    6    6  502    0  0.29467630556E+02  0.28389321905E+02  0.12906179206E+03  0.13539291347E+03  0.00000000000E+00 0. -1.
          1    1    5    5  503    0 -0.34498195293E+03 -0.21702335480E+01  0.14241458484E+03  0.37322804254E+03  0.00000000000E+00 0. -1.
         -2    1    5    5    0  503 -0.31504628666E+03 -0.60609738771E+02  0.19831945813E+03  0.37717146054E+03  0.00000000000E+00 0.  1.
         -3    1    6    6    0  502 -0.13130647515E+01  0.21099834812E+03  0.69166772618E+03  0.72313641209E+03  0.00000000000E+00 0.  1.
<mgrwt>
<rscale>  0 0.19758700E+04</rscale>
<asrwt>0</asrwt>
<pdfrwt beam="1">  1        1 0.88489657E-01 0.19758700E+04</pdfrwt>
<pdfrwt beam="2">  1       -1 0.26105831E+00 0.19758700E+04</pdfrwt>
<totfact> 0.19983668E+00</totfact>
</mgrwt>
</event>
<event>
12    1  0.2048318E-007  0.2408607E+04  0.7818608E-02  0.8436288E-01
          1   -1    0    0  501    0  0.00000000000E+00  0.00000000000E+00  0.70095751973E+03  0.70095751973E+03  0.00000000000E+00 0. -1.
         -1   -1    0    0    0  501 -0.00000000000E+00 -0.00000000000E+00 -0.20690944827E+04  0.20690944827E+04  0.00000000000E+00 0.  1.
         23    2    1    2    0    0 -0.58366268075E+03  0.23613124521E+03 -0.15317258114E+04  0.16573357921E+04  0.64481600371E+02 0.  0.
        254    2    1    2    0    0  0.58366268075E+03 -0.23613124521E+03  0.16358884841E+03  0.11127162103E+04  0.90274911434E+03 0.  0.
        -24    2    4    4    0    0  0.18007884256E+03  0.15617666140E+03  0.41868583016E+03  0.48898846387E+03  0.83620298490E+02 0.  0.
         24    2    4    4    0    0  0.40358383819E+03 -0.39230790661E+03 -0.25509698175E+03  0.62372774641E+03  0.84713774032E+02 0.  0.
         11    1    3    3    0    0 -0.16059366873E+00 -0.16740022169E+01 -0.12685722456E+02  0.12796703793E+02  0.00000000000E+00 0.  1.
        -11    1    3    3    0    0 -0.58350208708E+03  0.23780524742E+03 -0.15190400889E+04  0.16445390884E+04  0.00000000000E+00 0. -1.
          4    1    6    6  502    0  0.33533035632E+03 -0.28786234753E+03 -0.17423326546E+03  0.47504569231E+03  0.00000000000E+00 0. -1.
          3    1    5    5  503    0  0.18507523707E+03  0.14425883193E+03  0.36617604813E+03  0.43491189015E+03  0.00000000000E+00 0. -1.
         -4    1    5    5    0  503 -0.49963945056E+01  0.11917829469E+02  0.52509782029E+02  0.54076573727E+02  0.00000000000E+00 0.  1.
         -3    1    6    6    0  502  0.68253481874E+02 -0.10444555908E+03 -0.80863716281E+02  0.14868205410E+03  0.00000000000E+00 0.  1.
<mgrwt>
<rscale>  0 0.24086073E+04</rscale>
<asrwt>0</asrwt>
<pdfrwt beam="1">  1        1 0.10783962E+00 0.24086073E+04</pdfrwt>
<pdfrwt beam="2">  1       -1 0.31832222E+00 0.24086073E+04</pdfrwt>
<totfact> 0.61123697E-01</totfact>
</mgrwt>
</event>
<event>
12    1  0.2048318E-007  0.1921191E+04  0.7818608E-02  0.8644379E-01
         -1   -1    0    0    0  501 -0.00000000000E+00  0.00000000000E+00  0.80468552837E+03  0.80468552837E+03  0.00000000000E+00 0.  1.
          1   -1    0    0  501    0  0.00000000000E+00 -0.00000000000E+00 -0.11467138591E+04  0.11467138591E+04  0.00000000000E+00 0. -1.
         23    2    1    2    0    0  0.57654175670E+03  0.10666266498E+03 -0.60170329713E+03  0.84522169167E+03  0.92604152075E+02 0.  0.
        254    2    1    2    0    0 -0.57654175670E+03 -0.10666266498E+03  0.25967496639E+03  0.11061776958E+04  0.90134382187E+03 0.  0.
        -24    2    4    4    0    0 -0.13263077049E+03 -0.27308915883E+03  0.48242197104E+03  0.57560058343E+03  0.80102831103E+02 0.  0.
         24    2    4    4    0    0 -0.44391098620E+03  0.16642649385E+03 -0.22274700464E+03  0.53057711238E+03  0.84505044699E+02 0.  0.
         13    1    3    3    0    0  0.12230984165E+03 -0.66255004617E+01 -0.16079010116E+03  0.20213127233E+03  0.00000000000E+00 0. -1.
        -13    1    3    3    0    0  0.45423191504E+03  0.11328816544E+03 -0.44091319597E+03  0.64309041934E+03  0.00000000000E+00 0.  1.
          4    1    6    6  502    0 -0.38755436372E+03  0.17272660966E+03 -0.18814186155E+03  0.46414461818E+03  0.00000000000E+00 0. -1.
          1    1    5    5  503    0 -0.96064324262E+02 -0.17776098089E+03  0.38331129007E+03  0.43330689565E+03  0.00000000000E+00 0. -1.
         -2    1    5    5    0  503 -0.36566446231E+02 -0.95328177942E+02  0.99110680967E+02  0.14229368778E+03  0.00000000000E+00 0.  1.
         -1    1    6    6    0  502 -0.56356622485E+02 -0.63001158077E+01 -0.34605143089E+02  0.66432494198E+02  0.00000000000E+00 0.  1.
<mgrwt>
<rscale>  0 0.19211913E+04</rscale>
<asrwt>0</asrwt>
<pdfrwt beam="1">  1        1 0.17641752E+00 0.19211913E+04</pdfrwt>
<pdfrwt beam="2">  1       -1 0.12379777E+00 0.19211913E+04</pdfrwt>
<totfact> 0.62634446E+00</totfact>
</mgrwt>
</event>
<event>
12    1  0.2146754E-007  0.2399465E+04  0.7818608E-02  0.8439704E-01
         -2   -1    0    0    0  501 -0.00000000000E+00  0.00000000000E+00  0.53224561346E+03  0.53224561346E+03  0.00000000000E+00 0.  1.
          2   -1    0    0  501    0  0.00000000000E+00 -0.00000000000E+00 -0.27043117650E+04  0.27043117650E+04  0.00000000000E+00 0. -1.
         23    2    1    2    0    0  0.16527988501E+03  0.84658137743E+03 -0.17838830055E+03  0.88559806442E+03  0.91891658674E+02 0.  0.
        254    2    1    2    0    0 -0.16527988501E+03 -0.84658137743E+03 -0.19936778509E+04  0.23509593140E+04  0.89902216528E+03 0.  0.
        -24    2    4    4    0    0 -0.27310633144E+03 -0.99938388417E+03 -0.15950205287E+04  0.19035659185E+04  0.78214466993E+02 0.  0.
         24    2    4    4    0    0  0.10782644643E+03  0.15280250675E+03 -0.39865732223E+03  0.44739339548E+03  0.79107781764E+02 0.  0.
         13    1    3    3    0    0  0.14936031789E+03  0.53547488032E+03 -0.11694818332E+03  0.56808338261E+03  0.00000000000E+00 0.  1.
        -13    1    3    3    0    0  0.15919567118E+02  0.31110649711E+03 -0.61440117221E+02  0.31751468181E+03  0.00000000000E+00 0. -1.
          2    1    6    6  502    0  0.13239146431E+01  0.56487698228E+02 -0.80695225694E+02  0.98510569235E+02  0.00000000000E+00 0. -1.
          3    1    5    5  503    0 -0.29673388569E+01 -0.91211290830E+02 -0.15148010883E+03  0.17684605748E+03  0.00000000000E+00 0. -1.
         -4    1    5    5    0  503 -0.27013899258E+03 -0.90817259334E+03 -0.14435404199E+04  0.17267198610E+04  0.00000000000E+00 0.  1.
         -1    1    6    6    0  502  0.10650253178E+03  0.96314808517E+02 -0.31796209654E+03  0.34888282625E+03  0.00000000000E+00 0.  1.
<mgrwt>
<rscale>  0 0.23994650E+04</rscale>
<asrwt>0</asrwt>
<pdfrwt beam="1">  1        2 0.41604796E+00 0.23994650E+04</pdfrwt>
<pdfrwt beam="2">  1       -2 0.81883942E-01 0.23994650E+04</pdfrwt>
<totfact> 0.31136342E+00</totfact>
</mgrwt>
</event>
<event>
12    1  0.2048318E-007  0.2327321E+04  0.7818608E-02  0.8467226E-01
          1   -1    0    0  501    0  0.00000000000E+00  0.00000000000E+00  0.19732866443E+04  0.19732866443E+04  0.00000000000E+00 0. -1.
         -1   -1    0    0    0  501 -0.00000000000E+00 -0.00000000000E+00 -0.68621856353E+03  0.68621856353E+03  0.00000000000E+00 0.  1.
         23    2    1    2    0    0  0.32731487963E+03 -0.93069600479E+03  0.57191499974E+03  0.11438950955E+04  0.89884029267E+02 0.  0.
        254    2    1    2    0    0 -0.32731487963E+03  0.93069600479E+03  0.71515308105E+03  0.15156101124E+04  0.90127687184E+03 0.  0.
        -24    2    4    4    0    0  0.23849832849E+03  0.56923858064E+03  0.16480503975E+03  0.64373094149E+03  0.79465775756E+02 0.  0.
         24    2    4    4    0    0 -0.56581320812E+03  0.36145742415E+03  0.55034804130E+03  0.87187917091E+03  0.80587009784E+02 0.  0.
         13    1    3    3    0    0  0.24573588897E+03 -0.77107826236E+03  0.43859767327E+03  0.92049754634E+03  0.00000000000E+00 0.  1.
        -13    1    3    3    0    0  0.81578990657E+02 -0.15961774243E+03  0.13331732647E+03  0.22339754912E+03  0.00000000000E+00 0. -1.
          4    1    6    6  502    0 -0.50165717365E+03  0.33762875253E+03  0.46697965121E+03  0.76401772824E+03  0.00000000000E+00 0. -1.
          1    1    5    5  503    0  0.23443294908E+03  0.56676843553E+03  0.17022134219E+03  0.63652224821E+03  0.00000000000E+00 0. -1.
         -2    1    5    5    0  503  0.40653794144E+01  0.24701451154E+01 -0.54163024435E+01  0.72086932820E+01  0.00000000000E+00 0.  1.
         -3    1    6    6    0  502 -0.64156034474E+02  0.23828671620E+02  0.83368390089E+02  0.10786144268E+03  0.00000000000E+00 0.  1.
<mgrwt>
<rscale>  0 0.23273211E+04</rscale>
<asrwt>0</asrwt>
<pdfrwt beam="1">  1        1 0.30358256E+00 0.23273211E+04</pdfrwt>
<pdfrwt beam="2">  1       -1 0.10557209E+00 0.23273211E+04</pdfrwt>
<totfact> 0.23548528E+00</totfact>
</mgrwt>
</event>
<event>
12    1  0.2048318E-007  0.2643929E+04  0.7818608E-02  0.8353431E-01
          2   -1    0    0  501    0  0.00000000000E+00  0.00000000000E+00  0.24927572687E+04  0.24927572687E+04  0.00000000000E+00 0.  1.
         -2   -1    0    0    0  501 -0.00000000000E+00 -0.00000000000E+00 -0.70106718055E+03  0.70106718055E+03  0.00000000000E+00 0. -1.
         23    2    1    2    0    0 -0.26835404604E+03 -0.10871539282E+04  0.39565574392E+03  0.11908172854E+04  0.87090653504E+02 0.  0.
        254    2    1    2    0    0  0.26835404604E+03  0.10871539282E+04  0.13960343443E+04  0.20030071639E+04  0.89956003172E+03 0.  0.
        -24    2    4    4    0    0  0.79253710498E+02  0.58523359800E+03  0.13283785345E+04  0.14560104003E+04  0.81223395786E+02 0.  0.
         24    2    4    4    0    0  0.18910033554E+03  0.50192033018E+03  0.67655809816E+02  0.54699676363E+03  0.83337842992E+02 0.  0.
         13    1    3    3    0    0 -0.11826519576E+03 -0.51312040584E+03  0.23137312989E+03  0.57516322261E+03  0.00000000000E+00 0.  1.
        -13    1    3    3    0    0 -0.15008885027E+03 -0.57403352234E+03  0.16428261404E+03  0.61565406278E+03  0.00000000000E+00 0. -1.
          2    1    6    6  502    0  0.22292678752E+02  0.61350771369E+02  0.36712166786E+02  0.74891013237E+02  0.00000000000E+00 0. -1.
          3    1    5    5  503    0  0.32305022512E+02  0.86361316232E+02  0.26258747621E+03  0.27830572054E+03  0.00000000000E+00 0. -1.
         -4    1    5    5    0  503  0.46948687987E+02  0.49887228176E+03  0.10657910582E+04  0.11777046797E+04  0.00000000000E+00 0.  1.
         -3    1    6    6    0  502  0.16680765679E+03  0.44056955881E+03  0.30943643030E+02  0.47210575040E+03  0.00000000000E+00 0.  1.
<mgrwt>
<rscale>  0 0.26439291E+04</rscale>
<asrwt>0</asrwt>
<pdfrwt beam="1">  1        2 0.38350111E+00 0.26439291E+04</pdfrwt>
<pdfrwt beam="2">  1       -2 0.10785649E+00 0.26439291E+04</pdfrwt>
<totfact> 0.21341555E+00</totfact>
</mgrwt>
</event>
<event>
12    1  0.2048318E-007  0.3581713E+04  0.7818608E-02  0.8094693E-01
          2   -1    0    0  501    0  0.00000000000E+00  0.00000000000E+00  0.29165217367E+04  0.29165217367E+04  0.00000000000E+00 0. -1.
         -2   -1    0    0    0  501 -0.00000000000E+00 -0.00000000000E+00 -0.10996548089E+04  0.10996548089E+04  0.00000000000E+00 0.  1.
         23    2    1    2    0    0  0.93205242461E+03 -0.13703679821E+04  0.57012161445E+03  0.17549485835E+04  0.90419836877E+02 0.  0.
        254    2    1    2    0    0 -0.93205242461E+03  0.13703679821E+04  0.12467453133E+04  0.22612279621E+04  0.90119248338E+03 0.  0.
        -24    2    4    4    0    0 -0.69569387163E+03  0.14612650874E+04  0.10743382356E+04  0.19441553118E+04  0.79067144008E+02 0.  0.
         24    2    4    4    0    0 -0.23635855298E+03 -0.90897105382E+02  0.17240707766E+03  0.31707265030E+03  0.81750937634E+02 0.  0.
         11    1    3    3    0    0  0.31856731586E+03 -0.39720046616E+03  0.18725446549E+03  0.54251044220E+03  0.00000000000E+00 0.  1.
        -11    1    3    3    0    0  0.61348510875E+03 -0.97316751589E+03  0.38286714896E+03  0.12124381413E+04  0.00000000000E+00 0. -1.
          4    1    6    6  502    0 -0.27215438793E+01  0.86511493243E+01  0.17186868939E+02  0.19432901216E+02  0.00000000000E+00 0. -1.
          3    1    5    5  503    0 -0.17110750814E+03  0.30191629886E+03  0.20529616924E+03  0.40320931036E+03  0.00000000000E+00 0. -1.
         -4    1    5    5    0  503 -0.52458636349E+03  0.11593487886E+04  0.86904206637E+03  0.15409460015E+04  0.00000000000E+00 0.  1.
         -3    1    6    6    0  502 -0.23363700910E+03 -0.99548254706E+02  0.15522020872E+03  0.29763974908E+03  0.00000000000E+00 0.  1.
<mgrwt>
<rscale>  0 0.35817131E+04</rscale>
<asrwt>0</asrwt>
<pdfrwt beam="1">  1        2 0.44869565E+00 0.35817131E+04</pdfrwt>
<pdfrwt beam="2">  1       -2 0.16917766E+00 0.35817131E+04</pdfrwt>
<totfact> 0.34585562E-01</totfact>
</mgrwt>
</event>
<event>
12    1  0.2048318E-007  0.1568299E+04  0.7818608E-02  0.8840263E-01
         -1   -1    0    0    0  501 -0.00000000000E+00  0.00000000000E+00  0.28562014619E+03  0.28562014619E+03  0.00000000000E+00 0.  1.
          1   -1    0    0  501    0  0.00000000000E+00 -0.00000000000E+00 -0.21528266799E+04  0.21528266799E+04  0.00000000000E+00 0. -1.
         23    2    1    2    0    0 -0.29998914181E+03  0.23391006857E+03 -0.76519203327E+02  0.39932326355E+03  0.94321126750E+02 0.  0.
        254    2    1    2    0    0  0.29998914181E+03 -0.23391006857E+03 -0.17906873304E+04  0.20391235625E+04  0.89819618274E+03 0.  0.
        -24    2    4    4    0    0  0.54417177608E+03  0.54518969749E+02 -0.13165288218E+04  0.14278126729E+04  0.79408124143E+02 0.  0.
         24    2    4    4    0    0 -0.24418263427E+03 -0.28842903832E+03 -0.47415850855E+03  0.61131088965E+03  0.77834719409E+02 0.  0.
         13    1    3    3    0    0 -0.27369341051E+03  0.22296940314E+03 -0.43456833277E+02  0.35568516141E+03  0.00000000000E+00 0.  1.
        -13    1    3    3    0    0 -0.26295731303E+02  0.10940665435E+02 -0.33062370050E+02  0.43638102138E+02  0.00000000000E+00 0. -1.
          4    1    6    6  502    0  0.53588556121E+00 -0.93146806416E+01 -0.35320404215E+02  0.36531923064E+02  0.00000000000E+00 0. -1.
          1    1    5    5  503    0  0.29456690115E+02  0.22230927509E+02 -0.87935847832E+02  0.95365738420E+02  0.00000000000E+00 0. -1.
         -2    1    5    5    0  503  0.51471508597E+03  0.32288042239E+02 -0.12285929740E+04  0.13324469345E+04  0.00000000000E+00 0.  1.
         -3    1    6    6    0  502 -0.24471851983E+03 -0.27911435768E+03 -0.43883810434E+03  0.57477896659E+03  0.00000000000E+00 0.  1.
<mgrwt>
<rscale>  0 0.15682993E+04</rscale>
<asrwt>0</asrwt>
<pdfrwt beam="1">  1        1 0.33120412E+00 0.15682993E+04</pdfrwt>
<pdfrwt beam="2">  1       -1 0.43941559E-01 0.15682993E+04</pdfrwt>
<totfact> 0.11565063E+01</totfact>
</mgrwt>
</event>
<event>
12    1  0.2048318E-007  0.3144276E+04  0.7818608E-02  0.8203691E-01
         -2   -1    0    0    0  501 -0.00000000000E+00  0.00000000000E+00  0.13252157280E+04  0.13252157280E+04  0.00000000000E+00 0.  1.
          2   -1    0    0  501    0  0.00000000000E+00 -0.00000000000E+00 -0.18650688821E+04  0.18650688821E+04  0.00000000000E+00 0. -1.
         23    2    1    2    0    0  0.10957882925E+04 -0.46949872866E+03  0.57623293371E+03  0.13268496197E+04  0.85466257474E+02 0.  0.
        254    2    1    2    0    0 -0.10957882925E+04  0.46949872866E+03 -0.11160860878E+04  0.18634349905E+04  0.89753037299E+03 0.  0.
        -24    2    4    4    0    0 -0.95764449274E+02  0.96263006686E+02 -0.69589349726E+03  0.71345269726E+03  0.79432962342E+02 0.  0.
         24    2    4    4    0    0 -0.10000238432E+04  0.37323572197E+03 -0.42019259056E+03  0.11499822933E+04  0.80900374441E+02 0.  0.
         11    1    3    3    0    0  0.68996068295E+01 -0.53709315944E+01  0.13818197795E+02  0.16352188566E+02  0.00000000000E+00 0.  1.
        -11    1    3    3    0    0  0.10888886856E+04 -0.46412779706E+03  0.56241473592E+03  0.13104974311E+04  0.00000000000E+00 0. -1.
          2    1    6    6  502    0 -0.12962617094E+03  0.59204012290E+02 -0.84387665322E+02  0.16561804649E+03  0.00000000000E+00 0. -1.
          3    1    5    5  503    0 -0.33747059689E+02  0.56129031784E+02 -0.16629415197E+03  0.17872626340E+03  0.00000000000E+00 0. -1.
         -4    1    5    5    0  503 -0.62017389585E+02  0.40133974903E+02 -0.52959934528E+03  0.53472643387E+03  0.00000000000E+00 0.  1.
         -1    1    6    6    0  502 -0.87039767224E+03  0.31403170968E+03 -0.33580492524E+03  0.98436424679E+03  0.00000000000E+00 0.  1.
<mgrwt>
<rscale>  0 0.31442765E+04</rscale>
<asrwt>0</asrwt>
<pdfrwt beam="1">  1        2 0.28693367E+00 0.31442765E+04</pdfrwt>
<pdfrwt beam="2">  1       -2 0.20387934E+00 0.31442765E+04</pdfrwt>
<totfact> 0.84270372E-01</totfact>
</mgrwt>
</event>
<event>
12    1  0.2048318E-007  0.1199896E+04  0.7818608E-02  0.9112947E-01
          2   -1    0    0  501    0  0.00000000000E+00  0.00000000000E+00  0.76941091320E+03  0.76941091320E+03  0.00000000000E+00 0.  1.
         -2   -1    0    0    0  501 -0.00000000000E+00 -0.00000000000E+00 -0.46780950507E+03  0.46780950507E+03  0.00000000000E+00 0. -1.
         23    2    1    2    0    0  0.22265707407E+03 -0.58353113288E+02 -0.37750267213E+02  0.25013744780E+03  0.90346010729E+02 0.  0.
        254    2    1    2    0    0 -0.22265707407E+03  0.58353113288E+02  0.33935167534E+03  0.98708297047E+03  0.89788193687E+03 0.  0.
        -24    2    4    4    0    0  0.31618080718E+03 -0.13036137270E+03  0.14208757267E+03  0.37789038754E+03  0.75152354352E+02 0.  0.
         24    2    4    4    0    0 -0.53883788125E+03  0.18871448599E+03  0.19726410267E+03  0.60919258292E+03  0.79013020396E+02 0.  0.
         13    1    3    3    0    0  0.18616322178E+03 -0.79041114077E+02 -0.15988640688E+02  0.20287897744E+03  0.00000000000E+00 0. -1.
        -13    1    3    3    0    0  0.36493852294E+02  0.20688000789E+02 -0.21761626525E+02  0.47258470361E+02  0.00000000000E+00 0.  1.
          4    1    6    6  502    0 -0.34307810354E+02  0.29033399987E+02  0.30600737131E+02  0.54372504807E+02  0.00000000000E+00 0. -1.
          1    1    5    5  503    0  0.32710028928E+02 -0.90493309816E+01 -0.81420495504E+01  0.34901709909E+02  0.00000000000E+00 0. -1.
         -2    1    5    5    0  503  0.28347077826E+03 -0.12131204172E+03  0.15022962222E+03  0.34298867763E+03  0.00000000000E+00 0.  1.
         -3    1    6    6    0  502 -0.50453007090E+03  0.15968108600E+03  0.16666336554E+03  0.55482007812E+03  0.00000000000E+00 0.  1.
<mgrwt>
<rscale>  0 0.11998962E+04</rscale>
<asrwt>0</asrwt>
<pdfrwt beam="1">  1        2 0.11837091E+00 0.11998962E+04</pdfrwt>
<pdfrwt beam="2">  1       -2 0.71970693E-01 0.11998962E+04</pdfrwt>
<totfact> 0.62628195E+01</totfact>
</mgrwt>
</event>
<event>
12    1  0.2048318E-007  0.1628208E+04  0.7818608E-02  0.8803404E-01
          2   -1    0    0  501    0  0.00000000000E+00  0.00000000000E+00  0.24564736982E+04  0.24564736982E+04  0.00000000000E+00 0. -1.
         -2   -1    0    0    0  501 -0.00000000000E+00 -0.00000000000E+00 -0.26980363970E+03  0.26980363970E+03  0.00000000000E+00 0.  1.
         23    2    1    2    0    0 -0.65074732984E+02 -0.36469399453E+03  0.59833123771E+02  0.38746279644E+03  0.96493447467E+02 0.  0.
        254    2    1    2    0    0  0.65074732984E+02  0.36469399453E+03  0.21268369347E+04  0.23388145414E+04  0.89965642437E+03 0.  0.
        -24    2    4    4    0    0  0.46834106179E+03  0.21500198357E+03  0.13534043789E+04  0.14503957662E+04  0.79845241167E+02 0.  0.
         24    2    4    4    0    0 -0.40326632881E+03  0.14969201096E+03  0.77343255579E+03  0.88841877528E+03  0.77836828125E+02 0.  0.
         13    1    3    3    0    0 -0.45641278245E+02 -0.19021626241E+03  0.78787660231E+02  0.21088586526E+03  0.00000000000E+00 0. -1.
        -13    1    3    3    0    0 -0.19433454738E+02 -0.17447773212E+03 -0.18954536461E+02  0.17657693117E+03  0.00000000000E+00 0.  1.
          4    1    6    6  502    0 -0.36878357653E+03  0.15211085494E+03  0.67470966240E+03  0.78381896318E+03  0.00000000000E+00 0. -1.
          1    1    5    5  503    0  0.39799440192E+03  0.15085138234E+03  0.11330282778E+04  0.12103341529E+04  0.00000000000E+00 0. -1.
         -2    1    5    5    0  503  0.70346659873E+02  0.64150601236E+02  0.22037610113E+03  0.24006161323E+03  0.00000000000E+00 0.  1.
         -3    1    6    6    0  502 -0.34482752284E+02 -0.24188439818E+01  0.98722893391E+02  0.10459981210E+03  0.00000000000E+00 0.  1.
<mgrwt>
<rscale>  0 0.16282083E+04</rscale>
<asrwt>0</asrwt>
<pdfrwt beam="1">  1        2 0.37791902E+00 0.16282083E+04</pdfrwt>
<pdfrwt beam="2">  1       -2 0.41508254E-01 0.16282083E+04</pdfrwt>
<totfact> 0.19444723E+01</totfact>
</mgrwt>
</event>
<event>
12    1  0.2048318E-007  0.1901526E+04  0.7818608E-02  0.8654097E-01
          3   -1    0    0  501    0  0.00000000000E+00  0.00000000000E+00  0.16993335586E+04  0.16993335586E+04  0.00000000000E+00 0. -1.
         -3   -1    0    0    0  501 -0.00000000000E+00 -0.00000000000E+00 -0.53194379630E+03  0.53194379630E+03  0.00000000000E+00 0.  1.
         23    2    1    2    0    0  0.16721916703E+03 -0.71273670096E+03  0.62209987175E+03  0.96509238517E+03  0.91865155327E+02 0.  0.
        254    2    1    2    0    0 -0.16721916703E+03  0.71273670096E+03  0.54528989055E+03  0.12661849697E+04  0.87745510319E+03 0.  0.
        -24    2    4    4    0    0 -0.32858897809E+03  0.16008822200E+02 -0.37056953985E+02  0.34053187662E+03  0.79760530606E+02 0.  0.
         24    2    4    4    0    0  0.16136981106E+03  0.69672787876E+03  0.58234684453E+03  0.92565309312E+03  0.78967388801E+02 0.  0.
         13    1    3    3    0    0  0.54772859150E+02 -0.43080649111E+03  0.36191455608E+03  0.56531092753E+03  0.00000000000E+00 0. -1.
        -13    1    3    3    0    0  0.11244630788E+03 -0.28193020985E+03  0.26018531567E+03  0.39978145764E+03  0.00000000000E+00 0.  1.
          4    1    6    6  502    0  0.92528164186E+02  0.25689620748E+03  0.19484782180E+03  0.33544417754E+03  0.00000000000E+00 0. -1.
          3    1    5    5  503    0 -0.23531852222E+03 -0.39981670736E+01  0.70015805304E+01  0.23545660826E+03  0.00000000000E+00 0. -1.
         -4    1    5    5    0  503 -0.93270455867E+02  0.20006989274E+02 -0.44058534515E+02  0.10507526836E+03  0.00000000000E+00 0.  1.
         -3    1    6    6    0  502  0.68841646870E+02  0.43983167128E+03  0.38749902274E+03  0.59020891558E+03  0.00000000000E+00 0.  1.
<mgrwt>
<rscale>  0 0.19015256E+04</rscale>
<asrwt>0</asrwt>
<pdfrwt beam="1">  1        3 0.26143593E+00 0.19015256E+04</pdfrwt>
<pdfrwt beam="2">  1       -3 0.81837508E-01 0.19015256E+04</pdfrwt>
<totfact> 0.21523794E-01</totfact>
</mgrwt>
</event>
<event>
12    1  0.2048318E-007  0.2694609E+04  0.7818608E-02  0.8336756E-01
         -2   -1    0    0    0  501 -0.00000000000E+00  0.00000000000E+00  0.10987385202E+04  0.10987385202E+04  0.00000000000E+00 0.  1.
          2   -1    0    0  501    0  0.00000000000E+00 -0.00000000000E+00 -0.16521028022E+04  0.16521028022E+04  0.00000000000E+00 0. -1.
         23    2    1    2    0    0 -0.45084324876E+03  0.10961619923E+04 -0.40363967488E+03  0.12554328409E+04  0.91410517355E+02 0.  0.
        254    2    1    2    0    0  0.45084324876E+03 -0.10961619923E+04 -0.14972460714E+03  0.14954084816E+04  0.89944333922E+03 0.  0.
        -24    2    4    4    0    0  0.22534012697E+03 -0.22985420463E+03  0.33739927474E+03  0.47311249615E+03  0.79912672424E+02 0.  0.
         24    2    4    4    0    0  0.22550312180E+03 -0.86630778764E+03 -0.48712388188E+03  0.10222959854E+04  0.80365195170E+02 0.  0.
         13    1    3    3    0    0 -0.26115180694E+03  0.52030087404E+03 -0.21213223268E+03  0.61960741597E+03  0.00000000000E+00 0. -1.
        -13    1    3    3    0    0 -0.18969144183E+03  0.57586111823E+03 -0.19150744220E+03  0.63582542495E+03  0.00000000000E+00 0.  1.
          4    1    6    6  502    0  0.13929936406E+03 -0.59591128851E+03 -0.37101597990E+03  0.71565874126E+03  0.00000000000E+00 0. -1.
          1    1    5    5  503    0  0.13904551907E+03 -0.13100672546E+03  0.14325819423E+03  0.23878720380E+03  0.00000000000E+00 0. -1.
         -2    1    5    5    0  503  0.86294607902E+02 -0.98847479167E+02  0.19414108052E+03  0.23432529235E+03  0.00000000000E+00 0.  1.
         -3    1    6    6    0  502  0.86203757739E+02 -0.27039649913E+03 -0.11610790199E+03  0.30663724414E+03  0.00000000000E+00 0.  1.
<mgrwt>
<rscale>  0 0.26946087E+04</rscale>
<asrwt>0</asrwt>
<pdfrwt beam="1">  1        2 0.25416966E+00 0.26946087E+04</pdfrwt>
<pdfrwt beam="2">  1       -2 0.16903670E+00 0.26946087E+04</pdfrwt>
<totfact> 0.19822542E+00</totfact>
</mgrwt>
</event>
<event>
12    1  0.2575826E-007  0.3315669E+04  0.7818608E-02  0.8158920E-01
          1   -1    0    0  501    0  0.00000000000E+00  0.00000000000E+00  0.25090939272E+04  0.25090939272E+04  0.00000000000E+00 0. -1.
         -1   -1    0    0    0  501 -0.00000000000E+00 -0.00000000000E+00 -0.10953816373E+04  0.10953816373E+04  0.00000000000E+00 0.  1.
         23    2    1    2    0    0 -0.98566517038E+03  0.11766290650E+04  0.64583228303E+03  0.16670585079E+04  0.77414121843E+02 0.  0.
        254    2    1    2    0    0  0.98566517038E+03 -0.11766290650E+04  0.76788000686E+03  0.19374170567E+04  0.89886225968E+03 0.  0.
        -24    2    4    4    0    0  0.10415687516E+04 -0.62418268931E+03  0.55161094402E+03  0.13361648527E+04  0.81193510382E+02 0.  0.
         24    2    4    4    0    0 -0.55903581220E+02 -0.55244637566E+03  0.21626906283E+03  0.60125220394E+03  0.80060582274E+02 0.  0.
         11    1    3    3    0    0 -0.22963219149E+03  0.32336618868E+03  0.15359523020E+03  0.42530945215E+03  0.00000000000E+00 0.  1.
        -11    1    3    3    0    0 -0.75603297889E+03  0.85326287629E+03  0.49223705283E+03  0.12417490557E+04  0.00000000000E+00 0. -1.
          4    1    6    6  502    0 -0.74646673244E+02 -0.48160975058E+03  0.18048089838E+03  0.51970513983E+03  0.00000000000E+00 0. -1.
          3    1    5    5  503    0  0.83507310835E+03 -0.53706575069E+03  0.45063816457E+03  0.10903492432E+04  0.00000000000E+00 0. -1.
         -4    1    5    5    0  503  0.20649564325E+03 -0.87116938627E+02  0.10097277946E+03  0.24581560949E+03  0.00000000000E+00 0.  1.
         -3    1    6    6    0  502  0.18743092024E+02 -0.70836625078E+02  0.35788164449E+02  0.81547064115E+02  0.00000000000E+00 0.  1.
<mgrwt>
<rscale>  0 0.33156691E+04</rscale>
<asrwt>0</asrwt>
<pdfrwt beam="1">  1        1 0.38601445E+00 0.33156691E+04</pdfrwt>
<pdfrwt beam="2">  1       -1 0.16852025E+00 0.33156691E+04</pdfrwt>
<totfact> 0.27905469E-01</totfact>
</mgrwt>
</event>
<event>
12    1  0.2048318E-007  0.1756796E+04  0.7818608E-02  0.8729618E-01
         -1   -1    0    0    0  501 -0.00000000000E+00  0.00000000000E+00  0.27136282955E+03  0.27136282955E+03  0.00000000000E+00 0.  1.
          1   -1    0    0  501    0  0.00000000000E+00 -0.00000000000E+00 -0.28433640694E+04  0.28433640694E+04  0.00000000000E+00 0. -1.
         23    2    1    2    0    0 -0.60712574701E+01  0.59745599112E+03 -0.53940389876E+03  0.81032033302E+03  0.93123330143E+02 0.  0.
        254    2    1    2    0    0  0.60712574701E+01 -0.59745599112E+03 -0.20325973411E+04  0.23044065660E+04  0.90655785728E+03 0.  0.
        -24    2    4    4    0    0 -0.24074798199E+03 -0.26459643057E+03 -0.18754633703E+03  0.41165619538E+03  0.79475359431E+02 0.  0.
         24    2    4    4    0    0  0.24681923946E+03 -0.33285956054E+03 -0.18450510041E+04  0.18927503706E+04  0.81089664069E+02 0.  0.
         13    1    3    3    0    0 -0.11069735270E+02  0.51159204788E+03 -0.50096968274E+03  0.71611422659E+03  0.00000000000E+00 0. -1.
        -13    1    3    3    0    0  0.49984778001E+01  0.85863943233E+02 -0.38434216022E+02  0.94206106431E+02  0.00000000000E+00 0.  1.
          2    1    6    6  502    0  0.19104441685E+03 -0.24513769291E+03 -0.12115525216E+04  0.12507797449E+04  0.00000000000E+00 0. -1.
          3    1    5    5  503    0 -0.14111688832E+03 -0.11559641953E+03 -0.12775408417E+03  0.22270521862E+03  0.00000000000E+00 0. -1.
         -4    1    5    5    0  503 -0.99631093665E+02 -0.14900001105E+03 -0.59792252861E+02  0.18895097676E+03  0.00000000000E+00 0.  1.
         -1    1    6    6    0  502  0.55774822609E+02 -0.87721867637E+02 -0.63349848247E+03  0.64197062564E+03  0.00000000000E+00 0.  1.
<mgrwt>
<rscale>  0 0.17567963E+04</rscale>
<asrwt>0</asrwt>
<pdfrwt beam="1">  1        1 0.43744066E+00 0.17567963E+04</pdfrwt>
<pdfrwt beam="2">  1       -1 0.41748124E-01 0.17567963E+04</pdfrwt>
<totfact> 0.41484142E+00</totfact>
</mgrwt>
</event>
<event>
12    1  0.2048318E-007  0.1689379E+04  0.7818608E-02  0.8767445E-01
         -1   -1    0    0    0  501 -0.00000000000E+00  0.00000000000E+00  0.76862786166E+03  0.76862786166E+03  0.00000000000E+00 0. -1.
          1   -1    0    0  501    0  0.00000000000E+00 -0.00000000000E+00 -0.92827798364E+03  0.92827798364E+03  0.00000000000E+00 0.  1.
         23    2    1    2    0    0 -0.38350266015E+03  0.64762859458E+02 -0.51745776742E+03  0.65345794705E+03  0.89309737403E+02 0.  0.
        254    2    1    2    0    0  0.38350266015E+03 -0.64762859458E+02  0.35780764544E+03  0.10434478982E+04  0.89971589233E+03 0.  0.
        -24    2    4    4    0    0  0.56866260967E+03 -0.31763427437E+03  0.22593258176E+03  0.69397682879E+03  0.79307071003E+02 0.  0.
         24    2    4    4    0    0 -0.18515994952E+03  0.25287141491E+03  0.13187506368E+03  0.34947106945E+03  0.80689755078E+02 0.  0.
         13    1    3    3    0    0 -0.19527860396E+03 -0.47330563372E+01 -0.29579290999E+03  0.35447084589E+03  0.00000000000E+00 0. -1.
        -13    1    3    3    0    0 -0.18822405619E+03  0.69495915795E+02 -0.22166485743E+03  0.29898710116E+03  0.00000000000E+00 0.  1.
          2    1    6    6  502    0 -0.38027393827E+02  0.11740253521E+03  0.43987107045E+02  0.13101260833E+03  0.00000000000E+00 0. -1.
          3    1    5    5  503    0  0.13587717878E+03 -0.75185290668E+02  0.18894868296E+02  0.15643673384E+03  0.00000000000E+00 0. -1.
         -4    1    5    5    0  503  0.43278543089E+03 -0.24244898370E+03  0.20703771346E+03  0.53754009495E+03  0.00000000000E+00 0.  1.
         -1    1    6    6    0  502 -0.14713255570E+03  0.13546887970E+03  0.87887956635E+02  0.21845846112E+03  0.00000000000E+00 0.  1.
<mgrwt>
<rscale>  0 0.16893790E+04</rscale>
<asrwt>0</asrwt>
<pdfrwt beam="1">  1        1 0.14281200E+00 0.16893790E+04</pdfrwt>
<pdfrwt beam="2">  1       -1 0.11825044E+00 0.16893790E+04</pdfrwt>
<totfact> 0.10549371E+01</totfact>
</mgrwt>
</event>
<event>
12    1  0.2048318E-007  0.1477211E+04  0.7818608E-02  0.8899751E-01
         -2   -1    0    0    0  501 -0.00000000000E+00  0.00000000000E+00  0.20073119841E+03  0.20073119841E+03  0.00000000000E+00 0. -1.
          2   -1    0    0  501    0  0.00000000000E+00 -0.00000000000E+00 -0.27177531271E+04  0.27177531271E+04  0.00000000000E+00 0.  1.
         23    2    1    2    0    0  0.43225012686E+03 -0.33542838430E+02 -0.50745195073E+03  0.67376386533E+03  0.92113895485E+02 0.  0.
        254    2    1    2    0    0 -0.43225012686E+03  0.33542838430E+02 -0.20095699779E+04  0.22447204601E+04  0.90135073853E+03 0.  0.
        -24    2    4    4    0    0  0.27368646385E+03  0.63502686129E+01 -0.66682842727E+03  0.72519355054E+03  0.79378384461E+02 0.  0.
         24    2    4    4    0    0 -0.70593659071E+03  0.27192569817E+02 -0.13427415506E+04  0.15195269096E+04  0.83194057574E+02 0.  0.
         11    1    3    3    0    0  0.22466220178E+03  0.61273561856E+01 -0.20109004125E+03  0.30157561920E+03  0.00000000000E+00 0.  1.
        -11    1    3    3    0    0  0.20758792508E+03 -0.39670194616E+02 -0.30636190948E+03  0.37218824614E+03  0.00000000000E+00 0. -1.
          2    1    6    6  502    0 -0.34677577043E+03  0.53059798443E+02 -0.68930681549E+03  0.77344208772E+03  0.00000000000E+00 0. -1.
          3    1    5    5  503    0  0.17470734013E+03 -0.19758495796E+02 -0.34092580017E+03  0.38359282328E+03  0.00000000000E+00 0. -1.
         -4    1    5    5    0  503  0.98979123722E+02  0.26108764409E+02 -0.32590262710E+03  0.34160072726E+03  0.00000000000E+00 0.  1.
         -1    1    6    6    0  502 -0.35916082028E+03 -0.25867228626E+02 -0.65343473515E+03  0.74608482188E+03  0.00000000000E+00 0.  1.
<mgrwt>
<rscale>  0 0.14772107E+04</rscale>
<asrwt>0</asrwt>
<pdfrwt beam="1">  1        2 0.41811587E+00 0.14772107E+04</pdfrwt>
<pdfrwt beam="2">  1       -2 0.30881723E-01 0.14772107E+04</pdfrwt>
<totfact> 0.24478222E+01</totfact>
</mgrwt>
</event>
<event>
12    1  0.2048318E-007  0.1373995E+04  0.7818608E-02  0.8972861E-01
         -2   -1    0    0    0  501 -0.00000000000E+00  0.00000000000E+00  0.20182937970E+03  0.20182937970E+03  0.00000000000E+00 0.  1.
          2   -1    0    0  501    0  0.00000000000E+00 -0.00000000000E+00 -0.23384372134E+04  0.23384372134E+04  0.00000000000E+00 0. -1.
         23    2    1    2    0    0 -0.28972509171E+03 -0.73226943636E+02 -0.16875083600E+03  0.35562429056E+03  0.93214684183E+02 0.  0.
        254    2    1    2    0    0  0.28972509171E+03  0.73226943636E+02 -0.19678569977E+04  0.21846423026E+04  0.90049875771E+03 0.  0.
        -24    2    4    4    0    0  0.57662277584E+03  0.17039125055E+03 -0.10280079130E+04  0.11938589792E+04  0.83498438448E+02 0.  0.
         24    2    4    4    0    0 -0.28689768413E+03 -0.97164306910E+02 -0.93984908477E+03  0.99078332337E+03  0.81142516811E+02 0.  0.
         13    1    3    3    0    0 -0.92666650284E+02  0.17299976516E+02 -0.33482505354E+02  0.10003737015E+03  0.00000000000E+00 0.  1.
        -13    1    3    3    0    0 -0.19705844143E+03 -0.90526920152E+02 -0.13526833064E+03  0.25558692041E+03  0.00000000000E+00 0. -1.
          4    1    6    6  502    0 -0.13349196006E+03 -0.71469934510E+02 -0.36261851422E+03  0.39296341025E+03  0.00000000000E+00 0. -1.
          3    1    5    5  503    0  0.21904067301E+03  0.53432497253E+02 -0.46410168010E+03  0.51596920225E+03  0.00000000000E+00 0. -1.
         -4    1    5    5    0  503  0.35758210284E+03  0.11695875329E+03 -0.56390623287E+03  0.67788977696E+03  0.00000000000E+00 0.  1.
         -3    1    6    6    0  502 -0.15340572407E+03 -0.25694372401E+02 -0.57723057055E+03  0.59781991312E+03  0.00000000000E+00 0.  1.
<mgrwt>
<rscale>  0 0.13739947E+04</rscale>
<asrwt>0</asrwt>
<pdfrwt beam="1">  1        2 0.35975958E+00 0.13739947E+04</pdfrwt>
<pdfrwt beam="2">  1       -2 0.31050673E-01 0.13739947E+04</pdfrwt>
<totfact> 0.40520927E+01</totfact>
</mgrwt>
</event>
<event>
12    1  0.2048318E-007  0.2960179E+04  0.7818608E-02  0.8255194E-01
         -4   -1    0    0    0  501 -0.00000000000E+00  0.00000000000E+00  0.13333236890E+04  0.13333236890E+04  0.00000000000E+00 0.  1.
          4   -1    0    0  501    0  0.00000000000E+00 -0.00000000000E+00 -0.16430109790E+04  0.16430109790E+04  0.00000000000E+00 0. -1.
         23    2    1    2    0    0 -0.12192287880E+04 -0.96332664557E+01  0.42307164069E+03  0.12940585847E+04  0.94796466946E+02 0.  0.
        254    2    1    2    0    0  0.12192287880E+04  0.96332664557E+01 -0.73275893068E+03  0.16822760834E+04  0.89805653107E+03 0.  0.
        -24    2    4    4    0    0  0.66150760733E+03  0.14887426737E+03  0.75863504913E+02  0.68699560270E+03  0.80323251349E+02 0.  0.
         24    2    4    4    0    0  0.55772118066E+03 -0.13924100091E+03 -0.80862243559E+03  0.99528048070E+03  0.79196087198E+02 0.  0.
         13    1    3    3    0    0 -0.53771954866E+03 -0.25517683669E+02  0.14236240309E+03  0.55683078130E+03  0.00000000000E+00 0.  1.
        -13    1    3    3    0    0 -0.68150923932E+03  0.15884417213E+02  0.28070923760E+03  0.73722780337E+03  0.00000000000E+00 0. -1.
          4    1    6    6  502    0  0.13161275781E+03 -0.47169166705E+02 -0.25288040836E+03  0.28895561811E+03  0.00000000000E+00 0. -1.
          1    1    5    5  503    0  0.43603347478E+03  0.60571812759E+02  0.60524533329E+02  0.44436173864E+03  0.00000000000E+00 0. -1.
         -2    1    5    5    0  503  0.22547413254E+03  0.88302454611E+02  0.15338971583E+02  0.24263386406E+03  0.00000000000E+00 0.  1.
         -3    1    6    6    0  502  0.42610842285E+03 -0.92071834209E+02 -0.55574202723E+03  0.70632486259E+03  0.00000000000E+00 0.  1.
<mgrwt>
<rscale>  0 0.29601794E+04</rscale>
<asrwt>0</asrwt>
<pdfrwt beam="1">  1        4 0.25277092E+00 0.29601794E+04</pdfrwt>
<pdfrwt beam="2">  1       -4 0.20512672E+00 0.29601794E+04</pdfrwt>
<totfact> 0.12597825E-02</totfact>
</mgrwt>
</event>
<event>
12    1  0.2048318E-007  0.1448298E+04  0.7818608E-02  0.8919581E-01
         -1   -1    0    0    0  501 -0.00000000000E+00  0.00000000000E+00  0.98930393056E+03  0.98930393056E+03  0.00000000000E+00 0.  1.
          1   -1    0    0  501    0  0.00000000000E+00 -0.00000000000E+00 -0.53006150664E+03  0.53006150664E+03  0.00000000000E+00 0. -1.
         23    2    1    2    0    0 -0.18018543851E+03  0.25166828642E+03  0.47264680660E+03  0.57230548937E+03  0.91295403669E+02 0.  0.
        254    2    1    2    0    0  0.18018543851E+03 -0.25166828642E+03 -0.13404382693E+02  0.94705994783E+03  0.89495203708E+03 0.  0.
        -24    2    4    4    0    0  0.70166224454E+02 -0.26398722287E+03 -0.42591121183E+03  0.51253548584E+03  0.81729498853E+02 0.  0.
         24    2    4    4    0    0  0.11001921405E+03  0.12318936452E+02  0.41250682914E+03  0.43452446199E+03  0.79960242169E+02 0.  0.
         13    1    3    3    0    0 -0.41872419701E+02  0.12230553687E+02  0.42191676423E+02  0.60687919180E+02  0.00000000000E+00 0. -1.
        -13    1    3    3    0    0 -0.13831301880E+03  0.23943773273E+03  0.43045513018E+03  0.51161757019E+03  0.00000000000E+00 0.  1.
          2    1    6    6  502    0  0.96671668706E+01 -0.22669027416E+02  0.38507365888E+02  0.45718225544E+02  0.00000000000E+00 0. -1.
          1    1    5    5  503    0 -0.59013853078E+01 -0.22664004908E+02 -0.83857472479E+02  0.87066406596E+02  0.00000000000E+00 0. -1.
         -2    1    5    5    0  503  0.76067609761E+02 -0.24132321796E+03 -0.34205373935E+03  0.42546907924E+03  0.00000000000E+00 0.  1.
         -1    1    6    6    0  502  0.10035204718E+03  0.34987963868E+02  0.37399946325E+03  0.38880623645E+03  0.00000000000E+00 0.  1.
<mgrwt>
<rscale>  0 0.14482982E+04</rscale>
<asrwt>0</asrwt>
<pdfrwt beam="1">  1        1 0.81547924E-01 0.14482982E+04</pdfrwt>
<pdfrwt beam="2">  1       -1 0.15220060E+00 0.14482982E+04</pdfrwt>
<totfact> 0.13313329E+01</totfact>
</mgrwt>
</event>
<event>
12    1  0.2048318E-007  0.1616042E+04  0.7818608E-02  0.8810753E-01
         -1   -1    0    0    0  501 -0.00000000000E+00  0.00000000000E+00  0.34624617887E+03  0.34624617887E+03  0.00000000000E+00 0.  1.
          1   -1    0    0  501    0  0.00000000000E+00 -0.00000000000E+00 -0.18856461097E+04  0.18856461097E+04  0.00000000000E+00 0. -1.
         23    2    1    2    0    0  0.51882378707E+03  0.17457756931E+03 -0.63327546948E+03  0.84205431032E+03  0.91445019236E+02 0.  0.
        254    2    1    2    0    0 -0.51882378707E+03 -0.17457756931E+03 -0.90612446134E+03  0.13898379782E+04  0.90051797127E+03 0.  0.
        -24    2    4    4    0    0 -0.28327572852E+03 -0.53737438142E+03 -0.56029825425E+03  0.83028579595E+03  0.80149891287E+02 0.  0.
         24    2    4    4    0    0 -0.23554805855E+03  0.36279681212E+03 -0.34582620709E+03  0.55955218229E+03  0.79990402059E+02 0.  0.
         11    1    3    3    0    0  0.48629665736E+03  0.14020338209E+03 -0.59542411479E+03  0.78145460763E+03  0.00000000000E+00 0. -1.
        -11    1    3    3    0    0  0.32527129712E+02  0.34374187220E+02 -0.37851354689E+02  0.60599702690E+02  0.00000000000E+00 0.  1.
          4    1    6    6  502    0 -0.63363613253E+02  0.66678890251E+02 -0.11143493253E+03  0.14449486523E+03  0.00000000000E+00 0. -1.
          3    1    5    5  503    0 -0.49867289099E+02 -0.13018899249E+03 -0.90475985331E+02  0.16619814743E+03  0.00000000000E+00 0. -1.
         -4    1    5    5    0  503 -0.23340843942E+03 -0.40718538893E+03 -0.46982226891E+03  0.66408764852E+03  0.00000000000E+00 0.  1.
         -3    1    6    6    0  502 -0.17218444530E+03  0.29611792186E+03 -0.23439127456E+03  0.41505731706E+03  0.00000000000E+00 0.  1.
<mgrwt>
<rscale>  0 0.16160418E+04</rscale>
<asrwt>0</asrwt>
<pdfrwt beam="1">  1        1 0.29009940E+00 0.16160418E+04</pdfrwt>
<pdfrwt beam="2">  1       -1 0.53268643E-01 0.16160418E+04</pdfrwt>
<totfact> 0.12139752E+01</totfact>
</mgrwt>
</event>
<event>
12    1  0.2048318E-007  0.3271540E+04  0.7818608E-02  0.8170175E-01
         -1   -1    0    0    0  501 -0.00000000000E+00  0.00000000000E+00  0.13241632061E+04  0.13241632061E+04  0.00000000000E+00 0.  1.
          1   -1    0    0  501    0  0.00000000000E+00 -0.00000000000E+00 -0.20207058095E+04  0.20207058095E+04  0.00000000000E+00 0. -1.
         23    2    1    2    0    0 -0.14237213208E+04  0.50289954503E+03 -0.29335604926E+03  0.15408694127E+04  0.91271155307E+02 0.  0.
        254    2    1    2    0    0  0.14237213208E+04 -0.50289954503E+03 -0.40318655414E+03  0.18039996030E+04  0.90109090460E+03 0.  0.
        -24    2    4    4    0    0  0.24781528916E+03  0.22024606571E+03 -0.22801847869E+03  0.41027994787E+03  0.80102821429E+02 0.  0.
         24    2    4    4    0    0  0.11759060316E+04 -0.72314561074E+03 -0.17516807545E+03  0.13937196551E+04  0.77949039446E+02 0.  0.
         11    1    3    3    0    0 -0.41933814040E+03  0.12852968226E+03 -0.12314634442E+03  0.45555392365E+03  0.00000000000E+00 0. -1.
        -11    1    3    3    0    0 -0.10043831804E+04  0.37436986278E+03 -0.17020970484E+03  0.10853154891E+04  0.00000000000E+00 0.  1.
          4    1    6    6  502    0  0.50317055968E+03 -0.32846329155E+03 -0.11161833021E+03  0.61116887819E+03  0.00000000000E+00 0. -1.
          3    1    5    5  503    0  0.14244824247E+03  0.11707629763E+03 -0.78894772151E+02  0.20055609271E+03  0.00000000000E+00 0. -1.
         -2    1    5    5    0  503  0.10536704669E+03  0.10316976807E+03 -0.14912370654E+03  0.20972385516E+03  0.00000000000E+00 0.  1.
         -3    1    6    6    0  502  0.67273547195E+03 -0.39468231919E+03 -0.63549745241E+02  0.78255077690E+03  0.00000000000E+00 0.  1.
<mgrwt>
<rscale>  0 0.32715405E+04</rscale>
<asrwt>0</asrwt>
<pdfrwt beam="1">  1        1 0.31087782E+00 0.32715405E+04</pdfrwt>
<pdfrwt beam="2">  1       -1 0.20371742E+00 0.32715405E+04</pdfrwt>
<totfact> 0.34045578E-01</totfact>
</mgrwt>
</event>
<event>
12    1  0.2048318E-007  0.2004879E+04  0.7818608E-02  0.8604343E-01
          2   -1    0    0  501    0  0.00000000000E+00  0.00000000000E+00  0.24808636300E+04  0.24808636300E+04  0.00000000000E+00 0. -1.
         -2   -1    0    0    0  501 -0.00000000000E+00 -0.00000000000E+00 -0.40505443945E+03  0.40505443945E+03  0.00000000000E+00 0.  1.
         23    2    1    2    0    0 -0.71099806815E+03  0.33640971771E+03  0.10464528311E+04  0.13122590680E+04  0.90942744307E+02 0.  0.
        254    2    1    2    0    0  0.71099806815E+03 -0.33640971771E+03  0.10293563595E+04  0.15736590015E+04  0.89338591162E+03 0.  0.
        -24    2    4    4    0    0  0.49904361224E+03 -0.53330515396E+03  0.10384675694E+04  0.12721739050E+04  0.80948363551E+02 0.  0.
         24    2    4    4    0    0  0.21195445590E+03  0.19689543625E+03 -0.91112099630E+01  0.30148509651E+03  0.84366729681E+02 0.  0.
         11    1    3    3    0    0 -0.40114341480E+03  0.20045068483E+03  0.52259719267E+03  0.68862496475E+03  0.00000000000E+00 0. -1.
        -11    1    3    3    0    0 -0.30985465335E+03  0.13595903288E+03  0.52385563840E+03  0.62363410322E+03  0.00000000000E+00 0.  1.
          4    1    6    6  502    0  0.12578215430E+03  0.16702602254E+03  0.52648007648E+01  0.20915678491E+03  0.00000000000E+00 0. -1.
          3    1    5    5  503    0  0.10815388285E+03 -0.83684715538E+02  0.15643025359E+03  0.20777588461E+03  0.00000000000E+00 0. -1.
         -4    1    5    5    0  503  0.39088972939E+03 -0.44962043842E+03  0.88203731586E+03  0.10643980204E+04  0.00000000000E+00 0.  1.
         -3    1    6    6    0  502  0.86172301605E+02  0.29869413713E+02 -0.14376010728E+02  0.92328311605E+02  0.00000000000E+00 0.  1.
<mgrwt>
<rscale>  0 0.20048789E+04</rscale>
<asrwt>0</asrwt>
<pdfrwt beam="1">  1        2 0.38167132E+00 0.20048789E+04</pdfrwt>
<pdfrwt beam="2">  1       -2 0.62316069E-01 0.20048789E+04</pdfrwt>
<totfact> 0.79291044E+00</totfact>
</mgrwt>
</event>
<event>
12    1  0.2048318E-007  0.2285012E+04  0.7818608E-02  0.8483854E-01
          2   -1    0    0  501    0  0.00000000000E+00  0.00000000000E+00  0.76955091501E+03  0.76955091501E+03  0.00000000000E+00 0. -1.
         -2   -1    0    0    0  501 -0.00000000000E+00 -0.00000000000E+00 -0.16962103621E+04  0.16962103621E+04  0.00000000000E+00 0.  1.
         23    2    1    2    0    0 -0.71580224383E+03 -0.64344915865E+03 -0.41591920502E+03  0.10524955291E+04  0.91424185640E+02 0.  0.
        254    2    1    2    0    0  0.71580224383E+03  0.64344915865E+03 -0.51074024204E+03  0.14132657479E+04  0.90003600339E+03 0.  0.
        -24    2    4    4    0    0  0.23453440376E+03  0.38476127652E+02 -0.58136316166E+03  0.63328426657E+03  0.81111266777E+02 0.  0.
         24    2    4    4    0    0  0.48126784007E+03  0.60497303100E+03  0.70622919622E+02  0.77998148136E+03  0.75976393571E+02 0.  0.
         13    1    3    3    0    0 -0.22758885231E+03 -0.18004086661E+03 -0.84753271387E+02  0.30231525988E+03  0.00000000000E+00 0. -1.
        -13    1    3    3    0    0 -0.48821339152E+03 -0.46340829204E+03 -0.33116593363E+03  0.75018026926E+03  0.00000000000E+00 0.  1.
          4    1    6    6  502    0  0.34995994576E+03  0.39545518803E+03  0.25886041379E+02  0.52870299461E+03  0.00000000000E+00 0. -1.
          1    1    5    5  503    0  0.12548622619E+03  0.61371729930E+02 -0.32015115413E+03  0.34929936113E+03  0.00000000000E+00 0. -1.
         -2    1    5    5    0  503  0.10904817757E+03 -0.22895602278E+02 -0.26121200753E+03  0.28398490543E+03  0.00000000000E+00 0.  1.
         -3    1    6    6    0  502  0.13130789431E+03  0.20951784296E+03  0.44736878243E+02  0.25127848675E+03  0.00000000000E+00 0.  1.
<mgrwt>
<rscale>  0 0.22850122E+04</rscale>
<asrwt>0</asrwt>
<pdfrwt beam="1">  1        2 0.11839245E+00 0.22850122E+04</pdfrwt>
<pdfrwt beam="2">  1       -2 0.26095544E+00 0.22850122E+04</pdfrwt>
<totfact> 0.18116791E+00</totfact>
</mgrwt>
</event>
<event>
12    1  0.2048318E-007  0.2413605E+04  0.7818608E-02  0.8434428E-01
         -1   -1    0    0    0  501 -0.00000000000E+00  0.00000000000E+00  0.48819749008E+03  0.48819749008E+03  0.00000000000E+00 0.  1.
          1   -1    0    0  501    0  0.00000000000E+00 -0.00000000000E+00 -0.29831618467E+04  0.29831618467E+04  0.00000000000E+00 0. -1.
         23    2    1    2    0    0  0.78021512891E+03 -0.37180964781E+02 -0.20571766367E+04  0.22022618917E+04  0.88677242082E+02 0.  0.
        254    2    1    2    0    0 -0.78021512891E+03  0.37180964781E+02 -0.43778771991E+03  0.12690974451E+04  0.89935096933E+03 0.  0.
        -24    2    4    4    0    0 -0.82770546967E+03 -0.11746382124E+03 -0.50592991741E+02  0.84191012914E+03  0.85784153003E+02 0.  0.
         24    2    4    4    0    0  0.47490340762E+02  0.15464478602E+03 -0.38719472817E+03  0.42718731600E+03  0.79993144196E+02 0.  0.
         13    1    3    3    0    0  0.75379993915E+02  0.19160074964E+02 -0.16918034941E+03  0.18620215515E+03  0.00000000000E+00 0.  1.
        -13    1    3    3    0    0  0.70483513500E+03 -0.56341039745E+02 -0.18879962873E+04  0.20160597365E+04  0.00000000000E+00 0. -1.
          2    1    6    6  502    0 -0.49770728229E+01  0.18389004688E+02 -0.76540980484E+01  0.20530756543E+02  0.00000000000E+00 0. -1.
          3    1    5    5  503    0 -0.14255781753E+03 -0.30393592491E+02 -0.40081184124E+02  0.15117209771E+03  0.00000000000E+00 0. -1.
         -4    1    5    5    0  503 -0.68514765214E+03 -0.87070228749E+02 -0.10511807617E+02  0.69073803143E+03  0.00000000000E+00 0.  1.
         -1    1    6    6    0  502  0.52467413585E+02  0.13625578133E+03 -0.37954063012E+03  0.40665655946E+03  0.00000000000E+00 0.  1.
<mgrwt>
<rscale>  0 0.24136049E+04</rscale>
<asrwt>0</asrwt>
<pdfrwt beam="1">  1        1 0.45894798E+00 0.24136049E+04</pdfrwt>
<pdfrwt beam="2">  1       -1 0.75107305E-01 0.24136049E+04</pdfrwt>
<totfact> 0.98124942E-01</totfact>
</mgrwt>
</event>
<event>
12    1  0.2048318E-007  0.1611536E+04  0.7818608E-02  0.8813492E-01
          1   -1    0    0  501    0  0.00000000000E+00  0.00000000000E+00  0.55432514837E+03  0.55432514837E+03  0.00000000000E+00 0. -1.
         -1   -1    0    0    0  501 -0.00000000000E+00 -0.00000000000E+00 -0.11712654459E+04  0.11712654459E+04  0.00000000000E+00 0.  1.
         23    2    1    2    0    0 -0.26303687100E+03  0.25358497612E+03  0.21551921713E+03  0.43377789447E+03  0.90669692610E+02 0.  0.
        254    2    1    2    0    0  0.26303687100E+03 -0.25358497612E+03 -0.83245951469E+03  0.12918126998E+04  0.91776765698E+03 0.  0.
        -24    2    4    4    0    0 -0.85263858810E+02 -0.51289839022E+03 -0.32060089681E+03  0.61598081139E+03  0.79452757424E+02 0.  0.
         24    2    4    4    0    0  0.34830072981E+03  0.25931341410E+03 -0.51185861788E+03  0.67583188843E+03  0.78693402497E+02 0.  0.
         13    1    3    3    0    0 -0.22299994877E+02  0.20598245574E+02  0.53790107954E+02  0.61765307462E+02  0.00000000000E+00 0. -1.
        -13    1    3    3    0    0 -0.24073687613E+03  0.23298673055E+03  0.16172910918E+03  0.37201258701E+03  0.00000000000E+00 0.  1.
          4    1    6    6  502    0  0.14969796334E+03  0.15109722417E+03 -0.21272045229E+03  0.30081529583E+03  0.00000000000E+00 0. -1.
          1    1    5    5  503    0 -0.15938312231E+02 -0.20603581142E+03 -0.16801300642E+03  0.26633279128E+03  0.00000000000E+00 0. -1.
         -2    1    5    5    0  503 -0.69325546579E+02 -0.30686257880E+03 -0.15258789038E+03  0.34964802011E+03  0.00000000000E+00 0.  1.
         -3    1    6    6    0  502  0.19860276647E+03  0.10821618993E+03 -0.29913816559E+03  0.37501659260E+03  0.00000000000E+00 0.  1.
<mgrwt>
<rscale>  0 0.16115358E+04</rscale>
<asrwt>0</asrwt>
<pdfrwt beam="1">  1        1 0.85280794E-01 0.16115358E+04</pdfrwt>
<pdfrwt beam="2">  1       -1 0.18019468E+00 0.16115358E+04</pdfrwt>
<totfact> 0.76276817E+00</totfact>
</mgrwt>
</event>
<event>
12    1  0.2048318E-007  0.3065098E+04  0.7818608E-02  0.8225382E-01
         -2   -1    0    0    0  501 -0.00000000000E+00  0.00000000000E+00  0.10962792518E+04  0.10962792518E+04  0.00000000000E+00 0.  1.
          2   -1    0    0  501    0  0.00000000000E+00 -0.00000000000E+00 -0.21424342344E+04  0.21424342344E+04  0.00000000000E+00 0. -1.
         23    2    1    2    0    0  0.65572929132E+03 -0.10226004337E+04  0.25845458144E+03  0.12453668645E+04  0.91909227363E+02 0.  0.
        254    2    1    2    0    0 -0.65572929132E+03  0.10226004337E+04 -0.13046095641E+04  0.19933466216E+04  0.89203816544E+03 0.  0.
        -24    2    4    4    0    0 -0.41790581815E+03  0.52889372227E+03 -0.12491204582E+03  0.69018080467E+03  0.79829077716E+02 0.  0.
         24    2    4    4    0    0 -0.23782347317E+03  0.49370671147E+03 -0.11796975182E+04  0.13031658169E+04  0.79048026598E+02 0.  0.
         11    1    3    3    0    0  0.22738614485E+03 -0.39488171731E+03  0.13670905034E+03  0.47573668555E+03  0.00000000000E+00 0.  1.
        -11    1    3    3    0    0  0.42834314647E+03 -0.62771871643E+03  0.12174553111E+03  0.76963017900E+03  0.00000000000E+00 0. -1.
          2    1    6    6  502    0 -0.10125881740E+03  0.20989626271E+03 -0.41147564002E+03  0.47288686969E+03  0.00000000000E+00 0. -1.
          1    1    5    5  503    0 -0.72837501758E+02  0.60380520346E+02 -0.37532198999E+02  0.10178297923E+03  0.00000000000E+00 0. -1.
         -2    1    5    5    0  503 -0.34506831639E+03  0.46851320192E+03 -0.87379846818E+02  0.58839782544E+03  0.00000000000E+00 0.  1.
         -1    1    6    6    0  502 -0.13656465577E+03  0.28381044877E+03 -0.76822187822E+03  0.83027894723E+03  0.00000000000E+00 0.  1.
<mgrwt>
<rscale>  0 0.30650978E+04</rscale>
<asrwt>0</asrwt>
<pdfrwt beam="1">  1        2 0.32960526E+00 0.30650978E+04</pdfrwt>
<pdfrwt beam="2">  1       -2 0.16865835E+00 0.30650978E+04</pdfrwt>
<totfact> 0.10320730E+00</totfact>
</mgrwt>
</event>
<event>
12    1  0.2048318E-007  0.1605200E+04  0.7818608E-02  0.8817360E-01
         -2   -1    0    0    0  501 -0.00000000000E+00  0.00000000000E+00  0.87057846837E+03  0.87057846837E+03  0.00000000000E+00 0.  1.
          2   -1    0    0  501    0  0.00000000000E+00 -0.00000000000E+00 -0.73993001942E+03  0.73993001942E+03  0.00000000000E+00 0. -1.
         23    2    1    2    0    0  0.34519492079E+03 -0.16204425993E+03 -0.35251278145E+03  0.52728470245E+03  0.91356558818E+02 0.  0.
        254    2    1    2    0    0 -0.34519492079E+03  0.16204425993E+03  0.48316123039E+03  0.10832237853E+04  0.89135353202E+03 0.  0.
        -24    2    4    4    0    0  0.17330452310E+03  0.98532303710E+02  0.51077718476E+03  0.55437938933E+03  0.81854152245E+02 0.  0.
         24    2    4    4    0    0 -0.51849944389E+03  0.63511956222E+02 -0.27615954368E+02  0.52884439601E+03  0.77706578593E+02 0.  0.
         11    1    3    3    0    0  0.18865130512E+03 -0.12428704451E+03 -0.24716438797E+03  0.33485342919E+03  0.00000000000E+00 0. -1.
        -11    1    3    3    0    0  0.15654361566E+03 -0.37757215426E+02 -0.10534839348E+03  0.19243127326E+03  0.00000000000E+00 0.  1.
          4    1    6    6  502    0 -0.12160818185E+03 -0.17851391214E+02 -0.28918189491E+01  0.12294545407E+03  0.00000000000E+00 0. -1.
          3    1    5    5  503    0  0.13009884799E+03  0.10692619425E+03  0.36247277577E+03  0.39968166638E+03  0.00000000000E+00 0. -1.
         -4    1    5    5    0  503  0.43205675112E+02 -0.83938905380E+01  0.14830440899E+03  0.15469772295E+03  0.00000000000E+00 0.  1.
         -3    1    6    6    0  502 -0.39689126204E+03  0.81363347436E+02 -0.24724135418E+02  0.40589894193E+03  0.00000000000E+00 0.  1.
<mgrwt>
<rscale>  0 0.16052005E+04</rscale>
<asrwt>0</asrwt>
<pdfrwt beam="1">  1        2 0.11383539E+00 0.16052005E+04</pdfrwt>
<pdfrwt beam="2">  1       -2 0.13393515E+00 0.16052005E+04</pdfrwt>
<totfact> 0.14722227E+01</totfact>
</mgrwt>
</event>
<event>
12    1  0.2048318E-007  0.1803949E+04  0.7818608E-02  0.8704202E-01
         -2   -1    0    0    0  501 -0.00000000000E+00  0.00000000000E+00  0.27418459763E+03  0.27418459763E+03  0.00000000000E+00 0. -1.
          2   -1    0    0  501    0  0.00000000000E+00 -0.00000000000E+00 -0.29671895311E+04  0.29671895311E+04  0.00000000000E+00 0.  1.
         23    2    1    2    0    0  0.36793211849E+03  0.56223799358E+03 -0.10522747717E+04  0.12518191259E+04  0.91012765769E+02 0.  0.
        254    2    1    2    0    0 -0.36793211849E+03 -0.56223799358E+03 -0.16407301618E+04  0.19895550028E+04  0.90268933766E+03 0.  0.
        -24    2    4    4    0    0 -0.37696370057E+03 -0.75326586925E+03 -0.15426016792E+04  0.17596782741E+04  0.85653875560E+02 0.  0.
         24    2    4    4    0    0  0.90315820791E+01  0.19102787567E+03 -0.98128482599E+02  0.22987672875E+03  0.81491671755E+02 0.  0.
         13    1    3    3    0    0  0.21803833490E+03  0.39815332885E+03 -0.66172656869E+03  0.80246423002E+03  0.00000000000E+00 0. -1.
        -13    1    3    3    0    0  0.14989378360E+03  0.16408466473E+03 -0.39054820297E+03  0.44935489583E+03  0.00000000000E+00 0.  1.
          4    1    6    6  502    0  0.13712865871E+02 -0.15255573030E+01 -0.19527845671E+00  0.13798845936E+02  0.00000000000E+00 0. -1.
          1    1    5    5  503    0 -0.60683849590E+02 -0.76040315760E+02 -0.14223310265E+03  0.17232212485E+03  0.00000000000E+00 0. -1.
         -2    1    5    5    0  503 -0.31627985098E+03 -0.67722555349E+03 -0.14003685765E+04  0.15873561492E+04  0.00000000000E+00 0.  1.
         -3    1    6    6    0  502 -0.46812837921E+01  0.19255343297E+03 -0.97933204142E+02  0.21607788281E+03  0.00000000000E+00 0.  1.
<mgrwt>
<rscale>  0 0.18039486E+04</rscale>
<asrwt>0</asrwt>
<pdfrwt beam="1">  1        2 0.45649070E+00 0.18039486E+04</pdfrwt>
<pdfrwt beam="2">  1       -2 0.42182245E-01 0.18039486E+04</pdfrwt>
<totfact> 0.92096509E+00</totfact>
</mgrwt>
</event>
<event>
12    1  0.2048318E-007  0.2605421E+04  0.7818608E-02  0.8366362E-01
         -1   -1    0    0    0  501 -0.00000000000E+00  0.00000000000E+00  0.98915355627E+03  0.98915355627E+03  0.00000000000E+00 0.  1.
          1   -1    0    0  501    0  0.00000000000E+00 -0.00000000000E+00 -0.17156633023E+04  0.17156633023E+04  0.00000000000E+00 0. -1.
         23    2    1    2    0    0 -0.59471034049E+03  0.37811007309E+03 -0.12566874197E+04  0.14436372585E+04  0.90430342532E+02 0.  0.
        254    2    1    2    0    0  0.59471034049E+03 -0.37811007309E+03  0.53017767366E+03  0.12611796001E+04  0.90157528888E+03 0.  0.
        -24    2    4    4    0    0 -0.87509651482E+02  0.17526726481E+03  0.26669370655E+03  0.34043374602E+03  0.79956545051E+02 0.  0.
         24    2    4    4    0    0  0.68221999198E+03 -0.55337733790E+03  0.26348396711E+03  0.92074585406E+03  0.81844555607E+02 0.  0.
         13    1    3    3    0    0 -0.38704336957E+03  0.23221915616E+03 -0.71676790087E+03  0.84704458568E+03  0.00000000000E+00 0.  1.
        -13    1    3    3    0    0 -0.20766697093E+03  0.14589091694E+03 -0.53991951878E+03  0.59659267278E+03  0.00000000000E+00 0. -1.
          4    1    6    6  502    0  0.44065406934E+03 -0.31483685355E+03  0.13873118802E+03  0.55905688057E+03  0.00000000000E+00 0. -1.
          1    1    5    5  503    0 -0.14644151266E+01  0.63018043159E+01 -0.56463210481E+01  0.85870944258E+01  0.00000000000E+00 0. -1.
         -2    1    5    5    0  503 -0.86045236356E+02  0.16896546049E+03  0.27234002760E+03  0.33184665159E+03  0.00000000000E+00 0.  1.
         -3    1    6    6    0  502  0.24156592264E+03 -0.23854048435E+03  0.12475277909E+03  0.36168897349E+03  0.00000000000E+00 0.  1.
<mgrwt>
<rscale>  0 0.26054209E+04</rscale>
<asrwt>0</asrwt>
<pdfrwt beam="1">  1        1 0.26394820E+00 0.26054209E+04</pdfrwt>
<pdfrwt beam="2">  1       -1 0.15217747E+00 0.26054209E+04</pdfrwt>
<totfact> 0.13735716E+00</totfact>
</mgrwt>
</event>
<event>
12    1  0.2048318E-007  0.2266875E+04  0.7818608E-02  0.8491098E-01
          2   -1    0    0  501    0  0.00000000000E+00  0.00000000000E+00  0.14516670117E+04  0.14516670117E+04  0.00000000000E+00 0.  1.
         -2   -1    0    0    0  501 -0.00000000000E+00 -0.00000000000E+00 -0.88496896044E+03  0.88496896044E+03  0.00000000000E+00 0. -1.
         23    2    1    2    0    0  0.46259908191E+03 -0.79523483234E+03 -0.22847805368E+02  0.92451409708E+03  0.88362573233E+02 0.  0.
        254    2    1    2    0    0 -0.46259908191E+03  0.79523483234E+03  0.58954585665E+03  0.14121218751E+04  0.89449847615E+03 0.  0.
        -24    2    4    4    0    0 -0.30376062656E+03  0.97839401952E+03  0.45533187459E+03  0.11239996274E+04  0.80763052146E+02 0.  0.
         24    2    4    4    0    0 -0.15883845535E+03 -0.18315918718E+03  0.13421398206E+03  0.28812224773E+03  0.78892926866E+02 0.  0.
         13    1    3    3    0    0  0.40131876370E+03 -0.67828176884E+03  0.11072840229E+02  0.78819129394E+03  0.00000000000E+00 0.  1.
        -13    1    3    3    0    0  0.61280318208E+02 -0.11695306349E+03 -0.33920645597E+02  0.13632280315E+03  0.00000000000E+00 0. -1.
          2    1    6    6  502    0 -0.73941872967E+02 -0.10447533488E+03  0.11238082078E+03  0.17032893194E+03  0.00000000000E+00 0. -1.
          1    1    5    5  503    0 -0.15877085454E+03  0.52764514363E+03  0.20106228000E+03  0.58655231846E+03  0.00000000000E+00 0. -1.
         -2    1    5    5    0  503 -0.14498977202E+03  0.45074887588E+03  0.25426959460E+03  0.53744730889E+03  0.00000000000E+00 0.  1.
         -1    1    6    6    0  502 -0.84896582386E+02 -0.78683852297E+02  0.21833161277E+02  0.11779331579E+03  0.00000000000E+00 0.  1.
<mgrwt>
<rscale>  0 0.22668747E+04</rscale>
<asrwt>0</asrwt>
<pdfrwt beam="1">  1        2 0.22333339E+00 0.22668747E+04</pdfrwt>
<pdfrwt beam="2">  1       -2 0.13614907E+00 0.22668747E+04</pdfrwt>
<totfact> 0.47457478E+00</totfact>
</mgrwt>
</event>
<event>
12    1  0.2048318E-007  0.1345374E+04  0.7818608E-02  0.8994338E-01
         -2   -1    0    0    0  501 -0.00000000000E+00  0.00000000000E+00  0.17013403993E+04  0.17013403993E+04  0.00000000000E+00 0.  1.
          2   -1    0    0  501    0  0.00000000000E+00 -0.00000000000E+00 -0.26597122366E+03  0.26597122366E+03  0.00000000000E+00 0. -1.
         23    2    1    2    0    0  0.25709837516E+03 -0.17653690763E+03  0.12622793833E+03  0.34872089468E+03  0.91694687440E+02 0.  0.
        254    2    1    2    0    0 -0.25709837516E+03  0.17653690763E+03  0.13091412373E+04  0.16185907283E+04  0.89928878131E+03 0.  0.
        -24    2    4    4    0    0  0.79152632632E+02 -0.31421718554E+03  0.62437220317E+03  0.70802110627E+03  0.80347121249E+02 0.  0.
         24    2    4    4    0    0 -0.33625100779E+03  0.49075409317E+03  0.68476903412E+03  0.91056962199E+03  0.79524123417E+02 0.  0.
         13    1    3    3    0    0  0.22591654331E+03 -0.12001843340E+03  0.75808546306E+02  0.26681387631E+03  0.00000000000E+00 0. -1.
        -13    1    3    3    0    0  0.31181831852E+02 -0.56518474223E+02  0.50419392025E+02  0.81907018371E+02  0.00000000000E+00 0.  1.
          2    1    6    6  502    0 -0.14619976954E+02  0.43378302986E+02  0.82035878455E+02  0.93943101130E+02  0.00000000000E+00 0. -1.
          3    1    5    5  503    0  0.28110736765E+02 -0.24635415129E+02  0.10113389031E+03  0.10782013249E+03  0.00000000000E+00 0. -1.
         -4    1    5    5    0  503  0.51041895866E+02 -0.28958177041E+03  0.52323831286E+03  0.60020097379E+03  0.00000000000E+00 0.  1.
         -3    1    6    6    0  502 -0.32163103084E+03  0.44737579018E+03  0.60273315566E+03  0.81662652086E+03  0.00000000000E+00 0.  1.
<mgrwt>
<rscale>  0 0.13453737E+04</rscale>
<asrwt>0</asrwt>
<pdfrwt beam="1">  1        2 0.40918651E-01 0.13453737E+04</pdfrwt>
<pdfrwt beam="2">  1       -2 0.26174467E+00 0.13453737E+04</pdfrwt>
<totfact> 0.66954937E+00</totfact>
</mgrwt>
</event>
<event>
12    1  0.2048318E-007  0.2828312E+04  0.7818608E-02  0.8294532E-01
          2   -1    0    0  501    0  0.00000000000E+00  0.00000000000E+00  0.20515284506E+04  0.20515284506E+04  0.00000000000E+00 0. -1.
         -2   -1    0    0    0  501 -0.00000000000E+00 -0.00000000000E+00 -0.97480367962E+03  0.97480367962E+03  0.00000000000E+00 0.  1.
         23    2    1    2    0    0  0.63598817187E+03  0.80891149096E+03  0.12792990249E+04  0.16443809870E+04  0.92542316702E+02 0.  0.
        254    2    1    2    0    0 -0.63598817187E+03 -0.80891149096E+03 -0.20257425392E+03  0.13819511432E+04  0.89996326530E+03 0.  0.
        -24    2    4    4    0    0 -0.43715611054E+03 -0.71026208211E+03  0.24740738138E+03  0.87408992827E+03  0.85118153634E+02 0.  0.
         24    2    4    4    0    0 -0.19883206133E+03 -0.98649408849E+02 -0.44998163530E+03  0.50786121494E+03  0.78572559154E+02 0.  0.
         13    1    3    3    0    0  0.24491520156E+03  0.36907566509E+03  0.59555952924E+03  0.74222062447E+03  0.00000000000E+00 0.  1.
        -13    1    3    3    0    0  0.39107297031E+03  0.43983582587E+03  0.68373949567E+03  0.90216036256E+03  0.00000000000E+00 0. -1.
          4    1    6    6  502    0 -0.13525756946E+03 -0.42034863146E+02 -0.34334310964E+03  0.37141086515E+03  0.00000000000E+00 0. -1.
          1    1    5    5  503    0 -0.39304350334E+03 -0.67734861896E+03  0.23563128587E+03  0.81780587550E+03  0.00000000000E+00 0. -1.
         -2    1    5    5    0  503 -0.44112607205E+02 -0.32913463150E+02  0.11776095511E+02  0.56284052772E+02  0.00000000000E+00 0.  1.
         -3    1    6    6    0  502 -0.63574491876E+02 -0.56614545703E+02 -0.10663852566E+03  0.13645034979E+03  0.00000000000E+00 0.  1.
<mgrwt>
<rscale>  0 0.28283122E+04</rscale>
<asrwt>0</asrwt>
<pdfrwt beam="1">  1        2 0.31561976E+00 0.28283122E+04</pdfrwt>
<pdfrwt beam="2">  1       -2 0.14996980E+00 0.28283122E+04</pdfrwt>
<totfact> 0.16276303E+00</totfact>
</mgrwt>
</event>
<event>
12    1  0.2048318E-007  0.1549746E+04  0.7818608E-02  0.8852030E-01
         -1   -1    0    0    0  501 -0.00000000000E+00  0.00000000000E+00  0.61108040721E+03  0.61108040721E+03  0.00000000000E+00 0.  1.
          1   -1    0    0  501    0  0.00000000000E+00 -0.00000000000E+00 -0.98256876640E+03  0.98256876640E+03  0.00000000000E+00 0. -1.
         23    2    1    2    0    0  0.83889339751E+02  0.44583258057E+03  0.11035553958E+03  0.47583915028E+03  0.91871870525E+02 0.  0.
        254    2    1    2    0    0 -0.83889339751E+02 -0.44583258057E+03 -0.48184389876E+03  0.11178100233E+04  0.90084493353E+03 0.  0.
        -24    2    4    4    0    0  0.36355223031E+03 -0.38698518807E+03 -0.16962569576E+03  0.56294051437E+03  0.78748880043E+02 0.  0.
         24    2    4    4    0    0 -0.44744157006E+03 -0.58847392506E+02 -0.31221820300E+03  0.55486950897E+03  0.82054807738E+02 0.  0.
         11    1    3    3    0    0  0.10373594443E+03  0.35306625519E+03  0.88974115551E+02  0.37859387206E+03  0.00000000000E+00 0.  1.
        -11    1    3    3    0    0 -0.19846604677E+02  0.92766325381E+02  0.21381424030E+02  0.97245278217E+02  0.00000000000E+00 0. -1.
          2    1    6    6  502    0 -0.41297708710E+03 -0.30791702523E+02 -0.28580280925E+03  0.50317139147E+03  0.00000000000E+00 0. -1.
          1    1    5    5  503    0  0.24347413669E+03 -0.28429147949E+03 -0.15189178914E+03  0.40394605600E+03  0.00000000000E+00 0. -1.
         -2    1    5    5    0  503  0.12007809362E+03 -0.10269370858E+03 -0.17733906622E+02  0.15899445837E+03  0.00000000000E+00 0.  1.
         -1    1    6    6    0  502 -0.34464482960E+02 -0.28055689983E+02 -0.26415393747E+02  0.51698117499E+02  0.00000000000E+00 0.  1.
<mgrwt>
<rscale>  0 0.15497465E+04</rscale>
<asrwt>0</asrwt>
<pdfrwt beam="1">  1        1 0.15116443E+00 0.15497465E+04</pdfrwt>
<pdfrwt beam="2">  1       -1 0.94012371E-01 0.15497465E+04</pdfrwt>
<totfact> 0.16496681E+01</totfact>
</mgrwt>
</event>
<event>
12    1  0.2048318E-007  0.2055878E+04  0.7818608E-02  0.8580933E-01
          2   -1    0    0  501    0  0.00000000000E+00  0.00000000000E+00  0.17125796057E+04  0.17125796057E+04  0.00000000000E+00 0. -1.
         -2   -1    0    0    0  501 -0.00000000000E+00 -0.00000000000E+00 -0.61699806511E+03  0.61699806511E+03  0.00000000000E+00 0.  1.
         23    2    1    2    0    0  0.30514790204E+03 -0.62207210610E+03 -0.70525874892E+02  0.70202639559E+03  0.88194182165E+02 0.  0.
        254    2    1    2    0    0 -0.30514790204E+03  0.62207210610E+03  0.11661074155E+04  0.16275512752E+04  0.89945967209E+03 0.  0.
        -24    2    4    4    0    0  0.10257670547E+03  0.70049978435E+03  0.71833108152E+03  0.10116818182E+04  0.79237807817E+02 0.  0.
         24    2    4    4    0    0 -0.40772460752E+03 -0.78427678251E+02  0.44777633397E+03  0.61586945704E+03  0.80008040605E+02 0.  0.
         11    1    3    3    0    0  0.25903270207E+02 -0.13004462712E+03 -0.18701345981E+02  0.13391163054E+03  0.00000000000E+00 0. -1.
        -11    1    3    3    0    0  0.27924463184E+03 -0.49202747898E+03 -0.51824528910E+02  0.56811476505E+03  0.00000000000E+00 0.  1.
          2    1    6    6  502    0 -0.86331004197E+02 -0.49832578797E+02  0.93326278026E+02  0.13655080507E+03  0.00000000000E+00 0. -1.
          1    1    5    5  503    0  0.87640298397E+02  0.46912773399E+03  0.52792114583E+03  0.71166170960E+03  0.00000000000E+00 0. -1.
         -2    1    5    5    0  503  0.14936407077E+02  0.23137205036E+03  0.19040993570E+03  0.30002010858E+03  0.00000000000E+00 0.  1.
         -1    1    6    6    0  502 -0.32139360332E+03 -0.28595099453E+02  0.35445005595E+03  0.47931865197E+03  0.00000000000E+00 0.  1.
<mgrwt>
<rscale>  0 0.20558777E+04</rscale>
<asrwt>0</asrwt>
<pdfrwt beam="1">  1        2 0.26347378E+00 0.20558777E+04</pdfrwt>
<pdfrwt beam="2">  1       -2 0.94922780E-01 0.20558777E+04</pdfrwt>
<totfact> 0.83341316E+00</totfact>
</mgrwt>
</event>
<event>
12    1  0.2048318E-007  0.1008629E+04  0.7818608E-02  0.9299131E-01
          2   -1    0    0  501    0  0.00000000000E+00  0.00000000000E+00  0.50510717208E+03  0.50510717208E+03  0.00000000000E+00 0. -1.
         -2   -1    0    0    0  501 -0.00000000000E+00 -0.00000000000E+00 -0.50352314904E+03  0.50352314904E+03  0.00000000000E+00 0.  1.
         23    2    1    2    0    0 -0.57732271546E+02 -0.55263400286E+02  0.35702662667E+01  0.11694090576E+03  0.85295779786E+02 0.  0.
        254    2    1    2    0    0  0.57732271546E+02  0.55263400286E+02 -0.19862432281E+01  0.89168941536E+03  0.88809853604E+03 0.  0.
        -24    2    4    4    0    0 -0.98528280930E+02 -0.26713972523E+03 -0.29851755897E+03  0.42000474508E+03  0.78865695551E+02 0.  0.
         24    2    4    4    0    0  0.15626055248E+03  0.32240312552E+03  0.29653131574E+03  0.47168467028E+03  0.78704964008E+02 0.  0.
         11    1    3    3    0    0 -0.67378381878E+01 -0.50306685425E+02  0.30341491289E+02  0.59133468996E+02  0.00000000000E+00 0. -1.
        -11    1    3    3    0    0 -0.50994433358E+02 -0.49567148611E+01 -0.26771225023E+02  0.57807436762E+02  0.00000000000E+00 0.  1.
          2    1    6    6  502    0  0.15801365332E+03  0.32454206054E+03  0.28524892341E+03  0.46006826885E+03  0.00000000000E+00 0. -1.
          1    1    5    5  503    0 -0.53830078833E+02 -0.22520896991E+03 -0.21174971998E+03  0.31377492160E+03  0.00000000000E+00 0. -1.
         -2    1    5    5    0  503 -0.44698202098E+02 -0.41930755323E+02 -0.86767838995E+02  0.10622982348E+03  0.00000000000E+00 0.  1.
         -1    1    6    6    0  502 -0.17531008468E+01 -0.21389350179E+01  0.11282392329E+02  0.11616401433E+02  0.00000000000E+00 0.  1.
<mgrwt>
<rscale>  0 0.10086291E+04</rscale>
<asrwt>0</asrwt>
<pdfrwt beam="1">  1        2 0.77708796E-01 0.10086291E+04</pdfrwt>
<pdfrwt beam="2">  1       -2 0.77465100E-01 0.10086291E+04</pdfrwt>
<totfact> 0.90301558E+01</totfact>
</mgrwt>
</event>
<event>
12    1  0.2048318E-007  0.1698482E+04  0.7818608E-02  0.8762231E-01
          1   -1    0    0  501    0  0.00000000000E+00  0.00000000000E+00  0.24745120504E+04  0.24745120504E+04  0.00000000000E+00 0. -1.
         -1   -1    0    0    0  501 -0.00000000000E+00 -0.00000000000E+00 -0.29145560615E+03  0.29145560615E+03  0.00000000000E+00 0.  1.
         23    2    1    2    0    0  0.34427812702E+03 -0.49999477376E+03  0.78111440304E+03  0.99338974871E+03  0.90339801198E+02 0.  0.
        254    2    1    2    0    0 -0.34427812702E+03  0.49999477376E+03  0.14019420412E+04  0.17725779078E+04  0.89892644300E+03 0.  0.
        -24    2    4    4    0    0 -0.35441899740E+03  0.42238596724E+03  0.24238554008E+03  0.60756475954E+03  0.79758735904E+02 0.  0.
         24    2    4    4    0    0  0.10140870388E+02  0.77608806513E+02  0.11595565011E+04  0.11650131483E+04  0.80983901411E+02 0.  0.
         11    1    3    3    0    0  0.27296348335E+03 -0.42365431312E+03  0.69203792869E+03  0.85610077386E+03  0.00000000000E+00 0. -1.
        -11    1    3    3    0    0  0.71314643661E+02 -0.76340460639E+02  0.89076474348E+02  0.13728897484E+03  0.00000000000E+00 0.  1.
          4    1    6    6  502    0  0.44546397661E+02  0.55773137422E+02  0.68422658274E+03  0.68793970734E+03  0.00000000000E+00 0. -1.
          1    1    5    5  503    0 -0.17534066948E+03  0.19255186264E+03  0.15639760064E+03  0.30377751673E+03  0.00000000000E+00 0. -1.
         -2    1    5    5    0  503 -0.17907832792E+03  0.22983410460E+03  0.85987939433E+02  0.30378724282E+03  0.00000000000E+00 0.  1.
         -3    1    6    6    0  502 -0.34405527273E+02  0.21835669092E+02  0.47532991839E+03  0.47707344096E+03  0.00000000000E+00 0.  1.
<mgrwt>
<rscale>  0 0.16984822E+04</rscale>
<asrwt>0</asrwt>
<pdfrwt beam="1">  1        1 0.38069415E+00 0.16984822E+04</pdfrwt>
<pdfrwt beam="2">  1       -1 0.44839326E-01 0.16984822E+04</pdfrwt>
<totfact> 0.66306094E+00</totfact>
</mgrwt>
</event>
<event>
12    1  0.2048318E-007  0.1404047E+04  0.7818608E-02  0.8950894E-01
         -2   -1    0    0    0  501 -0.00000000000E+00  0.00000000000E+00  0.15316127636E+03  0.15316127636E+03  0.00000000000E+00 0.  1.
          2   -1    0    0  501    0  0.00000000000E+00 -0.00000000000E+00 -0.32177670877E+04  0.32177670877E+04  0.00000000000E+00 0. -1.
         23    2    1    2    0    0 -0.37132185887E+03 -0.10138460646E+03 -0.12218892608E+04  0.12843168512E+04  0.91091422601E+02 0.  0.
        254    2    1    2    0    0  0.37132185887E+03  0.10138460646E+03 -0.18427165506E+04  0.20866115129E+04  0.90010252678E+03 0.  0.
        -24    2    4    4    0    0 -0.28030841694E+02  0.12091294149E+02  0.81333135187E+02  0.11775678038E+03  0.79496244975E+02 0.  0.
         24    2    4    4    0    0  0.39935270056E+03  0.89293312314E+02 -0.19240496857E+04  0.19688547325E+04  0.83461904137E+02 0.  0.
         11    1    3    3    0    0 -0.32616657709E+03 -0.11537081928E+03 -0.11149872625E+04  0.11674295085E+04  0.00000000000E+00 0. -1.
        -11    1    3    3    0    0 -0.45155281778E+02  0.13986212820E+02 -0.10690199831E+03  0.11688734261E+03  0.00000000000E+00 0.  1.
          2    1    6    6  502    0  0.68967551334E+02 -0.15691999672E+02 -0.35202136558E+03  0.35905682533E+03  0.00000000000E+00 0. -1.
          3    1    5    5  503    0  0.25787294910E+02  0.15221985949E+02  0.39240380696E+02  0.49360924953E+02  0.00000000000E+00 0. -1.
         -4    1    5    5    0  503 -0.53818136604E+02 -0.31306918000E+01  0.42092754490E+02  0.68395855424E+02  0.00000000000E+00 0.  1.
         -1    1    6    6    0  502  0.33038514923E+03  0.10498531199E+03 -0.15720283202E+04  0.16097979072E+04  0.00000000000E+00 0.  1.
<mgrwt>
<rscale>  0 0.14040475E+04</rscale>
<asrwt>0</asrwt>
<pdfrwt beam="1">  1        2 0.49504109E+00 0.14040475E+04</pdfrwt>
<pdfrwt beam="2">  1       -2 0.23563273E-01 0.14040475E+04</pdfrwt>
<totfact> 0.19855349E+01</totfact>
</mgrwt>
</event>
<event>
12    1  0.2048318E-007  0.2463807E+04  0.7818608E-02  0.8415994E-01
         -3   -1    0    0    0  501 -0.00000000000E+00  0.00000000000E+00  0.10330298414E+04  0.10330298414E+04  0.00000000000E+00 0.  1.
          3   -1    0    0  501    0  0.00000000000E+00 -0.00000000000E+00 -0.14690627994E+04  0.14690627994E+04  0.00000000000E+00 0. -1.
         23    2    1    2    0    0 -0.10537262144E+03  0.10424186003E+04 -0.38322634430E+03  0.11193729020E+04  0.91615147299E+02 0.  0.
        254    2    1    2    0    0  0.10537262144E+03 -0.10424186003E+04 -0.52806613783E+02  0.13827197388E+04  0.90076934341E+03 0.  0.
        -24    2    4    4    0    0  0.18550065636E+03 -0.11827010822E+04 -0.27425360955E+02  0.12001432772E+04  0.79996199433E+02 0.  0.
         24    2    4    4    0    0 -0.80128034922E+02  0.14028248195E+03 -0.25381252828E+02  0.18257646161E+03  0.81180537165E+02 0.  0.
         11    1    3    3    0    0 -0.85226360865E+02  0.60475396457E+03 -0.18220851488E+03  0.63733102321E+03  0.00000000000E+00 0. -1.
        -11    1    3    3    0    0 -0.20146260573E+02  0.43766463571E+03 -0.20101782943E+03  0.48204187880E+03  0.00000000000E+00 0.  1.
          2    1    6    6  502    0 -0.59250561577E+02  0.14015315736E+03 -0.39704468957E+02  0.15725769113E+03  0.00000000000E+00 0. -1.
          1    1    5    5  503    0  0.19041594580E+02 -0.35197431981E+03 -0.96937513874E+00  0.35249034571E+03  0.00000000000E+00 0. -1.
         -2    1    5    5    0  503  0.16645906178E+03 -0.83072676243E+03 -0.26455985816E+02  0.84765293148E+03  0.00000000000E+00 0.  1.
         -1    1    6    6    0  502 -0.20877473344E+02  0.12932459477E+00  0.14323216129E+02  0.25318770475E+02  0.00000000000E+00 0.  1.
<mgrwt>
<rscale>  0 0.24638066E+04</rscale>
<asrwt>0</asrwt>
<pdfrwt beam="1">  1        3 0.22600966E+00 0.24638066E+04</pdfrwt>
<pdfrwt beam="2">  1       -3 0.15892767E+00 0.24638066E+04</pdfrwt>
<totfact> 0.65916694E-02</totfact>
</mgrwt>
</event>
<event>
12    1  0.2048318E-007  0.1332102E+04  0.7818608E-02  0.9004488E-01
         -2   -1    0    0    0  501 -0.00000000000E+00  0.00000000000E+00  0.34268893984E+03  0.34268893984E+03  0.00000000000E+00 0. -1.
          2   -1    0    0  501    0  0.00000000000E+00 -0.00000000000E+00 -0.12945387209E+04  0.12945387209E+04  0.00000000000E+00 0.  1.
         23    2    1    2    0    0 -0.16775582231E+03 -0.24430743829E+03 -0.50004080328E+03  0.58833160047E+03  0.90912743016E+02 0.  0.
        254    2    1    2    0    0  0.16775582231E+03  0.24430743829E+03 -0.45180897779E+03  0.10488960603E+04  0.89901248742E+03 0.  0.
        -24    2    4    4    0    0 -0.43938122970E+02  0.17094953980E+03  0.24483762298E+03  0.31277159009E+03  0.82014036173E+02 0.  0.
         24    2    4    4    0    0  0.21169394528E+03  0.73357898494E+02 -0.69664660078E+03  0.73612447019E+03  0.79793743522E+02 0.  0.
         13    1    3    3    0    0 -0.13431803501E+03 -0.12719483441E+03 -0.34180077456E+03  0.38864846573E+03  0.00000000000E+00 0.  1.
        -13    1    3    3    0    0 -0.33437787295E+02 -0.11711260388E+03 -0.15824002872E+03  0.19968313473E+03  0.00000000000E+00 0. -1.
          4    1    6    6  502    0  0.65902824747E+01  0.24596183514E+02 -0.10485978341E+03  0.10790726687E+03  0.00000000000E+00 0. -1.
          1    1    5    5  503    0 -0.33338115173E+02  0.14615490007E+03  0.14210429220E+03  0.20655825958E+03  0.00000000000E+00 0. -1.
         -2    1    5    5    0  503 -0.10600007797E+02  0.24794639733E+02  0.10273333078E+03  0.10621333051E+03  0.00000000000E+00 0.  1.
         -3    1    6    6    0  502  0.20510366280E+03  0.48761714980E+02 -0.59178681737E+03  0.62821720333E+03  0.00000000000E+00 0.  1.
<mgrwt>
<rscale>  0 0.13321023E+04</rscale>
<asrwt>0</asrwt>
<pdfrwt beam="1">  1        2 0.19915981E+00 0.13321023E+04</pdfrwt>
<pdfrwt beam="2">  1       -2 0.52721375E-01 0.13321023E+04</pdfrwt>
<totfact> 0.55267035E+01</totfact>
</mgrwt>
</event>
<event>
12    1  0.2048318E-007  0.1987411E+04  0.7818608E-02  0.8612529E-01
         -2   -1    0    0    0  501 -0.00000000000E+00  0.00000000000E+00  0.74534031007E+03  0.74534031007E+03  0.00000000000E+00 0.  1.
          2   -1    0    0  501    0  0.00000000000E+00 -0.00000000000E+00 -0.13248321699E+04  0.13248321699E+04  0.00000000000E+00 0. -1.
         23    2    1    2    0    0  0.51364829670E+03 -0.57834356346E+03 -0.40191403407E+03  0.87616355572E+03  0.88384588543E+02 0.  0.
        254    2    1    2    0    0 -0.51364829670E+03  0.57834356346E+03 -0.17757782573E+03  0.11940089242E+04  0.89208047664E+03 0.  0.
        -24    2    4    4    0    0 -0.56315906674E+03  0.64119323458E+03  0.12957658557E+03  0.86701777607E+03  0.81564906426E+02 0.  0.
         24    2    4    4    0    0  0.49510770042E+02 -0.62849671120E+02 -0.30715441130E+03  0.32699114815E+03  0.78600134079E+02 0.  0.
         11    1    3    3    0    0  0.17193558815E+03 -0.23808828965E+03 -0.11750200916E+03  0.31631408805E+03  0.00000000000E+00 0. -1.
        -11    1    3    3    0    0  0.34171270855E+03 -0.34025527381E+03 -0.28441202490E+03  0.55984946767E+03  0.00000000000E+00 0.  1.
          2    1    6    6  502    0  0.55185426250E+02 -0.37814663620E+02 -0.28602283493E+03  0.29374213548E+03  0.00000000000E+00 0. -1.
          1    1    5    5  503    0 -0.49325889813E+03  0.57585917085E+03  0.90304826820E+02  0.76359222559E+03  0.00000000000E+00 0. -1.
         -2    1    5    5    0  503 -0.69900168616E+02  0.65334063731E+02  0.39271758751E+02  0.10342555048E+03  0.00000000000E+00 0.  1.
         -1    1    6    6    0  502 -0.56746562073E+01 -0.25035007499E+02 -0.21131576367E+02  0.33249012667E+02  0.00000000000E+00 0.  1.
<mgrwt>
<rscale>  0 0.19874112E+04</rscale>
<asrwt>0</asrwt>
<pdfrwt beam="1">  1        2 0.20382033E+00 0.19874112E+04</pdfrwt>
<pdfrwt beam="2">  1       -2 0.11466774E+00 0.19874112E+04</pdfrwt>
<totfact> 0.88323164E+00</totfact>
</mgrwt>
</event>
<event>
12    1  0.2048318E-007  0.2175639E+04  0.7818608E-02  0.8528637E-01
          1   -1    0    0  501    0  0.00000000000E+00  0.00000000000E+00  0.26296603462E+04  0.26296603462E+04  0.00000000000E+00 0. -1.
         -1   -1    0    0    0  501 -0.00000000000E+00 -0.00000000000E+00 -0.45000167351E+03  0.45000167351E+03  0.00000000000E+00 0.  1.
         23    2    1    2    0    0 -0.34516140765E+03 -0.11666020139E+03 -0.25784319295E+03  0.45626547291E+03  0.94599522697E+02 0.  0.
        254    2    1    2    0    0  0.34516140765E+03  0.11666020139E+03  0.24375018656E+04  0.26233965468E+04  0.89891495531E+03 0.  0.
        -24    2    4    4    0    0  0.52005601860E+03 -0.94789494049E+02  0.21629194932E+04  0.22280425704E+04  0.80682408875E+02 0.  0.
         24    2    4    4    0    0 -0.17489461094E+03  0.21144969544E+03  0.27458237244E+03  0.39535397634E+03  0.74901193007E+02 0.  0.
         11    1    3    3    0    0 -0.11489995715E+03 -0.25858870097E+02 -0.34103890881E+02  0.12261222080E+03  0.00000000000E+00 0. -1.
        -11    1    3    3    0    0 -0.23026145050E+03 -0.90801331292E+02 -0.22373930207E+03  0.33365325211E+03  0.00000000000E+00 0.  1.
          4    1    6    6  502    0 -0.16376927628E+03  0.15365504041E+03  0.23060057218E+03  0.32188021248E+03  0.00000000000E+00 0. -1.
          3    1    5    5  503    0  0.32143355782E+03 -0.87275410774E+02  0.12392636330E+04  0.12832423315E+04  0.00000000000E+00 0. -1.
         -4    1    5    5    0  503  0.19862246078E+03 -0.75140832754E+01  0.92365586017E+03  0.94480023889E+03  0.00000000000E+00 0.  1.
         -3    1    6    6    0  502 -0.11125334663E+02  0.57794655032E+02  0.43981800263E+02  0.73473763862E+02  0.00000000000E+00 0.  1.
<mgrwt>
<rscale>  0 0.21756393E+04</rscale>
<asrwt>0</asrwt>
<pdfrwt beam="1">  1        1 0.40456312E+00 0.21756393E+04</pdfrwt>
<pdfrwt beam="2">  1       -1 0.69231028E-01 0.21756393E+04</pdfrwt>
<totfact> 0.21215617E+00</totfact>
</mgrwt>
</event>
<event>
12    1  0.2048318E-007  0.1289733E+04  0.7818608E-02  0.9037747E-01
          2   -1    0    0  501    0  0.00000000000E+00  0.00000000000E+00  0.19432503225E+04  0.19432503225E+04  0.00000000000E+00 0.  1.
         -2   -1    0    0    0  501 -0.00000000000E+00 -0.00000000000E+00 -0.21399842194E+03  0.21399842194E+03  0.00000000000E+00 0. -1.
         23    2    1    2    0    0  0.16236094181E+03  0.26239667731E+03  0.29284318770E+03  0.43529634178E+03  0.92264190759E+02 0.  0.
        254    2    1    2    0    0 -0.16236094181E+03 -0.26239667731E+03  0.14364087128E+04  0.17219524026E+04  0.89812972055E+03 0.  0.
        -24    2    4    4    0    0  0.37209432614E+02 -0.28700514168E+03  0.33608405098E+02  0.30205481796E+03  0.79693757185E+02 0.  0.
         24    2    4    4    0    0 -0.19957037442E+03  0.24608464373E+02  0.14028003077E+04  0.14198975847E+04  0.88467715608E+02 0.  0.
         13    1    3    3    0    0  0.41460317871E+02  0.84600587839E+02  0.37286247086E+02  0.10132364799E+03  0.00000000000E+00 0. -1.
        -13    1    3    3    0    0  0.12090062394E+03  0.17779608947E+03  0.25555694062E+03  0.33397269379E+03  0.00000000000E+00 0.  1.
          4    1    6    6  502    0 -0.16628953985E+02  0.28022540688E+02  0.13044842495E+03  0.13445659697E+03  0.00000000000E+00 0. -1.
          3    1    5    5  503    0 -0.18206723483E+02 -0.56361445860E+02 -0.12179286315E+02  0.60468441146E+02  0.00000000000E+00 0. -1.
         -4    1    5    5    0  503  0.55416156097E+02 -0.23064369582E+03  0.45787691413E+02  0.24158637681E+03  0.00000000000E+00 0.  1.
         -3    1    6    6    0  502 -0.18294142044E+03 -0.34140763160E+01  0.12723518828E+04  0.12854409877E+04  0.00000000000E+00 0.  1.
<mgrwt>
<rscale>  0 0.12897325E+04</rscale>
<asrwt>0</asrwt>
<pdfrwt beam="1">  1        2 0.29896158E+00 0.12897325E+04</pdfrwt>
<pdfrwt beam="2">  1       -2 0.32922835E-01 0.12897325E+04</pdfrwt>
<totfact> 0.60704963E+01</totfact>
</mgrwt>
</event>
<event>
12    1  0.2048318E-007  0.3687485E+04  0.7818608E-02  0.8070741E-01
         -1   -1    0    0    0  501 -0.00000000000E+00  0.00000000000E+00  0.18670433657E+04  0.18670433657E+04  0.00000000000E+00 0.  1.
          1   -1    0    0  501    0  0.00000000000E+00 -0.00000000000E+00 -0.18207322017E+04  0.18207322017E+04  0.00000000000E+00 0. -1.
         23    2    1    2    0    0  0.74511213241E+03 -0.15492631669E+04  0.23368213613E+03  0.17373327555E+04  0.91155429255E+02 0.  0.
        254    2    1    2    0    0 -0.74511213241E+03  0.15492631669E+04 -0.18737097205E+03  0.19504428119E+04  0.90205921718E+03 0.  0.
        -24    2    4    4    0    0 -0.15067129962E+03  0.85949288670E+03  0.28453216513E+03  0.92177071248E+03  0.85280892196E+02 0.  0.
         24    2    4    4    0    0 -0.59444083279E+03  0.68977028019E+03 -0.47190313719E+03  0.10286720994E+04  0.79566162249E+02 0.  0.
         13    1    3    3    0    0  0.50437996458E+03 -0.98128104441E+03  0.11702276815E+03  0.11095070820E+04  0.00000000000E+00 0.  1.
        -13    1    3    3    0    0  0.24073216782E+03 -0.56798212249E+03  0.11665936798E+03  0.62782567344E+03  0.00000000000E+00 0. -1.
          4    1    6    6  502    0 -0.54003594974E+03  0.65270132207E+03 -0.45027268473E+03  0.95937653373E+03  0.00000000000E+00 0. -1.
          1    1    5    5  503    0 -0.10237307608E+03  0.34505169342E+03  0.12480223507E+03  0.38094161720E+03  0.00000000000E+00 0. -1.
         -2    1    5    5    0  503 -0.48298223533E+02  0.51444119328E+03  0.15972993006E+03  0.54082909528E+03  0.00000000000E+00 0.  1.
         -3    1    6    6    0  502 -0.54404883047E+02  0.37068958122E+02 -0.21630452452E+02  0.69295565724E+02  0.00000000000E+00 0.  1.
<mgrwt>
<rscale>  0 0.36874848E+04</rscale>
<asrwt>0</asrwt>
<pdfrwt beam="1">  1        1 0.28011264E+00 0.36874848E+04</pdfrwt>
<pdfrwt beam="2">  1       -1 0.28723744E+00 0.36874848E+04</pdfrwt>
<totfact> 0.12655492E-01</totfact>
</mgrwt>
</event>
<event>
12    1  0.2048318E-007  0.4510628E+04  0.7818608E-02  0.7908779E-01
          1   -1    0    0  501    0  0.00000000000E+00  0.00000000000E+00  0.21052588938E+04  0.21052588938E+04  0.00000000000E+00 0. -1.
         -1   -1    0    0    0  501 -0.00000000000E+00 -0.00000000000E+00 -0.24160641100E+04  0.24160641100E+04  0.00000000000E+00 0.  1.
         23    2    1    2    0    0  0.14596395429E+04 -0.13647832014E+04 -0.98310560062E+03  0.22287898356E+04  0.88468792351E+02 0.  0.
        254    2    1    2    0    0 -0.14596395429E+04  0.13647832014E+04  0.67230038440E+03  0.22925331682E+04  0.90029980467E+03 0.  0.
        -24    2    4    4    0    0 -0.11185784385E+04  0.12392037062E+04  0.85588726114E+03  0.18776719688E+04  0.79154723118E+02 0.  0.
         24    2    4    4    0    0 -0.34106110447E+03  0.12557949518E+03 -0.18358687674E+03  0.41486119938E+03  0.79453048062E+02 0.  0.
         11    1    3    3    0    0  0.11682531235E+04 -0.10644665418E+04 -0.81001050248E+03  0.17759564728E+04  0.00000000000E+00 0.  1.
        -11    1    3    3    0    0  0.29138641946E+03 -0.30031665964E+03 -0.17309509814E+03  0.45283336284E+03  0.00000000000E+00 0. -1.
          4    1    6    6  502    0 -0.13176039817E+03  0.39424106314E+02 -0.11231337837E+03  0.17756508003E+03  0.00000000000E+00 0. -1.
          3    1    5    5  503    0 -0.15105747481E+02  0.81947021994E+01  0.30078701102E+01  0.17446605220E+02  0.00000000000E+00 0. -1.
         -4    1    5    5    0  503 -0.11034726910E+04  0.12310090040E+04  0.85287939103E+03  0.18602253636E+04  0.00000000000E+00 0.  1.
         -3    1    6    6    0  502 -0.20930070629E+03  0.86155388869E+02 -0.71273498368E+02  0.23729611934E+03  0.00000000000E+00 0.  1.
<mgrwt>
<rscale>  0 0.45106277E+04</rscale>
<asrwt>0</asrwt>
<pdfrwt beam="1">  1        1 0.32388598E+00 0.45106277E+04</pdfrwt>
<pdfrwt beam="2">  1       -1 0.37170217E+00 0.45106277E+04</pdfrwt>
<totfact> 0.21115972E-02</totfact>
</mgrwt>
</event>
<event>
12    1  0.2048318E-007  0.1576200E+04  0.7818608E-02  0.8835304E-01
         -2   -1    0    0    0  501 -0.00000000000E+00  0.00000000000E+00  0.42662445780E+03  0.42662445780E+03  0.00000000000E+00 0.  1.
          2   -1    0    0  501    0  0.00000000000E+00 -0.00000000000E+00 -0.14558508025E+04  0.14558508025E+04  0.00000000000E+00 0. -1.
         23    2    1    2    0    0  0.17184802204E+03  0.46055209723E+03 -0.11911317715E+03  0.51366048029E+03  0.89549779975E+02 0.  0.
        254    2    1    2    0    0 -0.17184802204E+03 -0.46055209723E+03 -0.91011316754E+03  0.13688147800E+04  0.89649760028E+03 0.  0.
        -24    2    4    4    0    0  0.12363452239E+01 -0.57846219134E+03 -0.97361609514E+03  0.11353771917E+04  0.80827169201E+02 0.  0.
         24    2    4    4    0    0 -0.17308436727E+03  0.11791009411E+03  0.63502927596E+02  0.23343758835E+03  0.81237290420E+02 0.  0.
         11    1    3    3    0    0  0.40541508123E+02  0.23613892994E+03 -0.61102298066E+02  0.24726240908E+03  0.00000000000E+00 0. -1.
        -11    1    3    3    0    0  0.13130651392E+03  0.22441316729E+03 -0.58010879084E+02  0.26639807121E+03  0.00000000000E+00 0.  1.
          2    1    6    6  502    0 -0.16310379536E+03  0.87216582855E+02  0.74415698610E+02  0.19936719035E+03  0.00000000000E+00 0. -1.
          1    1    5    5  503    0  0.46747952574E+01 -0.40429086223E+03 -0.60494885196E+03  0.72762357608E+03  0.00000000000E+00 0. -1.
         -2    1    5    5    0  503 -0.34384500335E+01 -0.17417132912E+03 -0.36866724318E+03  0.40775361558E+03  0.00000000000E+00 0.  1.
         -1    1    6    6    0  502 -0.99805719035E+01  0.30693511256E+02 -0.10912771015E+02  0.34070398001E+02  0.00000000000E+00 0.  1.
<mgrwt>
<rscale>  0 0.15761999E+04</rscale>
<asrwt>0</asrwt>
<pdfrwt beam="1">  1        2 0.22397705E+00 0.15761999E+04</pdfrwt>
<pdfrwt beam="2">  1       -2 0.65634532E-01 0.15761999E+04</pdfrwt>
<totfact> 0.27615204E+01</totfact>
</mgrwt>
</event>
<event>
12    1  0.2048318E-007  0.2799373E+04  0.7818608E-02  0.8303463E-01
         -2   -1    0    0    0  501 -0.00000000000E+00  0.00000000000E+00  0.17068398346E+04  0.17068398346E+04  0.00000000000E+00 0.  1.
          2   -1    0    0  501    0  0.00000000000E+00 -0.00000000000E+00 -0.11478071430E+04  0.11478071430E+04  0.00000000000E+00 0. -1.
         23    2    1    2    0    0 -0.57184313836E+03 -0.87426023622E+03  0.95810455985E+03  0.14204075323E+04  0.90871748957E+02 0.  0.
        254    2    1    2    0    0  0.57184313836E+03  0.87426023622E+03 -0.39907186824E+03  0.14342394452E+04  0.89802499664E+03 0.  0.
        -24    2    4    4    0    0  0.15332414138E+03 -0.13147487560E+03 -0.25102661988E+03  0.33183998652E+03  0.79432219656E+02 0.  0.
         24    2    4    4    0    0  0.41851899698E+03  0.10057351118E+04 -0.14804524836E+03  0.11023994587E+04  0.81889589900E+02 0.  0.
         11    1    3    3    0    0 -0.11961988435E+03 -0.12724875974E+03  0.18000500909E+03  0.25080463889E+03  0.00000000000E+00 0. -1.
        -11    1    3    3    0    0 -0.45222325401E+03 -0.74701147648E+03  0.77809955075E+03  0.11696028934E+04  0.00000000000E+00 0.  1.
          4    1    6    6  502    0  0.30538721765E+03  0.80528708816E+03 -0.13594639398E+03  0.87191173240E+03  0.00000000000E+00 0. -1.
          3    1    5    5  503    0  0.13667297582E+03 -0.97280543762E+02 -0.15439487830E+03  0.22799294936E+03  0.00000000000E+00 0. -1.
         -4    1    5    5    0  503  0.16651165554E+02 -0.34194331837E+02 -0.96631741583E+02  0.10384703715E+03  0.00000000000E+00 0.  1.
         -3    1    6    6    0  502  0.11313177933E+03  0.20044802366E+03 -0.12098854379E+02  0.23048772627E+03  0.00000000000E+00 0.  1.
<mgrwt>
<rscale>  0 0.27993735E+04</rscale>
<asrwt>0</asrwt>
<pdfrwt beam="1">  1        2 0.17658571E+00 0.27993735E+04</pdfrwt>
<pdfrwt beam="2">  1       -2 0.26259074E+00 0.27993735E+04</pdfrwt>
<totfact> 0.95327183E-01</totfact>
</mgrwt>
</event>
<event>
12    1  0.2938901E-007  0.2637629E+04  0.7818608E-02  0.8355531E-01
         -1   -1    0    0    0  501 -0.00000000000E+00  0.00000000000E+00  0.10364964249E+04  0.10364964249E+04  0.00000000000E+00 0.  1.
          1   -1    0    0  501    0  0.00000000000E+00 -0.00000000000E+00 -0.16780300391E+04  0.16780300391E+04  0.00000000000E+00 0. -1.
         23    2    1    2    0    0  0.58943327310E+03 -0.66163712396E+03  0.49066753081E+03  0.10171003116E+04  0.92429166621E+02 0.  0.
        254    2    1    2    0    0 -0.58943327310E+03  0.66163712396E+03 -0.11322011451E+04  0.16974261524E+04  0.90231970089E+03 0.  0.
        -24    2    4    4    0    0 -0.38869792968E+03  0.66715920330E+03 -0.12348362309E+04  0.14587171618E+04  0.82751180995E+02 0.  0.
         24    2    4    4    0    0 -0.20073534341E+03 -0.55220793384E+01  0.10263508577E+03  0.23870899060E+03  0.78248641558E+02 0.  0.
         11    1    3    3    0    0  0.14469731180E+03 -0.22204348809E+03  0.16273544396E+03  0.31100393465E+03  0.00000000000E+00 0.  1.
        -11    1    3    3    0    0  0.44473596130E+03 -0.43959363587E+03  0.32793208685E+03  0.70609637696E+03  0.00000000000E+00 0. -1.
          4    1    6    6  502    0 -0.20448085265E+03  0.42231816263E+01  0.93696852240E+02  0.22496522949E+03  0.00000000000E+00 0. -1.
          3    1    5    5  503    0 -0.30931422529E+03  0.56509680207E+03 -0.10734780958E+04  0.12519444507E+04  0.00000000000E+00 0. -1.
         -4    1    5    5    0  503 -0.79383704393E+02  0.10206240124E+03 -0.16135813511E+03  0.20677271105E+03  0.00000000000E+00 0.  1.
         -3    1    6    6    0  502  0.37455092303E+01 -0.97452609647E+01  0.89382335316E+01  0.13743761106E+02  0.00000000000E+00 0.  1.
<mgrwt>
<rscale>  0 0.26376293E+04</rscale>
<asrwt>0</asrwt>
<pdfrwt beam="1">  1        1 0.25815846E+00 0.26376293E+04</pdfrwt>
<pdfrwt beam="2">  1       -1 0.15946099E+00 0.26376293E+04</pdfrwt>
<totfact> 0.12777124E+00</totfact>
</mgrwt>
</event>
<event>
12    1  0.2048318E-007  0.2082916E+04  0.7818608E-02  0.8568807E-01
          1   -1    0    0  501    0  0.00000000000E+00  0.00000000000E+00  0.12430441069E+04  0.12430441069E+04  0.00000000000E+00 0. -1.
         -1   -1    0    0    0  501 -0.00000000000E+00 -0.00000000000E+00 -0.87256346256E+03  0.87256346256E+03  0.00000000000E+00 0.  1.
         23    2    1    2    0    0 -0.76796048644E+03  0.32208151776E+03  0.11621458854E+02  0.83891934662E+03  0.10075117377E+03 0.  0.
        254    2    1    2    0    0  0.76796048644E+03 -0.32208151776E+03  0.35885918553E+03  0.12766882229E+04  0.89869521563E+03 0.  0.
        -24    2    4    4    0    0  0.16919755039E+03  0.20454820338E+03  0.38556146355E+03  0.47514932571E+03  0.81495159269E+02 0.  0.
         24    2    4    4    0    0  0.59876293605E+03 -0.52662972114E+03 -0.26702278021E+02  0.80153889717E+03  0.76783300600E+02 0.  0.
         13    1    3    3    0    0 -0.22031402162E+03  0.10155630995E+03  0.48477777565E+02  0.24739047502E+03  0.00000000000E+00 0. -1.
        -13    1    3    3    0    0 -0.54764646482E+03  0.22052520780E+03 -0.36856318711E+02  0.59152887160E+03  0.00000000000E+00 0.  1.
          4    1    6    6  502    0  0.62908439954E+02 -0.30205567095E+02  0.80627984203E+01  0.70248536066E+02  0.00000000000E+00 0. -1.
          3    1    5    5  503    0 -0.39461411502E+01 -0.40473965092E+01  0.33874816222E+01  0.65900288483E+01  0.00000000000E+00 0. -1.
         -4    1    5    5    0  503  0.17314369154E+03  0.20859559989E+03  0.38217398193E+03  0.46855929686E+03  0.00000000000E+00 0.  1.
         -3    1    6    6    0  502  0.53585449610E+03 -0.49642415404E+03 -0.34765076441E+02  0.73129036111E+03  0.00000000000E+00 0.  1.
<mgrwt>
<rscale>  0 0.20829161E+04</rscale>
<asrwt>0</asrwt>
<pdfrwt beam="1">  1        1 0.19123756E+00 0.20829161E+04</pdfrwt>
<pdfrwt beam="2">  1       -1 0.13424053E+00 0.20829161E+04</pdfrwt>
<totfact> 0.42796659E+00</totfact>
</mgrwt>
</event>
<event>
12    1  0.2048318E-007  0.2560628E+04  0.7818608E-02  0.8381699E-01
         -1   -1    0    0    0  501 -0.00000000000E+00  0.00000000000E+00  0.14731133521E+04  0.14731133521E+04  0.00000000000E+00 0.  1.
          1   -1    0    0  501    0  0.00000000000E+00 -0.00000000000E+00 -0.11127482413E+04  0.11127482413E+04  0.00000000000E+00 0. -1.
         23    2    1    2    0    0 -0.49728984933E+03 -0.45833275293E+03  0.10589640685E+04  0.12620319127E+04  0.11812511880E+03 0.  0.
        254    2    1    2    0    0  0.49728984933E+03  0.45833275293E+03 -0.69859895767E+03  0.13238296807E+04  0.89839769210E+03 0.  0.
        -24    2    4    4    0    0  0.23348288905E+03 -0.25256091878E+03 -0.15107677376E+03  0.38507251226E+03  0.84589425819E+02 0.  0.
         24    2    4    4    0    0  0.26380696029E+03  0.71089367171E+03 -0.54752218391E+03  0.93875716843E+03  0.80749951314E+02 0.  0.
         11    1    3    3    0    0 -0.56608382801E+02 -0.10492695685E+03  0.14672452517E+03  0.18905623916E+03  0.00000000000E+00 0. -1.
        -11    1    3    3    0    0 -0.44068146653E+03 -0.35340579608E+03  0.91223954333E+03  0.10729756736E+04  0.00000000000E+00 0.  1.
          2    1    6    6  502    0  0.21940705104E+03  0.63574669666E+03 -0.45770569456E+03  0.81351571539E+03  0.00000000000E+00 0. -1.
          3    1    5    5  503    0  0.22289954260E+03 -0.20038552687E+03 -0.11641238634E+03  0.32154379043E+03  0.00000000000E+00 0. -1.
         -4    1    5    5    0  503  0.10583346445E+02 -0.52175391902E+02 -0.34664387425E+02  0.63528721832E+02  0.00000000000E+00 0.  1.
         -1    1    6    6    0  502  0.44399909249E+02  0.75146975049E+02 -0.89816489343E+02  0.12524145303E+03  0.00000000000E+00 0.  1.
<mgrwt>
<rscale>  0 0.25606283E+04</rscale>
<asrwt>0</asrwt>
<pdfrwt beam="1">  1        1 0.17119204E+00 0.25606283E+04</pdfrwt>
<pdfrwt beam="2">  1       -1 0.22663282E+00 0.25606283E+04</pdfrwt>
<totfact> 0.10891973E+00</totfact>
</mgrwt>
</event>
<event>
12    1  0.2048318E-007  0.2589676E+04  0.7818608E-02  0.8371716E-01
          2   -1    0    0  501    0  0.00000000000E+00  0.00000000000E+00  0.32813144138E+04  0.32813144138E+04  0.00000000000E+00 0. -1.
         -2   -1    0    0    0  501 -0.00000000000E+00 -0.00000000000E+00 -0.51095562360E+03  0.51095562360E+03  0.00000000000E+00 0.  1.
         23    2    1    2    0    0  0.82509763740E+03  0.72879268157E+03  0.16300418647E+04  0.19690618629E+04  0.90792375623E+02 0.  0.
        254    2    1    2    0    0 -0.82509763740E+03 -0.72879268157E+03  0.11403169255E+04  0.18232081745E+04  0.90102190477E+03 0.  0.
        -24    2    4    4    0    0 -0.58690803999E+03 -0.40572393971E+03  0.12108570119E+04  0.14077375567E+04  0.80482063435E+02 0.  0.
         24    2    4    4    0    0 -0.23818959741E+03 -0.32306874186E+03 -0.70540086388E+02  0.41547061779E+03  0.80822238122E+02 0.  0.
         13    1    3    3    0    0  0.63074663766E+03  0.54758818518E+03  0.13020401882E+04  0.15469333512E+04  0.00000000000E+00 0.  1.
        -13    1    3    3    0    0  0.19435099974E+03  0.18120449639E+03  0.32800167648E+03  0.42212851170E+03  0.00000000000E+00 0. -1.
          2    1    6    6  502    0 -0.15433099141E+03 -0.21140803156E+03 -0.84701966483E+02  0.27511058475E+03  0.00000000000E+00 0. -1.
          1    1    5    5  503    0 -0.53681946426E+03 -0.34034032427E+03  0.10765656586E+04  0.12502001003E+04  0.00000000000E+00 0. -1.
         -2    1    5    5    0  503 -0.50088575733E+02 -0.65383615435E+02  0.13429135337E+03  0.15753745642E+03  0.00000000000E+00 0.  1.
         -1    1    6    6    0  502 -0.83858605999E+02 -0.11166071031E+03  0.14161880095E+02  0.14036003304E+03  0.00000000000E+00 0.  1.
<mgrwt>
<rscale>  0 0.25896765E+04</rscale>
<asrwt>0</asrwt>
<pdfrwt beam="1">  1        2 0.50481759E+00 0.25896765E+04</pdfrwt>
<pdfrwt beam="2">  1       -2 0.78608560E-01 0.25896765E+04</pdfrwt>
<totfact> 0.14595993E+00</totfact>
</mgrwt>
</event>
<event>
12    1  0.2400378E-007  0.2523822E+04  0.7818608E-02  0.8394548E-01
         -2   -1    0    0    0  501 -0.00000000000E+00  0.00000000000E+00  0.87596111987E+03  0.87596111987E+03  0.00000000000E+00 0.  1.
          2   -1    0    0  501    0  0.00000000000E+00 -0.00000000000E+00 -0.18179104758E+04  0.18179104758E+04  0.00000000000E+00 0. -1.
         23    2    1    2    0    0  0.70751234378E+03 -0.37224341980E+03 -0.12172831706E+04  0.14590299898E+04  0.88607638809E+02 0.  0.
        254    2    1    2    0    0 -0.70751234378E+03  0.37224341980E+03  0.27533381466E+03  0.12348416058E+04  0.89993677654E+03 0.  0.
        -24    2    4    4    0    0 -0.36517339744E+03  0.20409581480E+03  0.59439842860E+03  0.73133235376E+03  0.80813414222E+02 0.  0.
         24    2    4    4    0    0 -0.34233894634E+03  0.16814760499E+03 -0.31906461394E+03  0.50350925206E+03  0.79055472895E+02 0.  0.
         11    1    3    3    0    0  0.19278765278E+03 -0.10487188498E+03 -0.40908740760E+03  0.46423883765E+03  0.00000000000E+00 0. -1.
        -11    1    3    3    0    0  0.51472469100E+03 -0.26737153481E+03 -0.80819576295E+03  0.99479115216E+03  0.00000000000E+00 0.  1.
          4    1    6    6  502    0 -0.92337521919E+01  0.24183992637E+02 -0.13986928665E+02  0.29423831377E+02  0.00000000000E+00 0. -1.
          1    1    5    5  503    0 -0.13508550705E+02 -0.35936649405E+01  0.63119982426E+01  0.15337427805E+02  0.00000000000E+00 0. -1.
         -2    1    5    5    0  503 -0.35166484674E+03  0.20768947975E+03  0.58808643035E+03  0.71599492595E+03  0.00000000000E+00 0.  1.
         -3    1    6    6    0  502 -0.33310519415E+03  0.14396361235E+03 -0.30507768527E+03  0.47408542068E+03  0.00000000000E+00 0.  1.
<mgrwt>
<rscale>  0 0.25238216E+04</rscale>
<asrwt>0</asrwt>
<pdfrwt beam="1">  1        2 0.27967853E+00 0.25238216E+04</pdfrwt>
<pdfrwt beam="2">  1       -2 0.13476325E+00 0.25238216E+04</pdfrwt>
<totfact> 0.29752398E+00</totfact>
</mgrwt>
</event>
<event>
12    1  0.2048318E-007  0.1106443E+04  0.7818608E-02  0.9198935E-01
          2   -1    0    0  501    0  0.00000000000E+00  0.00000000000E+00  0.31064450741E+04  0.31064450741E+04  0.00000000000E+00 0.  1.
         -2   -1    0    0    0  501 -0.00000000000E+00 -0.00000000000E+00 -0.98522270293E+02  0.98522270293E+02  0.00000000000E+00 0. -1.
         23    2    1    2    0    0 -0.75914553652E+02 -0.10564754528E+03  0.19755181522E+03  0.25115096074E+03  0.84413636952E+02 0.  0.
        254    2    1    2    0    0  0.75914553652E+02  0.10564754528E+03  0.28103709886E+04  0.29538163837E+04  0.89995650538E+03 0.  0.
        -24    2    4    4    0    0 -0.11201838874E+03 -0.36440299213E+03  0.10182064469E+04  0.10901251495E+04  0.79314645866E+02 0.  0.
         24    2    4    4    0    0  0.18793294239E+03  0.47005053741E+03  0.17921645417E+04  0.18636912341E+04  0.72283975438E+02 0.  0.
         11    1    3    3    0    0 -0.58764616489E+02 -0.17041105322E+02  0.54114231787E+02  0.81682492027E+02  0.00000000000E+00 0. -1.
        -11    1    3    3    0    0 -0.17149937163E+02 -0.88606439956E+02  0.14343758344E+03  0.16946846871E+03  0.00000000000E+00 0.  1.
          4    1    6    6  502    0  0.14825592673E+03  0.29839761562E+03  0.12482339324E+04  0.12919399780E+04  0.00000000000E+00 0. -1.
          3    1    5    5  503    0 -0.11094152464E+03 -0.25544317071E+03  0.68078700020E+03  0.73554753415E+03  0.00000000000E+00 0. -1.
         -4    1    5    5    0  503 -0.10768640973E+01 -0.10895982142E+03  0.33741944671E+03  0.35457761539E+03  0.00000000000E+00 0.  1.
         -3    1    6    6    0  502  0.39677015666E+02  0.17165292179E+03  0.54393060927E+03  0.57175125609E+03  0.00000000000E+00 0.  1.
<mgrwt>
<rscale>  0 0.11064430E+04</rscale>
<asrwt>0</asrwt>
<pdfrwt beam="1">  1        2 0.47791455E+00 0.11064430E+04</pdfrwt>
<pdfrwt beam="2">  1       -2 0.15157275E-01 0.11064430E+04</pdfrwt>
<totfact> 0.52120463E+01</totfact>
</mgrwt>
</event>
<event>
12    1  0.2048318E-007  0.2418164E+04  0.7818608E-02  0.8432734E-01
         -2   -1    0    0    0  501 -0.00000000000E+00  0.00000000000E+00  0.31768497187E+03  0.31768497187E+03  0.00000000000E+00 0. -1.
          2   -1    0    0  501    0  0.00000000000E+00 -0.00000000000E+00 -0.46016627926E+04  0.46016627926E+04  0.00000000000E+00 0.  1.
         23    2    1    2    0    0 -0.26541224303E+03 -0.57185300154E+03 -0.35288655187E+04  0.35858974790E+04  0.91155729014E+02 0.  0.
        254    2    1    2    0    0  0.26541224303E+03  0.57185300154E+03 -0.75511230205E+03  0.13334502855E+04  0.90024194580E+03 0.  0.
        -24    2    4    4    0    0  0.54975736793E+03  0.28234873316E+03 -0.66449739920E+03  0.91096625863E+03  0.79679107056E+02 0.  0.
         24    2    4    4    0    0 -0.28434512490E+03  0.28950426839E+03 -0.90614902847E+02  0.42248402684E+03  0.74945452505E+02 0.  0.
         11    1    3    3    0    0 -0.13313056364E+03 -0.37876968912E+03 -0.21099113371E+04  0.21477700238E+04  0.00000000000E+00 0. -1.
        -11    1    3    3    0    0 -0.13228167939E+03 -0.19308331242E+03 -0.14189541816E+04  0.14381274553E+04  0.00000000000E+00 0.  1.
          4    1    6    6  502    0  0.29113256666E+01  0.71508374228E+01  0.40512423866E+01  0.87191087767E+01  0.00000000000E+00 0. -1.
          3    1    5    5  503    0  0.10248080888E+03  0.82164300540E+02 -0.11359617711E+03  0.17365880319E+03  0.00000000000E+00 0. -1.
         -4    1    5    5    0  503  0.44727655905E+03  0.20018443262E+03 -0.55090122209E+03  0.73730745543E+03  0.00000000000E+00 0.  1.
         -3    1    6    6    0  502 -0.28725645056E+03  0.28235343096E+03 -0.94666145234E+02  0.41376491806E+03  0.00000000000E+00 0.  1.
<mgrwt>
<rscale>  0 0.24181639E+04</rscale>
<asrwt>0</asrwt>
<pdfrwt beam="1">  1        2 0.70794807E+00 0.24181639E+04</pdfrwt>
<pdfrwt beam="2">  1       -2 0.48874614E-01 0.24181639E+04</pdfrwt>
<totfact> 0.34928765E-01</totfact>
</mgrwt>
</event>
<event>
12    1  0.2209035E-007  0.1458741E+04  0.7818608E-02  0.8912363E-01
          2   -1    0    0  501    0  0.00000000000E+00  0.00000000000E+00  0.17308943095E+04  0.17308943095E+04  0.00000000000E+00 0. -1.
         -2   -1    0    0    0  501 -0.00000000000E+00 -0.00000000000E+00 -0.30734488277E+03  0.30734488277E+03  0.00000000000E+00 0.  1.
         23    2    1    2    0    0  0.27925713109E+03  0.34819439614E+03  0.45541459651E+03  0.64435691159E+03  0.92571550885E+02 0.  0.
        254    2    1    2    0    0 -0.27925713109E+03 -0.34819439614E+03  0.96813483020E+03  0.13938822807E+04  0.89799714927E+03 0.  0.
        -24    2    4    4    0    0 -0.43401312173E+03 -0.55016318074E+03  0.53433260986E+03  0.88480914406E+03  0.79554812430E+02 0.  0.
         24    2    4    4    0    0  0.15475599064E+03  0.20196878459E+03  0.43380222034E+03  0.50907313659E+03  0.78932157187E+02 0.  0.
         11    1    3    3    0    0  0.90434438041E+02  0.13403305220E+03  0.22710475628E+03  0.27878274156E+03  0.00000000000E+00 0. -1.
        -11    1    3    3    0    0  0.18882269305E+03  0.21416134394E+03  0.22830984022E+03  0.36557417003E+03  0.00000000000E+00 0.  1.
          4    1    6    6  502    0 -0.96990985851E+00  0.15065623488E+02  0.47089029079E+01  0.15814155141E+02  0.00000000000E+00 0. -1.
          3    1    5    5  503    0 -0.74608807275E+01 -0.98626778441E+01  0.26922611456E+02  0.29627084958E+02  0.00000000000E+00 0. -1.
         -4    1    5    5    0  503 -0.42655224100E+03 -0.54030050289E+03  0.50740999840E+03  0.85518205910E+03  0.00000000000E+00 0.  1.
         -3    1    6    6    0  502  0.15572590050E+03  0.18690316111E+03  0.42909331743E+03  0.49325898145E+03  0.00000000000E+00 0.  1.
<mgrwt>
<rscale>  0 0.14587413E+04</rscale>
<asrwt>0</asrwt>
<pdfrwt beam="1">  1        2 0.26629143E+00 0.14587413E+04</pdfrwt>
<pdfrwt beam="2">  1       -2 0.47283829E-01 0.14587413E+04</pdfrwt>
<totfact> 0.38723518E+01</totfact>
</mgrwt>
</event>
<event>
12    1  0.2048318E-007  0.2602030E+04  0.7818608E-02  0.8367512E-01
         -1   -1    0    0    0  501 -0.00000000000E+00  0.00000000000E+00  0.60006646446E+03  0.60006646446E+03  0.00000000000E+00 0.  1.
          1   -1    0    0  501    0  0.00000000000E+00 -0.00000000000E+00 -0.28207544281E+04  0.28207544281E+04  0.00000000000E+00 0. -1.
         23    2    1    2    0    0 -0.70877174696E+03  0.69592356098E+03 -0.23315871861E+03  0.10243883713E+04  0.91332115085E+02 0.  0.
        254    2    1    2    0    0  0.70877174696E+03 -0.69592356098E+03 -0.19875292451E+04  0.23964325213E+04  0.89774681118E+03 0.  0.
        -24    2    4    4    0    0  0.55626589419E+03 -0.80154422406E+03 -0.19620361418E+04  0.21930009970E+04  0.88105975144E+02 0.  0.
         24    2    4    4    0    0  0.15250585276E+03  0.10562066308E+03 -0.25493103234E+02  0.20343152426E+03  0.79503000897E+02 0.  0.
         13    1    3    3    0    0 -0.29326793289E+03  0.26744441791E+03 -0.49881035308E+02  0.40002589268E+03  0.00000000000E+00 0. -1.
        -13    1    3    3    0    0 -0.41550381407E+03  0.42847914307E+03 -0.18327768330E+03  0.62436247865E+03  0.00000000000E+00 0.  1.
          4    1    6    6  502    0  0.13742886629E+03  0.56378861430E+02 -0.69835176751E+01  0.14870789765E+03  0.00000000000E+00 0. -1.
          3    1    5    5  503    0  0.22537451712E+03 -0.30901368391E+03 -0.86483388501E+03  0.94563247537E+03  0.00000000000E+00 0. -1.
         -4    1    5    5    0  503  0.33089137707E+03 -0.49253054015E+03 -0.10972022568E+04  0.12473685217E+04  0.00000000000E+00 0.  1.
         -3    1    6    6    0  502  0.15076986478E+02  0.49241801654E+02 -0.18509585559E+02  0.54723626607E+02  0.00000000000E+00 0.  1.
<mgrwt>
<rscale>  0 0.26020301E+04</rscale>
<asrwt>0</asrwt>
<pdfrwt beam="1">  1        1 0.43396222E+00 0.26020301E+04</pdfrwt>
<pdfrwt beam="2">  1       -1 0.92317919E-01 0.26020301E+04</pdfrwt>
<totfact> 0.80942073E-01</totfact>
</mgrwt>
</event>
<event>
12    1  0.2048318E-007  0.2123319E+04  0.7818608E-02  0.8551040E-01
          1   -1    0    0  501    0  0.00000000000E+00  0.00000000000E+00  0.98854573640E+03  0.98854573640E+03  0.00000000000E+00 0. -1.
         -1   -1    0    0    0  501 -0.00000000000E+00 -0.00000000000E+00 -0.11401810554E+04  0.11401810554E+04  0.00000000000E+00 0.  1.
         23    2    1    2    0    0 -0.47172714565E+03  0.36241653117E+03  0.57127601782E+03  0.82964647151E+03  0.89915166313E+02 0.  0.
        254    2    1    2    0    0  0.47172714565E+03 -0.36241653117E+03 -0.72291133685E+03  0.12990803203E+04  0.90063124291E+03 0.  0.
        -24    2    4    4    0    0  0.31579804862E+03  0.26821744648E+03 -0.33509682162E+03  0.53861879125E+03  0.78430327814E+02 0.  0.
         24    2    4    4    0    0  0.15592909703E+03 -0.63063397766E+03 -0.38781451523E+03  0.76046152907E+03  0.76736835363E+02 0.  0.
         11    1    3    3    0    0 -0.23145171650E+03  0.23423354950E+03  0.31426036535E+03  0.45518658813E+03  0.00000000000E+00 0.  1.
        -11    1    3    3    0    0 -0.24027542915E+03  0.12818298167E+03  0.25701565248E+03  0.37445988338E+03  0.00000000000E+00 0. -1.
          2    1    6    6  502    0  0.71414104351E+02 -0.21857393620E+03 -0.17557849175E+03  0.28931357841E+03  0.00000000000E+00 0. -1.
          3    1    5    5  503    0  0.45507943525E+02  0.32892767528E+02 -0.15043661658E+02  0.58131048809E+02  0.00000000000E+00 0. -1.
         -4    1    5    5    0  503  0.27029010509E+03  0.23532467896E+03 -0.32005315996E+03  0.48048774244E+03  0.00000000000E+00 0.  1.
         -1    1    6    6    0  502  0.84514992682E+02 -0.41206004145E+03 -0.21223602348E+03  0.47114795066E+03  0.00000000000E+00 0.  1.
<mgrwt>
<rscale>  0 0.21233192E+04</rscale>
<asrwt>0</asrwt>
<pdfrwt beam="1">  1        1 0.15208396E+00 0.21233192E+04</pdfrwt>
<pdfrwt beam="2">  1       -1 0.17541247E+00 0.21233192E+04</pdfrwt>
<totfact> 0.31848583E+00</totfact>
</mgrwt>
</event>
<event>
12    1  0.2048318E-007  0.2133586E+04  0.7818608E-02  0.8546591E-01
         -2   -1    0    0    0  501 -0.00000000000E+00  0.00000000000E+00  0.76449246571E+03  0.76449246571E+03  0.00000000000E+00 0.  1.
          2   -1    0    0  501    0  0.00000000000E+00 -0.00000000000E+00 -0.14886312477E+04  0.14886312477E+04  0.00000000000E+00 0. -1.
         23    2    1    2    0    0  0.48632697234E+03  0.38163697880E+03  0.35689130298E+03  0.71975257918E+03  0.92258687883E+02 0.  0.
        254    2    1    2    0    0 -0.48632697234E+03 -0.38163697880E+03 -0.10810300850E+04  0.15333711342E+04  0.89467328286E+03 0.  0.
        -24    2    4    4    0    0 -0.37055611983E+03  0.80305409566E+02 -0.96033999056E+03  0.10356326533E+04  0.80754556076E+02 0.  0.
         24    2    4    4    0    0 -0.11577085251E+03 -0.46194238837E+03 -0.12069009444E+03  0.49773848096E+03  0.79898911607E+02 0.  0.
         13    1    3    3    0    0  0.23875862681E+03  0.19472943013E+03  0.12515393709E+03  0.33254885476E+03  0.00000000000E+00 0. -1.
        -13    1    3    3    0    0  0.24756834553E+03  0.18690754867E+03  0.23173736589E+03  0.38720372442E+03  0.00000000000E+00 0.  1.
          4    1    6    6  502    0 -0.20871281255E+02 -0.24739097198E+03 -0.60267418467E+02  0.25548006797E+03  0.00000000000E+00 0. -1.
          1    1    5    5  503    0 -0.24076153367E+03  0.46809287201E+02 -0.51259418311E+03  0.56825172417E+03  0.00000000000E+00 0. -1.
         -2    1    5    5    0  503 -0.12979458616E+03  0.33496122365E+02 -0.44774580745E+03  0.46738092911E+03  0.00000000000E+00 0.  1.
         -3    1    6    6    0  502 -0.94899571250E+02 -0.21455141638E+03 -0.60422675969E+02  0.24225841300E+03  0.00000000000E+00 0.  1.
<mgrwt>
<rscale>  0 0.21335861E+04</rscale>
<asrwt>0</asrwt>
<pdfrwt beam="1">  1        2 0.22902019E+00 0.21335861E+04</pdfrwt>
<pdfrwt beam="2">  1       -2 0.11761423E+00 0.21335861E+04</pdfrwt>
<totfact> 0.66085324E+00</totfact>
</mgrwt>
</event>
<event>
12    1  0.2048318E-007  0.2599759E+04  0.7818608E-02  0.8368283E-01
         -1   -1    0    0    0  501 -0.00000000000E+00  0.00000000000E+00  0.98162353408E+03  0.98162353408E+03  0.00000000000E+00 0.  1.
          1   -1    0    0  501    0  0.00000000000E+00 -0.00000000000E+00 -0.17213179377E+04  0.17213179377E+04  0.00000000000E+00 0. -1.
         23    2    1    2    0    0  0.76135443450E+03  0.58005180683E+03  0.32143296894E+03  0.10135720400E+04  0.88816964599E+02 0.  0.
        254    2    1    2    0    0 -0.76135443450E+03 -0.58005180683E+03 -0.10611273726E+04  0.16893694318E+04  0.90103113307E+03 0.  0.
        -24    2    4    4    0    0 -0.45813288658E+02 -0.49633236422E+03 -0.74184508246E+03  0.89731645741E+03  0.79987656360E+02 0.  0.
         24    2    4    4    0    0 -0.71554114584E+03 -0.83719442619E+02 -0.31928229012E+03  0.79205297441E+03  0.79991605955E+02 0.  0.
         11    1    3    3    0    0  0.19087172447E+03  0.15520502122E+03  0.43100391522E+02  0.24975639644E+03  0.00000000000E+00 0. -1.
        -11    1    3    3    0    0  0.57048271003E+03  0.42484678561E+03  0.27833257742E+03  0.76381564355E+03  0.00000000000E+00 0.  1.
          2    1    6    6  502    0 -0.14347442819E+03 -0.25126472908E+00 -0.34360833676E+02  0.14753183239E+03  0.00000000000E+00 0. -1.
          3    1    5    5  503    0 -0.43512178316E+02 -0.46716900603E+03 -0.65523254707E+03  0.80589694168E+03  0.00000000000E+00 0. -1.
         -4    1    5    5    0  503 -0.23011103421E+01 -0.29163358181E+02 -0.86612535390E+02  0.91419515727E+02  0.00000000000E+00 0.  1.
         -1    1    6    6    0  502 -0.57206671765E+03 -0.83468177889E+02 -0.28492145645E+03  0.64452114202E+03  0.00000000000E+00 0.  1.
<mgrwt>
<rscale>  0 0.25997586E+04</rscale>
<asrwt>0</asrwt>
<pdfrwt beam="1">  1        1 0.26481814E+00 0.25997586E+04</pdfrwt>
<pdfrwt beam="2">  1       -1 0.15101901E+00 0.25997586E+04</pdfrwt>
<totfact> 0.13906212E+00</totfact>
</mgrwt>
</event>
<event>
12    1  0.2048318E-007  0.1394474E+04  0.7818608E-02  0.8957829E-01
          2   -1    0    0  501    0  0.00000000000E+00  0.00000000000E+00  0.14770664772E+04  0.14770664772E+04  0.00000000000E+00 0. -1.
         -2   -1    0    0    0  501 -0.00000000000E+00 -0.00000000000E+00 -0.32912473497E+03  0.32912473497E+03  0.00000000000E+00 0.  1.
         23    2    1    2    0    0  0.26752029076E+03  0.28880088901E+03  0.42543021034E+03  0.58669264022E+03  0.90798297145E+02 0.  0.
        254    2    1    2    0    0 -0.26752029076E+03 -0.28880088901E+03  0.72251153191E+03  0.12194985720E+04  0.90010043542E+03 0.  0.
        -24    2    4    4    0    0 -0.44124598011E+03 -0.38033860744E+03  0.80109602444E+03  0.99370551563E+03  0.79626252822E+02 0.  0.
         24    2    4    4    0    0  0.17372568935E+03  0.91537718429E+02 -0.78584492537E+02  0.22579305635E+03  0.79039311683E+02 0.  0.
         13    1    3    3    0    0  0.15067981666E+03  0.22511712029E+03  0.28132083387E+03  0.39054261811E+03  0.00000000000E+00 0. -1.
        -13    1    3    3    0    0  0.11684047410E+03  0.63683768716E+02  0.14410937647E+03  0.19615002211E+03  0.00000000000E+00 0.  1.
          4    1    6    6  502    0  0.93810110967E+01  0.34799910033E+02 -0.28610700727E+01  0.36155536637E+02  0.00000000000E+00 0. -1.
          3    1    5    5  503    0 -0.16439662315E+03 -0.12024865673E+03  0.22341758231E+03  0.30232665320E+03  0.00000000000E+00 0. -1.
         -4    1    5    5    0  503 -0.27684935696E+03 -0.26008995071E+03  0.57767844213E+03  0.69137886243E+03  0.00000000000E+00 0.  1.
         -3    1    6    6    0  502  0.16434467825E+03  0.56737808396E+02 -0.75723422464E+02  0.18963751971E+03  0.00000000000E+00 0.  1.
<mgrwt>
<rscale>  0 0.13944735E+04</rscale>
<asrwt>0</asrwt>
<pdfrwt beam="1">  1        2 0.22724099E+00 0.13944735E+04</pdfrwt>
<pdfrwt beam="2">  1       -2 0.50634576E-01 0.13944735E+04</pdfrwt>
<totfact> 0.46953977E+01</totfact>
</mgrwt>
</event>
<event>
12    1  0.2048318E-007  0.2462728E+04  0.7818608E-02  0.8416386E-01
         -1   -1    0    0    0  501 -0.00000000000E+00  0.00000000000E+00  0.31902043772E+03  0.31902043772E+03  0.00000000000E+00 0.  1.
          1   -1    0    0  501    0  0.00000000000E+00 -0.00000000000E+00 -0.47528518806E+04  0.47528518806E+04  0.00000000000E+00 0. -1.
         23    2    1    2    0    0 -0.65745501082E+03  0.55196875069E+03 -0.32197137694E+04  0.33337772816E+04  0.10294470799E+03 0.  0.
        254    2    1    2    0    0  0.65745501082E+03 -0.55196875069E+03 -0.12141176735E+04  0.17380950368E+04  0.89998668819E+03 0.  0.
        -24    2    4    4    0    0  0.84174421758E+03 -0.32486326475E+03 -0.10715862395E+04  0.14031709678E+04  0.80760309117E+02 0.  0.
         24    2    4    4    0    0 -0.18428920676E+03 -0.22710548595E+03 -0.14253143392E+03  0.33492406898E+03  0.79495338533E+02 0.  0.
         11    1    3    3    0    0 -0.37461858240E+03  0.27068498106E+03 -0.18769702821E+04  0.19330356647E+04  0.00000000000E+00 0. -1.
        -11    1    3    3    0    0 -0.28283642842E+03  0.28128376963E+03 -0.13427434873E+04  0.14007416168E+04  0.00000000000E+00 0.  1.
          2    1    6    6  502    0 -0.14713455280E+03 -0.19172088957E+03 -0.81172782620E+02  0.25494018271E+03  0.00000000000E+00 0. -1.
          1    1    5    5  503    0  0.50694377810E+02 -0.28785403399E+01 -0.76588244986E+02  0.91891050740E+02  0.00000000000E+00 0. -1.
         -2    1    5    5    0  503  0.79104983977E+03 -0.32198472441E+03 -0.99499799456E+03  0.13112799171E+04  0.00000000000E+00 0.  1.
         -1    1    6    6    0  502 -0.37154653966E+02 -0.35384596377E+02 -0.61358651304E+02  0.79983886264E+02  0.00000000000E+00 0.  1.
<mgrwt>
<rscale>  0 0.24627277E+04</rscale>
<asrwt>0</asrwt>
<pdfrwt beam="1">  1        1 0.73120798E+00 0.24627277E+04</pdfrwt>
<pdfrwt beam="2">  1       -1 0.49080068E-01 0.24627277E+04</pdfrwt>
<totfact> 0.64120916E-02</totfact>
</mgrwt>
</event>
<event>
12    1  0.2048318E-007  0.1298967E+04  0.7818608E-02  0.9030384E-01
          1   -1    0    0  501    0  0.00000000000E+00  0.00000000000E+00  0.71635603286E+03  0.71635603286E+03  0.00000000000E+00 0. -1.
         -1   -1    0    0    0  501 -0.00000000000E+00 -0.00000000000E+00 -0.58885392122E+03  0.58885392122E+03  0.00000000000E+00 0.  1.
         23    2    1    2    0    0 -0.26809417106E+03  0.88913780893E+02  0.20239390489E+03  0.35924000441E+03  0.91158889011E+02 0.  0.
        254    2    1    2    0    0  0.26809417106E+03 -0.88913780893E+02 -0.74891793255E+02  0.94596994967E+03  0.89970562964E+03 0.  0.
        -24    2    4    4    0    0  0.55396484677E+03 -0.13622049658E+02  0.13345297389E+03  0.57558484481E+03  0.80159875515E+02 0.  0.
         24    2    4    4    0    0 -0.28587067571E+03 -0.75291731235E+02 -0.20834476714E+03  0.37038510486E+03  0.79916806017E+02 0.  0.
         13    1    3    3    0    0 -0.16549259167E+03  0.97198635162E+02  0.15089483309E+03  0.24414058087E+03  0.00000000000E+00 0.  1.
        -13    1    3    3    0    0 -0.10260157938E+03 -0.82848542692E+01  0.51499071795E+02  0.11509942354E+03  0.00000000000E+00 0. -1.
          2    1    6    6  502    0 -0.16851970039E+03 -0.62154121322E+02 -0.16704319440E+03  0.24528647132E+03  0.00000000000E+00 0. -1.
          1    1    5    5  503    0  0.45526023155E+03  0.13714461773E+02  0.89724383825E+02  0.46422023862E+03  0.00000000000E+00 0. -1.
         -2    1    5    5    0  503  0.98704615222E+02 -0.27336511432E+02  0.43728590062E+02  0.11136460619E+03  0.00000000000E+00 0.  1.
         -1    1    6    6    0  502 -0.11735097532E+03 -0.13137609913E+02 -0.41301572740E+02  0.12509863354E+03  0.00000000000E+00 0.  1.
<mgrwt>
<rscale>  0 0.12989674E+04</rscale>
<asrwt>0</asrwt>
<pdfrwt beam="1">  1        1 0.11020862E+00 0.12989674E+04</pdfrwt>
<pdfrwt beam="2">  1       -1 0.90592911E-01 0.12989674E+04</pdfrwt>
<totfact> 0.30779086E+01</totfact>
</mgrwt>
</event>
<event>
12    1  0.2048318E-007  0.1744295E+04  0.7818608E-02  0.8736497E-01
         -2   -1    0    0    0  501 -0.00000000000E+00  0.00000000000E+00  0.90870774490E+03  0.90870774490E+03  0.00000000000E+00 0.  1.
          2   -1    0    0  501    0  0.00000000000E+00 -0.00000000000E+00 -0.83705821224E+03  0.83705821224E+03  0.00000000000E+00 0. -1.
         23    2    1    2    0    0 -0.39868192496E+03  0.72202389953E+02  0.51683178423E+03  0.66302733668E+03  0.91267155039E+02 0.  0.
        254    2    1    2    0    0  0.39868192496E+03 -0.72202389953E+02 -0.44518225157E+03  0.10827386205E+04  0.89998623363E+03 0.  0.
        -24    2    4    4    0    0 -0.17156400567E+03 -0.30826393819E+03 -0.12371504433E+03  0.38240369140E+03  0.80413353197E+02 0.  0.
         24    2    4    4    0    0  0.57024593063E+03  0.23606154823E+03 -0.32146720724E+03  0.70033492906E+03  0.78882010519E+02 0.  0.
         11    1    3    3    0    0 -0.11355041055E+03 -0.19566433214E+02  0.15931216442E+03  0.19661359764E+03  0.00000000000E+00 0. -1.
        -11    1    3    3    0    0 -0.28513151442E+03  0.91768823167E+02  0.35751961981E+03  0.46641373904E+03  0.00000000000E+00 0.  1.
          4    1    6    6  502    0  0.49587890972E+03  0.19422949788E+03 -0.24686426796E+03  0.58699485325E+03  0.00000000000E+00 0. -1.
          1    1    5    5  503    0 -0.76890361342E+02 -0.65826494402E+02 -0.42273617208E+02  0.10969190373E+03  0.00000000000E+00 0. -1.
         -2    1    5    5    0  503 -0.94673644323E+02 -0.24243744379E+03 -0.81441427125E+02  0.27271178766E+03  0.00000000000E+00 0.  1.
         -3    1    6    6    0  502  0.74367020911E+02  0.41832050357E+02 -0.74602939275E+02  0.11334007581E+03  0.00000000000E+00 0.  1.
<mgrwt>
<rscale>  0 0.17442950E+04</rscale>
<asrwt>0</asrwt>
<pdfrwt beam="1">  1        2 0.12877819E+00 0.17442950E+04</pdfrwt>
<pdfrwt beam="2">  1       -2 0.13980119E+00 0.17442950E+04</pdfrwt>
<totfact> 0.11075938E+01</totfact>
</mgrwt>
</event>
<event>
12    1  0.2048318E-007  0.2459690E+04  0.7818608E-02  0.8417489E-01
          2   -1    0    0  501    0  0.00000000000E+00  0.00000000000E+00  0.17657686874E+04  0.17657686874E+04  0.00000000000E+00 0. -1.
         -2   -1    0    0    0  501 -0.00000000000E+00 -0.00000000000E+00 -0.85657794822E+03  0.85657794822E+03  0.00000000000E+00 0.  1.
         23    2    1    2    0    0 -0.84462860309E+03 -0.64264924806E+03  0.45731981405E+03  0.11592919683E+04  0.91765583519E+02 0.  0.
        254    2    1    2    0    0  0.84462860309E+03  0.64264924806E+03  0.45187092516E+03  0.14630546673E+04  0.89997005138E+03 0.  0.
        -24    2    4    4    0    0  0.37313317815E+03  0.63988361469E+03 -0.77756743054E+02  0.74901152547E+03  0.79326825300E+02 0.  0.
         24    2    4    4    0    0  0.47149542494E+03  0.27656333731E+01  0.52962766821E+03  0.71404314185E+03  0.83884188156E+02 0.  0.
         13    1    3    3    0    0 -0.27773938784E+03 -0.15918708903E+03  0.13005187829E+03  0.34553319365E+03  0.00000000000E+00 0.  1.
        -13    1    3    3    0    0 -0.56688921526E+03 -0.48346215903E+03  0.32726793576E+03  0.81375877468E+03  0.00000000000E+00 0. -1.
          4    1    6    6  502    0  0.14086536070E+03 -0.34245174944E+01  0.21853819257E+03  0.26002638093E+03  0.00000000000E+00 0. -1.
          3    1    5    5  503    0  0.21061396667E+03  0.34062857780E+03 -0.36278146196E+01  0.40049872910E+03  0.00000000000E+00 0. -1.
         -4    1    5    5    0  503  0.16251921148E+03  0.29925503688E+03 -0.74128928435E+02  0.34851279637E+03  0.00000000000E+00 0.  1.
         -3    1    6    6    0  502  0.33063006424E+03  0.61901508675E+01  0.31108947564E+03  0.45401676093E+03  0.00000000000E+00 0.  1.
<mgrwt>
<rscale>  0 0.24596898E+04</rscale>
<asrwt>0</asrwt>
<pdfrwt beam="1">  1        2 0.27165672E+00 0.24596898E+04</pdfrwt>
<pdfrwt beam="2">  1       -2 0.13178122E+00 0.24596898E+04</pdfrwt>
<totfact> 0.33849005E+00</totfact>
</mgrwt>
</event>
<event>
12    1  0.2048318E-007  0.1376332E+04  0.7818608E-02  0.8971131E-01
         -1   -1    0    0    0  501 -0.00000000000E+00  0.00000000000E+00  0.14465173706E+04  0.14465173706E+04  0.00000000000E+00 0.  1.
          1   -1    0    0  501    0  0.00000000000E+00 -0.00000000000E+00 -0.32738784038E+03  0.32738784038E+03  0.00000000000E+00 0. -1.
         23    2    1    2    0    0  0.64059034857E+02  0.35748376362E+03  0.14703095343E+03  0.40174074694E+03  0.88765563646E+02 0.  0.
        254    2    1    2    0    0 -0.64059034857E+02 -0.35748376362E+03  0.97209857682E+03  0.13721644641E+04  0.89775356987E+03 0.  0.
        -24    2    4    4    0    0 -0.41542361185E+03  0.39814219133E+02  0.51440965845E+03  0.66724565291E+03  0.80234128067E+02 0.  0.
         24    2    4    4    0    0  0.35136457699E+03 -0.39729798275E+03  0.45768891837E+03  0.70491881116E+03  0.78285575063E+02 0.  0.
         11    1    3    3    0    0  0.74174770844E+02  0.23484610977E+03  0.68011330738E+02  0.25549977106E+03  0.00000000000E+00 0.  1.
        -11    1    3    3    0    0 -0.10115735987E+02  0.12263765385E+03  0.79019622691E+02  0.14624097588E+03  0.00000000000E+00 0. -1.
          2    1    6    6  502    0  0.14785972265E+03 -0.21421699243E+03  0.25425699385E+03  0.36386540967E+03  0.00000000000E+00 0. -1.
          1    1    5    5  503    0 -0.31369898883E+03  0.44599828780E+02  0.43470253125E+03  0.53792424280E+03  0.00000000000E+00 0. -1.
         -2    1    5    5    0  503 -0.10172462302E+03 -0.47856096461E+01  0.79707127196E+02  0.12932141011E+03  0.00000000000E+00 0.  1.
         -1    1    6    6    0  502  0.20350485433E+03 -0.18308099032E+03  0.20343192452E+03  0.34105340149E+03  0.00000000000E+00 0.  1.
<mgrwt>
<rscale>  0 0.13763316E+04</rscale>
<asrwt>0</asrwt>
<pdfrwt beam="1">  1        1 0.50367361E-01 0.13763316E+04</pdfrwt>
<pdfrwt beam="2">  1       -1 0.22254113E+00 0.13763316E+04</pdfrwt>
<totfact> 0.80857870E+00</totfact>
</mgrwt>
</event>
<event>
12    1  0.2048318E-007  0.1836055E+04  0.7818608E-02  0.8687358E-01
         -2   -1    0    0    0  501 -0.00000000000E+00  0.00000000000E+00  0.74313644297E+03  0.74313644297E+03  0.00000000000E+00 0.  1.
          2   -1    0    0  501    0  0.00000000000E+00 -0.00000000000E+00 -0.11340771701E+04  0.11340771701E+04  0.00000000000E+00 0. -1.
         23    2    1    2    0    0  0.39389049489E+03 -0.55966972624E+03 -0.26706452975E+03  0.74014402509E+03  0.90054374634E+02 0.  0.
        254    2    1    2    0    0 -0.39389049489E+03  0.55966972624E+03 -0.12387619739E+03  0.11370695880E+04  0.89955656365E+03 0.  0.
        -24    2    4    4    0    0 -0.17901213781E+03 -0.18388853521E+03 -0.22719974254E+03  0.35214327309E+03  0.80776375933E+02 0.  0.
         24    2    4    4    0    0 -0.21487835708E+03  0.74355826146E+03  0.10332354516E+03  0.78492631489E+03  0.79887222450E+02 0.  0.
         11    1    3    3    0    0  0.14052243629E+03 -0.13723323618E+03 -0.96632059040E+02  0.21890013944E+03  0.00000000000E+00 0.  1.
        -11    1    3    3    0    0  0.25336805860E+03 -0.42243649006E+03 -0.17043247071E+03  0.52124388565E+03  0.00000000000E+00 0. -1.
          4    1    6    6  502    0 -0.20076529343E+03  0.65924908543E+03  0.68194815914E+02  0.69250746754E+03  0.00000000000E+00 0. -1.
          3    1    5    5  503    0 -0.11706767420E+03 -0.15512839718E+03 -0.13181449102E+03  0.23482912937E+03  0.00000000000E+00 0. -1.
         -4    1    5    5    0  503 -0.61944463606E+02 -0.28760138029E+02 -0.95385251519E+02  0.11731414373E+03  0.00000000000E+00 0.  1.
         -3    1    6    6    0  502 -0.14113063652E+02  0.84309176029E+02  0.35128729241E+02  0.92418847355E+02  0.00000000000E+00 0.  1.
<mgrwt>
<rscale>  0 0.18360545E+04</rscale>
<asrwt>0</asrwt>
<pdfrwt beam="1">  1        2 0.17447341E+00 0.18360545E+04</pdfrwt>
<pdfrwt beam="2">  1       -2 0.11432868E+00 0.18360545E+04</pdfrwt>
<totfact> 0.11691514E+01</totfact>
</mgrwt>
</event>
<event>
12    1  0.2048318E-007  0.2473681E+04  0.7818608E-02  0.8412422E-01
         -3   -1    0    0    0  501 -0.00000000000E+00  0.00000000000E+00  0.93389367113E+03  0.93389367113E+03  0.00000000000E+00 0.  1.
          3   -1    0    0  501    0  0.00000000000E+00 -0.00000000000E+00 -0.16380599903E+04  0.16380599903E+04  0.00000000000E+00 0. -1.
         23    2    1    2    0    0  0.52178638616E+03 -0.74390703351E+03  0.28277192935E+03  0.95619736941E+03  0.93245578678E+02 0.  0.
        254    2    1    2    0    0 -0.52178638616E+03  0.74390703351E+03 -0.98693824857E+03  0.16157562921E+04  0.90053460876E+03 0.  0.
        -24    2    4    4    0    0 -0.12864956516E+03  0.69860142147E+03 -0.21793479986E+03  0.74739942349E+03  0.80719666449E+02 0.  0.
         24    2    4    4    0    0 -0.39313682100E+03  0.45305612040E+02 -0.76900344871E+03  0.86835686857E+03  0.77898578712E+02 0.  0.
         11    1    3    3    0    0  0.34295684176E+03 -0.52497864997E+03  0.23414643409E+03  0.66936277969E+03  0.00000000000E+00 0. -1.
        -11    1    3    3    0    0  0.17882954441E+03 -0.21892838354E+03  0.48625495265E+02  0.28683458972E+03  0.00000000000E+00 0.  1.
          2    1    6    6  502    0 -0.13999589994E+03  0.58266563212E+01 -0.19855027175E+03  0.24301237075E+03  0.00000000000E+00 0. -1.
          3    1    5    5  503    0  0.32008735492E+01  0.17302736022E+03 -0.53600264247E+02  0.18116760556E+03  0.00000000000E+00 0. -1.
         -4    1    5    5    0  503 -0.13185043871E+03  0.52557406125E+03 -0.16433453561E+03  0.56623181794E+03  0.00000000000E+00 0.  1.
         -1    1    6    6    0  502 -0.25314092106E+03  0.39478955719E+02 -0.57045317696E+03  0.62534449782E+03  0.00000000000E+00 0.  1.
<mgrwt>
<rscale>  0 0.24736805E+04</rscale>
<asrwt>0</asrwt>
<pdfrwt beam="1">  1        3 0.25200923E+00 0.24736805E+04</pdfrwt>
<pdfrwt beam="2">  1       -3 0.14367595E+00 0.24736805E+04</pdfrwt>
<totfact> 0.60375071E-02</totfact>
</mgrwt>
</event>
<event>
12    1  0.2048318E-007  0.2058681E+04  0.7818608E-02  0.8579666E-01
         -2   -1    0    0    0  501 -0.00000000000E+00  0.00000000000E+00  0.47729927422E+03  0.47729927422E+03  0.00000000000E+00 0.  1.
          2   -1    0    0  501    0  0.00000000000E+00 -0.00000000000E+00 -0.22198696468E+04  0.22198696468E+04  0.00000000000E+00 0. -1.
         23    2    1    2    0    0  0.34402969844E+02  0.76784314163E+03 -0.11141157595E+04  0.13570013086E+04  0.97118337705E+02 0.  0.
        254    2    1    2    0    0 -0.34402969844E+02 -0.76784314163E+03 -0.62845461306E+03  0.13401676124E+04  0.90018185615E+03 0.  0.
        -24    2    4    4    0    0  0.44208210478E+02  0.13107674523E+03 -0.36314180670E+03  0.39636664574E+03  0.78096524051E+02 0.  0.
         24    2    4    4    0    0 -0.78611180322E+02 -0.89891988686E+03 -0.26531280636E+03  0.94380096664E+03  0.78311549365E+02 0.  0.
         11    1    3    3    0    0 -0.16840611520E+02  0.31585985641E+03 -0.52159636626E+03  0.61001133136E+03  0.00000000000E+00 0.  1.
        -11    1    3    3    0    0  0.51243581364E+02  0.45198328522E+03 -0.59251939321E+03  0.74698997723E+03  0.00000000000E+00 0. -1.
          2    1    6    6  502    0  0.15061179235E+01  0.57291832730E+00  0.14525852763E+01  0.21694770324E+01  0.00000000000E+00 0. -1.
          3    1    5    5  503    0  0.27987849028E+02  0.11502230898E+02 -0.13421375927E+03  0.13758253590E+03  0.00000000000E+00 0. -1.
         -4    1    5    5    0  503  0.16220361450E+02  0.11957451433E+03 -0.22892804743E+03  0.25878410984E+03  0.00000000000E+00 0.  1.
         -1    1    6    6    0  502 -0.80117298245E+02 -0.89949280518E+03 -0.26676539163E+03  0.94163148961E+03  0.00000000000E+00 0.  1.
<mgrwt>
<rscale>  0 0.20586813E+04</rscale>
<asrwt>0</asrwt>
<pdfrwt beam="1">  1        2 0.34151842E+00 0.20586813E+04</pdfrwt>
<pdfrwt beam="2">  1       -2 0.73430656E-01 0.20586813E+04</pdfrwt>
<totfact> 0.77864655E+00</totfact>
</mgrwt>
</event>
<event>
12    1  0.2048318E-007  0.1698011E+04  0.7818608E-02  0.8762500E-01
          2   -1    0    0  501    0  0.00000000000E+00  0.00000000000E+00  0.42778499395E+03  0.42778499395E+03  0.00000000000E+00 0. -1.
         -2   -1    0    0    0  501 -0.00000000000E+00 -0.00000000000E+00 -0.16849827449E+04  0.16849827449E+04  0.00000000000E+00 0.  1.
         23    2    1    2    0    0 -0.57607930780E+03  0.14486696028E+03 -0.30063735280E+03  0.67177446808E+03  0.89690094274E+02 0.  0.
        254    2    1    2    0    0  0.57607930780E+03 -0.14486696028E+03 -0.95656039812E+03  0.14409932707E+04  0.89922188919E+03 0.  0.
        -24    2    4    4    0    0 -0.32058237501E+02  0.14852154730E+03 -0.68768636376E+03  0.70980763776E+03  0.88475799661E+02 0.  0.
         24    2    4    4    0    0  0.60813754530E+03 -0.29338850758E+03 -0.26887403436E+03  0.73118563297E+03  0.80194096566E+02 0.  0.
         13    1    3    3    0    0 -0.26319602191E+03  0.23087246796E+02 -0.14958206299E+03  0.30361152890E+03  0.00000000000E+00 0. -1.
        -13    1    3    3    0    0 -0.31288328590E+03  0.12177971348E+03 -0.15105528981E+03  0.36816293918E+03  0.00000000000E+00 0.  1.
          2    1    6    6  502    0  0.30141799288E+03 -0.11281965037E+03 -0.15700827246E+03  0.35809590554E+03  0.00000000000E+00 0. -1.
          3    1    5    5  503    0 -0.38947135773E+02  0.26456898730E+02 -0.28856348469E+03  0.29237943083E+03  0.00000000000E+00 0. -1.
         -4    1    5    5    0  503  0.68888982719E+01  0.12206464857E+03 -0.39912287907E+03  0.41742820694E+03  0.00000000000E+00 0.  1.
         -1    1    6    6    0  502  0.30671955242E+03 -0.18056885720E+03 -0.11186576190E+03  0.37308972743E+03  0.00000000000E+00 0.  1.
<mgrwt>
<rscale>  0 0.16980110E+04</rscale>
<asrwt>0</asrwt>
<pdfrwt beam="1">  1        2 0.65813075E-01 0.16980110E+04</pdfrwt>
<pdfrwt beam="2">  1       -2 0.25922812E+00 0.16980110E+04</pdfrwt>
<totfact> 0.39570888E+00</totfact>
</mgrwt>
</event>
<event>
12    1  0.2048318E-007  0.1152611E+04  0.7818608E-02  0.9155378E-01
         -2   -1    0    0    0  501 -0.00000000000E+00  0.00000000000E+00  0.17818035260E+04  0.17818035260E+04  0.00000000000E+00 0.  1.
          2   -1    0    0  501    0  0.00000000000E+00 -0.00000000000E+00 -0.18640006454E+03  0.18640006454E+03  0.00000000000E+00 0. -1.
         23    2    1    2    0    0  0.11783017539E+03  0.10426878578E+03  0.83374186879E+02  0.20032746771E+03  0.91781857480E+02 0.  0.
        254    2    1    2    0    0 -0.11783017539E+03 -0.10426878578E+03  0.15120292745E+04  0.17678761228E+04  0.90243976448E+03 0.  0.
        -24    2    4    4    0    0 -0.44744555471E+03 -0.21488678891E+03  0.11711996055E+04  0.12744262282E+04  0.77909169142E+02 0.  0.
         24    2    4    4    0    0  0.32961537933E+03  0.11061800313E+03  0.34082966900E+03  0.49344989458E+03  0.80282590166E+02 0.  0.
         13    1    3    3    0    0  0.11076773314E+03  0.11516786055E+03  0.92333495959E+02  0.18454972578E+03  0.00000000000E+00 0.  1.
        -13    1    3    3    0    0  0.70624422438E+01 -0.10899074770E+02 -0.89593090799E+01  0.15777741932E+02  0.00000000000E+00 0. -1.
          2    1    6    6  502    0  0.10513119416E+02 -0.68840612365E+01  0.30880991457E+02  0.33339940196E+02  0.00000000000E+00 0. -1.
          1    1    5    5  503    0 -0.24367680661E+02  0.30636978793E+01  0.36836379765E+02  0.44272892154E+02  0.00000000000E+00 0. -1.
         -2    1    5    5    0  503 -0.42307787405E+03 -0.21795048679E+03  0.11343632258E+04  0.12301533360E+04  0.00000000000E+00 0.  1.
         -1    1    6    6    0  502  0.31910225991E+03  0.11750206437E+03  0.30994867755E+03  0.46010995439E+03  0.00000000000E+00 0.  1.
<mgrwt>
<rscale>  0 0.11526115E+04</rscale>
<asrwt>0</asrwt>
<pdfrwt beam="1">  1        2 0.28676934E-01 0.11526115E+04</pdfrwt>
<pdfrwt beam="2">  1       -2 0.27412361E+00 0.11526115E+04</pdfrwt>
<totfact> 0.85388530E+00</totfact>
</mgrwt>
</event>
<event>
12    1  0.2048318E-007  0.1895539E+04  0.7818608E-02  0.8657080E-01
         -2   -1    0    0    0  501 -0.00000000000E+00  0.00000000000E+00  0.10208455786E+04  0.10208455786E+04  0.00000000000E+00 0.  1.
          2   -1    0    0  501    0  0.00000000000E+00 -0.00000000000E+00 -0.87992405284E+03  0.87992405284E+03  0.00000000000E+00 0. -1.
         23    2    1    2    0    0  0.64106885263E+03  0.34191435578E+03 -0.10696875872E+02  0.73198719390E+03  0.88408870450E+02 0.  0.
        254    2    1    2    0    0 -0.64106885263E+03 -0.34191435578E+03  0.15161840166E+03  0.11687824376E+04  0.90287847805E+03 0.  0.
        -24    2    4    4    0    0  0.59513918921E+02  0.26195833535E+02  0.33655253570E+03  0.35203301055E+03  0.80196651991E+02 0.  0.
         24    2    4    4    0    0 -0.70058277155E+03 -0.36811018931E+03 -0.18493413404E+03  0.81674942701E+03  0.80979388259E+02 0.  0.
         13    1    3    3    0    0  0.37453939336E+03  0.16043307659E+03  0.20929131701E+02  0.40799087955E+03  0.00000000000E+00 0. -1.
        -13    1    3    3    0    0  0.26652945927E+03  0.18148127919E+03 -0.31626007573E+02  0.32399631435E+03  0.00000000000E+00 0.  1.
          2    1    6    6  502    0 -0.54852160904E+03 -0.30934329760E+03 -0.17413657285E+03  0.65337032176E+03  0.00000000000E+00 0. -1.
          1    1    5    5  503    0  0.64499753123E+02  0.28396840389E+02  0.33886277583E+03  0.34611353562E+03  0.00000000000E+00 0. -1.
         -2    1    5    5    0  503 -0.49858342021E+01 -0.22010068537E+01 -0.23102401368E+01  0.59194749219E+01  0.00000000000E+00 0.  1.
         -1    1    6    6    0  502 -0.15206116251E+03 -0.58766891717E+02 -0.10797561193E+02  0.16337910525E+03  0.00000000000E+00 0.  1.
<mgrwt>
<rscale>  0 0.18955385E+04</rscale>
<asrwt>0</asrwt>
<pdfrwt beam="1">  1        2 0.13537293E+00 0.18955385E+04</pdfrwt>
<pdfrwt beam="2">  1       -2 0.15705316E+00 0.18955385E+04</pdfrwt>
<totfact> 0.75089609E+00</totfact>
</mgrwt>
</event>
<event>
12    1  0.2048318E-007  0.2098473E+04  0.7818608E-02  0.8561916E-01
          2   -1    0    0  501    0  0.00000000000E+00  0.00000000000E+00  0.20983749098E+04  0.20983749098E+04  0.00000000000E+00 0. -1.
         -2   -1    0    0    0  501 -0.00000000000E+00 -0.00000000000E+00 -0.52464258166E+03  0.52464258166E+03  0.00000000000E+00 0.  1.
         23    2    1    2    0    0  0.42706627522E+03 -0.43340697812E+03 -0.10343348788E+03  0.62319598990E+03  0.86299150043E+02 0.  0.
        254    2    1    2    0    0 -0.42706627522E+03  0.43340697812E+03  0.16771658160E+04  0.19998215016E+04  0.90342329589E+03 0.  0.
        -24    2    4    4    0    0 -0.32617014437E+02  0.45559561368E+03  0.14802615796E+04  0.15512203379E+04  0.80491986608E+02 0.  0.
         24    2    4    4    0    0 -0.39444926078E+03 -0.22188635568E+02  0.19690423647E+03  0.44860116368E+03  0.79932289078E+02 0.  0.
         13    1    3    3    0    0  0.16397234916E+03 -0.22145337354E+03 -0.27520377623E+02  0.27692218966E+03  0.00000000000E+00 0.  1.
        -13    1    3    3    0    0  0.26309392606E+03 -0.21195360458E+03 -0.75913110261E+02  0.34627380024E+03  0.00000000000E+00 0. -1.
          2    1    6    6  502    0 -0.18045471022E+03 -0.25099759289E+02  0.13192326916E+03  0.22493921246E+03  0.00000000000E+00 0. -1.
          1    1    5    5  503    0  0.16176512060E+02  0.11767775144E+03  0.30307043240E+03  0.32551715734E+03  0.00000000000E+00 0. -1.
         -2    1    5    5    0  503 -0.48793526498E+02  0.33791786225E+03  0.11771911472E+04  0.12257031805E+04  0.00000000000E+00 0.  1.
         -1    1    6    6    0  502 -0.21399455056E+03  0.29111237205E+01  0.64980967314E+02  0.22366195122E+03  0.00000000000E+00 0.  1.
<mgrwt>
<rscale>  0 0.20984726E+04</rscale>
<asrwt>0</asrwt>
<pdfrwt beam="1">  1        2 0.32282691E+00 0.20984726E+04</pdfrwt>
<pdfrwt beam="2">  1       -2 0.80714244E-01 0.20984726E+04</pdfrwt>
<totfact> 0.73521964E+00</totfact>
</mgrwt>
</event>
<event>
12    1  0.2048318E-007  0.2681686E+04  0.7818608E-02  0.8340972E-01
         -2   -1    0    0    0  501 -0.00000000000E+00  0.00000000000E+00  0.18687619579E+04  0.18687619579E+04  0.00000000000E+00 0.  1.
          2   -1    0    0  501    0  0.00000000000E+00 -0.00000000000E+00 -0.96205958914E+03  0.96205958914E+03  0.00000000000E+00 0. -1.
         23    2    1    2    0    0  0.10416641932E+04 -0.53766357099E+03  0.20171924188E+03  0.11929258094E+04  0.90746500159E+02 0.  0.
        254    2    1    2    0    0 -0.10416641932E+04  0.53766357099E+03  0.70498312686E+03  0.16378957376E+04  0.90086338096E+03 0.  0.
        -24    2    4    4    0    0 -0.19195058704E+03  0.26422233691E+03 -0.17802441052E+03  0.37996026323E+03  0.77579892438E+02 0.  0.
         24    2    4    4    0    0 -0.84971360615E+03  0.27344123408E+03  0.88300753737E+03  0.12579354744E+04  0.76915704739E+02 0.  0.
         11    1    3    3    0    0  0.90140640038E+03 -0.48857164105E+03  0.15367120539E+03  0.10367500115E+04  0.00000000000E+00 0. -1.
        -11    1    3    3    0    0  0.14025779281E+03 -0.49091929940E+02  0.48048036496E+02  0.15617579787E+03  0.00000000000E+00 0.  1.
          4    1    6    6  502    0 -0.57684312256E+03  0.19953725174E+03  0.64915220508E+03  0.89104527845E+03  0.00000000000E+00 0. -1.
          3    1    5    5  503    0 -0.18595827487E+03  0.21070502590E+03 -0.13949877207E+03  0.31374670571E+03  0.00000000000E+00 0. -1.
         -4    1    5    5    0  503 -0.59923121677E+01  0.53517311011E+02 -0.38525638446E+02  0.66213557529E+02  0.00000000000E+00 0.  1.
         -3    1    6    6    0  502 -0.27287048359E+03  0.73903982339E+02  0.23385533229E+03  0.36689019592E+03  0.00000000000E+00 0.  1.
<mgrwt>
<rscale>  0 0.26816863E+04</rscale>
<asrwt>0</asrwt>
<pdfrwt beam="1">  1        2 0.14800917E+00 0.26816863E+04</pdfrwt>
<pdfrwt beam="2">  1       -2 0.28750184E+00 0.26816863E+04</pdfrwt>
<totfact> 0.88768375E-01</totfact>
</mgrwt>
</event>
<event>
12    1  0.2048318E-007  0.1772103E+04  0.7818608E-02  0.8721277E-01
          2   -1    0    0  501    0  0.00000000000E+00  0.00000000000E+00  0.11431373765E+04  0.11431373765E+04  0.00000000000E+00 0. -1.
         -2   -1    0    0    0  501 -0.00000000000E+00 -0.00000000000E+00 -0.68678324030E+03  0.68678324030E+03  0.00000000000E+00 0.  1.
         23    2    1    2    0    0  0.50531466417E+03 -0.38299368172E+03  0.61582322934E+01  0.64054170123E+03  0.90712056147E+02 0.  0.
        254    2    1    2    0    0 -0.50531466417E+03  0.38299368172E+03  0.45019590390E+03  0.11893789156E+04  0.89995487822E+03 0.  0.
        -24    2    4    4    0    0 -0.61407459933E+03  0.13773119762E+03 -0.28673117955E+02  0.63501423214E+03  0.79771116250E+02 0.  0.
         24    2    4    4    0    0  0.10875993516E+03  0.24526248410E+03  0.47886902186E+03  0.55436468342E+03  0.77603173413E+02 0.  0.
         13    1    3    3    0    0  0.31520306347E+03 -0.21573025658E+03 -0.36716144346E+02  0.38371941582E+03  0.00000000000E+00 0. -1.
        -13    1    3    3    0    0  0.19011160070E+03 -0.16726342514E+03  0.42874376639E+02  0.25682228541E+03  0.00000000000E+00 0.  1.
          2    1    6    6  502    0  0.12219157128E+02  0.40485163920E+02  0.14450866738E+03  0.15056929051E+03  0.00000000000E+00 0. -1.
          3    1    5    5  503    0 -0.63388325737E+02  0.18620908354E+02 -0.27580721450E+02  0.71592696998E+02  0.00000000000E+00 0. -1.
         -2    1    5    5    0  503 -0.55068627360E+03  0.11911028926E+03 -0.10923965045E+01  0.56342153514E+03  0.00000000000E+00 0.  1.
         -1    1    6    6    0  502  0.96540778035E+02  0.20477732018E+03  0.33436035448E+03  0.40379539291E+03  0.00000000000E+00 0.  1.
<mgrwt>
<rscale>  0 0.17721034E+04</rscale>
<asrwt>0</asrwt>
<pdfrwt beam="1">  1        2 0.17586729E+00 0.17721034E+04</pdfrwt>
<pdfrwt beam="2">  1       -2 0.10565896E+00 0.17721034E+04</pdfrwt>
<totfact> 0.14046509E+01</totfact>
</mgrwt>
</event>
<event>
12    1  0.2048318E-007  0.1850400E+04  0.7818608E-02  0.8679947E-01
         -2   -1    0    0    0  501 -0.00000000000E+00  0.00000000000E+00  0.86393566971E+03  0.86393566971E+03  0.00000000000E+00 0.  1.
          2   -1    0    0  501    0  0.00000000000E+00 -0.00000000000E+00 -0.99080834388E+03  0.99080834388E+03  0.00000000000E+00 0. -1.
         23    2    1    2    0    0 -0.18339163083E+03  0.57732409962E+03  0.30916443658E+03  0.68584728191E+03  0.88703094611E+02 0.  0.
        254    2    1    2    0    0  0.18339163083E+03 -0.57732409962E+03 -0.43603711075E+03  0.11688967317E+04  0.89958635000E+03 0.  0.
        -24    2    4    4    0    0 -0.32039324137E+03 -0.25215924635E+02 -0.17665264641E+03  0.37372245247E+03  0.71934984678E+02 0.  0.
         24    2    4    4    0    0  0.50378487220E+03 -0.55210817499E+03 -0.25938446434E+03  0.79517427921E+03  0.79994997506E+02 0.  0.
         13    1    3    3    0    0 -0.71199244291E+02  0.22001128527E+03  0.70502864304E+02  0.24175390775E+03  0.00000000000E+00 0. -1.
        -13    1    3    3    0    0 -0.11219238654E+03  0.35731281435E+03  0.23866157227E+03  0.44409337416E+03  0.00000000000E+00 0.  1.
          2    1    6    6  502    0  0.40393958344E+03 -0.39318685389E+03 -0.20412515453E+03  0.59952495182E+03  0.00000000000E+00 0. -1.
          3    1    5    5  503    0 -0.28295408589E+03 -0.44618119606E+01 -0.17074509149E+03  0.33050992233E+03  0.00000000000E+00 0. -1.
         -4    1    5    5    0  503 -0.37439155480E+02 -0.20754112674E+02 -0.59075549261E+01  0.43212530141E+02  0.00000000000E+00 0.  1.
         -3    1    6    6    0  502  0.99845288763E+02 -0.15892132110E+03 -0.55259309807E+02  0.19564932739E+03  0.00000000000E+00 0.  1.
<mgrwt>
<rscale>  0 0.18503996E+04</rscale>
<asrwt>0</asrwt>
<pdfrwt beam="1">  1        2 0.15243205E+00 0.18503996E+04</pdfrwt>
<pdfrwt beam="2">  1       -2 0.13291318E+00 0.18503996E+04</pdfrwt>
<totfact> 0.98562331E+00</totfact>
</mgrwt>
</event>
<event>
12    1  0.2048318E-007  0.3930059E+04  0.7818608E-02  0.8018806E-01
          1   -1    0    0  501    0  0.00000000000E+00  0.00000000000E+00  0.19193980687E+04  0.19193980687E+04  0.00000000000E+00 0. -1.
         -1   -1    0    0    0  501 -0.00000000000E+00 -0.00000000000E+00 -0.20117457836E+04  0.20117457836E+04  0.00000000000E+00 0.  1.
         23    2    1    2    0    0  0.16537350487E+04 -0.42585123285E+03 -0.78333051602E+03  0.18811557189E+04  0.94611087630E+02 0.  0.
        254    2    1    2    0    0 -0.16537350487E+04  0.42585123285E+03  0.69098280109E+03  0.20499881333E+04  0.89933599482E+03 0.  0.
        -24    2    4    4    0    0 -0.55379650986E+03  0.29100689829E+03 -0.15957741997E+03  0.65074153910E+03  0.81388012358E+02 0.  0.
         24    2    4    4    0    0 -0.10999385388E+04  0.13484433455E+03  0.85056022105E+03  0.13992465942E+04  0.79940966019E+02 0.  0.
         13    1    3    3    0    0  0.33431098443E+03 -0.79428945705E+02 -0.19945433998E+03  0.39730948323E+03  0.00000000000E+00 0.  1.
        -13    1    3    3    0    0  0.13194240642E+04 -0.34642228714E+03 -0.58387617603E+03  0.14838462357E+04  0.00000000000E+00 0. -1.
          2    1    6    6  502    0 -0.20206522539E+03 -0.20722960905E+01  0.13564994333E+03  0.24338355912E+03  0.00000000000E+00 0. -1.
          1    1    5    5  503    0 -0.23728771126E+03  0.16628735520E+03 -0.90962170988E+02  0.30369566834E+03  0.00000000000E+00 0. -1.
         -2    1    5    5    0  503 -0.31650879860E+03  0.12471954309E+03 -0.68615248980E+02  0.34704587076E+03  0.00000000000E+00 0.  1.
         -1    1    6    6    0  502 -0.89787331342E+03  0.13691663064E+03  0.71491027772E+03  0.11558630351E+04  0.00000000000E+00 0.  1.
<mgrwt>
<rscale>  0 0.39300590E+04</rscale>
<asrwt>0</asrwt>
<pdfrwt beam="1">  1        1 0.29529201E+00 0.39300590E+04</pdfrwt>
<pdfrwt beam="2">  1       -1 0.30949935E+00 0.39300590E+04</pdfrwt>
<totfact> 0.76220035E-02</totfact>
</mgrwt>
</event>
<event>
12    1  0.2048318E-007  0.2049126E+04  0.7818608E-02  0.8583991E-01
          2   -1    0    0  501    0  0.00000000000E+00  0.00000000000E+00  0.17196788726E+04  0.17196788726E+04  0.00000000000E+00 0. -1.
         -2   -1    0    0    0  501 -0.00000000000E+00 -0.00000000000E+00 -0.61042196902E+03  0.61042196902E+03  0.00000000000E+00 0.  1.
         23    2    1    2    0    0 -0.47199845494E+03 -0.25905932913E+03  0.11580641272E+04  0.12803971036E+04  0.91705739178E+02 0.  0.
        254    2    1    2    0    0  0.47199845494E+03  0.25905932913E+03 -0.48807223602E+02  0.10497037381E+04  0.89977859231E+03 0.  0.
        -24    2    4    4    0    0 -0.21692290525E+03  0.19662549490E+03  0.13163515094E+03  0.33040961631E+03  0.78266017635E+02 0.  0.
         24    2    4    4    0    0  0.68892136020E+03  0.62433834227E+02 -0.18044237454E+03  0.71929412177E+03  0.79460423381E+02 0.  0.
         11    1    3    3    0    0 -0.77230222418E+02 -0.34202969799E+02  0.11499604723E+03  0.14268300977E+03  0.00000000000E+00 0.  1.
        -11    1    3    3    0    0 -0.39476823253E+03 -0.22485635933E+03  0.10430680800E+04  0.11377140938E+04  0.00000000000E+00 0. -1.
          4    1    6    6  502    0  0.19661554146E+03  0.16872473871E+02 -0.14872994618E+02  0.19789784609E+03  0.00000000000E+00 0. -1.
          3    1    5    5  503    0 -0.52631347798E+02  0.17864358024E+02  0.30338199669E+01  0.55663256482E+02  0.00000000000E+00 0. -1.
         -4    1    5    5    0  503 -0.16429155746E+03  0.17876113688E+03  0.12860133097E+03  0.27474635983E+03  0.00000000000E+00 0.  1.
         -3    1    6    6    0  502  0.49230581874E+03  0.45561360356E+02 -0.16556937992E+03  0.52139627567E+03  0.00000000000E+00 0.  1.
<mgrwt>
<rscale>  0 0.20491264E+04</rscale>
<asrwt>0</asrwt>
<pdfrwt beam="1">  1        2 0.26456598E+00 0.20491264E+04</pdfrwt>
<pdfrwt beam="2">  1       -2 0.93911073E-01 0.20491264E+04</pdfrwt>
<totfact> 0.84725685E+00</totfact>
</mgrwt>
</event>
<event>
12    1  0.2048318E-007  0.1413566E+04  0.7818608E-02  0.8944057E-01
          1   -1    0    0  501    0  0.00000000000E+00  0.00000000000E+00  0.11051501862E+04  0.11051501862E+04  0.00000000000E+00 0. -1.
         -1   -1    0    0    0  501 -0.00000000000E+00 -0.00000000000E+00 -0.45201325980E+03  0.45201325980E+03  0.00000000000E+00 0.  1.
         23    2    1    2    0    0 -0.11200840292E+03  0.36061698504E+03  0.38579833907E+03  0.54721323107E+03  0.89506813216E+02 0.  0.
        254    2    1    2    0    0  0.11200840292E+03 -0.36061698504E+03  0.26733858733E+03  0.10099502149E+04  0.89774106740E+03 0.  0.
        -24    2    4    4    0    0  0.78626086236E+02 -0.45326525603E+03  0.53706567025E+03  0.71164124935E+03  0.79763900689E+02 0.  0.
         24    2    4    4    0    0  0.33382316683E+02  0.92648270988E+02 -0.26972708292E+03  0.29830896556E+03  0.80854551446E+02 0.  0.
         13    1    3    3    0    0 -0.43823222039E+02  0.79400419103E+02  0.14371713256E+03  0.16993974090E+03  0.00000000000E+00 0. -1.
        -13    1    3    3    0    0 -0.68185180881E+02  0.28121656594E+03  0.24208120650E+03  0.37727349018E+03  0.00000000000E+00 0.  1.
          2    1    6    6  502    0  0.26953909012E+02  0.20655446290E+02 -0.22507716197E+02  0.40740127158E+02  0.00000000000E+00 0. -1.
          3    1    5    5  503    0  0.62983222412E+02 -0.16784788267E+03  0.17728148394E+03  0.25212798847E+03  0.00000000000E+00 0. -1.
         -4    1    5    5    0  503  0.15642863824E+02 -0.28541737335E+03  0.35978418631E+03  0.45951326087E+03  0.00000000000E+00 0.  1.
         -1    1    6    6    0  502  0.64284076712E+01  0.71992824698E+02 -0.24721936673E+03  0.25756883841E+03  0.00000000000E+00 0.  1.
<mgrwt>
<rscale>  0 0.14135665E+04</rscale>
<asrwt>0</asrwt>
<pdfrwt beam="1">  1        1 0.17002311E+00 0.14135665E+04</pdfrwt>
<pdfrwt beam="2">  1       -1 0.69540501E-01 0.14135665E+04</pdfrwt>
<totfact> 0.25599831E+01</totfact>
</mgrwt>
</event>
<event>
12    1  0.2048318E-007  0.1487269E+04  0.7818608E-02  0.8892963E-01
         -1   -1    0    0    0  501 -0.00000000000E+00  0.00000000000E+00  0.93252322938E+03  0.93252322938E+03  0.00000000000E+00 0.  1.
          1   -1    0    0  501    0  0.00000000000E+00 -0.00000000000E+00 -0.59300678317E+03  0.59300678317E+03  0.00000000000E+00 0. -1.
         23    2    1    2    0    0 -0.13715475844E+03 -0.44385147837E+03  0.12456442541E+03  0.48916792745E+03  0.89181851019E+02 0.  0.
        254    2    1    2    0    0  0.13715475844E+03  0.44385147837E+03  0.21495202081E+03  0.10363620851E+04  0.90112509541E+03 0.  0.
        -24    2    4    4    0    0 -0.98363204682E+02  0.64089956711E+03  0.28033262489E+03  0.71120724580E+03  0.82472969759E+02 0.  0.
         24    2    4    4    0    0  0.23551796312E+03 -0.19704808873E+03 -0.65380604089E+02  0.32515483931E+03  0.84583603076E+02 0.  0.
         11    1    3    3    0    0 -0.21571757246E+02 -0.72709155056E+02  0.56397525161E+02  0.94512659384E+02  0.00000000000E+00 0.  1.
        -11    1    3    3    0    0 -0.11558300119E+03 -0.37114232332E+03  0.68166900248E+02  0.39465526807E+03  0.00000000000E+00 0. -1.
          2    1    6    6  502    0  0.19587930974E+03 -0.19817866525E+03 -0.53270581240E+02  0.28369216093E+03  0.00000000000E+00 0. -1.
          1    1    5    5  503    0 -0.41227432373E+02  0.49834661855E+03  0.21372287652E+03  0.54380743039E+03  0.00000000000E+00 0. -1.
         -2    1    5    5    0  503 -0.57135772309E+02  0.14255294856E+03  0.66609748372E+02  0.16739981541E+03  0.00000000000E+00 0.  1.
         -1    1    6    6    0  502  0.39638653384E+02  0.11305765214E+01 -0.12110022849E+02  0.41462678383E+02  0.00000000000E+00 0.  1.
<mgrwt>
<rscale>  0 0.14872694E+04</rscale>
<asrwt>0</asrwt>
<pdfrwt beam="1">  1        1 0.91231813E-01 0.14872694E+04</pdfrwt>
<pdfrwt beam="2">  1       -1 0.14346511E+00 0.14872694E+04</pdfrwt>
<totfact> 0.13258963E+01</totfact>
</mgrwt>
</event>
<event>
12    1  0.2048318E-007  0.1642622E+04  0.7818608E-02  0.8794783E-01
         -2   -1    0    0    0  501 -0.00000000000E+00  0.00000000000E+00  0.78033741972E+03  0.78033741972E+03  0.00000000000E+00 0.  1.
          2   -1    0    0  501    0  0.00000000000E+00 -0.00000000000E+00 -0.86443551207E+03  0.86443551207E+03  0.00000000000E+00 0. -1.
         23    2    1    2    0    0 -0.55742546746E+03  0.11764168087E+03  0.14284628026E+01  0.57687158274E+03  0.90642515531E+02 0.  0.
        254    2    1    2    0    0  0.55742546746E+03 -0.11764168087E+03 -0.85526555159E+02  0.10679013490E+04  0.89918617806E+03 0.  0.
        -24    2    4    4    0    0  0.45896557248E+03 -0.48112372067E+03  0.15629842925E+02  0.66986924748E+03  0.79693697468E+02 0.  0.
         24    2    4    4    0    0  0.98459894973E+02  0.36348203980E+03 -0.10115639808E+03  0.39803210157E+03  0.79896137758E+02 0.  0.
         11    1    3    3    0    0 -0.25629004739E+02 -0.10747956685E+02  0.10533074188E+02  0.29720533451E+02  0.00000000000E+00 0. -1.
        -11    1    3    3    0    0 -0.53179646272E+03  0.12838963756E+03 -0.91046113856E+01  0.54715104929E+03  0.00000000000E+00 0.  1.
          4    1    6    6  502    0 -0.25907396898E+01  0.13608614520E+03 -0.37459507126E+02  0.14117140476E+03  0.00000000000E+00 0. -1.
          1    1    5    5  503    0  0.48023659169E+02 -0.22300540759E+02  0.10059676199E+02  0.53896039218E+02  0.00000000000E+00 0. -1.
         -2    1    5    5    0  503  0.41094191331E+03 -0.45882317991E+03  0.55701667260E+01  0.61597320826E+03  0.00000000000E+00 0.  1.
         -3    1    6    6    0  502  0.10105063466E+03  0.22739589460E+03 -0.63696890959E+02  0.25686069681E+03  0.00000000000E+00 0.  1.
<mgrwt>
<rscale>  0 0.16426215E+04</rscale>
<asrwt>0</asrwt>
<pdfrwt beam="1">  1        2 0.13299008E+00 0.16426215E+04</pdfrwt>
<pdfrwt beam="2">  1       -2 0.12005191E+00 0.16426215E+04</pdfrwt>
<totfact> 0.15722960E+01</totfact>
</mgrwt>
</event>
<event>
12    1  0.2048318E-007  0.1867615E+04  0.7818608E-02  0.8671146E-01
          1   -1    0    0  501    0  0.00000000000E+00  0.00000000000E+00  0.11999111162E+04  0.11999111162E+04  0.00000000000E+00 0. -1.
         -1   -1    0    0    0  501 -0.00000000000E+00 -0.00000000000E+00 -0.72671761026E+03  0.72671761026E+03  0.00000000000E+00 0.  1.
         23    2    1    2    0    0  0.31904337546E+03  0.63375655910E+03  0.25678229378E+03  0.75991726108E+03  0.90005809046E+02 0.  0.
        254    2    1    2    0    0 -0.31904337546E+03 -0.63375655910E+03  0.21641121219E+03  0.11667114654E+04  0.90052527957E+03 0.  0.
        -24    2    4    4    0    0 -0.27106314890E+03 -0.63725028221E+03 -0.21186181488E+03  0.72847275443E+03  0.78892157210E+02 0.  0.
         24    2    4    4    0    0 -0.47980226556E+02  0.34937231165E+01  0.42827302707E+03  0.43823871098E+03  0.79505181246E+02 0.  0.
         11    1    3    3    0    0  0.30777877421E+03  0.63178370443E+03  0.25750945315E+03  0.74845810938E+03  0.00000000000E+00 0. -1.
        -11    1    3    3    0    0  0.11264601250E+02  0.19728546644E+01 -0.72715936528E+00  0.11459151696E+02  0.00000000000E+00 0.  1.
          4    1    6    6  502    0  0.79630686369E+01 -0.42405123664E+01  0.34196071644E+01  0.96481148627E+01  0.00000000000E+00 0. -1.
          1    1    5    5  503    0 -0.51896200601E+02 -0.18131878572E+03 -0.30375738324E+02  0.19102984889E+03  0.00000000000E+00 0. -1.
         -2    1    5    5    0  503 -0.21916694830E+03 -0.45593149650E+03 -0.18148607655E+03  0.53744290553E+03  0.00000000000E+00 0.  1.
         -3    1    6    6    0  502 -0.55943295193E+02  0.77342354829E+01  0.42485341991E+03  0.42859059612E+03  0.00000000000E+00 0.  1.
<mgrwt>
<rscale>  0 0.18676151E+04</rscale>
<asrwt>0</asrwt>
<pdfrwt beam="1">  1        1 0.18460171E+00 0.18676151E+04</pdfrwt>
<pdfrwt beam="2">  1       -1 0.11180271E+00 0.18676151E+04</pdfrwt>
<totfact> 0.73632543E+00</totfact>
</mgrwt>
</event>
<event>
12    1  0.2048318E-007  0.1586116E+04  0.7818608E-02  0.8829123E-01
         -1   -1    0    0    0  501 -0.00000000000E+00  0.00000000000E+00  0.40249362886E+03  0.40249362886E+03  0.00000000000E+00 0.  1.
          1   -1    0    0  501    0  0.00000000000E+00 -0.00000000000E+00 -0.15626112113E+04  0.15626112113E+04  0.00000000000E+00 0. -1.
         23    2    1    2    0    0 -0.36242095944E+03  0.58108645694E+02 -0.86190665185E+03  0.94094639292E+03  0.88155948816E+02 0.  0.
        254    2    1    2    0    0  0.36242095944E+03 -0.58108645694E+02 -0.29821093063E+03  0.10241584473E+04  0.90843007404E+03 0.  0.
        -24    2    4    4    0    0  0.45636691205E+02  0.26958465016E+03  0.19737345605E+03  0.34615502942E+03  0.78156458813E+02 0.  0.
         24    2    4    4    0    0  0.31678426823E+03 -0.32769329585E+03 -0.49558438668E+03  0.67800341785E+03  0.79684261569E+02 0.  0.
         13    1    3    3    0    0 -0.25821990972E+03  0.15095416896E+02 -0.51719183102E+03  0.57826705203E+03  0.00000000000E+00 0. -1.
        -13    1    3    3    0    0 -0.10420104971E+03  0.43013228798E+02 -0.34471482082E+03  0.36267934089E+03  0.00000000000E+00 0.  1.
          2    1    6    6  502    0  0.44584480925E+02 -0.74005674932E+02 -0.13205687702E+03  0.15780885473E+03  0.00000000000E+00 0. -1.
          1    1    5    5  503    0  0.42644789290E+01  0.99604181482E+02  0.30173389234E+02  0.10416147161E+03  0.00000000000E+00 0. -1.
         -2    1    5    5    0  503  0.41372212276E+02  0.16998046868E+03  0.16720006682E+03  0.24199355782E+03  0.00000000000E+00 0.  1.
         -1    1    6    6    0  502  0.27219978731E+03 -0.25368762092E+03 -0.36352750966E+03  0.52019456312E+03  0.00000000000E+00 0.  1.
<mgrwt>
<rscale>  0 0.15861161E+04</rscale>
<asrwt>0</asrwt>
<pdfrwt beam="1">  1        1 0.24040172E+00 0.15861161E+04</pdfrwt>
<pdfrwt beam="2">  1       -1 0.61922097E-01 0.15861161E+04</pdfrwt>
<totfact> 0.15044655E+01</totfact>
</mgrwt>
</event>
<event>
12    1  0.2048318E-007  0.1136950E+04  0.7818608E-02  0.9169908E-01
         -2   -1    0    0    0  501 -0.00000000000E+00  0.00000000000E+00  0.23580196306E+04  0.23580196306E+04  0.00000000000E+00 0.  1.
          2   -1    0    0  501    0  0.00000000000E+00 -0.00000000000E+00 -0.13704887927E+03  0.13704887927E+03  0.00000000000E+00 0. -1.
         23    2    1    2    0    0 -0.14067595251E+03  0.13296612134E+03  0.34395058798E+03  0.40404590682E+03  0.86494940915E+02 0.  0.
        254    2    1    2    0    0  0.14067595251E+03 -0.13296612134E+03  0.18770201634E+04  0.20910226031E+04  0.90094457093E+03 0.  0.
        -24    2    4    4    0    0 -0.34813788337E+03 -0.20636954192E+03  0.70742390225E+03  0.81892657372E+03  0.80023633983E+02 0.  0.
         24    2    4    4    0    0  0.48881383588E+03  0.73403420583E+02  0.11695962611E+04  0.12720960294E+04  0.77109439154E+02 0.  0.
         11    1    3    3    0    0 -0.14306299096E+03  0.12916447785E+03  0.27993791833E+03  0.33987603600E+03  0.00000000000E+00 0. -1.
        -11    1    3    3    0    0  0.23870384569E+01  0.38016434885E+01  0.64012669648E+02  0.64169870822E+02  0.00000000000E+00 0.  1.
          2    1    6    6  502    0  0.26201620553E+03  0.57283361893E+00  0.60352993619E+03  0.65795228093E+03  0.00000000000E+00 0. -1.
          1    1    5    5  503    0 -0.22898452677E+02  0.11176963767E+01  0.18999742700E+02  0.29775469818E+02  0.00000000000E+00 0. -1.
         -2    1    5    5    0  503 -0.32523943069E+03 -0.20748723830E+03  0.68842415955E+03  0.78915110390E+03  0.00000000000E+00 0.  1.
         -1    1    6    6    0  502  0.22679763035E+03  0.72830586964E+02  0.56606632495E+03  0.61414374846E+03  0.00000000000E+00 0.  1.
<mgrwt>
<rscale>  0 0.11369502E+04</rscale>
<asrwt>0</asrwt>
<pdfrwt beam="1">  1        2 0.21084445E-01 0.11369502E+04</pdfrwt>
<pdfrwt beam="2">  1       -2 0.36277222E+00 0.11369502E+04</pdfrwt>
<totfact> 0.34849521E+00</totfact>
</mgrwt>
</event>
<event>
12    1  0.2048318E-007  0.1541701E+04  0.7818608E-02  0.8857186E-01
         -1   -1    0    0    0  501 -0.00000000000E+00  0.00000000000E+00  0.20527059898E+03  0.20527059898E+03  0.00000000000E+00 0.  1.
          1   -1    0    0  501    0  0.00000000000E+00 -0.00000000000E+00 -0.28947678357E+04  0.28947678357E+04  0.00000000000E+00 0. -1.
         23    2    1    2    0    0  0.19060445446E+03  0.23792588394E+03 -0.16869222579E+04  0.17165839569E+04  0.89526492100E+02 0.  0.
        254    2    1    2    0    0 -0.19060445446E+03 -0.23792588394E+03 -0.10025749788E+04  0.13834544777E+04  0.90324466202E+03 0.  0.
        -24    2    4    4    0    0 -0.10271859302E+03  0.24938130789E+03 -0.21404234486E+02  0.28150317984E+03  0.77741577868E+02 0.  0.
         24    2    4    4    0    0 -0.87885861441E+02 -0.48730719183E+03 -0.98117074432E+03  0.11019512979E+04  0.80052542273E+02 0.  0.
         11    1    3    3    0    0  0.55966262827E+01  0.45061857591E+02 -0.15460778316E+03  0.16113801491E+03  0.00000000000E+00 0.  1.
        -11    1    3    3    0    0  0.18500782818E+03  0.19286402635E+03 -0.15323144747E+04  0.15554459420E+04  0.00000000000E+00 0. -1.
          4    1    6    6  502    0  0.62176943170E+01 -0.11887029406E+03 -0.28125804988E+03  0.30540939271E+03  0.00000000000E+00 0. -1.
          1    1    5    5  503    0 -0.33926452720E+02  0.31481812941E+02  0.17943430277E+02  0.49639454371E+02  0.00000000000E+00 0. -1.
         -2    1    5    5    0  503 -0.68792140300E+02  0.21789949495E+03 -0.39347664763E+02  0.23186372547E+03  0.00000000000E+00 0.  1.
         -3    1    6    6    0  502 -0.94103555758E+02 -0.36843689777E+03 -0.69991269444E+03  0.79654190517E+03  0.00000000000E+00 0.  1.
<mgrwt>
<rscale>  0 0.15417013E+04</rscale>
<asrwt>0</asrwt>
<pdfrwt beam="1">  1        1 0.44534887E+00 0.15417013E+04</pdfrwt>
<pdfrwt beam="2">  1       -1 0.31580094E-01 0.15417013E+04</pdfrwt>
<totfact> 0.64348058E+00</totfact>
</mgrwt>
</event>
<event>
12    1  0.2048318E-007  0.3330022E+04  0.7818608E-02  0.8155298E-01
         -1   -1    0    0    0  501 -0.00000000000E+00  0.00000000000E+00  0.19053550437E+04  0.19053550437E+04  0.00000000000E+00 0.  1.
          1   -1    0    0  501    0  0.00000000000E+00 -0.00000000000E+00 -0.14549841425E+04  0.14549841425E+04  0.00000000000E+00 0. -1.
         23    2    1    2    0    0 -0.86104216816E+03  0.12532125145E+04 -0.46302718301E+02  0.15238814111E+04  0.90196404310E+02 0.  0.
        254    2    1    2    0    0  0.86104216816E+03 -0.12532125145E+04  0.49667361952E+03  0.18364577752E+04  0.90219579571E+03 0.  0.
        -24    2    4    4    0    0  0.45735134917E+03 -0.52864212935E+03  0.68536345186E+03  0.98219400763E+03  0.79682180951E+02 0.  0.
         24    2    4    4    0    0  0.40369081899E+03 -0.72457038516E+03 -0.18868983233E+03  0.85426376755E+03  0.78703312130E+02 0.  0.
         13    1    3    3    0    0 -0.29038286828E+03  0.48757730189E+03 -0.40722708297E+02  0.56895709370E+03  0.00000000000E+00 0. -1.
        -13    1    3    3    0    0 -0.57065929988E+03  0.76563521263E+03 -0.55800100038E+01  0.95492431735E+03  0.00000000000E+00 0.  1.
          4    1    6    6  502    0  0.53318547516E+02 -0.99103786412E+02 -0.53931796175E+02  0.12479209362E+03  0.00000000000E+00 0. -1.
          1    1    5    5  503    0  0.38631036748E+03 -0.42505103268E+03  0.59819017698E+03  0.82929823841E+03  0.00000000000E+00 0. -1.
         -2    1    5    5    0  503  0.71040981693E+02 -0.10359109668E+03  0.87173274877E+02  0.15289576921E+03  0.00000000000E+00 0.  1.
         -3    1    6    6    0  502  0.35037227147E+03 -0.62546659875E+03 -0.13475803616E+03  0.72947167394E+03  0.00000000000E+00 0.  1.
<mgrwt>
<rscale>  0 0.33300218E+04</rscale>
<asrwt>0</asrwt>
<pdfrwt beam="1">  1        1 0.22384371E+00 0.33300218E+04</pdfrwt>
<pdfrwt beam="2">  1       -1 0.29313155E+00 0.33300218E+04</pdfrwt>
<totfact> 0.21286826E-01</totfact>
</mgrwt>
</event>
<event>
12    1  0.2048318E-007  0.2060761E+04  0.7818608E-02  0.8578728E-01
         -2   -1    0    0    0  501 -0.00000000000E+00  0.00000000000E+00  0.43038032527E+03  0.43038032527E+03  0.00000000000E+00 0. -1.
          2   -1    0    0  501    0  0.00000000000E+00 -0.00000000000E+00 -0.24668496112E+04  0.24668496112E+04  0.00000000000E+00 0.  1.
         23    2    1    2    0    0 -0.63145412392E+03 -0.20286388033E+01 -0.15858944267E+04  0.17098825998E+04  0.99493449393E+02 0.  0.
        254    2    1    2    0    0  0.63145412392E+03  0.20286388033E+01 -0.45057485921E+03  0.11873473366E+04  0.89890909891E+03 0.  0.
        -24    2    4    4    0    0  0.13099978962E+03  0.28630203818E+03 -0.50858295225E+03  0.60333028751E+03  0.78873408434E+02 0.  0.
         24    2    4    4    0    0  0.50045433430E+03 -0.28427339938E+03  0.58008093044E+02  0.58401704914E+03  0.80281184051E+02 0.  0.
         13    1    3    3    0    0 -0.42682665894E+03 -0.64893209127E+01 -0.11892656068E+04  0.12635568019E+04  0.00000000000E+00 0.  1.
        -13    1    3    3    0    0 -0.20462746498E+03  0.44606821094E+01 -0.39662881984E+03  0.44632579787E+03  0.00000000000E+00 0. -1.
          4    1    6    6  502    0  0.40741853762E+03 -0.24559725101E+03  0.19384677283E+02  0.47611305402E+03  0.00000000000E+00 0. -1.
          1    1    5    5  503    0  0.82709459630E+02  0.25091494378E+03 -0.42730906362E+03  0.50238650417E+03  0.00000000000E+00 0. -1.
         -2    1    5    5    0  503  0.48290329991E+02  0.35387094399E+02 -0.81273888637E+02  0.10094378334E+03  0.00000000000E+00 0.  1.
         -3    1    6    6    0  502  0.93035796680E+02 -0.38676148370E+02  0.38623415761E+02  0.10790399511E+03  0.00000000000E+00 0.  1.
<mgrwt>
<rscale>  0 0.20607606E+04</rscale>
<asrwt>0</asrwt>
<pdfrwt beam="1">  1        2 0.37951533E+00 0.20607606E+04</pdfrwt>
<pdfrwt beam="2">  1       -2 0.66212357E-01 0.20607606E+04</pdfrwt>
<totfact> 0.70588725E+00</totfact>
</mgrwt>
</event>
<event>
12    1  0.2048318E-007  0.1896962E+04  0.7818608E-02  0.8656370E-01
         -1   -1    0    0    0  501 -0.00000000000E+00  0.00000000000E+00  0.78394533101E+03  0.78394533101E+03  0.00000000000E+00 0.  1.
          1   -1    0    0  501    0  0.00000000000E+00 -0.00000000000E+00 -0.11475496507E+04  0.11475496507E+04  0.00000000000E+00 0. -1.
         23    2    1    2    0    0  0.70713919387E+03 -0.28434144562E+02  0.48900638091E+02  0.71526203516E+03  0.91401129378E+02 0.  0.
        254    2    1    2    0    0 -0.70713919387E+03  0.28434144562E+02 -0.41250495779E+03  0.12162329466E+04  0.89900383760E+03 0.  0.
        -24    2    4    4    0    0  0.20455638733E+02  0.33305557444E+03 -0.19296994076E+03  0.39353966994E+03  0.79319763974E+02 0.  0.
         24    2    4    4    0    0 -0.72759483260E+03 -0.30462142988E+03 -0.21953501703E+03  0.82269327662E+03  0.80250531011E+02 0.  0.
         13    1    3    3    0    0  0.24192374053E+03 -0.53985646207E+01 -0.26434971459E+02  0.24342359879E+03  0.00000000000E+00 0. -1.
        -13    1    3    3    0    0  0.46521545333E+03 -0.23035579941E+02  0.75335609550E+02  0.47183843636E+03  0.00000000000E+00 0.  1.
          2    1    6    6  502    0 -0.62778078134E+03 -0.29160243570E+03 -0.19221540214E+03  0.71839226802E+03  0.00000000000E+00 0. -1.
          3    1    5    5  503    0 -0.18576985353E+02  0.22446955446E+03 -0.14898498790E+03  0.27005223918E+03  0.00000000000E+00 0. -1.
         -4    1    5    5    0  503  0.39032624086E+02  0.10858601998E+03 -0.43984952858E+02  0.12348743076E+03  0.00000000000E+00 0.  1.
         -3    1    6    6    0  502 -0.99814051258E+02 -0.13018994181E+02 -0.27319614892E+02  0.10430100860E+03  0.00000000000E+00 0.  1.
<mgrwt>
<rscale>  0 0.18969620E+04</rscale>
<asrwt>0</asrwt>
<pdfrwt beam="1">  1        1 0.17654610E+00 0.18969620E+04</pdfrwt>
<pdfrwt beam="2">  1       -1 0.12060697E+00 0.18969620E+04</pdfrwt>
<totfact> 0.66851884E+00</totfact>
</mgrwt>
</event>
<event>
12    1  0.2048318E-007  0.1579366E+04  0.7818608E-02  0.8833325E-01
         -2   -1    0    0    0  501 -0.00000000000E+00  0.00000000000E+00  0.14729674691E+03  0.14729674691E+03  0.00000000000E+00 0.  1.
          2   -1    0    0  501    0  0.00000000000E+00 -0.00000000000E+00 -0.42336263523E+04  0.42336263523E+04  0.00000000000E+00 0. -1.
         23    2    1    2    0    0  0.24432516463E+03  0.36928701537E+03 -0.58716183285E+03  0.74105350591E+03  0.91288525371E+02 0.  0.
        254    2    1    2    0    0 -0.24432516463E+03 -0.36928701537E+03 -0.34991677725E+04  0.36398695933E+04  0.89911504833E+03 0.  0.
        -24    2    4    4    0    0 -0.32997596883E+03 -0.58440283398E+03 -0.17916905319E+04  0.19149342218E+04  0.80045608533E+02 0.  0.
         24    2    4    4    0    0  0.85650804198E+02  0.21511581861E+03 -0.17074772406E+04  0.17249353714E+04  0.79452078841E+02 0.  0.
         13    1    3    3    0    0  0.16568157538E+03  0.17669993904E+03 -0.34914588903E+03  0.42494247223E+03  0.00000000000E+00 0.  1.
        -13    1    3    3    0    0  0.78643589257E+02  0.19258707633E+03 -0.23801594382E+03  0.31611103368E+03  0.00000000000E+00 0. -1.
          2    1    6    6  502    0 -0.88901536731E+01  0.76270787758E+02 -0.54820031875E+03  0.55355203674E+03  0.00000000000E+00 0. -1.
          3    1    5    5  503    0 -0.16064182095E+01 -0.24685189598E+02 -0.10093536791E+03  0.10392250795E+03  0.00000000000E+00 0. -1.
         -4    1    5    5    0  503 -0.32836955062E+03 -0.55971764438E+03 -0.16907551640E+04  0.18110117139E+04  0.00000000000E+00 0.  1.
         -1    1    6    6    0  502  0.94540957871E+02  0.13884503085E+03 -0.11592769218E+04  0.11713833347E+04  0.00000000000E+00 0.  1.
<mgrwt>
<rscale>  0 0.15793662E+04</rscale>
<asrwt>0</asrwt>
<pdfrwt beam="1">  1        2 0.65132717E+00 0.15793662E+04</pdfrwt>
<pdfrwt beam="2">  1       -2 0.22661037E-01 0.15793662E+04</pdfrwt>
<totfact> 0.36672380E+00</totfact>
</mgrwt>
</event>
<event>
12    1  0.2048318E-007  0.2744968E+04  0.7818608E-02  0.8320560E-01
         -2   -1    0    0    0  501 -0.00000000000E+00  0.00000000000E+00  0.91696473419E+03  0.91696473419E+03  0.00000000000E+00 0.  1.
          2   -1    0    0  501    0  0.00000000000E+00 -0.00000000000E+00 -0.20542905893E+04  0.20542905893E+04  0.00000000000E+00 0. -1.
         23    2    1    2    0    0 -0.46964929129E+03 -0.10829630980E+04 -0.85873929272E+03  0.14612586724E+04  0.66814717661E+02 0.  0.
        254    2    1    2    0    0  0.46964929129E+03  0.10829630980E+04 -0.27858656237E+03  0.15099966511E+04  0.89949979714E+03 0.  0.
        -24    2    4    4    0    0  0.90013074192E+02  0.77996027033E+03 -0.53629680386E+03  0.95417521342E+03  0.79973115897E+02 0.  0.
         24    2    4    4    0    0  0.37963621710E+03  0.30300282765E+03  0.25771024149E+03  0.55582143763E+03  0.81169766940E+02 0.  0.
         11    1    3    3    0    0 -0.99141897562E+02 -0.23126260468E+03 -0.15001362159E+03  0.29294298906E+03  0.00000000000E+00 0. -1.
        -11    1    3    3    0    0 -0.37050739373E+03 -0.85170049330E+03 -0.70872567113E+03  0.11683156834E+04  0.00000000000E+00 0.  1.
          4    1    6    6  502    0  0.34588697177E+03  0.28001323905E+03  0.20727070244E+03  0.49092398125E+03  0.00000000000E+00 0. -1.
          1    1    5    5  503    0  0.85892983915E+02  0.41956180616E+03 -0.27403146977E+03  0.50843186397E+03  0.00000000000E+00 0. -1.
         -2    1    5    5    0  503  0.41200902771E+01  0.36039846417E+03 -0.26226533408E+03  0.44574334945E+03  0.00000000000E+00 0.  1.
         -3    1    6    6    0  502  0.33749245326E+02  0.22989588599E+02  0.50439539049E+02  0.64897456371E+02  0.00000000000E+00 0.  1.
<mgrwt>
<rscale>  0 0.27449678E+04</rscale>
<asrwt>0</asrwt>
<pdfrwt beam="1">  1        2 0.31604471E+00 0.27449678E+04</pdfrwt>
<pdfrwt beam="2">  1       -2 0.14107150E+00 0.27449678E+04</pdfrwt>
<totfact> 0.19179388E+00</totfact>
</mgrwt>
</event>
<event>
12    1  0.2048318E-007  0.1453908E+04  0.7818608E-02  0.8915696E-01
         -2   -1    0    0    0  501 -0.00000000000E+00  0.00000000000E+00  0.19871536303E+03  0.19871536303E+03  0.00000000000E+00 0.  1.
          2   -1    0    0  501    0  0.00000000000E+00 -0.00000000000E+00 -0.26593924284E+04  0.26593924284E+04  0.00000000000E+00 0. -1.
         23    2    1    2    0    0 -0.38010902235E+03  0.10017405697E+02 -0.34162697616E+03  0.51920223528E+03  0.90987652921E+02 0.  0.
        254    2    1    2    0    0  0.38010902235E+03 -0.10017405697E+02 -0.21190500892E+04  0.23389055561E+04  0.91406930958E+03 0.  0.
        -24    2    4    4    0    0  0.10943455195E+03 -0.11295392061E+03 -0.20119085608E+04  0.20196132412E+04  0.79542929128E+02 0.  0.
         24    2    4    4    0    0  0.27067447041E+03  0.10293651491E+03 -0.10714152834E+03  0.31929231490E+03  0.81287638847E+02 0.  0.
         11    1    3    3    0    0 -0.14363598896E+03  0.48011689358E+02 -0.12965768149E+03  0.19936783594E+03  0.00000000000E+00 0. -1.
        -11    1    3    3    0    0 -0.23647303339E+03 -0.37994283662E+02 -0.21196929468E+03  0.31983439934E+03  0.00000000000E+00 0.  1.
          4    1    6    6  502    0  0.13588512652E+03  0.89444614798E+02 -0.37374731579E+02  0.16691907407E+03  0.00000000000E+00 0. -1.
          3    1    5    5  503    0  0.69103733387E+02 -0.11192187523E+03 -0.13225029475E+04  0.13290281706E+04  0.00000000000E+00 0. -1.
         -4    1    5    5    0  503  0.40330818559E+02 -0.10320453841E+01 -0.68940561329E+03  0.69058507056E+03  0.00000000000E+00 0.  1.
         -3    1    6    6    0  502  0.13478934389E+03  0.13491900116E+02 -0.69766796757E+02  0.15237324084E+03  0.00000000000E+00 0.  1.
<mgrwt>
<rscale>  0 0.14539080E+04</rscale>
<asrwt>0</asrwt>
<pdfrwt beam="1">  1        2 0.40913727E+00 0.14539080E+04</pdfrwt>
<pdfrwt beam="2">  1       -2 0.30571597E-01 0.14539080E+04</pdfrwt>
<totfact> 0.27062549E+01</totfact>
</mgrwt>
</event>
<event>
12    1  0.2048318E-007  0.1592799E+04  0.7818608E-02  0.8824984E-01
         -2   -1    0    0    0  501 -0.00000000000E+00  0.00000000000E+00  0.13150983644E+04  0.13150983644E+04  0.00000000000E+00 0.  1.
          2   -1    0    0  501    0  0.00000000000E+00 -0.00000000000E+00 -0.48228470248E+03  0.48228470248E+03  0.00000000000E+00 0. -1.
         23    2    1    2    0    0  0.82037685453E+00 -0.50169687096E+03  0.67838478466E+02  0.51448244690E+03  0.91595336431E+02 0.  0.
        254    2    1    2    0    0 -0.82037685453E+00  0.50169687096E+03  0.76497518350E+03  0.12829006200E+04  0.89941455744E+03 0.  0.
        -24    2    4    4    0    0 -0.33953223773E+03  0.39140978836E+03  0.75287403895E+03  0.91787054080E+03  0.84754045738E+02 0.  0.
         24    2    4    4    0    0  0.33871186087E+03  0.11028708260E+03  0.12101144556E+02  0.36503007922E+03  0.78813423694E+02 0.  0.
         13    1    3    3    0    0 -0.25789132656E+02 -0.37605192418E+03  0.20118126225E+02  0.37747167846E+03  0.00000000000E+00 0. -1.
        -13    1    3    3    0    0  0.26609509511E+02 -0.12564494678E+03  0.47720352241E+02  0.13701076843E+03  0.00000000000E+00 0.  1.
          2    1    6    6  502    0  0.30035023332E+03  0.12213877275E+03  0.16404596422E+02  0.32464943131E+03  0.00000000000E+00 0. -1.
          1    1    5    5  503    0 -0.17613841139E+03  0.19591616566E+03  0.45619264391E+03  0.52680130248E+03  0.00000000000E+00 0. -1.
         -2    1    5    5    0  503 -0.16339382634E+03  0.19549362270E+03  0.29668139503E+03  0.39106923832E+03  0.00000000000E+00 0.  1.
         -1    1    6    6    0  502  0.38361627549E+02 -0.11851690156E+02 -0.43034518667E+01  0.40380647912E+02  0.00000000000E+00 0.  1.
<mgrwt>
<rscale>  0 0.15927986E+04</rscale>
<asrwt>0</asrwt>
<pdfrwt beam="1">  1        2 0.74197647E-01 0.15927986E+04</pdfrwt>
<pdfrwt beam="2">  1       -2 0.20232282E+00 0.15927986E+04</pdfrwt>
<totfact> 0.79043119E+00</totfact>
</mgrwt>
</event>
<event>
12    1  0.2048318E-007  0.2926670E+04  0.7818608E-02  0.8264986E-01
         -2   -1    0    0    0  501 -0.00000000000E+00  0.00000000000E+00  0.18874643242E+04  0.18874643242E+04  0.00000000000E+00 0.  1.
          2   -1    0    0  501    0  0.00000000000E+00 -0.00000000000E+00 -0.11345110908E+04  0.11345110908E+04  0.00000000000E+00 0. -1.
         23    2    1    2    0    0 -0.21327107734E+03 -0.12976215568E+04  0.49255839751E+03  0.14071764876E+04  0.90695286588E+02 0.  0.
        254    2    1    2    0    0  0.21327107734E+03  0.12976215568E+04  0.26039483586E+03  0.16147989274E+04  0.90025765649E+03 0.  0.
        -24    2    4    4    0    0  0.52719633382E+03  0.68768461395E+03 -0.16476366969E+02  0.87044233421E+03  0.80946178813E+02 0.  0.
         24    2    4    4    0    0 -0.31392525649E+03  0.60993694290E+03  0.27687120283E+03  0.74435659315E+03  0.82685753571E+02 0.  0.
         13    1    3    3    0    0 -0.16007382859E+03 -0.77802786714E+03  0.33010200262E+03  0.86018505264E+03  0.00000000000E+00 0.  1.
        -13    1    3    3    0    0 -0.53197248745E+02 -0.51959368970E+03  0.16245639489E+03  0.54699143493E+03  0.00000000000E+00 0. -1.
          4    1    6    6  502    0 -0.52554578764E+02  0.17994180512E+03  0.84763928619E+02  0.20573274064E+03  0.00000000000E+00 0. -1.
          3    1    5    5  503    0  0.77150622854E+02  0.14867917588E+03 -0.15865419986E+02  0.16825405641E+03  0.00000000000E+00 0. -1.
         -4    1    5    5    0  503  0.45004571097E+03  0.53900543807E+03 -0.61094698268E+00  0.70218827780E+03  0.00000000000E+00 0.  1.
         -3    1    6    6    0  502 -0.26137067772E+03  0.42999513778E+03  0.19210727421E+03  0.53862385251E+03  0.00000000000E+00 0.  1.
<mgrwt>
<rscale>  0 0.29266699E+04</rscale>
<asrwt>0</asrwt>
<pdfrwt beam="1">  1        2 0.17454017E+00 0.29266699E+04</pdfrwt>
<pdfrwt beam="2">  1       -2 0.29037913E+00 0.29266699E+04</pdfrwt>
<totfact> 0.65027966E-01</totfact>
</mgrwt>
</event>
<event>
12    1  0.2048318E-007  0.1270207E+04  0.7818608E-02  0.9053531E-01
          2   -1    0    0  501    0  0.00000000000E+00  0.00000000000E+00  0.12797277039E+04  0.12797277039E+04  0.00000000000E+00 0. -1.
         -2   -1    0    0    0  501 -0.00000000000E+00 -0.00000000000E+00 -0.31518936338E+03  0.31518936338E+03  0.00000000000E+00 0.  1.
         23    2    1    2    0    0 -0.13799249063E+03 -0.15081294318E+03 -0.39626924917E+02  0.23002259514E+03  0.97742671312E+02 0.  0.
        254    2    1    2    0    0  0.13799249063E+03  0.15081294318E+03  0.10041652654E+04  0.13648944721E+04  0.90155563800E+03 0.  0.
        -24    2    4    4    0    0  0.74164848257E+02  0.42105608778E+03  0.98322296486E+03  0.10751560559E+04  0.80277594154E+02 0.  0.
         24    2    4    4    0    0  0.63827642373E+02 -0.27024314460E+03  0.20942300534E+02  0.28973841619E+03  0.80027774767E+02 0.  0.
         11    1    3    3    0    0 -0.11709747097E+03 -0.15089756023E+03 -0.60631598504E+02  0.20039481563E+03  0.00000000000E+00 0.  1.
        -11    1    3    3    0    0 -0.20895019658E+02  0.84617049829E-01  0.21004673587E+02  0.29627779516E+02  0.00000000000E+00 0. -1.
          2    1    6    6  502    0  0.59952114175E+02 -0.27425800024E+03  0.26349614478E+02  0.28196809903E+03  0.00000000000E+00 0. -1.
          1    1    5    5  503    0  0.27375788907E+02  0.30650227442E+03  0.75991017868E+03  0.81985154614E+03  0.00000000000E+00 0. -1.
         -2    1    5    5    0  503  0.46789059350E+02  0.11455381336E+03  0.22331278618E+03  0.25530450976E+03  0.00000000000E+00 0.  1.
         -1    1    6    6    0  502  0.38755281980E+01  0.40148556443E+01 -0.54073139434E+01  0.77703171583E+01  0.00000000000E+00 0.  1.
<mgrwt>
<rscale>  0 0.12702072E+04</rscale>
<asrwt>0</asrwt>
<pdfrwt beam="1">  1        2 0.19688118E+00 0.12702072E+04</pdfrwt>
<pdfrwt beam="2">  1       -2 0.48490672E-01 0.12702072E+04</pdfrwt>
<totfact> 0.67191912E+01</totfact>
</mgrwt>
</event>
<event>
12    1  0.2048318E-007  0.2850888E+04  0.7818608E-02  0.8287641E-01
          2   -1    0    0  501    0  0.00000000000E+00  0.00000000000E+00  0.46207658730E+04  0.46207658730E+04  0.00000000000E+00 0. -1.
         -2   -1    0    0    0  501 -0.00000000000E+00 -0.00000000000E+00 -0.43973031793E+03  0.43973031793E+03  0.00000000000E+00 0.  1.
         23    2    1    2    0    0 -0.49834241208E+03  0.11529021921E+04  0.14376316144E+04  0.19110452411E+04  0.88207880844E+02 0.  0.
        254    2    1    2    0    0  0.49834241208E+03 -0.11529021921E+04  0.27434039406E+04  0.31494509498E+04  0.90291056023E+03 0.  0.
        -24    2    4    4    0    0 -0.45015263719E+02  0.60594451556E+02  0.11231061024E+02  0.10976373381E+03  0.78891564826E+02 0.  0.
         24    2    4    4    0    0  0.54335767580E+03 -0.12134966437E+04  0.27321728796E+04  0.30396872160E+04  0.84368591688E+02 0.  0.
         13    1    3    3    0    0 -0.32478564805E+03  0.82521498448E+03  0.10548984895E+04  0.13781423406E+04  0.00000000000E+00 0. -1.
        -13    1    3    3    0    0 -0.17355676402E+03  0.32768720766E+03  0.38273312493E+03  0.53290290046E+03  0.00000000000E+00 0.  1.
          2    1    6    6  502    0  0.70049834608E+02 -0.15914898007E+03  0.29634274343E+03  0.34359045209E+03  0.00000000000E+00 0. -1.
          1    1    5    5  503    0 -0.44802536068E+01  0.36665826006E+02  0.40119801400E+02  0.54534887306E+02  0.00000000000E+00 0. -1.
         -2    1    5    5    0  503 -0.40535010112E+02  0.23928625549E+02 -0.28888740375E+02  0.55228846502E+02  0.00000000000E+00 0.  1.
         -1    1    6    6    0  502  0.47330784119E+03 -0.10543476636E+04  0.24358301361E+04  0.26960967639E+04  0.00000000000E+00 0.  1.
<mgrwt>
<rscale>  0 0.28508882E+04</rscale>
<asrwt>0</asrwt>
<pdfrwt beam="1">  1        2 0.71088702E+00 0.28508882E+04</pdfrwt>
<pdfrwt beam="2">  1       -2 0.67650821E-01 0.28508882E+04</pdfrwt>
<totfact> 0.16159554E-01</totfact>
</mgrwt>
</event>
<event>
12    1  0.2048318E-007  0.1750862E+04  0.7818608E-02  0.8732876E-01
         -1   -1    0    0    0  501 -0.00000000000E+00  0.00000000000E+00  0.13492887975E+04  0.13492887975E+04  0.00000000000E+00 0.  1.
          1   -1    0    0  501    0  0.00000000000E+00 -0.00000000000E+00 -0.56798748482E+03  0.56798748482E+03  0.00000000000E+00 0. -1.
         23    2    1    2    0    0  0.57914051567E+03  0.26530724202E+03  0.22195420846E+03  0.68086952219E+03  0.92346987121E+02 0.  0.
        254    2    1    2    0    0 -0.57914051567E+03 -0.26530724202E+03  0.55934710423E+03  0.12364067601E+04  0.90002267969E+03 0.  0.
        -24    2    4    4    0    0 -0.31805978497E+03 -0.48092320511E+03  0.52569755889E+01  0.58224748130E+03  0.80841435270E+02 0.  0.
         24    2    4    4    0    0 -0.26108073070E+03  0.21561596309E+03  0.55409012864E+03  0.65415927885E+03  0.79089189944E+02 0.  0.
         11    1    3    3    0    0  0.29210642677E+03  0.17759538108E+03  0.14270188536E+03  0.37044582873E+03  0.00000000000E+00 0.  1.
        -11    1    3    3    0    0  0.28703408890E+03  0.87711860937E+02  0.79252323108E+02  0.31042369345E+03  0.00000000000E+00 0. -1.
          4    1    6    6  502    0 -0.26344491245E+03  0.19810047611E+03  0.53244808053E+03  0.62621719793E+03  0.00000000000E+00 0. -1.
          3    1    5    5  503    0 -0.22601262969E+03 -0.38458881070E+03 -0.20441991630E+02  0.44655138239E+03  0.00000000000E+00 0. -1.
         -4    1    5    5    0  503 -0.92047155286E+02 -0.96334394407E+02  0.25698967219E+02  0.13569609891E+03  0.00000000000E+00 0.  1.
         -3    1    6    6    0  502  0.23641817469E+01  0.17515486977E+02  0.21642048110E+02  0.27942080913E+02  0.00000000000E+00 0.  1.
<mgrwt>
<rscale>  0 0.17508617E+04</rscale>
<asrwt>0</asrwt>
<pdfrwt beam="1">  1        1 0.87382690E-01 0.17508617E+04</pdfrwt>
<pdfrwt beam="2">  1       -1 0.20758289E+00 0.17508617E+04</pdfrwt>
<totfact> 0.46874536E+00</totfact>
</mgrwt>
</event>
<event>
12    1  0.2048318E-007  0.1183867E+04  0.7818608E-02  0.9127096E-01
          2   -1    0    0  501    0  0.00000000000E+00  0.00000000000E+00  0.43512955303E+03  0.43512955303E+03  0.00000000000E+00 0. -1.
         -2   -1    0    0    0  501 -0.00000000000E+00 -0.00000000000E+00 -0.80524350984E+03  0.80524350984E+03  0.00000000000E+00 0.  1.
         23    2    1    2    0    0 -0.68587133033E+01  0.14968623758E+03 -0.27171739901E+03  0.32398502091E+03  0.93182279332E+02 0.  0.
        254    2    1    2    0    0  0.68587133033E+01 -0.14968623758E+03 -0.98396557803E+02  0.91638804196E+03  0.89868356455E+03 0.  0.
        -24    2    4    4    0    0  0.73037023647E+02  0.21638270202E+03  0.28672161154E+03  0.37501888061E+03  0.79208571111E+02 0.  0.
         24    2    4    4    0    0 -0.66178310343E+02 -0.36606893960E+03 -0.38511816934E+03  0.54136916134E+03  0.79865682212E+02 0.  0.
         13    1    3    3    0    0 -0.38713654287E+02  0.22188782492E+02 -0.78862831279E+02  0.90611452113E+02  0.00000000000E+00 0. -1.
        -13    1    3    3    0    0  0.31854940984E+02  0.12749745509E+03 -0.19285456773E+03  0.23337356880E+03  0.00000000000E+00 0.  1.
          2    1    6    6  502    0 -0.23518847725E+02 -0.31609729370E+02 -0.19309712941E+02  0.43876829910E+02  0.00000000000E+00 0. -1.
          1    1    5    5  503    0  0.45523387938E+02  0.33337734151E+02  0.73506540221E+02  0.92666039211E+02  0.00000000000E+00 0. -1.
         -2    1    5    5    0  503  0.27513635708E+02  0.18304496787E+03  0.21321507132E+03  0.28235284140E+03  0.00000000000E+00 0.  1.
         -1    1    6    6    0  502 -0.42659462618E+02 -0.33445921023E+03 -0.36580845640E+03  0.49749233143E+03  0.00000000000E+00 0.  1.
<mgrwt>
<rscale>  0 0.11838670E+04</rscale>
<asrwt>0</asrwt>
<pdfrwt beam="1">  1        2 0.66943009E-01 0.11838670E+04</pdfrwt>
<pdfrwt beam="2">  1       -2 0.12388362E+00 0.11838670E+04</pdfrwt>
<totfact> 0.34992183E+01</totfact>
</mgrwt>
</event>
<event>
12    1  0.2048318E-007  0.2175089E+04  0.7818608E-02  0.8528869E-01
         -2   -1    0    0    0  501 -0.00000000000E+00  0.00000000000E+00  0.47583292143E+03  0.47583292143E+03  0.00000000000E+00 0.  1.
          2   -1    0    0  501    0  0.00000000000E+00 -0.00000000000E+00 -0.24856466827E+04  0.24856466827E+04  0.00000000000E+00 0. -1.
         23    2    1    2    0    0 -0.38514618161E+03 -0.54373663760E+03 -0.16538216336E+04  0.17856244112E+04  0.96651073110E+02 0.  0.
        254    2    1    2    0    0  0.38514618161E+03  0.54373663760E+03 -0.35599212767E+03  0.11758551929E+04  0.90106488525E+03 0.  0.
        -24    2    4    4    0    0  0.11340958911E+03  0.97118058420E+01 -0.52908297247E+03  0.54713417453E+03  0.80442271880E+02 0.  0.
         24    2    4    4    0    0  0.27173659249E+03  0.53402483176E+03  0.17309084480E+03  0.62872101837E+03  0.79412730387E+02 0.  0.
         11    1    3    3    0    0 -0.24957884418E+03 -0.27083524818E+03 -0.93070861936E+03  0.10009295007E+04  0.00000000000E+00 0. -1.
        -11    1    3    3    0    0 -0.13556733743E+03 -0.27290138942E+03 -0.72311301423E+03  0.78469491057E+03  0.00000000000E+00 0.  1.
          4    1    6    6  502    0  0.24106935287E+03  0.47287174239E+03  0.12557731877E+03  0.54542807100E+03  0.00000000000E+00 0. -1.
          1    1    5    5  503    0 -0.10931085853E+02 -0.45935048159E+01 -0.23926676931E+02  0.26703460326E+02  0.00000000000E+00 0. -1.
         -2    1    5    5    0  503  0.12434067497E+03  0.14305310658E+02 -0.50515629554E+03  0.52043071421E+03  0.00000000000E+00 0.  1.
         -3    1    6    6    0  502  0.30667239619E+02  0.61153089372E+02  0.47513526028E+02  0.83292947368E+02  0.00000000000E+00 0.  1.
<mgrwt>
<rscale>  0 0.21750885E+04</rscale>
<asrwt>0</asrwt>
<pdfrwt beam="1">  1        2 0.38240719E+00 0.21750885E+04</pdfrwt>
<pdfrwt beam="2">  1       -2 0.73205064E-01 0.21750885E+04</pdfrwt>
<totfact> 0.54763043E+00</totfact>
</mgrwt>
</event>
<event>
12    1  0.2048318E-007  0.1568072E+04  0.7818608E-02  0.8840406E-01
          2   -1    0    0  501    0  0.00000000000E+00  0.00000000000E+00  0.60877742355E+03  0.60877742355E+03  0.00000000000E+00 0. -1.
         -2   -1    0    0    0  501 -0.00000000000E+00 -0.00000000000E+00 -0.10097495143E+04  0.10097495143E+04  0.00000000000E+00 0.  1.
         23    2    1    2    0    0 -0.40320274268E+03  0.32000858777E+03 -0.43031496847E+02  0.52472797659E+03  0.92248532441E+02 0.  0.
        254    2    1    2    0    0  0.40320274268E+03 -0.32000858777E+03 -0.35794059390E+03  0.10937989613E+04  0.89626823604E+03 0.  0.
        -24    2    4    4    0    0  0.24911295047E+03  0.27554893961E+03 -0.33753327709E+01  0.37947541660E+03  0.77496572314E+02 0.  0.
         24    2    4    4    0    0  0.15408979221E+03 -0.59555752738E+03 -0.35456526112E+03  0.71432354466E+03  0.78161176870E+02 0.  0.
         13    1    3    3    0    0 -0.28719741267E+03  0.27751959141E+03 -0.29939122085E+02  0.40049447998E+03  0.00000000000E+00 0. -1.
        -13    1    3    3    0    0 -0.11600533001E+03  0.42488996360E+02 -0.13092374762E+02  0.12423349660E+03  0.00000000000E+00 0.  1.
          4    1    6    6  502    0  0.59483004469E+02 -0.10700106829E+03 -0.73936796877E+02  0.14301785332E+03  0.00000000000E+00 0. -1.
          1    1    5    5  503    0  0.61259197314E+02  0.10274607046E+03 -0.28581251583E+02  0.12298915478E+03  0.00000000000E+00 0. -1.
         -2    1    5    5    0  503  0.18785375315E+03  0.17280286915E+03  0.25205918812E+02  0.25648626182E+03  0.00000000000E+00 0.  1.
         -3    1    6    6    0  502  0.94606787745E+02 -0.48855645910E+03 -0.28062846425E+03  0.57130569134E+03  0.00000000000E+00 0.  1.
<mgrwt>
<rscale>  0 0.15680723E+04</rscale>
<asrwt>0</asrwt>
<pdfrwt beam="1">  1        2 0.93658066E-01 0.15680723E+04</pdfrwt>
<pdfrwt beam="2">  1       -2 0.15534608E+00 0.15680723E+04</pdfrwt>
<totfact> 0.12772259E+01</totfact>
</mgrwt>
</event>
<event>
12    1  0.2048318E-007  0.2518941E+04  0.7818608E-02  0.8396269E-01
         -2   -1    0    0    0  501 -0.00000000000E+00  0.00000000000E+00  0.78368431619E+03  0.78368431619E+03  0.00000000000E+00 0. -1.
          2   -1    0    0  501    0  0.00000000000E+00 -0.00000000000E+00 -0.20241128009E+04  0.20241128009E+04  0.00000000000E+00 0.  1.
         23    2    1    2    0    0  0.56301220548E+03  0.80769175680E+03 -0.17889853521E+01  0.98839911683E+03  0.87068341880E+02 0.  0.
        254    2    1    2    0    0 -0.56301220548E+03 -0.80769175680E+03 -0.12386394994E+04  0.18193980003E+04  0.89812724962E+03 0.  0.
        -24    2    4    4    0    0 -0.48015602970E+03 -0.89645972359E+03 -0.64191922705E+03  0.12052313756E+04  0.79577169299E+02 0.  0.
         24    2    4    4    0    0 -0.82856175787E+02  0.88767966787E+02 -0.59672027234E+03  0.61416662467E+03  0.79879043823E+02 0.  0.
         11    1    3    3    0    0  0.71302580347E+02  0.15633508184E+03  0.11056353667E+02  0.17218292231E+03  0.00000000000E+00 0.  1.
        -11    1    3    3    0    0  0.49170962514E+03  0.65135667496E+03 -0.12845339019E+02  0.81621619452E+03  0.00000000000E+00 0. -1.
          4    1    6    6  502    0 -0.43846894281E+02 -0.44529078728E+01 -0.16602452171E+03  0.17177462075E+03  0.00000000000E+00 0. -1.
          3    1    5    5  503    0 -0.36751705613E+03 -0.71317942400E+03 -0.46988444961E+03  0.92977689439E+03  0.00000000000E+00 0. -1.
         -4    1    5    5    0  503 -0.11263897357E+03 -0.18328029959E+03 -0.17203477745E+03  0.27545448124E+03  0.00000000000E+00 0.  1.
         -3    1    6    6    0  502 -0.39009281507E+02  0.93220874660E+02 -0.43069575063E+03  0.44239200392E+03  0.00000000000E+00 0.  1.
<mgrwt>
<rscale>  0 0.25189406E+04</rscale>
<asrwt>0</asrwt>
<pdfrwt beam="1">  1        2 0.31140197E+00 0.25189406E+04</pdfrwt>
<pdfrwt beam="2">  1       -2 0.12056682E+00 0.25189406E+04</pdfrwt>
<totfact> 0.30273027E+00</totfact>
</mgrwt>
</event>
<event>
12    1  0.2048318E-007  0.1938786E+04  0.7818608E-02  0.8635787E-01
          1   -1    0    0  501    0  0.00000000000E+00  0.00000000000E+00  0.24911571224E+04  0.24911571224E+04  0.00000000000E+00 0. -1.
         -1   -1    0    0    0  501 -0.00000000000E+00 -0.00000000000E+00 -0.37722340952E+03  0.37722340952E+03  0.00000000000E+00 0.  1.
         23    2    1    2    0    0  0.61594140060E+03 -0.35495119162E+03  0.12215341415E+04  0.14162715422E+04  0.91133227706E+02 0.  0.
        254    2    1    2    0    0 -0.61594140060E+03  0.35495119162E+03  0.89239957140E+03  0.14521089897E+04  0.89825907479E+03 0.  0.
        -24    2    4    4    0    0 -0.78057327316E+03  0.33394849287E+03  0.93259936446E+03  0.12637362538E+04  0.80445720154E+02 0.  0.
         24    2    4    4    0    0  0.16463187256E+03  0.21002698746E+02 -0.40199793059E+02  0.18837273588E+03  0.79520421566E+02 0.  0.
         11    1    3    3    0    0  0.15129295780E+03 -0.46701741326E+02  0.24348490946E+03  0.29044020530E+03  0.00000000000E+00 0.  1.
        -11    1    3    3    0    0  0.46464844280E+03 -0.30824945029E+03  0.97804923201E+03  0.11258313369E+04  0.00000000000E+00 0. -1.
          2    1    6    6  502    0  0.13963835691E+03 -0.13616348195E+02 -0.22246436691E+02  0.14205343925E+03  0.00000000000E+00 0. -1.
          1    1    5    5  503    0 -0.71974998016E+03  0.29403907200E+03  0.82288555315E+03  0.11320952448E+04  0.00000000000E+00 0. -1.
         -2    1    5    5    0  503 -0.60823292996E+02  0.39909420877E+02  0.10971381131E+03  0.13164100895E+03  0.00000000000E+00 0.  1.
         -3    1    6    6    0  502  0.24993515652E+02  0.34619046941E+02 -0.17953356368E+02  0.46319296633E+02  0.00000000000E+00 0.  1.
<mgrwt>
<rscale>  0 0.19387860E+04</rscale>
<asrwt>0</asrwt>
<pdfrwt beam="1">  1        1 0.38325493E+00 0.19387860E+04</pdfrwt>
<pdfrwt beam="2">  1       -1 0.58034372E-01 0.19387860E+04</pdfrwt>
<totfact> 0.38566974E+00</totfact>
</mgrwt>
</event>
<event>
12    1  0.2048318E-007  0.1437686E+04  0.7818608E-02  0.8926983E-01
         -2   -1    0    0    0  501 -0.00000000000E+00  0.00000000000E+00  0.15872267024E+04  0.15872267024E+04  0.00000000000E+00 0. -1.
          2   -1    0    0  501    0  0.00000000000E+00 -0.00000000000E+00 -0.32555842216E+03  0.32555842216E+03  0.00000000000E+00 0.  1.
         23    2    1    2    0    0  0.27770745702E+03 -0.31893302520E+03  0.46778133467E+03  0.63931007774E+03  0.10515841473E+03 0.  0.
        254    2    1    2    0    0 -0.27770745702E+03  0.31893302520E+03  0.79388694554E+03  0.12734750468E+04  0.90146686365E+03 0.  0.
        -24    2    4    4    0    0 -0.44119299397E+03 -0.99586054857E+02  0.64811388338E+03  0.79435769210E+03  0.79899292340E+02 0.  0.
         24    2    4    4    0    0  0.16348553695E+03  0.41851908006E+03  0.14577306216E+03  0.47911735469E+03  0.80111876438E+02 0.  0.
         11    1    3    3    0    0  0.47913051032E+02 -0.10474890158E+03  0.79933840421E+02  0.14020489180E+03  0.00000000000E+00 0.  1.
        -11    1    3    3    0    0  0.22979440599E+03 -0.21418412362E+03  0.38784749425E+03  0.49910518594E+03  0.00000000000E+00 0. -1.
          4    1    6    6  502    0  0.51031456197E+02  0.87934637122E+02  0.25581375607E+01  0.10170178954E+03  0.00000000000E+00 0. -1.
          3    1    5    5  503    0 -0.22917185369E+03 -0.14374843099E+02  0.29651492947E+03  0.37502996951E+03  0.00000000000E+00 0. -1.
         -4    1    5    5    0  503 -0.21202114029E+03 -0.85211211758E+02  0.35159895391E+03  0.41932772259E+03  0.00000000000E+00 0.  1.
         -3    1    6    6    0  502  0.11245408076E+03  0.33058444294E+03  0.14321492460E+03  0.37741556515E+03  0.00000000000E+00 0.  1.
<mgrwt>
<rscale>  0 0.14376857E+04</rscale>
<asrwt>0</asrwt>
<pdfrwt beam="1">  1        2 0.50085912E-01 0.14376857E+04</pdfrwt>
<pdfrwt beam="2">  1       -2 0.24418872E+00 0.14376857E+04</pdfrwt>
<totfact> 0.67920598E+00</totfact>
</mgrwt>
</event>
<event>
12    1  0.2048318E-007  0.1991801E+04  0.7818608E-02  0.8610464E-01
         -2   -1    0    0    0  501 -0.00000000000E+00  0.00000000000E+00  0.27106288931E+03  0.27106288931E+03  0.00000000000E+00 0. -1.
          2   -1    0    0  501    0  0.00000000000E+00 -0.00000000000E+00 -0.36589946024E+04  0.36589946024E+04  0.00000000000E+00 0.  1.
         23    2    1    2    0    0 -0.61966216608E+03  0.48913472088E+03 -0.14331522907E+04  0.16387264678E+04  0.90911895541E+02 0.  0.
        254    2    1    2    0    0  0.61966216608E+03 -0.48913472088E+03 -0.19547794223E+04  0.22913310238E+04  0.89766435574E+03 0.  0.
        -24    2    4    4    0    0 -0.20679720435E+02  0.54907856983E+02  0.52969633428E+02  0.11335192143E+03  0.81242553077E+02 0.  0.
         24    2    4    4    0    0  0.64034188652E+03 -0.54404257786E+03 -0.20077490558E+04  0.21779791024E+04  0.80725717385E+02 0.  0.
         13    1    3    3    0    0 -0.37092554556E+03  0.27272316065E+03 -0.74718368055E+03  0.87763724579E+03  0.00000000000E+00 0.  1.
        -13    1    3    3    0    0 -0.24873662052E+03  0.21641156023E+03 -0.68596861016E+03  0.76108922205E+03  0.00000000000E+00 0. -1.
          2    1    6    6  502    0  0.54566775171E+03 -0.42886329017E+03 -0.16108324946E+04  0.17539835640E+04  0.00000000000E+00 0. -1.
          3    1    5    5  503    0 -0.44111583673E+02  0.40399698231E+02  0.60194678865E+02  0.84860867277E+02  0.00000000000E+00 0. -1.
         -4    1    5    5    0  503  0.23431863238E+02  0.14508158752E+02 -0.72250454367E+01  0.28491054153E+02  0.00000000000E+00 0.  1.
         -1    1    6    6    0  502  0.94674134808E+02 -0.11517928769E+03 -0.39691656113E+03  0.42399553844E+03  0.00000000000E+00 0.  1.
<mgrwt>
<rscale>  0 0.19918008E+04</rscale>
<asrwt>0</asrwt>
<pdfrwt beam="1">  1        2 0.56292217E+00 0.19918008E+04</pdfrwt>
<pdfrwt beam="2">  1       -2 0.41701989E-01 0.19918008E+04</pdfrwt>
<totfact> 0.31918622E+00</totfact>
</mgrwt>
</event>
<event>
12    1  0.2048318E-007  0.1823272E+04  0.7818608E-02  0.8694021E-01
         -1   -1    0    0    0  501 -0.00000000000E+00  0.00000000000E+00  0.50888796826E+03  0.50888796826E+03  0.00000000000E+00 0.  1.
          1   -1    0    0  501    0  0.00000000000E+00 -0.00000000000E+00 -0.16331291498E+04  0.16331291498E+04  0.00000000000E+00 0. -1.
         23    2    1    2    0    0 -0.39080251477E+03  0.39953962715E+03  0.40964008657E+02  0.56767481033E+03  0.90653852988E+02 0.  0.
        254    2    1    2    0    0  0.39080251477E+03 -0.39953962715E+03 -0.11652051902E+04  0.15743423077E+04  0.89916185828E+03 0.  0.
        -24    2    4    4    0    0 -0.19826110642E+03 -0.36103152036E+03 -0.71049291697E+03  0.82505295103E+03  0.79126240371E+02 0.  0.
         24    2    4    4    0    0  0.58906362120E+03 -0.38508106791E+02 -0.45471227319E+03  0.74928935666E+03  0.78692213784E+02 0.  0.
         13    1    3    3    0    0 -0.79356926967E+02  0.13323339489E+03  0.28729030527E+02  0.15771498523E+03  0.00000000000E+00 0.  1.
        -13    1    3    3    0    0 -0.31144558781E+03  0.26630623226E+03  0.12234978130E+02  0.40995982510E+03  0.00000000000E+00 0. -1.
          4    1    6    6  502    0  0.40350318060E+03 -0.41726690516E+02 -0.26900636079E+03  0.48674465133E+03  0.00000000000E+00 0. -1.
          3    1    5    5  503    0 -0.15285257510E+03 -0.33200381427E+03 -0.62216313011E+03  0.72157979661E+03  0.00000000000E+00 0. -1.
         -4    1    5    5    0  503 -0.45408531329E+02 -0.29027706090E+02 -0.88329786859E+02  0.10347315442E+03  0.00000000000E+00 0.  1.
         -3    1    6    6    0  502  0.18556044060E+03  0.32185837254E+01 -0.18570591240E+03  0.26254470533E+03  0.00000000000E+00 0.  1.
<mgrwt>
<rscale>  0 0.18232715E+04</rscale>
<asrwt>0</asrwt>
<pdfrwt beam="1">  1        1 0.25125063E+00 0.18232715E+04</pdfrwt>
<pdfrwt beam="2">  1       -1 0.78290458E-01 0.18232715E+04</pdfrwt>
<totfact> 0.81441214E+00</totfact>
</mgrwt>
</event>
<event>
12    1  0.2048318E-007  0.1695567E+04  0.7818608E-02  0.8763897E-01
          1   -1    0    0  501    0  0.00000000000E+00  0.00000000000E+00  0.15315318997E+04  0.15315318997E+04  0.00000000000E+00 0. -1.
         -1   -1    0    0    0  501 -0.00000000000E+00 -0.00000000000E+00 -0.46929262215E+03  0.46929262215E+03  0.00000000000E+00 0.  1.
         23    2    1    2    0    0 -0.25820987833E+03  0.51237008429E+03  0.60710820894E+03  0.84028069322E+03  0.91081400351E+02 0.  0.
        254    2    1    2    0    0  0.25820987833E+03 -0.51237008429E+03  0.45513106859E+03  0.11605438286E+04  0.90029008881E+03 0.  0.
        -24    2    4    4    0    0  0.14972882508E+03  0.18595691240E+03  0.36599272207E+03  0.44373277986E+03  0.77132437966E+02 0.  0.
         24    2    4    4    0    0  0.10848105325E+03 -0.69832699669E+03  0.89138346529E+02  0.71681104876E+03  0.80272670195E+02 0.  0.
         13    1    3    3    0    0 -0.12128318614E+03  0.33671616607E+03  0.36039220523E+03  0.50790740231E+03  0.00000000000E+00 0. -1.
        -13    1    3    3    0    0 -0.13692669219E+03  0.17565391822E+03  0.24671600372E+03  0.33237329091E+03  0.00000000000E+00 0.  1.
          4    1    6    6  502    0  0.28550246718E+02 -0.41934102875E+03  0.36809663308E+02  0.42192056870E+03  0.00000000000E+00 0. -1.
          3    1    5    5  503    0  0.15499777187E+03  0.18744222331E+03  0.36424207334E+03  0.43798537003E+03  0.00000000000E+00 0. -1.
         -4    1    5    5    0  503 -0.52689467959E+01 -0.14853109086E+01  0.17506487268E+01  0.57474098338E+01  0.00000000000E+00 0.  1.
         -1    1    6    6    0  502  0.79930806535E+02 -0.27898596794E+03  0.52328683221E+02  0.29489048006E+03  0.00000000000E+00 0.  1.
<mgrwt>
<rscale>  0 0.16955667E+04</rscale>
<asrwt>0</asrwt>
<pdfrwt beam="1">  1        1 0.23562029E+00 0.16955667E+04</pdfrwt>
<pdfrwt beam="2">  1       -1 0.72198866E-01 0.16955667E+04</pdfrwt>
<totfact> 0.11461650E+01</totfact>
</mgrwt>
</event>
<event>
12    1  0.2048318E-007  0.1548378E+04  0.7818608E-02  0.8852904E-01
         -1   -1    0    0    0  501 -0.00000000000E+00  0.00000000000E+00  0.26637507077E+03  0.26637507077E+03  0.00000000000E+00 0.  1.
          1   -1    0    0  501    0  0.00000000000E+00 -0.00000000000E+00 -0.22500928662E+04  0.22500928662E+04  0.00000000000E+00 0. -1.
         23    2    1    2    0    0  0.25627748660E+03  0.38534384404E+03 -0.33030155425E+03  0.57615331054E+03  0.93195988277E+02 0.  0.
        254    2    1    2    0    0 -0.25627748660E+03 -0.38534384404E+03 -0.16534162411E+04  0.19403146264E+04  0.90380725525E+03 0.  0.
        -24    2    4    4    0    0  0.28447551104E+03 -0.12263381937E+03 -0.22953207831E+03  0.39264389886E+03  0.74289207192E+02 0.  0.
         24    2    4    4    0    0 -0.54075299764E+03 -0.26271002467E+03 -0.14238841628E+04  0.15476707275E+04  0.80051297204E+02 0.  0.
         11    1    3    3    0    0  0.15352764911E+03  0.15268621553E+03 -0.17250640876E+03  0.27684342238E+03  0.00000000000E+00 0. -1.
        -11    1    3    3    0    0  0.10274983749E+03  0.23265762851E+03 -0.15779514550E+03  0.29930988816E+03  0.00000000000E+00 0.  1.
          2    1    6    6  502    0 -0.16400274253E+03 -0.89016321854E+02 -0.35406104570E+03  0.40022497323E+03  0.00000000000E+00 0. -1.
          3    1    5    5  503    0  0.12989794112E+02 -0.20391704140E+02 -0.37932804977E+02  0.44982819411E+02  0.00000000000E+00 0. -1.
         -4    1    5    5    0  503  0.27148571693E+03 -0.10224211523E+03 -0.19159927334E+03  0.34766107945E+03  0.00000000000E+00 0.  1.
         -1    1    6    6    0  502 -0.37675025510E+03 -0.17369370281E+03 -0.10698231171E+04  0.11474457543E+04  0.00000000000E+00 0.  1.
<mgrwt>
<rscale>  0 0.15483781E+04</rscale>
<asrwt>0</asrwt>
<pdfrwt beam="1">  1        1 0.34616813E+00 0.15483781E+04</pdfrwt>
<pdfrwt beam="2">  1       -1 0.40980780E-01 0.15483781E+04</pdfrwt>
<totfact> 0.11317070E+01</totfact>
</mgrwt>
</event>
<event>
12    1  0.2048318E-007  0.2339607E+04  0.7818608E-02  0.8462466E-01
         -2   -1    0    0    0  501 -0.00000000000E+00  0.00000000000E+00  0.30047484878E+03  0.30047484878E+03  0.00000000000E+00 0.  1.
          2   -1    0    0  501    0  0.00000000000E+00 -0.00000000000E+00 -0.45542591833E+04  0.45542591833E+04  0.00000000000E+00 0. -1.
         23    2    1    2    0    0 -0.74393794760E+03 -0.32858118157E+03 -0.29989291865E+04  0.31085608000E+04  0.90358834018E+02 0.  0.
        254    2    1    2    0    0  0.74393794760E+03  0.32858118157E+03 -0.12548551481E+04  0.17461732321E+04  0.90169299168E+03 0.  0.
        -24    2    4    4    0    0  0.69608503100E+03 -0.15690476439E+03 -0.69497293525E+03  0.99929535338E+03  0.80314052912E+02 0.  0.
         24    2    4    4    0    0  0.47852916605E+02  0.48548594596E+03 -0.55988221283E+03  0.74687787876E+03  0.79824608953E+02 0.  0.
         11    1    3    3    0    0 -0.66161220616E+03 -0.28555180971E+03 -0.27506043140E+04  0.28434300834E+04  0.00000000000E+00 0. -1.
        -11    1    3    3    0    0 -0.82325741443E+02 -0.43029371863E+02 -0.24832487250E+03  0.26513071653E+03  0.00000000000E+00 0.  1.
          4    1    6    6  502    0  0.34036168687E+02  0.82939765127E+02 -0.78038787425E+02  0.11885923507E+03  0.00000000000E+00 0. -1.
          1    1    5    5  503    0  0.36675466584E+03 -0.12067241946E+03 -0.39502111908E+03  0.55236989622E+03  0.00000000000E+00 0. -1.
         -2    1    5    5    0  503  0.32933036516E+03 -0.36232344929E+02 -0.29995181617E+03  0.44692545716E+03  0.00000000000E+00 0.  1.
         -3    1    6    6    0  502  0.13816747918E+02  0.40254618083E+03 -0.48184342541E+03  0.62801864370E+03  0.00000000000E+00 0.  1.
<mgrwt>
<rscale>  0 0.23396071E+04</rscale>
<asrwt>0</asrwt>
<pdfrwt beam="1">  1        2 0.70065522E+00 0.23396071E+04</pdfrwt>
<pdfrwt beam="2">  1       -2 0.46226903E-01 0.23396071E+04</pdfrwt>
<totfact> 0.44005789E-01</totfact>
</mgrwt>
</event>
<event>
12    1  0.2048318E-007  0.2186006E+04  0.7818608E-02  0.8524276E-01
          2   -1    0    0  501    0  0.00000000000E+00  0.00000000000E+00  0.15771747557E+04  0.15771747557E+04  0.00000000000E+00 0.  1.
         -2   -1    0    0    0  501 -0.00000000000E+00 -0.00000000000E+00 -0.75746522004E+03  0.75746522004E+03  0.00000000000E+00 0. -1.
         23    2    1    2    0    0 -0.69624306333E+03 -0.57639812469E+03  0.38648452857E+03  0.99088998273E+03  0.12451291369E+03 0.  0.
        254    2    1    2    0    0  0.69624306333E+03  0.57639812469E+03  0.43322500713E+03  0.13437499930E+04  0.89498096942E+03 0.  0.
        -24    2    4    4    0    0 -0.84952040398E+02  0.15651607900E+03  0.40874743101E+03  0.45293318041E+03  0.79748801887E+02 0.  0.
         24    2    4    4    0    0  0.78119510373E+03  0.41988204569E+03  0.24477576114E+02  0.89081681264E+03  0.79929466168E+02 0.  0.
         11    1    3    3    0    0 -0.51612319600E+03 -0.40615764267E+03  0.33689679762E+03  0.73813727476E+03  0.00000000000E+00 0.  1.
        -11    1    3    3    0    0 -0.18011986733E+03 -0.17024048202E+03  0.49587730952E+02  0.25275270797E+03  0.00000000000E+00 0. -1.
          2    1    6    6  502    0  0.14183096852E+03  0.57564401689E+02  0.29638117182E+02  0.15591055758E+03  0.00000000000E+00 0. -1.
          3    1    5    5  503    0 -0.82414496723E+02  0.85286837299E+02  0.20198199973E+03  0.23422792768E+03  0.00000000000E+00 0. -1.
         -4    1    5    5    0  503 -0.25375436742E+01  0.71229241699E+02  0.20676543128E+03  0.21870525273E+03  0.00000000000E+00 0.  1.
         -1    1    6    6    0  502  0.63936413521E+03  0.36231764400E+03 -0.51605410678E+01  0.73490625506E+03  0.00000000000E+00 0.  1.
<mgrwt>
<rscale>  0 0.21860055E+04</rscale>
<asrwt>0</asrwt>
<pdfrwt beam="1">  1        2 0.24264227E+00 0.21860055E+04</pdfrwt>
<pdfrwt beam="2">  1       -2 0.11653311E+00 0.21860055E+04</pdfrwt>
<totfact> 0.60004970E+00</totfact>
</mgrwt>
</event>
<event>
12    1  0.2048318E-007  0.2200591E+04  0.7818608E-02  0.8518182E-01
         -2   -1    0    0    0  501 -0.00000000000E+00  0.00000000000E+00  0.13206477293E+04  0.13206477293E+04  0.00000000000E+00 0.  1.
          2   -1    0    0  501    0  0.00000000000E+00 -0.00000000000E+00 -0.91670954212E+03  0.91670954212E+03  0.00000000000E+00 0. -1.
         23    2    1    2    0    0  0.58625542665E+03 -0.26830801441E+03  0.82701771231E+03  0.10524257319E+04  0.89202067544E+02 0.  0.
        254    2    1    2    0    0 -0.58625542665E+03  0.26830801441E+03 -0.42307952510E+03  0.11849315395E+04  0.89965651942E+03 0.  0.
        -24    2    4    4    0    0 -0.21404030239E+03 -0.29628345980E+03  0.16318945918E+02  0.37443537615E+03  0.79614089938E+02 0.  0.
         24    2    4    4    0    0 -0.37221512425E+03  0.56459147421E+03 -0.43939847102E+03  0.81049616338E+03  0.80779843080E+02 0.  0.
         11    1    3    3    0    0  0.20080340298E+03 -0.80164095929E+02  0.34549946219E+03  0.40757596506E+03  0.00000000000E+00 0. -1.
        -11    1    3    3    0    0  0.38545202367E+03 -0.18814391848E+03  0.48151825012E+03  0.64484976685E+03  0.00000000000E+00 0.  1.
          4    1    6    6  502    0 -0.23785806746E+03  0.35382703213E+03 -0.23000396457E+03  0.48442940935E+03  0.00000000000E+00 0. -1.
          3    1    5    5  503    0 -0.20307422401E+03 -0.29923741464E+03  0.20777550940E+02  0.36223456130E+03  0.00000000000E+00 0. -1.
         -4    1    5    5    0  503 -0.10966078385E+02  0.29539548366E+01 -0.44586050218E+01  0.12200814853E+02  0.00000000000E+00 0.  1.
         -3    1    6    6    0  502 -0.13435705679E+03  0.21076444208E+03 -0.20939450645E+03  0.32606675403E+03  0.00000000000E+00 0.  1.
<mgrwt>
<rscale>  0 0.22005912E+04</rscale>
<asrwt>0</asrwt>
<pdfrwt beam="1">  1        2 0.14103224E+00 0.22005912E+04</pdfrwt>
<pdfrwt beam="2">  1       -2 0.20317657E+00 0.22005912E+04</pdfrwt>
<totfact> 0.33095414E+00</totfact>
</mgrwt>
</event>
<event>
12    1  0.2048318E-007  0.1129823E+04  0.7818608E-02  0.9176602E-01
         -1   -1    0    0    0  501 -0.00000000000E+00  0.00000000000E+00  0.32225921153E+03  0.32225921153E+03  0.00000000000E+00 0.  1.
          1   -1    0    0  501    0  0.00000000000E+00 -0.00000000000E+00 -0.99027410724E+03  0.99027410724E+03  0.00000000000E+00 0. -1.
         23    2    1    2    0    0 -0.13475890308E+03  0.13012328541E+03 -0.93781294552E+02  0.22882523995E+03  0.92054483124E+02 0.  0.
        254    2    1    2    0    0  0.13475890308E+03 -0.13012328541E+03 -0.57423360116E+03  0.10837080788E+04  0.89977049299E+03 0.  0.
        -24    2    4    4    0    0  0.50526884112E+03  0.19092252785E+02 -0.31113580754E+03  0.59875580926E+03  0.77729739945E+02 0.  0.
         24    2    4    4    0    0 -0.37050993804E+03 -0.14921553820E+03 -0.26309779361E+03  0.48495226957E+03  0.80095965747E+02 0.  0.
         11    1    3    3    0    0 -0.11976572029E+03  0.83943699974E+02 -0.10367720736E+03  0.17927447071E+03  0.00000000000E+00 0. -1.
        -11    1    3    3    0    0 -0.14993182788E+02  0.46179585440E+02  0.98959128115E+01  0.49550769236E+02  0.00000000000E+00 0.  1.
          2    1    6    6  502    0 -0.41772635715E+02 -0.12447574040E+02 -0.23845676008E+01  0.43652965040E+02  0.00000000000E+00 0. -1.
          1    1    5    5  503    0  0.45923768069E+03  0.23884741535E+02 -0.30560841357E+03  0.55214692853E+03  0.00000000000E+00 0. -1.
         -2    1    5    5    0  503  0.46031160432E+02 -0.47924887503E+01 -0.55273939702E+01  0.46608880733E+02  0.00000000000E+00 0.  1.
         -1    1    6    6    0  502 -0.32873730232E+03 -0.13676796416E+03 -0.26071322601E+03  0.44129930453E+03  0.00000000000E+00 0.  1.
<mgrwt>
<rscale>  0 0.11298229E+04</rscale>
<asrwt>0</asrwt>
<pdfrwt beam="1">  1        1 0.15234986E+00 0.11298229E+04</pdfrwt>
<pdfrwt beam="2">  1       -1 0.49578341E-01 0.11298229E+04</pdfrwt>
<totfact> 0.62450136E+01</totfact>
</mgrwt>
</event>
<event>
12    1  0.2048318E-007  0.1317925E+04  0.7818608E-02  0.9015470E-01
          2   -1    0    0  501    0  0.00000000000E+00  0.00000000000E+00  0.77055923318E+03  0.77055923318E+03  0.00000000000E+00 0. -1.
         -2   -1    0    0    0  501 -0.00000000000E+00 -0.00000000000E+00 -0.56352785564E+03  0.56352785564E+03  0.00000000000E+00 0.  1.
         23    2    1    2    0    0 -0.19166333592E+03  0.24354106898E+03 -0.96734420550E+02  0.33690419693E+03  0.89998906507E+02 0.  0.
        254    2    1    2    0    0  0.19166333592E+03 -0.24354106898E+03  0.30376579810E+03  0.99718289189E+03  0.89780452949E+03 0.  0.
        -24    2    4    4    0    0  0.46470263540E+02  0.97273047382E+02  0.53600363295E+03  0.55247655504E+03  0.79428698784E+02 0.  0.
         24    2    4    4    0    0  0.14519307238E+03 -0.34081411637E+03 -0.23223783485E+03  0.44470633686E+03  0.81203595492E+02 0.  0.
         11    1    3    3    0    0  0.91656887101E+01  0.48301828836E+01 -0.22544432989E+00  0.10362979367E+02  0.00000000000E+00 0. -1.
        -11    1    3    3    0    0 -0.20082902463E+03  0.23871088610E+03 -0.96508976220E+02  0.32654121756E+03  0.00000000000E+00 0.  1.
          4    1    6    6  502    0  0.81824583318E+02 -0.20985060429E+03 -0.18580869592E+03  0.29198871559E+03  0.00000000000E+00 0. -1.
          3    1    5    5  503    0  0.35660128848E+02  0.10890750683E+03  0.41856928462E+03  0.43397319717E+03  0.00000000000E+00 0. -1.
         -4    1    5    5    0  503  0.10810134692E+02 -0.11634459447E+02  0.11743434833E+03  0.11850335787E+03  0.00000000000E+00 0.  1.
         -3    1    6    6    0  502  0.63368489064E+02 -0.13096351208E+03 -0.46429138936E+02  0.15271762126E+03  0.00000000000E+00 0.  1.
<mgrwt>
<rscale>  0 0.13179250E+04</rscale>
<asrwt>0</asrwt>
<pdfrwt beam="1">  1        2 0.11854757E+00 0.13179250E+04</pdfrwt>
<pdfrwt beam="2">  1       -2 0.86696593E-01 0.13179250E+04</pdfrwt>
<totfact> 0.40829100E+01</totfact>
</mgrwt>
</event>
<event>
12    1  0.2048318E-007  0.2103266E+04  0.7818608E-02  0.8559806E-01
          1   -1    0    0  501    0  0.00000000000E+00  0.00000000000E+00  0.79523071863E+03  0.79523071863E+03  0.00000000000E+00 0. -1.
         -1   -1    0    0    0  501 -0.00000000000E+00 -0.00000000000E+00 -0.13907054410E+04  0.13907054410E+04  0.00000000000E+00 0.  1.
         23    2    1    2    0    0 -0.43184774575E+03 -0.32972358780E+03 -0.93078689121E+03  0.10817103178E+04  0.92319309052E+02 0.  0.
        254    2    1    2    0    0  0.43184774575E+03  0.32972358780E+03  0.33531216882E+03  0.11042258419E+04  0.90092748850E+03 0.  0.
        -24    2    4    4    0    0 -0.24418030778E+02 -0.17676878830E+03  0.36854620509E+03  0.41701777288E+03  0.78956145212E+02 0.  0.
         24    2    4    4    0    0  0.45626577652E+03  0.50649237610E+03 -0.33234036272E+02  0.68720806903E+03  0.80233678069E+02 0.  0.
         13    1    3    3    0    0 -0.92990875922E+02 -0.92624455760E+02 -0.15968126261E+03  0.20669953662E+03  0.00000000000E+00 0. -1.
        -13    1    3    3    0    0 -0.33885686982E+03 -0.23709913204E+03 -0.77110562860E+03  0.87501078113E+03  0.00000000000E+00 0.  1.
          2    1    6    6  502    0  0.65938510175E+02  0.43029580006E+02  0.11752519924E+02  0.79608753314E+02  0.00000000000E+00 0. -1.
          1    1    5    5  503    0  0.18947926906E+02 -0.51914949664E+02  0.61214989362E+02  0.82470969773E+02  0.00000000000E+00 0. -1.
         -2    1    5    5    0  503 -0.43365957684E+02 -0.12485383864E+03  0.30733121573E+03  0.33454680311E+03  0.00000000000E+00 0.  1.
         -1    1    6    6    0  502  0.39032726635E+03  0.46346279610E+03 -0.44986556196E+02  0.60759931572E+03  0.00000000000E+00 0.  1.
<mgrwt>
<rscale>  0 0.21032657E+04</rscale>
<asrwt>0</asrwt>
<pdfrwt beam="1">  1        1 0.12234319E+00 0.21032657E+04</pdfrwt>
<pdfrwt beam="2">  1       -1 0.21395468E+00 0.21032657E+04</pdfrwt>
<totfact> 0.24803265E+00</totfact>
</mgrwt>
</event>
<event>
12    1  0.2048318E-007  0.2548455E+04  0.7818608E-02  0.8385924E-01
         -1   -1    0    0    0  501 -0.00000000000E+00  0.00000000000E+00  0.14315058704E+04  0.14315058704E+04  0.00000000000E+00 0.  1.
          1   -1    0    0  501    0  0.00000000000E+00 -0.00000000000E+00 -0.11342290963E+04  0.11342290963E+04  0.00000000000E+00 0. -1.
         23    2    1    2    0    0 -0.87238987865E+03  0.64778197321E+03  0.36771121475E+03  0.11506559951E+04  0.90067177420E+02 0.  0.
        254    2    1    2    0    0  0.87238987865E+03 -0.64778197321E+03 -0.70434440611E+02  0.14150789716E+04  0.90377093354E+03 0.  0.
        -24    2    4    4    0    0  0.34836440315E+02 -0.40204716871E+03 -0.29992064139E+03  0.50925064435E+03  0.80798045754E+02 0.  0.
         24    2    4    4    0    0  0.83755343834E+03 -0.24573480450E+03  0.22948620078E+03  0.90582832727E+03  0.77328428955E+02 0.  0.
         11    1    3    3    0    0 -0.55522432094E+03  0.45017337288E+03  0.20956468791E+03  0.74488084325E+03  0.00000000000E+00 0.  1.
        -11    1    3    3    0    0 -0.31716555771E+03  0.19760860033E+03  0.15814652684E+03  0.40577515187E+03  0.00000000000E+00 0. -1.
          2    1    6    6  502    0  0.58294931797E+03 -0.13562512028E+03  0.14461937592E+03  0.61574251475E+03  0.00000000000E+00 0. -1.
          1    1    5    5  503    0  0.33492842780E+02 -0.40479412494E+03 -0.30146271292E+03  0.50582588050E+03  0.00000000000E+00 0. -1.
         -2    1    5    5    0  503  0.13435975359E+01  0.27469562301E+01  0.15420715231E+01  0.34247638533E+01  0.00000000000E+00 0.  1.
         -1    1    6    6    0  502  0.25460412036E+03 -0.11010968422E+03  0.84866824865E+02  0.29008581252E+03  0.00000000000E+00 0.  1.
<mgrwt>
<rscale>  0 0.25484549E+04</rscale>
<asrwt>0</asrwt>
<pdfrwt beam="1">  1        1 0.17449678E+00 0.25484549E+04</pdfrwt>
<pdfrwt beam="2">  1       -1 0.22023167E+00 0.25484549E+04</pdfrwt>
<totfact> 0.11593793E+00</totfact>
</mgrwt>
</event>
<event>
12    1  0.2048318E-007  0.2083795E+04  0.7818608E-02  0.8568416E-01
         -1   -1    0    0    0  501 -0.00000000000E+00  0.00000000000E+00  0.26899347347E+04  0.26899347347E+04  0.00000000000E+00 0.  1.
          1   -1    0    0  501    0  0.00000000000E+00 -0.00000000000E+00 -0.40356017308E+03  0.40356017308E+03  0.00000000000E+00 0. -1.
         23    2    1    2    0    0  0.30463217511E+03  0.78754682490E+03  0.90314032968E+03  0.12398214815E+04  0.92000475104E+02 0.  0.
        254    2    1    2    0    0 -0.30463217511E+03 -0.78754682490E+03  0.13832342320E+04  0.18536734263E+04  0.89985413668E+03 0.  0.
        -24    2    4    4    0    0  0.19775989281E+03 -0.51188701127E+03  0.31179277647E+03  0.63606461549E+03  0.78906096752E+02 0.  0.
         24    2    4    4    0    0 -0.50239206791E+03 -0.27565981363E+03  0.10714414555E+04  0.12176088108E+04  0.78729288128E+02 0.  0.
         13    1    3    3    0    0  0.56295641929E+02  0.23287800001E+03  0.21709359842E+03  0.32331253094E+03  0.00000000000E+00 0. -1.
        -13    1    3    3    0    0  0.24833653318E+03  0.55466882489E+03  0.68604673126E+03  0.91650895058E+03  0.00000000000E+00 0.  1.
          4    1    6    6  502    0 -0.17977879774E+03 -0.80068382717E+02  0.44068968631E+03  0.48263729824E+03  0.00000000000E+00 0. -1.
          1    1    5    5  503    0  0.70745489988E+02 -0.24543097464E+03  0.10771919772E+03  0.27720878995E+03  0.00000000000E+00 0. -1.
         -2    1    5    5    0  503  0.12701440282E+03 -0.26645603664E+03  0.20407357875E+03  0.35885582554E+03  0.00000000000E+00 0.  1.
         -3    1    6    6    0  502 -0.32261327017E+03 -0.19559143091E+03  0.63075176919E+03  0.73497151256E+03  0.00000000000E+00 0.  1.
<mgrwt>
<rscale>  0 0.20837951E+04</rscale>
<asrwt>0</asrwt>
<pdfrwt beam="1">  1        1 0.62086182E-01 0.20837951E+04</pdfrwt>
<pdfrwt beam="2">  1       -1 0.41383610E+00 0.20837951E+04</pdfrwt>
<totfact> 0.31434605E-01</totfact>
</mgrwt>
</event>
<event>
12    1  0.2048318E-007  0.1542142E+04  0.7818608E-02  0.8856903E-01
         -1   -1    0    0    0  501 -0.00000000000E+00  0.00000000000E+00  0.26663661781E+03  0.26663661781E+03  0.00000000000E+00 0.  1.
          1   -1    0    0  501    0  0.00000000000E+00 -0.00000000000E+00 -0.22298142092E+04  0.22298142092E+04  0.00000000000E+00 0. -1.
         23    2    1    2    0    0 -0.40065290030E+03 -0.30445402706E+03 -0.62718707184E+03  0.80825174341E+03  0.81806213273E+02 0.  0.
        254    2    1    2    0    0  0.40065290030E+03  0.30445402706E+03 -0.13359905196E+04  0.16881990836E+04  0.90107184866E+03 0.  0.
        -24    2    4    4    0    0  0.54812825007E+03  0.40557725348E+03 -0.55431453447E+03  0.88232886535E+03  0.79385996418E+02 0.  0.
         24    2    4    4    0    0 -0.14747534977E+03 -0.10112322642E+03 -0.78167598512E+03  0.80587021830E+03  0.80215817070E+02 0.  0.
         13    1    3    3    0    0 -0.50877745905E+02 -0.76606315593E+02 -0.10111385302E+03  0.13667876166E+03  0.00000000000E+00 0. -1.
        -13    1    3    3    0    0 -0.34977515440E+03 -0.22784771147E+03 -0.52607321882E+03  0.67157298175E+03  0.00000000000E+00 0.  1.
          4    1    6    6  502    0 -0.14998018221E+03 -0.10667911308E+03 -0.77604875030E+03  0.79757516954E+03  0.00000000000E+00 0. -1.
          1    1    5    5  503    0  0.53765114895E+03  0.39881971765E+03 -0.55538570805E+03  0.86981561831E+03  0.00000000000E+00 0. -1.
         -2    1    5    5    0  503  0.10477101125E+02  0.67575358291E+01  0.10711735807E+01  0.12513247032E+02  0.00000000000E+00 0.  1.
         -3    1    6    6    0  502  0.25048324358E+01  0.55558866618E+01 -0.56272348199E+01  0.82950487550E+01  0.00000000000E+00 0.  1.
<mgrwt>
<rscale>  0 0.15421415E+04</rscale>
<asrwt>0</asrwt>
<pdfrwt beam="1">  1        1 0.34304835E+00 0.15421415E+04</pdfrwt>
<pdfrwt beam="2">  1       -1 0.41021017E-01 0.15421415E+04</pdfrwt>
<totfact> 0.11668268E+01</totfact>
</mgrwt>
</event>
<event>
12    1  0.2048318E-007  0.2066166E+04  0.7818608E-02  0.8576296E-01
          2   -1    0    0  501    0  0.00000000000E+00  0.00000000000E+00  0.17513379865E+04  0.17513379865E+04  0.00000000000E+00 0. -1.
         -2   -1    0    0    0  501 -0.00000000000E+00 -0.00000000000E+00 -0.60939696108E+03  0.60939696108E+03  0.00000000000E+00 0.  1.
         23    2    1    2    0    0  0.70006110613E+03  0.31143789040E+03  0.86275936795E+02  0.77640633305E+03  0.91017277748E+02 0.  0.
        254    2    1    2    0    0 -0.70006110613E+03 -0.31143789040E+03  0.10556650886E+04  0.15843286145E+04  0.89921591820E+03 0.  0.
        -24    2    4    4    0    0 -0.52210104699E+03  0.45100068508E+02  0.10528432412E+04  0.11787595008E+04  0.79821994712E+02 0.  0.
         24    2    4    4    0    0 -0.17796005914E+03 -0.35653795891E+03  0.28218474387E+01  0.40556911369E+03  0.75427079788E+02 0.  0.
         11    1    3    3    0    0  0.24870044436E+03  0.11927061228E+03 -0.12047267462E+02  0.27608427451E+03  0.00000000000E+00 0.  1.
        -11    1    3    3    0    0  0.45136066177E+03  0.19216727813E+03  0.98323204258E+02  0.50032205855E+03  0.00000000000E+00 0. -1.
          4    1    6    6  502    0 -0.59874189866E+02 -0.68334557838E+02 -0.20842178178E+02  0.93214413039E+02  0.00000000000E+00 0. -1.
          3    1    5    5  503    0 -0.24614217479E+02 -0.65856466559E+01  0.25072685496E+02  0.35747307618E+02  0.00000000000E+00 0. -1.
         -4    1    5    5    0  503 -0.49748682951E+03  0.51685715164E+02  0.10277705557E+04  0.11430121932E+04  0.00000000000E+00 0.  1.
         -3    1    6    6    0  502 -0.11808586927E+03 -0.28820340107E+03  0.23664025616E+02  0.31235470065E+03  0.00000000000E+00 0.  1.
<mgrwt>
<rscale>  0 0.20661656E+04</rscale>
<asrwt>0</asrwt>
<pdfrwt beam="1">  1        2 0.26943661E+00 0.20661656E+04</pdfrwt>
<pdfrwt beam="2">  1       -2 0.93753379E-01 0.20661656E+04</pdfrwt>
<totfact> 0.81566107E+00</totfact>
</mgrwt>
</event>
<event>
12    1  0.2048318E-007  0.3540169E+04  0.7818608E-02  0.8104336E-01
          2   -1    0    0  501    0  0.00000000000E+00  0.00000000000E+00  0.28868758476E+04  0.28868758476E+04  0.00000000000E+00 0. -1.
         -2   -1    0    0    0  501 -0.00000000000E+00 -0.00000000000E+00 -0.10853253815E+04  0.10853253815E+04  0.00000000000E+00 0.  1.
         23    2    1    2    0    0  0.15965626235E+04 -0.42026597685E+03  0.95925737587E+03  0.19114703426E+04  0.88929495735E+02 0.  0.
        254    2    1    2    0    0 -0.15965626235E+04  0.42026597685E+03  0.84229309014E+03  0.20607308865E+04  0.90084317991E+03 0.  0.
        -24    2    4    4    0    0 -0.11074743119E+04  0.47956721751E+03  0.16681368916E+03  0.12208479134E+04  0.78477723593E+02 0.  0.
         24    2    4    4    0    0 -0.48908831159E+03 -0.59301240658E+02  0.67547940098E+03  0.83988297309E+03  0.80043573523E+02 0.  0.
         11    1    3    3    0    0  0.30597416340E+03 -0.64528104935E+02  0.14622319102E+03  0.34520325402E+03  0.00000000000E+00 0.  1.
        -11    1    3    3    0    0  0.12905884601E+04 -0.35573787191E+03  0.81303418485E+03  0.15662670886E+04  0.00000000000E+00 0. -1.
          4    1    6    6  502    0 -0.48097973159E+03 -0.52637528133E+02  0.67336629796E+03  0.82917693094E+03  0.00000000000E+00 0. -1.
          3    1    5    5  503    0 -0.10685293302E+04  0.44562184594E+03  0.16055648204E+03  0.11688080009E+04  0.00000000000E+00 0. -1.
         -4    1    5    5    0  503 -0.38944981776E+02  0.33945371563E+02  0.62572071251E+01  0.52039912540E+02  0.00000000000E+00 0.  1.
         -3    1    6    6    0  502 -0.81085799959E+01 -0.66637125250E+01  0.21131030177E+01  0.10706042151E+02  0.00000000000E+00 0.  1.
<mgrwt>
<rscale>  0 0.35401693E+04</rscale>
<asrwt>0</asrwt>
<pdfrwt beam="1">  1        2 0.44413474E+00 0.35401693E+04</pdfrwt>
<pdfrwt beam="2">  1       -2 0.16697314E+00 0.35401693E+04</pdfrwt>
<totfact> 0.37536813E-01</totfact>
</mgrwt>
</event>
<event>
12    1  0.2048318E-007  0.1645961E+04  0.7818608E-02  0.8792799E-01
          1   -1    0    0  501    0  0.00000000000E+00  0.00000000000E+00  0.62806689775E+03  0.62806689775E+03  0.00000000000E+00 0. -1.
         -1   -1    0    0    0  501 -0.00000000000E+00 -0.00000000000E+00 -0.10783834770E+04  0.10783834770E+04  0.00000000000E+00 0.  1.
         23    2    1    2    0    0 -0.41543463176E+03 -0.37734384500E+03 -0.46307776610E+02  0.57078823210E+03  0.93169120988E+02 0.  0.
        254    2    1    2    0    0  0.41543463176E+03  0.37734384500E+03 -0.40400880264E+03  0.11356621426E+04  0.90085019786E+03 0.  0.
        -24    2    4    4    0    0  0.33002947818E+03  0.74272834705E+02 -0.64380016212E+03  0.73187995630E+03  0.82059193538E+02 0.  0.
         24    2    4    4    0    0  0.85405153578E+02  0.30307101030E+03  0.23979135949E+03  0.40378218634E+03  0.79962993815E+02 0.  0.
         13    1    3    3    0    0 -0.25225653555E+03 -0.28665257986E+03 -0.40863268240E+02  0.38402196286E+03  0.00000000000E+00 0. -1.
        -13    1    3    3    0    0 -0.16317809621E+03 -0.90691265147E+02 -0.54445083694E+01  0.18676626924E+03  0.00000000000E+00 0.  1.
          2    1    6    6  502    0  0.23023254181E+01  0.10503810365E+03  0.46684513083E+02  0.11496846386E+03  0.00000000000E+00 0. -1.
          3    1    5    5  503    0  0.21979115904E+03  0.24774931327E+02 -0.47822731147E+03  0.52689971745E+03  0.00000000000E+00 0. -1.
         -4    1    5    5    0  503  0.11023831915E+03  0.49497903378E+02 -0.16557285066E+03  0.20498023886E+03  0.00000000000E+00 0.  1.
         -1    1    6    6    0  502  0.83102828160E+02  0.19803290664E+03  0.19310684640E+03  0.28881372247E+03  0.00000000000E+00 0.  1.
<mgrwt>
<rscale>  0 0.16459611E+04</rscale>
<asrwt>0</asrwt>
<pdfrwt beam="1">  1        1 0.96625678E-01 0.16459611E+04</pdfrwt>
<pdfrwt beam="2">  1       -1 0.16590515E+00 0.16459611E+04</pdfrwt>
<totfact> 0.80806372E+00</totfact>
</mgrwt>
</event>
<event>
12    1  0.2048318E-007  0.4535198E+04  0.7818608E-02  0.7904504E-01
         -4   -1    0    0    0  501 -0.00000000000E+00  0.00000000000E+00  0.24382013241E+04  0.24382013241E+04  0.00000000000E+00 0.  1.
          4   -1    0    0  501    0  0.00000000000E+00 -0.00000000000E+00 -0.21089333923E+04  0.21089333923E+04  0.00000000000E+00 0. -1.
         23    2    1    2    0    0 -0.13037560408E+04  0.17154392730E+04  0.47310548952E+03  0.22079034854E+04  0.92180709174E+02 0.  0.
        254    2    1    2    0    0  0.13037560408E+04 -0.17154392730E+04 -0.14383755775E+03  0.23392312311E+04  0.89933408477E+03 0.  0.
        -24    2    4    4    0    0  0.84558114984E+03 -0.40102242542E+03 -0.18900445713E+02  0.93945641139E+03  0.79966589182E+02 0.  0.
         24    2    4    4    0    0  0.45817489098E+03 -0.13144168476E+04 -0.12493711203E+03  0.13997748197E+04  0.78386120642E+02 0.  0.
         13    1    3    3    0    0 -0.72891471959E+03  0.10011507535E+04  0.23309510667E+03  0.12601400035E+04  0.00000000000E+00 0.  1.
        -13    1    3    3    0    0 -0.57484132123E+03  0.71428851956E+03  0.24001038285E+03  0.94776348191E+03  0.00000000000E+00 0. -1.
          2    1    6    6  502    0  0.23646413001E+01 -0.27412817819E+02 -0.11209782801E+02  0.29710492081E+02  0.00000000000E+00 0. -1.
          3    1    5    5  503    0  0.47378955177E+03 -0.26084166441E+03  0.11353004233E+02  0.54096562179E+03  0.00000000000E+00 0. -1.
         -4    1    5    5    0  503  0.37179159808E+03 -0.14018076101E+03 -0.30253449946E+02  0.39849078959E+03  0.00000000000E+00 0.  1.
         -1    1    6    6    0  502  0.45581024968E+03 -0.12870040298E+04 -0.11372732923E+03  0.13700643276E+04  0.00000000000E+00 0.  1.
<mgrwt>
<rscale>  0 0.45351975E+04</rscale>
<asrwt>0</asrwt>
<pdfrwt beam="1">  1        4 0.32445129E+00 0.45351975E+04</pdfrwt>
<pdfrwt beam="2">  1       -4 0.37510790E+00 0.45351975E+04</pdfrwt>
<totfact> 0.32069567E-04</totfact>
</mgrwt>
</event>
<event>
12    1  0.2048318E-007  0.1521674E+04  0.7818608E-02  0.8870167E-01
          2   -1    0    0  501    0  0.00000000000E+00  0.00000000000E+00  0.28695888114E+04  0.28695888114E+04  0.00000000000E+00 0. -1.
         -2   -1    0    0    0  501 -0.00000000000E+00 -0.00000000000E+00 -0.20172671748E+03  0.20172671748E+03  0.00000000000E+00 0.  1.
         23    2    1    2    0    0 -0.25441558412E+03 -0.26996795595E+03  0.25022167481E+03  0.45630809837E+03  0.89421515377E+02 0.  0.
        254    2    1    2    0    0  0.25441558412E+03  0.26996795595E+03  0.24176404191E+04  0.26150074305E+04  0.92502360986E+03 0.  0.
        -24    2    4    4    0    0  0.59483662625E+03  0.14420592421E+03  0.16577054057E+04  0.17690390436E+04  0.82981717125E+02 0.  0.
         24    2    4    4    0    0 -0.34042104213E+03  0.12576203174E+03  0.75993501347E+03  0.84596838691E+03  0.80366114769E+02 0.  0.
         13    1    3    3    0    0 -0.55347602243E+02 -0.12060066499E+03  0.85135063572E+02  0.15765740236E+03  0.00000000000E+00 0. -1.
        -13    1    3    3    0    0 -0.19906798188E+03 -0.14936729096E+03  0.16508661124E+03  0.29865069601E+03  0.00000000000E+00 0.  1.
          4    1    6    6  502    0 -0.19545196969E+03  0.82911800849E+02  0.35382552171E+03  0.41263584308E+03  0.00000000000E+00 0. -1.
          3    1    5    5  503    0  0.52684746921E+03  0.10137457945E+03  0.14705021287E+04  0.15653183611E+04  0.00000000000E+00 0. -1.
         -4    1    5    5    0  503  0.67989157041E+02  0.42831344763E+02  0.18720327698E+03  0.20372068251E+03  0.00000000000E+00 0.  1.
         -3    1    6    6    0  502 -0.14496907244E+03  0.42850230891E+02  0.40610949176E+03  0.43333254384E+03  0.00000000000E+00 0.  1.
<mgrwt>
<rscale>  0 0.15216737E+04</rscale>
<asrwt>0</asrwt>
<pdfrwt beam="1">  1        2 0.44147517E+00 0.15216737E+04</pdfrwt>
<pdfrwt beam="2">  1       -2 0.31034882E-01 0.15216737E+04</pdfrwt>
<totfact> 0.19579921E+01</totfact>
</mgrwt>
</event>
<event>
12    1  0.2048318E-007  0.4157763E+04  0.7818608E-02  0.7973456E-01
          3   -1    0    0  501    0  0.00000000000E+00  0.00000000000E+00  0.21134151295E+04  0.21134151295E+04  0.00000000000E+00 0. -1.
         -3   -1    0    0    0  501 -0.00000000000E+00 -0.00000000000E+00 -0.20449122737E+04  0.20449122737E+04  0.00000000000E+00 0.  1.
         23    2    1    2    0    0 -0.14312383381E+03 -0.11584999037E+04 -0.15675625034E+04  0.19565208175E+04  0.90083564436E+02 0.  0.
        254    2    1    2    0    0  0.14312383381E+03  0.11584999037E+04  0.16360653592E+04  0.22018065856E+04  0.89924185964E+03 0.  0.
        -24    2    4    4    0    0 -0.10562870171E-01  0.50632666010E+03  0.96099895413E+02  0.52141979419E+03  0.79225785165E+02 0.  0.
         24    2    4    4    0    0  0.14313439668E+03  0.65217324362E+03  0.15399654638E+04  0.16803867914E+04  0.79929618518E+02 0.  0.
         13    1    3    3    0    0 -0.12184401088E+03 -0.83361123661E+03 -0.10691577492E+04  0.13611950446E+04  0.00000000000E+00 0. -1.
        -13    1    3    3    0    0 -0.21279822934E+02 -0.32488866711E+03 -0.49840475418E+03  0.59532577289E+03  0.00000000000E+00 0.  1.
          2    1    6    6  502    0  0.99048400980E+02  0.56440279513E+03  0.13484060827E+04  0.14651143521E+04  0.00000000000E+00 0. -1.
          1    1    5    5  503    0  0.36806819188E+01  0.40226369092E+03  0.43110239397E+02  0.40458388153E+03  0.00000000000E+00 0. -1.
         -2    1    5    5    0  503 -0.36912447890E+01  0.10406296918E+03  0.52989656016E+02  0.11683591266E+03  0.00000000000E+00 0.  1.
         -1    1    6    6    0  502  0.44085995702E+02  0.87770448492E+02  0.19155938105E+03  0.21527243928E+03  0.00000000000E+00 0.  1.
<mgrwt>
<rscale>  0 0.41577631E+04</rscale>
<asrwt>0</asrwt>
<pdfrwt beam="1">  1        3 0.32514079E+00 0.41577631E+04</pdfrwt>
<pdfrwt beam="2">  1       -3 0.31460189E+00 0.41577631E+04</pdfrwt>
<totfact> 0.17747108E-03</totfact>
</mgrwt>
</event>
<event>
12    1  0.2048318E-007  0.1354227E+04  0.7818608E-02  0.8987634E-01
         -2   -1    0    0    0  501 -0.00000000000E+00  0.00000000000E+00  0.29457531115E+03  0.29457531115E+03  0.00000000000E+00 0. -1.
          2   -1    0    0  501    0  0.00000000000E+00 -0.00000000000E+00 -0.15564203742E+04  0.15564203742E+04  0.00000000000E+00 0.  1.
         23    2    1    2    0    0  0.13555958758E+03  0.32814586924E+03 -0.20705528967E+03  0.41958822717E+03  0.84417261917E+02 0.  0.
        254    2    1    2    0    0 -0.13555958758E+03 -0.32814586924E+03 -0.10547897734E+04  0.14314074582E+04  0.90016094785E+03 0.  0.
        -24    2    4    4    0    0 -0.26683775915E+03 -0.57361783701E+03 -0.90206087115E+03  0.11046782093E+04  0.79751603655E+02 0.  0.
         24    2    4    4    0    0  0.13127817157E+03  0.24547196777E+03 -0.15272890221E+03  0.32672924883E+03  0.77041801520E+02 0.  0.
         13    1    3    3    0    0  0.74697513718E+02  0.27144876883E+03 -0.16592899022E+03  0.32679746396E+03  0.00000000000E+00 0. -1.
        -13    1    3    3    0    0  0.60862073860E+02  0.56697100413E+02 -0.41126299452E+02  0.92790763206E+02  0.00000000000E+00 0.  1.
          2    1    6    6  502    0  0.58317379315E+02  0.18398274548E+03 -0.11037169701E+03  0.22233416036E+03  0.00000000000E+00 0. -1.
          1    1    5    5  503    0 -0.21373885082E+03 -0.51367544070E+03 -0.76473017330E+03  0.94570555284E+03  0.00000000000E+00 0. -1.
         -2    1    5    5    0  503 -0.53098908321E+02 -0.59942396318E+02 -0.13733069786E+03  0.15897265650E+03  0.00000000000E+00 0.  1.
         -1    1    6    6    0  502  0.72960792253E+02  0.61489222294E+02 -0.42357205206E+02  0.10439508847E+03  0.00000000000E+00 0.  1.
<mgrwt>
<rscale>  0 0.13542275E+04</rscale>
<asrwt>0</asrwt>
<pdfrwt beam="1">  1        2 0.23944929E+00 0.13542275E+04</pdfrwt>
<pdfrwt beam="2">  1       -2 0.45319279E-01 0.13542275E+04</pdfrwt>
<totfact> 0.53177651E+01</totfact>
</mgrwt>
</event>
<event>
12    1  0.2048318E-007  0.2883495E+04  0.7818608E-02  0.8277805E-01
          1   -1    0    0  501    0  0.00000000000E+00  0.00000000000E+00  0.14435071654E+04  0.14435071654E+04  0.00000000000E+00 0. -1.
         -1   -1    0    0    0  501 -0.00000000000E+00 -0.00000000000E+00 -0.14399896098E+04  0.14399896098E+04  0.00000000000E+00 0.  1.
         23    2    1    2    0    0 -0.17906151852E+03  0.11346685908E+04  0.60965184864E+03  0.13039698978E+04  0.95531563093E+02 0.  0.
        254    2    1    2    0    0  0.17906151852E+03 -0.11346685908E+04 -0.60613429304E+03  0.15795268775E+04  0.89887181355E+03 0.  0.
        -24    2    4    4    0    0  0.41501239507E+02  0.12201130501E+03 -0.19716134331E+03  0.24830673493E+03  0.78578164192E+02 0.  0.
         24    2    4    4    0    0  0.13756027901E+03 -0.12566798958E+04 -0.40897294974E+03  0.13312201425E+04  0.81981726631E+02 0.  0.
         11    1    3    3    0    0 -0.54030054827E+02  0.15106154959E+03  0.10115683447E+03  0.18966165598E+03  0.00000000000E+00 0. -1.
        -11    1    3    3    0    0 -0.12503146369E+03  0.98360704117E+03  0.50849501417E+03  0.11143082418E+04  0.00000000000E+00 0.  1.
          2    1    6    6  502    0  0.13931996495E+03 -0.10228675186E+04 -0.35061083343E+03  0.10902274853E+04  0.00000000000E+00 0. -1.
          1    1    5    5  503    0 -0.39021539481E+01  0.67997945496E+02 -0.48081701853E+02  0.83371442654E+02  0.00000000000E+00 0. -1.
         -2    1    5    5    0  503  0.45403393455E+02  0.54013359513E+02 -0.14907964145E+03  0.16493529228E+03  0.00000000000E+00 0.  1.
         -1    1    6    6    0  502 -0.17596859426E+01 -0.23381237719E+03 -0.58362116307E+02  0.24099265723E+03  0.00000000000E+00 0.  1.
<mgrwt>
<rscale>  0 0.28834946E+04</rscale>
<asrwt>0</asrwt>
<pdfrwt beam="1">  1        1 0.22207803E+00 0.28834946E+04</pdfrwt>
<pdfrwt beam="2">  1       -1 0.22153686E+00 0.28834946E+04</pdfrwt>
<totfact> 0.66163362E-01</totfact>
</mgrwt>
</event>
<event>
12    1  0.2048318E-007  0.3311344E+04  0.7818608E-02  0.8160015E-01
          2   -1    0    0  501    0  0.00000000000E+00  0.00000000000E+00  0.19112380797E+04  0.19112380797E+04  0.00000000000E+00 0. -1.
         -2   -1    0    0    0  501 -0.00000000000E+00 -0.00000000000E+00 -0.14342792898E+04  0.14342792898E+04  0.00000000000E+00 0.  1.
         23    2    1    2    0    0 -0.93431646088E+03 -0.71279361538E+02  0.14479001792E+04  0.17270962590E+04  0.91752724216E+02 0.  0.
        254    2    1    2    0    0  0.93431646088E+03  0.71279361538E+02 -0.97094138926E+03  0.16184211105E+04  0.89360601671E+03 0.  0.
        -24    2    4    4    0    0 -0.96107753262E+02 -0.14861854057E+03 -0.17438993733E+02  0.19511743876E+03  0.80265344759E+02 0.  0.
         24    2    4    4    0    0  0.10304242141E+04  0.21989790211E+03 -0.95350239552E+03  0.14233036717E+04  0.80606297981E+02 0.  0.
         13    1    3    3    0    0 -0.79436250530E+03 -0.89360457131E+02  0.12583200238E+04  0.14907603307E+04  0.00000000000E+00 0. -1.
        -13    1    3    3    0    0 -0.13995395558E+03  0.18081095593E+02  0.18958015537E+03  0.23633592831E+03  0.00000000000E+00 0.  1.
          2    1    6    6  502    0  0.18006149758E+03  0.16428772366E+02 -0.19317418247E+03  0.26459083931E+03  0.00000000000E+00 0. -1.
          1    1    5    5  503    0 -0.38525294183E+02 -0.42030007046E+01 -0.85516537628E+00  0.38763317900E+02  0.00000000000E+00 0. -1.
         -2    1    5    5    0  503 -0.57582459078E+02 -0.14441553986E+03 -0.16583828357E+02  0.15635412086E+03  0.00000000000E+00 0.  1.
         -1    1    6    6    0  502  0.85036271656E+03  0.20346912974E+03 -0.76032821305E+03  0.11587128324E+04  0.00000000000E+00 0.  1.
<mgrwt>
<rscale>  0 0.33113437E+04</rscale>
<asrwt>0</asrwt>
<pdfrwt beam="1">  1        2 0.29403663E+00 0.33113437E+04</pdfrwt>
<pdfrwt beam="2">  1       -2 0.22065835E+00 0.33113437E+04</pdfrwt>
<totfact> 0.61145790E-01</totfact>
</mgrwt>
</event>
<event>
12    1  0.2048318E-007  0.3351410E+04  0.7818608E-02  0.8149936E-01
          1   -1    0    0  501    0  0.00000000000E+00  0.00000000000E+00  0.11197382204E+04  0.11197382204E+04  0.00000000000E+00 0. -1.
         -1   -1    0    0    0  501 -0.00000000000E+00 -0.00000000000E+00 -0.25077171100E+04  0.25077171100E+04  0.00000000000E+00 0.  1.
         23    2    1    2    0    0  0.18483106171E+03  0.94276549469E+03 -0.19656410509E+04  0.21899878315E+04  0.96605702782E+02 0.  0.
        254    2    1    2    0    0 -0.18483106171E+03 -0.94276549469E+03  0.57766216123E+03  0.14374674989E+04  0.89980550045E+03 0.  0.
        -24    2    4    4    0    0 -0.51944218674E+03 -0.35140445611E+03  0.28666501664E+03  0.69407888674E+03  0.79141595366E+02 0.  0.
         24    2    4    4    0    0  0.33461112503E+03 -0.59136103858E+03  0.29099714459E+03  0.74338861220E+03  0.79213683405E+02 0.  0.
         13    1    3    3    0    0  0.25860215591E+02  0.97852467228E+02 -0.14830531733E+03  0.17955033624E+03  0.00000000000E+00 0. -1.
        -13    1    3    3    0    0  0.15897084611E+03  0.84491302747E+03 -0.18173357335E+04  0.20104374953E+04  0.00000000000E+00 0.  1.
          2    1    6    6  502    0  0.50778407186E+02 -0.15575315023E+03  0.79601528015E+02  0.18213701904E+03  0.00000000000E+00 0. -1.
          3    1    5    5  503    0 -0.10473014836E+03 -0.73303202622E+02  0.94839719329E+02  0.15917391700E+03  0.00000000000E+00 0. -1.
         -4    1    5    5    0  503 -0.41471203837E+03 -0.27810125349E+03  0.19182529731E+03  0.53490496974E+03  0.00000000000E+00 0.  1.
         -1    1    6    6    0  502  0.28383271785E+03 -0.43560788835E+03  0.21139561658E+03  0.56125159316E+03  0.00000000000E+00 0.  1.
<mgrwt>
<rscale>  0 0.33514097E+04</rscale>
<asrwt>0</asrwt>
<pdfrwt beam="1">  1        1 0.17226742E+00 0.33514097E+04</pdfrwt>
<pdfrwt beam="2">  1       -1 0.38580263E+00 0.33514097E+04</pdfrwt>
<totfact> 0.90395205E-02</totfact>
</mgrwt>
</event>
<event>
12    1  0.2048318E-007  0.1743668E+04  0.7818608E-02  0.8736844E-01
          2   -1    0    0  501    0  0.00000000000E+00  0.00000000000E+00  0.14783559680E+04  0.14783559680E+04  0.00000000000E+00 0. -1.
         -2   -1    0    0    0  501 -0.00000000000E+00 -0.00000000000E+00 -0.51414836637E+03  0.51414836637E+03  0.00000000000E+00 0.  1.
         23    2    1    2    0    0 -0.50023316596E+03 -0.14128103411E+03 -0.60405467885E+02  0.53060302809E+03  0.87733699025E+02 0.  0.
        254    2    1    2    0    0  0.50023316596E+03  0.14128103411E+03  0.10246130695E+04  0.14619013063E+04  0.90395239706E+03 0.  0.
        -24    2    4    4    0    0  0.42336201175E+03 -0.71747984381E+02  0.11197400924E+04  0.12017788006E+04  0.77918193037E+02 0.  0.
         24    2    4    4    0    0  0.76871154215E+02  0.21302901849E+03 -0.95127022918E+02  0.26012250564E+03  0.85580549088E+02 0.  0.
         11    1    3    3    0    0 -0.73555564720E+02 -0.68535542352E+01  0.18950960790E+02  0.76266186622E+02  0.00000000000E+00 0. -1.
        -11    1    3    3    0    0 -0.42667760124E+03 -0.13442747988E+03 -0.79356428675E+02  0.45433684147E+03  0.00000000000E+00 0.  1.
          2    1    6    6  502    0  0.95532276185E+02  0.18714573568E+03 -0.80348636925E+02  0.22495743071E+03  0.00000000000E+00 0. -1.
          1    1    5    5  503    0  0.73930884239E+02  0.10779336553E+02  0.24751585259E+03  0.25854606364E+03  0.00000000000E+00 0. -1.
         -2    1    5    5    0  503  0.34943112751E+03 -0.82527320935E+02  0.87222423984E+03  0.94323273699E+03  0.00000000000E+00 0.  1.
         -1    1    6    6    0  502 -0.18661121971E+02  0.25883282814E+02 -0.14778385993E+02  0.35165074932E+02  0.00000000000E+00 0.  1.
<mgrwt>
<rscale>  0 0.17436678E+04</rscale>
<asrwt>0</asrwt>
<pdfrwt beam="1">  1        2 0.22743938E+00 0.17436678E+04</pdfrwt>
<pdfrwt beam="2">  1       -2 0.79099749E-01 0.17436678E+04</pdfrwt>
<totfact> 0.17556339E+01</totfact>
</mgrwt>
</event>
<event>
12    1  0.2048318E-007  0.1657679E+04  0.7818608E-02  0.8785877E-01
         -1   -1    0    0    0  501 -0.00000000000E+00  0.00000000000E+00  0.12643638319E+04  0.12643638319E+04  0.00000000000E+00 0.  1.
          1   -1    0    0  501    0  0.00000000000E+00 -0.00000000000E+00 -0.54333646323E+03  0.54333646323E+03  0.00000000000E+00 0. -1.
         23    2    1    2    0    0 -0.26209966531E+03 -0.51647654883E+03  0.21460492603E+03  0.62481818470E+03  0.94330427808E+02 0.  0.
        254    2    1    2    0    0  0.26209966531E+03  0.51647654883E+03  0.50642244268E+03  0.11828821105E+04  0.89849993699E+03 0.  0.
        -24    2    4    4    0    0  0.53936656239E+03  0.18027963906E+03  0.10213974694E+03  0.58320248195E+03  0.79218496342E+02 0.  0.
         24    2    4    4    0    0 -0.27726689708E+03  0.33619690977E+03  0.40428269573E+03  0.59967962852E+03  0.79157213446E+02 0.  0.
         11    1    3    3    0    0 -0.64806795934E+02 -0.18943589770E+03  0.11165691671E+03  0.22924473208E+03  0.00000000000E+00 0.  1.
        -11    1    3    3    0    0 -0.19729286937E+03 -0.32704065113E+03  0.10294800933E+03  0.39557345262E+03  0.00000000000E+00 0. -1.
          2    1    6    6  502    0 -0.32525910213E+02  0.26762833344E+02  0.13133569000E+02  0.44121136867E+02  0.00000000000E+00 0. -1.
          3    1    5    5  503    0  0.14690800718E+02 -0.75783396673E+01 -0.49414859141E+00  0.16537685469E+02  0.00000000000E+00 0. -1.
         -4    1    5    5    0  503  0.52467576167E+03  0.18785797873E+03  0.10263389554E+03  0.56666479648E+03  0.00000000000E+00 0.  1.
         -1    1    6    6    0  502 -0.24474098687E+03  0.30943407643E+03  0.39114912673E+03  0.55555849165E+03  0.00000000000E+00 0.  1.
<mgrwt>
<rscale>  0 0.16576791E+04</rscale>
<asrwt>0</asrwt>
<pdfrwt beam="1">  1        1 0.83590226E-01 0.16576791E+04</pdfrwt>
<pdfrwt beam="2">  1       -1 0.19451751E+00 0.16576791E+04</pdfrwt>
<totfact> 0.61904751E+00</totfact>
</mgrwt>
</event>
<event>
12    1  0.2096364E-007  0.3448702E+04  0.7818608E-02  0.8126056E-01
          1   -1    0    0  501    0  0.00000000000E+00  0.00000000000E+00  0.21792192018E+04  0.21792192018E+04  0.00000000000E+00 0. -1.
         -1   -1    0    0    0  501 -0.00000000000E+00 -0.00000000000E+00 -0.13644276973E+04  0.13644276973E+04  0.00000000000E+00 0.  1.
         23    2    1    2    0    0  0.23843230275E+03 -0.14162591598E+04  0.11173931417E+04  0.18218891338E+04  0.89847716351E+02 0.  0.
        254    2    1    2    0    0 -0.23843230275E+03  0.14162591598E+04 -0.30260163721E+03  0.17217577653E+04  0.90013447927E+03 0.  0.
        -24    2    4    4    0    0 -0.42913220735E+03  0.12664569058E+04 -0.46645996374E+03  0.14184406642E+04  0.79507700229E+02 0.  0.
         24    2    4    4    0    0  0.19069990460E+03  0.14980225396E+03  0.16385832653E+03  0.30331710107E+03  0.79652644146E+02 0.  0.
         11    1    3    3    0    0  0.12924234117E+03 -0.63900505991E+03  0.55691676615E+03  0.85743065828E+03  0.00000000000E+00 0. -1.
        -11    1    3    3    0    0  0.10918996158E+03 -0.77725409989E+03  0.56047637555E+03  0.96445847555E+03  0.00000000000E+00 0.  1.
          2    1    6    6  502    0  0.10542064479E+03  0.41741445972E+02  0.46969692635E+02  0.12272739175E+03  0.00000000000E+00 0. -1.
          3    1    5    5  503    0 -0.24168200603E+03  0.66289417057E+03 -0.20763144137E+03  0.73549282040E+03  0.00000000000E+00 0. -1.
         -4    1    5    5    0  503 -0.18745020132E+03  0.60356273527E+03 -0.25882852237E+03  0.68294784382E+03  0.00000000000E+00 0.  1.
         -1    1    6    6    0  502  0.85279259813E+02  0.10806080798E+03  0.11688863390E+03  0.18058970932E+03  0.00000000000E+00 0.  1.
<mgrwt>
<rscale>  0 0.34487024E+04</rscale>
<asrwt>0</asrwt>
<pdfrwt beam="1">  1        1 0.33526449E+00 0.34487024E+04</pdfrwt>
<pdfrwt beam="2">  1       -1 0.20991195E+00 0.34487024E+04</pdfrwt>
<totfact> 0.23742511E-01</totfact>
</mgrwt>
</event>
<event>
12    1  0.2313531E-007  0.2408997E+04  0.7818608E-02  0.8436143E-01
          2   -1    0    0  501    0  0.00000000000E+00  0.00000000000E+00  0.12266188085E+04  0.12266188085E+04  0.00000000000E+00 0. -1.
         -2   -1    0    0    0  501 -0.00000000000E+00 -0.00000000000E+00 -0.11827766837E+04  0.11827766837E+04  0.00000000000E+00 0.  1.
         23    2    1    2    0    0  0.74369191187E+03 -0.66284594060E+03  0.29435719067E+03  0.10425678527E+04  0.88651965314E+02 0.  0.
        254    2    1    2    0    0 -0.74369191187E+03  0.66284594060E+03 -0.25051506586E+03  0.13668276395E+04  0.90167488433E+03 0.  0.
        -24    2    4    4    0    0 -0.73680868692E+03  0.79385120095E+03 -0.39536204676E+03  0.11557764762E+04  0.80133292552E+02 0.  0.
         24    2    4    4    0    0 -0.68832249567E+01 -0.13100526035E+03  0.14484698090E+03  0.21105116325E+03  0.79700618619E+02 0.  0.
         11    1    3    3    0    0  0.24137657145E+03 -0.27221058810E+03  0.10544727787E+03  0.37878804354E+03  0.00000000000E+00 0.  1.
        -11    1    3    3    0    0  0.50231534042E+03 -0.39063535250E+03  0.18890991280E+03  0.66377980912E+03  0.00000000000E+00 0. -1.
          4    1    6    6  502    0 -0.39200193042E+00 -0.91182694039E+02  0.41647324842E+02  0.10024438650E+03  0.00000000000E+00 0. -1.
          3    1    5    5  503    0 -0.42035055588E+03  0.43741066276E+03 -0.18046175627E+03  0.63292110345E+03  0.00000000000E+00 0. -1.
         -4    1    5    5    0  503 -0.31645813104E+03  0.35644053819E+03 -0.21490029049E+03  0.52285537276E+03  0.00000000000E+00 0.  1.
         -3    1    6    6    0  502 -0.64912230262E+01 -0.39822566314E+02  0.10319965606E+03  0.11080677676E+03  0.00000000000E+00 0.  1.
<mgrwt>
<rscale>  0 0.24089966E+04</rscale>
<asrwt>0</asrwt>
<pdfrwt beam="1">  1        2 0.18871059E+00 0.24089966E+04</pdfrwt>
<pdfrwt beam="2">  1       -2 0.18196564E+00 0.24089966E+04</pdfrwt>
<totfact> 0.28839935E+00</totfact>
</mgrwt>
</event>
<event>
12    1  0.2048318E-007  0.2626209E+04  0.7818608E-02  0.8359353E-01
          1   -1    0    0  501    0  0.00000000000E+00  0.00000000000E+00  0.66688217510E+03  0.66688217510E+03  0.00000000000E+00 0. -1.
         -1   -1    0    0    0  501 -0.00000000000E+00 -0.00000000000E+00 -0.25855300261E+04  0.25855300261E+04  0.00000000000E+00 0.  1.
         23    2    1    2    0    0  0.25454155069E+03 -0.11116951922E+04 -0.10910033645E+04  0.15809101639E+04  0.91274330833E+02 0.  0.
        254    2    1    2    0    0 -0.25454155069E+03  0.11116951922E+04 -0.82764448651E+03  0.16715020374E+04  0.89903618597E+03 0.  0.
        -24    2    4    4    0    0 -0.19265794226E+03 -0.65523099561E+02 -0.31503962434E+03  0.38345762354E+03  0.79871301850E+02 0.  0.
         24    2    4    4    0    0 -0.61883608431E+02  0.11772182917E+04 -0.51260486217E+03  0.12880444138E+04  0.81376777942E+02 0.  0.
         11    1    3    3    0    0  0.11058872810E+03 -0.59197621016E+03 -0.52219479773E+03  0.79709040074E+03  0.00000000000E+00 0. -1.
        -11    1    3    3    0    0  0.14395282259E+03 -0.51971898199E+03 -0.56880856681E+03  0.78381976311E+03  0.00000000000E+00 0.  1.
          4    1    6    6  502    0 -0.38299144749E+02  0.94736562518E+03 -0.37856928849E+03  0.10209226996E+04  0.00000000000E+00 0. -1.
          3    1    5    5  503    0 -0.78416126691E+02 -0.10661260634E+02 -0.18817048785E+03  0.20413447504E+03  0.00000000000E+00 0. -1.
         -4    1    5    5    0  503 -0.11424181557E+03 -0.54861838928E+02 -0.12686913649E+03  0.17932314850E+03  0.00000000000E+00 0.  1.
         -3    1    6    6    0  502 -0.23584463682E+02  0.22985266653E+03 -0.13403557368E+03  0.26712171430E+03  0.00000000000E+00 0.  1.
<mgrwt>
<rscale>  0 0.26262094E+04</rscale>
<asrwt>0</asrwt>
<pdfrwt beam="1">  1        1 0.10259726E+00 0.26262094E+04</pdfrwt>
<pdfrwt beam="2">  1       -1 0.39777384E+00 0.26262094E+04</pdfrwt>
<totfact> 0.19080524E-01</totfact>
</mgrwt>
</event>
<event>
12    1  0.2048318E-007  0.2273643E+04  0.7818608E-02  0.8488386E-01
          2   -1    0    0  501    0  0.00000000000E+00  0.00000000000E+00  0.11638785961E+04  0.11638785961E+04  0.00000000000E+00 0. -1.
         -2   -1    0    0    0  501 -0.00000000000E+00 -0.00000000000E+00 -0.11103937892E+04  0.11103937892E+04  0.00000000000E+00 0.  1.
         23    2    1    2    0    0 -0.47653228683E+03  0.22946294560E+03 -0.77362104863E+03  0.94185844636E+03  0.94188865058E+02 0.  0.
        254    2    1    2    0    0  0.47653228683E+03 -0.22946294560E+03  0.82710585552E+03  0.13324139389E+04  0.90082547956E+03 0.  0.
        -24    2    4    4    0    0  0.31145007846E+03  0.31772580070E+03  0.25324989025E+03  0.51857243929E+03  0.82650057974E+02 0.  0.
         24    2    4    4    0    0  0.16508220837E+03 -0.54718874629E+03  0.57385596528E+03  0.81384149964E+03  0.79747464302E+02 0.  0.
         13    1    3    3    0    0 -0.35542516717E+03  0.20129519864E+03 -0.53858069216E+03  0.67595559649E+03  0.00000000000E+00 0. -1.
        -13    1    3    3    0    0 -0.12110711965E+03  0.28167746959E+02 -0.23504035647E+03  0.26590284987E+03  0.00000000000E+00 0.  1.
          2    1    6    6  502    0  0.13686781262E+03 -0.43986611730E+03  0.50353075239E+03  0.68246481073E+03  0.00000000000E+00 0. -1.
          1    1    5    5  503    0  0.20022751040E+03  0.18716335603E+03  0.11085263225E+03  0.29565094932E+03  0.00000000000E+00 0. -1.
         -2    1    5    5    0  503  0.11122256806E+03  0.13056244467E+03  0.14239725800E+03  0.22292148997E+03  0.00000000000E+00 0.  1.
         -1    1    6    6    0  502  0.28214395752E+02 -0.10732262899E+03  0.70325212880E+02  0.13137668891E+03  0.00000000000E+00 0.  1.
<mgrwt>
<rscale>  0 0.22736434E+04</rscale>
<asrwt>0</asrwt>
<pdfrwt beam="1">  1        2 0.17905825E+00 0.22736434E+04</pdfrwt>
<pdfrwt beam="2">  1       -2 0.17082981E+00 0.22736434E+04</pdfrwt>
<totfact> 0.38039768E+00</totfact>
</mgrwt>
</event>
<event>
12    1  0.2048318E-007  0.1180396E+04  0.7818608E-02  0.9130191E-01
         -2   -1    0    0    0  501 -0.00000000000E+00  0.00000000000E+00  0.69571453600E+03  0.69571453600E+03  0.00000000000E+00 0.  1.
          2   -1    0    0  501    0  0.00000000000E+00 -0.00000000000E+00 -0.50068517662E+03  0.50068517662E+03  0.00000000000E+00 0. -1.
         23    2    1    2    0    0 -0.78028946120E+02  0.20397475056E+03  0.11613997950E+03  0.26636319645E+03  0.98826323845E+02 0.  0.
        254    2    1    2    0    0  0.78028946120E+02 -0.20397475056E+03  0.78889379886E+02  0.93003651617E+03  0.90058323983E+03 0.  0.
        -24    2    4    4    0    0 -0.22263566612E+03 -0.36516858043E+03 -0.20139792074E+03  0.47942229577E+03  0.79811548314E+02 0.  0.
         24    2    4    4    0    0  0.30066461224E+03  0.16119382987E+03  0.28028730063E+03  0.45061422040E+03  0.90053011573E+02 0.  0.
         13    1    3    3    0    0 -0.83332829311E+02  0.12466135333E+03  0.11126941022E+03  0.18672357940E+03  0.00000000000E+00 0.  1.
        -13    1    3    3    0    0  0.53038831910E+01  0.79313397236E+02  0.48705692769E+01  0.79639617045E+02  0.00000000000E+00 0. -1.
          4    1    6    6  502    0  0.80209626651E+02  0.19141767199E+02  0.29035189521E+02  0.87424445606E+02  0.00000000000E+00 0. -1.
          1    1    5    5  503    0 -0.51395109704E+02 -0.15701061688E+03 -0.67673779462E+02  0.17853159816E+03  0.00000000000E+00 0. -1.
         -2    1    5    5    0  503 -0.17124055641E+03 -0.20815796355E+03 -0.13372414128E+03  0.30089069762E+03  0.00000000000E+00 0.  1.
         -3    1    6    6    0  502  0.22045498558E+03  0.14205206267E+03  0.25125211111E+03  0.36318977479E+03  0.00000000000E+00 0.  1.
<mgrwt>
<rscale>  0 0.11803965E+04</rscale>
<asrwt>0</asrwt>
<pdfrwt beam="1">  1        2 0.77028489E-01 0.11803965E+04</pdfrwt>
<pdfrwt beam="2">  1       -2 0.10703301E+00 0.11803965E+04</pdfrwt>
<totfact> 0.42639263E+01</totfact>
</mgrwt>
</event>
<event>
12    1  0.2048318E-007  0.1393914E+04  0.7818608E-02  0.8958235E-01
          1   -1    0    0  501    0  0.00000000000E+00  0.00000000000E+00  0.20036478510E+04  0.20036478510E+04  0.00000000000E+00 0. -1.
         -1   -1    0    0    0  501 -0.00000000000E+00 -0.00000000000E+00 -0.24243246802E+03  0.24243246802E+03  0.00000000000E+00 0.  1.
         23    2    1    2    0    0 -0.35592865550E+03 -0.18579326941E+03  0.42882462513E+03  0.59477316112E+03  0.93060234797E+02 0.  0.
        254    2    1    2    0    0  0.35592865550E+03  0.18579326941E+03  0.13323907578E+04  0.16513071579E+04  0.88901397703E+03 0.  0.
        -24    2    4    4    0    0  0.60373636674E+03  0.13836556843E+03  0.12049607704E+04  0.13575412702E+04  0.85704206435E+02 0.  0.
         24    2    4    4    0    0 -0.24780771123E+03  0.47427700976E+02  0.12742998746E+03  0.29376588772E+03  0.80012164820E+02 0.  0.
         13    1    3    3    0    0 -0.32104058571E+03 -0.13278350448E+03  0.34477972716E+03  0.48946049585E+03  0.00000000000E+00 0. -1.
        -13    1    3    3    0    0 -0.34888069798E+02 -0.53009764923E+02  0.84044897971E+02  0.10531266527E+03  0.00000000000E+00 0.  1.
          4    1    6    6  502    0 -0.24579748402E+03  0.31383215338E+02  0.12457816255E+03  0.27734640423E+03  0.00000000000E+00 0. -1.
          1    1    5    5  503    0  0.42074522363E+03  0.11997480131E+03  0.77648254731E+03  0.89126070396E+03  0.00000000000E+00 0. -1.
         -2    1    5    5    0  503  0.18299114311E+03  0.18390767121E+02  0.42847822307E+03  0.46628056620E+03  0.00000000000E+00 0.  1.
         -3    1    6    6    0  502 -0.20102272158E+01  0.16044485638E+02  0.28518249045E+01  0.16419483492E+02  0.00000000000E+00 0.  1.
<mgrwt>
<rscale>  0 0.13939143E+04</rscale>
<asrwt>0</asrwt>
<pdfrwt beam="1">  1        1 0.30825350E+00 0.13939143E+04</pdfrwt>
<pdfrwt beam="2">  1       -1 0.37297304E-01 0.13939143E+04</pdfrwt>
<totfact> 0.20018991E+01</totfact>
</mgrwt>
</event>
<event>
12    1  0.2048318E-007  0.2798412E+04  0.7818608E-02  0.8303762E-01
          1   -1    0    0  501    0  0.00000000000E+00  0.00000000000E+00  0.29208638816E+04  0.29208638816E+04  0.00000000000E+00 0. -1.
         -1   -1    0    0    0  501 -0.00000000000E+00 -0.00000000000E+00 -0.67027343360E+03  0.67027343360E+03  0.00000000000E+00 0.  1.
         23    2    1    2    0    0  0.10423720268E+04 -0.39434206615E+03  0.27690991699E+03  0.11520713438E+04  0.92434688602E+02 0.  0.
        254    2    1    2    0    0 -0.10423720268E+04  0.39434206615E+03  0.19736805310E+04  0.24390659714E+04  0.90087894130E+03 0.  0.
        -24    2    4    4    0    0  0.24670054005E+02 -0.59604400207E+02  0.72849917670E+03  0.73557695273E+03  0.78747106940E+02 0.  0.
         24    2    4    4    0    0 -0.10670420808E+04  0.45394646636E+03  0.12451813543E+04  0.17034890187E+04  0.82170767336E+02 0.  0.
         11    1    3    3    0    0  0.58111634299E+03 -0.17130292340E+03  0.14205972877E+03  0.62227153414E+03  0.00000000000E+00 0. -1.
        -11    1    3    3    0    0  0.46125568383E+03 -0.22303914275E+03  0.13485018822E+03  0.52979980967E+03  0.00000000000E+00 0.  1.
          4    1    6    6  502    0 -0.42434903819E+03  0.19798570842E+03  0.55732012752E+03  0.72792593819E+03  0.00000000000E+00 0. -1.
          1    1    5    5  503    0  0.43784824171E+02 -0.28885061876E+02  0.23640369403E+03  0.24215318329E+03  0.00000000000E+00 0. -1.
         -2    1    5    5    0  503 -0.19114770166E+02 -0.30719338331E+02  0.49209548267E+03  0.49342376944E+03  0.00000000000E+00 0.  1.
         -3    1    6    6    0  502 -0.64269304264E+03  0.25596075794E+03  0.68786122681E+03  0.97556308049E+03  0.00000000000E+00 0.  1.
<mgrwt>
<rscale>  0 0.27984120E+04</rscale>
<asrwt>0</asrwt>
<pdfrwt beam="1">  1        1 0.44936366E+00 0.27984120E+04</pdfrwt>
<pdfrwt beam="2">  1       -1 0.10311899E+00 0.27984120E+04</pdfrwt>
<totfact> 0.52431114E-01</totfact>
</mgrwt>
</event>
<event>
12    1  0.2048318E-007  0.2296836E+04  0.7818608E-02  0.8479170E-01
          2   -1    0    0  501    0  0.00000000000E+00  0.00000000000E+00  0.11388422696E+04  0.11388422696E+04  0.00000000000E+00 0. -1.
         -2   -1    0    0    0  501 -0.00000000000E+00 -0.00000000000E+00 -0.11580738665E+04  0.11580738665E+04  0.00000000000E+00 0.  1.
         23    2    1    2    0    0 -0.89916930251E+03  0.16887217726E+02  0.35475035046E+03  0.97153200398E+03  0.96104166960E+02 0.  0.
        254    2    1    2    0    0  0.89916930251E+03 -0.16887217726E+02 -0.37398194736E+03  0.13253841322E+04  0.89888263313E+03 0.  0.
        -24    2    4    4    0    0 -0.11345610458E+03  0.13621776078E+03 -0.20824746001E+03  0.28494681443E+03  0.80000727703E+02 0.  0.
         24    2    4    4    0    0  0.10126254071E+04 -0.15310497851E+03 -0.16573448735E+03  0.10404373177E+04  0.78679999510E+02 0.  0.
         13    1    3    3    0    0 -0.66298684292E+02  0.66313251582E+01  0.11223114729E+01  0.66638949536E+02  0.00000000000E+00 0.  1.
        -13    1    3    3    0    0 -0.83287061821E+03  0.10255892568E+02  0.35362803899E+03  0.90489305444E+03  0.00000000000E+00 0. -1.
          2    1    6    6  502    0  0.68915664028E+03 -0.14110672795E+03 -0.11526216853E+03  0.71283472910E+03  0.00000000000E+00 0. -1.
          3    1    5    5  503    0 -0.94175211955E+02  0.12794079506E+03 -0.13412526150E+03  0.20791200870E+03  0.00000000000E+00 0. -1.
         -4    1    5    5    0  503 -0.19280892623E+02  0.82769657156E+01 -0.74122198506E+02  0.77034805725E+02  0.00000000000E+00 0.  1.
         -1    1    6    6    0  502  0.32346876680E+03 -0.11998250556E+02 -0.50472318820E+02  0.32760258864E+03  0.00000000000E+00 0.  1.
<mgrwt>
<rscale>  0 0.22968356E+04</rscale>
<asrwt>0</asrwt>
<pdfrwt beam="1">  1        2 0.17520650E+00 0.22968356E+04</pdfrwt>
<pdfrwt beam="2">  1       -2 0.17816521E+00 0.22968356E+04</pdfrwt>
<totfact> 0.34917394E+00</totfact>
</mgrwt>
</event>
<event>
12    1  0.2048318E-007  0.2346098E+04  0.7818608E-02  0.8459964E-01
          2   -1    0    0  501    0  0.00000000000E+00  0.00000000000E+00  0.10121022710E+04  0.10121022710E+04  0.00000000000E+00 0. -1.
         -2   -1    0    0    0  501 -0.00000000000E+00 -0.00000000000E+00 -0.13595900646E+04  0.13595900646E+04  0.00000000000E+00 0.  1.
         23    2    1    2    0    0 -0.63281900304E+03  0.69582079917E+03  0.17714691316E+03  0.96084643413E+03  0.84960967343E+02 0.  0.
        254    2    1    2    0    0  0.63281900304E+03 -0.69582079917E+03 -0.52463470672E+03  0.14108459015E+04  0.91138252512E+03 0.  0.
        -24    2    4    4    0    0  0.53785819041E+03 -0.68828634328E+03 -0.74965149475E+03  0.11538766260E+04  0.80152237404E+02 0.  0.
         24    2    4    4    0    0  0.94960812625E+02 -0.75344558847E+01  0.22501678804E+03  0.25696927546E+03  0.79538227746E+02 0.  0.
         11    1    3    3    0    0 -0.13120771590E+03  0.19847643592E+03  0.39366179234E+02  0.24115981505E+03  0.00000000000E+00 0.  1.
        -11    1    3    3    0    0 -0.50161128713E+03  0.49734436325E+03  0.13778073392E+03  0.71968661907E+03  0.00000000000E+00 0. -1.
          2    1    6    6  502    0  0.46373000136E+02 -0.10889331083E+02  0.19274559662E+03  0.19854444765E+03  0.00000000000E+00 0. -1.
          1    1    5    5  503    0  0.44285003273E+03 -0.51850126574E+03 -0.56310470135E+03  0.88433399728E+03  0.00000000000E+00 0. -1.
         -2    1    5    5    0  503  0.95008157684E+02 -0.16978507754E+03 -0.18654679341E+03  0.26954262875E+03  0.00000000000E+00 0.  1.
         -1    1    6    6    0  502  0.48587812488E+02  0.33548751983E+01  0.32271191411E+02  0.58424827814E+02  0.00000000000E+00 0.  1.
<mgrwt>
<rscale>  0 0.23460982E+04</rscale>
<asrwt>0</asrwt>
<pdfrwt beam="1">  1        2 0.15570804E+00 0.23460982E+04</pdfrwt>
<pdfrwt beam="2">  1       -2 0.20916770E+00 0.23460982E+04</pdfrwt>
<totfact> 0.25901900E+00</totfact>
</mgrwt>
</event>
<event>
12    1  0.2048318E-007  0.2040524E+04  0.7818608E-02  0.8587906E-01
          3   -1    0    0  501    0  0.00000000000E+00  0.00000000000E+00  0.37596749110E+03  0.37596749110E+03  0.00000000000E+00 0. -1.
         -3   -1    0    0    0  501 -0.00000000000E+00 -0.00000000000E+00 -0.27686810716E+04  0.27686810716E+04  0.00000000000E+00 0.  1.
         23    2    1    2    0    0 -0.48172965741E+03  0.60491516808E+03 -0.13792125400E+04  0.15838032316E+04  0.90662134856E+02 0.  0.
        254    2    1    2    0    0  0.48172965741E+03 -0.60491516808E+03 -0.10135010405E+04  0.15608453310E+04  0.90059311842E+03 0.  0.
        -24    2    4    4    0    0  0.68041248816E+03 -0.19102502286E+03 -0.51167502832E+03  0.87612065853E+03  0.79525846796E+02 0.  0.
         24    2    4    4    0    0 -0.19868283075E+03 -0.41389014522E+03 -0.50182601216E+03  0.68472467250E+03  0.78984878943E+02 0.  0.
         11    1    3    3    0    0 -0.28056541542E+03  0.29794054768E+03 -0.78798305800E+03  0.88792050431E+03  0.00000000000E+00 0. -1.
        -11    1    3    3    0    0 -0.20116424199E+03  0.30697462040E+03 -0.59122948199E+03  0.69588272733E+03  0.00000000000E+00 0.  1.
          4    1    6    6  502    0 -0.17363990104E+03 -0.34133016095E+03 -0.37192967635E+03  0.53384340228E+03  0.00000000000E+00 0. -1.
          3    1    5    5  503    0  0.68229110870E+03 -0.19226917008E+03 -0.51066311357E+03  0.87365062029E+03  0.00000000000E+00 0. -1.
         -4    1    5    5    0  503 -0.18786205463E+01  0.12441472184E+01 -0.10119147497E+01  0.24700382424E+01  0.00000000000E+00 0.  1.
         -3    1    6    6    0  502 -0.25042929704E+02 -0.72559984269E+02 -0.12989633581E+03  0.15088127021E+03  0.00000000000E+00 0.  1.
<mgrwt>
<rscale>  0 0.20405235E+04</rscale>
<asrwt>0</asrwt>
<pdfrwt beam="1">  1        3 0.57841153E-01 0.20405235E+04</pdfrwt>
<pdfrwt beam="2">  1       -3 0.42595093E+00 0.20405235E+04</pdfrwt>
<totfact> 0.54233638E-02</totfact>
</mgrwt>
</event>
<event>
12    1  0.2048318E-007  0.1884434E+04  0.7818608E-02  0.8662644E-01
          1   -1    0    0  501    0  0.00000000000E+00  0.00000000000E+00  0.11471373978E+04  0.11471373978E+04  0.00000000000E+00 0. -1.
         -1   -1    0    0    0  501 -0.00000000000E+00 -0.00000000000E+00 -0.77390291080E+03  0.77390291080E+03  0.00000000000E+00 0.  1.
         23    2    1    2    0    0 -0.45048035684E+03  0.53560196255E+03 -0.39803265545E+02  0.70922510870E+03  0.10776799467E+03 0.  0.
        254    2    1    2    0    0  0.45048035684E+03 -0.53560196255E+03  0.41303775250E+03  0.12118151998E+04  0.89894042039E+03 0.  0.
        -24    2    4    4    0    0 -0.23856224751E+02 -0.63780555891E+03  0.18705043912E+03  0.67054630688E+03  0.85319590134E+02 0.  0.
         24    2    4    4    0    0  0.47433658159E+03  0.10220359636E+03  0.22598731338E+03  0.54126889296E+03  0.80380227274E+02 0.  0.
         11    1    3    3    0    0 -0.25743866758E+03  0.38543127170E+03 -0.22755707147E+02  0.46405792201E+03  0.00000000000E+00 0. -1.
        -11    1    3    3    0    0 -0.19304168926E+03  0.15017069085E+03 -0.17047558399E+02  0.24516718670E+03  0.00000000000E+00 0.  1.
          2    1    6    6  502    0  0.17618799563E+03  0.77141682114E+01  0.10911220445E+03  0.20738175270E+03  0.00000000000E+00 0. -1.
          1    1    5    5  503    0  0.17902026554E+02 -0.19890203114E+03  0.27068459680E+02  0.20153213653E+03  0.00000000000E+00 0. -1.
         -2    1    5    5    0  503 -0.41758251305E+02 -0.43890352777E+03  0.15998197944E+03  0.46901417035E+03  0.00000000000E+00 0.  1.
         -1    1    6    6    0  502  0.29814858597E+03  0.94489428148E+02  0.11687510893E+03  0.33388714026E+03  0.00000000000E+00 0.  1.
<mgrwt>
<rscale>  0 0.18844341E+04</rscale>
<asrwt>0</asrwt>
<pdfrwt beam="1">  1        1 0.17648268E+00 0.18844341E+04</pdfrwt>
<pdfrwt beam="2">  1       -1 0.11906199E+00 0.18844341E+04</pdfrwt>
<totfact> 0.69122273E+00</totfact>
</mgrwt>
</event>
<event>
12    1  0.2048318E-007  0.1350158E+04  0.7818608E-02  0.8990708E-01
          2   -1    0    0  501    0  0.00000000000E+00  0.00000000000E+00  0.62240872427E+03  0.62240872427E+03  0.00000000000E+00 0. -1.
         -2   -1    0    0    0  501 -0.00000000000E+00 -0.00000000000E+00 -0.73220665975E+03  0.73220665975E+03  0.00000000000E+00 0.  1.
         23    2    1    2    0    0 -0.88339333476E+02 -0.35711204492E+03 -0.82649975480E+02  0.38313057871E+03  0.68008612921E+02 0.  0.
        254    2    1    2    0    0  0.88339333476E+02  0.35711204492E+03 -0.27147959998E+02  0.97148480531E+03  0.89872847109E+03 0.  0.
        -24    2    4    4    0    0  0.40276112976E+03  0.29576095679E+03  0.22719606400E+03  0.55472168582E+03  0.80043900560E+02 0.  0.
         24    2    4    4    0    0 -0.31442179628E+03  0.61351088129E+02 -0.25434402400E+03  0.41676311949E+03  0.79847312003E+02 0.  0.
         13    1    3    3    0    0 -0.38421510790E+02 -0.24219910372E+03 -0.79542068325E+02  0.25780527335E+03  0.00000000000E+00 0.  1.
        -13    1    3    3    0    0 -0.49917822685E+02 -0.11491294120E+03 -0.31079071548E+01  0.12532530536E+03  0.00000000000E+00 0. -1.
          4    1    6    6  502    0 -0.16638282549E+03 -0.64782788451E+01 -0.11403980723E+03  0.20181746790E+03  0.00000000000E+00 0. -1.
          1    1    5    5  503    0  0.73911935476E+02  0.89875076000E+02  0.33584231757E+02  0.12111318720E+03  0.00000000000E+00 0. -1.
         -2    1    5    5    0  503  0.32884919428E+03  0.20588588079E+03  0.19361183225E+03  0.43360849862E+03  0.00000000000E+00 0.  1.
         -3    1    6    6    0  502 -0.14803897079E+03  0.67829366974E+02 -0.14030421677E+03  0.21494565159E+03  0.00000000000E+00 0.  1.
<mgrwt>
<rscale>  0 0.13501582E+04</rscale>
<asrwt>0</asrwt>
<pdfrwt beam="1">  1        2 0.95755188E-01 0.13501582E+04</pdfrwt>
<pdfrwt beam="2">  1       -2 0.11264718E+00 0.13501582E+04</pdfrwt>
<totfact> 0.28729125E+01</totfact>
</mgrwt>
</event>
<event>
12    1  0.2048318E-007  0.2187121E+04  0.7818608E-02  0.8523808E-01
         -2   -1    0    0    0  501 -0.00000000000E+00  0.00000000000E+00  0.97201062064E+03  0.97201062064E+03  0.00000000000E+00 0.  1.
          2   -1    0    0  501    0  0.00000000000E+00 -0.00000000000E+00 -0.12303104257E+04  0.12303104257E+04  0.00000000000E+00 0. -1.
         23    2    1    2    0    0 -0.37993772389E+03 -0.15156429809E+03 -0.92069300292E+03  0.10116219690E+04  0.91536834703E+02 0.  0.
        254    2    1    2    0    0  0.37993772389E+03  0.15156429809E+03  0.66239319788E+03  0.11906990773E+04  0.90093014910E+03 0.  0.
        -24    2    4    4    0    0  0.14095372768E+03  0.12571369179E+02 -0.21240252252E+03  0.26999649843E+03  0.88075450169E+02 0.  0.
         24    2    4    4    0    0  0.23898399622E+03  0.13899292891E+03  0.87479572040E+03  0.92070257886E+03  0.77416416553E+02 0.  0.
         13    1    3    3    0    0 -0.25594035158E+03 -0.12497712355E+03 -0.54235574039E+03  0.61259651820E+03  0.00000000000E+00 0. -1.
        -13    1    3    3    0    0 -0.12399737231E+03 -0.26587174538E+02 -0.37833726253E+03  0.39902545083E+03  0.00000000000E+00 0.  1.
          4    1    6    6  502    0  0.78784929159E+02  0.81732243727E+02  0.42197309716E+03  0.43697656625E+03  0.00000000000E+00 0. -1.
          3    1    5    5  503    0  0.14087528001E+03  0.26020489606E+02 -0.15510170482E+03  0.21113845987E+03  0.00000000000E+00 0. -1.
         -4    1    5    5    0  503  0.78447668285E-01 -0.13449120426E+02 -0.57300817703E+02  0.58858038565E+02  0.00000000000E+00 0.  1.
         -3    1    6    6    0  502  0.16019906706E+03  0.57260685186E+02  0.45282262324E+03  0.48372601261E+03  0.00000000000E+00 0.  1.
<mgrwt>
<rscale>  0 0.21871212E+04</rscale>
<asrwt>0</asrwt>
<pdfrwt beam="1">  1        2 0.18927853E+00 0.21871212E+04</pdfrwt>
<pdfrwt beam="2">  1       -2 0.14954010E+00 0.21871212E+04</pdfrwt>
<totfact> 0.50223423E+00</totfact>
</mgrwt>
</event>
<event>
12    1  0.2048318E-007  0.2074291E+04  0.7818608E-02  0.8572654E-01
          2   -1    0    0  501    0  0.00000000000E+00  0.00000000000E+00  0.19213375670E+04  0.19213375670E+04  0.00000000000E+00 0. -1.
         -2   -1    0    0    0  501 -0.00000000000E+00 -0.00000000000E+00 -0.55985540527E+03  0.55985540527E+03  0.00000000000E+00 0.  1.
         23    2    1    2    0    0  0.27598908307E+03 -0.44746207857E+03 -0.22826584888E+03  0.58061205802E+03  0.92805055997E+02 0.  0.
        254    2    1    2    0    0 -0.27598908307E+03  0.44746207857E+03  0.15897480106E+04  0.19005809143E+04  0.89917561615E+03 0.  0.
        -24    2    4    4    0    0 -0.40547051081E+03  0.63034788860E+03  0.14228581520E+04  0.16100202712E+04  0.76779927176E+02 0.  0.
         24    2    4    4    0    0  0.12948142775E+03 -0.18288581003E+03  0.16688985863E+03  0.29056064306E+03  0.79753387018E+02 0.  0.
         13    1    3    3    0    0  0.20941026399E+03 -0.39272644297E+03 -0.21166637331E+03  0.49283807814E+03  0.00000000000E+00 0.  1.
        -13    1    3    3    0    0  0.66578819080E+02 -0.54735635603E+02 -0.16599475564E+02  0.87773979880E+02  0.00000000000E+00 0. -1.
          4    1    6    6  502    0  0.63815323653E+02 -0.31244221030E+02  0.35414084298E+02  0.79389887564E+02  0.00000000000E+00 0. -1.
          1    1    5    5  503    0 -0.21398211259E+03  0.29481601102E+03  0.76005091506E+03  0.84284175166E+03  0.00000000000E+00 0. -1.
         -2    1    5    5    0  503 -0.19148839822E+03  0.33553187758E+03  0.66280723693E+03  0.76717851954E+03  0.00000000000E+00 0.  1.
         -3    1    6    6    0  502  0.65666104093E+02 -0.15164158900E+03  0.13147577433E+03  0.21117075549E+03  0.00000000000E+00 0.  1.
<mgrwt>
<rscale>  0 0.20742914E+04</rscale>
<asrwt>0</asrwt>
<pdfrwt beam="1">  1        2 0.29559039E+00 0.20742914E+04</pdfrwt>
<pdfrwt beam="2">  1       -2 0.86131602E-01 0.20742914E+04</pdfrwt>
<totfact> 0.79767511E+00</totfact>
</mgrwt>
</event>
<event>
12    1  0.3118969E-007  0.2401210E+04  0.7818608E-02  0.8439051E-01
         -1   -1    0    0    0  501 -0.00000000000E+00  0.00000000000E+00  0.11552466519E+04  0.11552466519E+04  0.00000000000E+00 0.  1.
          1   -1    0    0  501    0  0.00000000000E+00 -0.00000000000E+00 -0.12477445595E+04  0.12477445595E+04  0.00000000000E+00 0. -1.
         23    2    1    2    0    0 -0.99041862971E+03 -0.93086250927E+02  0.22740651441E+03  0.10245927904E+04  0.92100766398E+02 0.  0.
        254    2    1    2    0    0  0.99041862971E+03  0.93086250927E+02 -0.31990442201E+03  0.13783984210E+04  0.89891559986E+03 0.  0.
        -24    2    4    4    0    0 -0.10467171389E+03  0.11778818379E+03 -0.21064505716E+03  0.27426633411E+03  0.77591610310E+02 0.  0.
         24    2    4    4    0    0  0.10950903436E+04 -0.24701932865E+02 -0.10925936485E+03  0.11041320869E+04  0.85656350613E+02 0.  0.
         11    1    3    3    0    0 -0.33780182569E+03 -0.62784724043E+02  0.46731538969E+02  0.34675038824E+03  0.00000000000E+00 0. -1.
        -11    1    3    3    0    0 -0.65261680402E+03 -0.30301526884E+02  0.18067497545E+03  0.67784240216E+03  0.00000000000E+00 0.  1.
          2    1    6    6  502    0  0.99094396159E+03 -0.45464140094E+02 -0.10880276974E+03  0.99793535149E+03  0.00000000000E+00 0. -1.
          3    1    5    5  503    0 -0.11455086026E+03  0.10905185945E+03 -0.20714679057E+03  0.26062233304E+03  0.00000000000E+00 0. -1.
         -4    1    5    5    0  503  0.98791463716E+01  0.87363243407E+01 -0.34982665895E+01  0.13644001068E+02  0.00000000000E+00 0.  1.
         -1    1    6    6    0  502  0.10414638201E+03  0.20762207229E+02 -0.45659510447E+00  0.10619673542E+03  0.00000000000E+00 0.  1.
<mgrwt>
<rscale>  0 0.24012103E+04</rscale>
<asrwt>0</asrwt>
<pdfrwt beam="1">  1        1 0.19196070E+00 0.24012103E+04</pdfrwt>
<pdfrwt beam="2">  1       -1 0.17773025E+00 0.24012103E+04</pdfrwt>
<totfact> 0.19100780E+00</totfact>
</mgrwt>
</event>
<event>
12    1  0.2048318E-007  0.1236781E+04  0.7818608E-02  0.9081257E-01
          1   -1    0    0  501    0  0.00000000000E+00  0.00000000000E+00  0.83691196786E+03  0.83691196786E+03  0.00000000000E+00 0. -1.
         -1   -1    0    0    0  501 -0.00000000000E+00 -0.00000000000E+00 -0.45692620090E+03  0.45692620090E+03  0.00000000000E+00 0.  1.
         23    2    1    2    0    0 -0.97949869405E+02 -0.24539555060E+03 -0.58517865434E+01  0.27950583130E+03  0.90973145233E+02 0.  0.
        254    2    1    2    0    0  0.97949869405E+02  0.24539555060E+03  0.38583755350E+03  0.10143323375E+04  0.90010350513E+03 0.  0.
        -24    2    4    4    0    0 -0.38645559607E+03  0.20042605266E+02  0.12614454008E+03  0.41493100407E+03  0.80657667878E+02 0.  0.
         24    2    4    4    0    0  0.48440546547E+03  0.22535294534E+03  0.25969301342E+03  0.59940133339E+03  0.80055557589E+02 0.  0.
         11    1    3    3    0    0 -0.98719670632E+02 -0.12787007247E+03 -0.10514247665E+02  0.16188538602E+03  0.00000000000E+00 0. -1.
        -11    1    3    3    0    0  0.76980122752E+00 -0.11752547813E+03  0.46624611217E+01  0.11762044528E+03  0.00000000000E+00 0.  1.
          2    1    6    6  502    0  0.14082271795E+03  0.50127782553E+02  0.11040857904E+03  0.18583295402E+03  0.00000000000E+00 0. -1.
          3    1    5    5  503    0 -0.14407296869E+03  0.46634751110E+02  0.46208371403E+02  0.15832572092E+03  0.00000000000E+00 0. -1.
         -4    1    5    5    0  503 -0.24238262738E+03 -0.26592145844E+02  0.79936168676E+02  0.25660528314E+03  0.00000000000E+00 0.  1.
         -1    1    6    6    0  502  0.34358274752E+03  0.17522516278E+03  0.14928443438E+03  0.41356837937E+03  0.00000000000E+00 0.  1.
<mgrwt>
<rscale>  0 0.12367813E+04</rscale>
<asrwt>0</asrwt>
<pdfrwt beam="1">  1        1 0.12875569E+00 0.12367813E+04</pdfrwt>
<pdfrwt beam="2">  1       -1 0.70296339E-01 0.12367813E+04</pdfrwt>
<totfact> 0.41495497E+01</totfact>
</mgrwt>
</event>
<event>
12    1  0.2048318E-007  0.1402199E+04  0.7818608E-02  0.8952228E-01
          2   -1    0    0  501    0  0.00000000000E+00  0.00000000000E+00  0.20284838175E+04  0.20284838175E+04  0.00000000000E+00 0. -1.
         -2   -1    0    0    0  501 -0.00000000000E+00 -0.00000000000E+00 -0.24231915077E+03  0.24231915077E+03  0.00000000000E+00 0.  1.
         23    2    1    2    0    0  0.28759963195E+02  0.35156671796E+03  0.20776239676E+03  0.42008498981E+03  0.94233181503E+02 0.  0.
        254    2    1    2    0    0 -0.28759963195E+02 -0.35156671796E+03  0.15784022700E+04  0.18507179785E+04  0.89965383193E+03 0.  0.
        -24    2    4    4    0    0  0.36049627697E+03 -0.90126516167E+02  0.29239172264E+03  0.47943388586E+03  0.79269015478E+02 0.  0.
         24    2    4    4    0    0 -0.38925624016E+03 -0.26144020179E+03  0.12860105473E+04  0.13712840926E+04  0.82009360280E+02 0.  0.
         11    1    3    3    0    0 -0.17044193350E+01  0.82991840391E+01 -0.94761516425E+01  0.12711370931E+02  0.00000000000E+00 0.  1.
        -11    1    3    3    0    0  0.30464382530E+02  0.34326753392E+03  0.21723854840E+03  0.40737361888E+03  0.00000000000E+00 0. -1.
          4    1    6    6  502    0 -0.16716178365E+03 -0.15841450217E+03  0.66541911159E+03  0.70414544697E+03  0.00000000000E+00 0. -1.
          3    1    5    5  503    0  0.27839059642E+02 -0.28718598006E+02  0.45871080265E+02  0.60859897452E+02  0.00000000000E+00 0. -1.
         -4    1    5    5    0  503  0.33265721733E+03 -0.61407918161E+02  0.24652064237E+03  0.41857398840E+03  0.00000000000E+00 0.  1.
         -3    1    6    6    0  502 -0.22209445651E+03 -0.10302569962E+03  0.62059143575E+03  0.66713864565E+03  0.00000000000E+00 0.  1.
<mgrwt>
<rscale>  0 0.14021990E+04</rscale>
<asrwt>0</asrwt>
<pdfrwt beam="1">  1        2 0.31207442E+00 0.14021990E+04</pdfrwt>
<pdfrwt beam="2">  1       -2 0.37279871E-01 0.14021990E+04</pdfrwt>
<totfact> 0.42557344E+01</totfact>
</mgrwt>
</event>
<event>
12    1  0.2048318E-007  0.1061427E+04  0.7818608E-02  0.9243625E-01
          1   -1    0    0  501    0  0.00000000000E+00  0.00000000000E+00  0.10446583438E+04  0.10446583438E+04  0.00000000000E+00 0.  1.
         -1   -1    0    0    0  501 -0.00000000000E+00 -0.00000000000E+00 -0.26961628592E+03  0.26961628592E+03  0.00000000000E+00 0. -1.
         23    2    1    2    0    0 -0.48189238550E+02  0.87818010669E+02  0.19704727172E+03  0.23911108231E+03  0.91171687940E+02 0.  0.
        254    2    1    2    0    0  0.48189238550E+02 -0.87818010669E+02  0.57799478619E+03  0.10751635474E+04  0.90103522417E+03 0.  0.
        -24    2    4    4    0    0  0.20641711663E+03  0.30563650023E+03  0.51608082526E+03  0.63920977991E+03  0.78917857465E+02 0.  0.
         24    2    4    4    0    0 -0.15822787808E+03 -0.39345451089E+03  0.61913960932E+02  0.43595376754E+03  0.79873871360E+02 0.  0.
         11    1    3    3    0    0  0.69566838143E+01  0.18197834159E+02 -0.34847146350E+01  0.19791408587E+02  0.00000000000E+00 0. -1.
        -11    1    3    3    0    0 -0.55145922364E+02  0.69620176510E+02  0.20053198636E+03  0.21931967373E+03  0.00000000000E+00 0.  1.
          4    1    6    6  502    0 -0.42337125568E+02 -0.54243586279E+02 -0.12272997486E+02  0.69895817622E+02  0.00000000000E+00 0. -1.
          3    1    5    5  503    0  0.12024393423E+03  0.15296814168E+03  0.33337276498E+03  0.38599903694E+03  0.00000000000E+00 0. -1.
         -4    1    5    5    0  503  0.86173182398E+02  0.15266835855E+03  0.18270806029E+03  0.25321074298E+03  0.00000000000E+00 0.  1.
         -3    1    6    6    0  502 -0.11589075251E+03 -0.33921092462E+03  0.74186958418E+02  0.36605794991E+03  0.00000000000E+00 0.  1.
<mgrwt>
<rscale>  0 0.10614272E+04</rscale>
<asrwt>0</asrwt>
<pdfrwt beam="1">  1        1 0.16071667E+00 0.10614272E+04</pdfrwt>
<pdfrwt beam="2">  1       -1 0.41479429E-01 0.10614272E+04</pdfrwt>
<totfact> 0.79450152E+01</totfact>
</mgrwt>
</event>
<event>
12    1  0.2048318E-007  0.2391134E+04  0.7818608E-02  0.8442830E-01
         -2   -1    0    0    0  501 -0.00000000000E+00  0.00000000000E+00  0.24421077466E+04  0.24421077466E+04  0.00000000000E+00 0.  1.
          2   -1    0    0  501    0  0.00000000000E+00 -0.00000000000E+00 -0.58530628302E+03  0.58530628302E+03  0.00000000000E+00 0. -1.
         23    2    1    2    0    0 -0.11402854688E+03 -0.94044221577E+03  0.30698620496E+03  0.10005695614E+04  0.97287442509E+02 0.  0.
        254    2    1    2    0    0  0.11402854688E+03  0.94044221577E+03  0.15498152587E+04  0.20268444683E+04  0.89929811065E+03 0.  0.
        -24    2    4    4    0    0  0.12769570257E+03  0.10977829383E+04  0.11900365796E+04  0.16259317567E+04  0.77675250484E+02 0.  0.
         24    2    4    4    0    0 -0.13667155690E+02 -0.15734072249E+03  0.35977867902E+03  0.40091271156E+03  0.79670636484E+02 0.  0.
         13    1    3    3    0    0  0.16533791017E+02 -0.14639302384E+03  0.56298497215E+02  0.15771431281E+03  0.00000000000E+00 0.  1.
        -13    1    3    3    0    0 -0.13056233790E+03 -0.79404919192E+03  0.25068770775E+03  0.84285524860E+03  0.00000000000E+00 0. -1.
          2    1    6    6  502    0 -0.35766025955E+02 -0.64273031486E+02  0.21636011089E+03  0.22852117795E+03  0.00000000000E+00 0. -1.
          1    1    5    5  503    0  0.88500153646E+02  0.60993566242E+03  0.61252922391E+03  0.86893373719E+03  0.00000000000E+00 0. -1.
         -4    1    5    5    0  503  0.39195548928E+02  0.48784727584E+03  0.57750735572E+03  0.75699801949E+03  0.00000000000E+00 0.  1.
         -1    1    6    6    0  502  0.22098870265E+02 -0.93067691007E+02  0.14341856813E+03  0.17239153361E+03  0.00000000000E+00 0.  1.
<mgrwt>
<rscale>  0 0.23911345E+04</rscale>
<asrwt>0</asrwt>
<pdfrwt beam="1">  1        2 0.90047122E-01 0.23911345E+04</pdfrwt>
<pdfrwt beam="2">  1       -2 0.37570888E+00 0.23911345E+04</pdfrwt>
<totfact> 0.49114427E-01</totfact>
</mgrwt>
</event>
<event>
12    1  0.2048318E-007  0.2948507E+04  0.7818608E-02  0.8258590E-01
         -1   -1    0    0    0  501 -0.00000000000E+00  0.00000000000E+00  0.58448672635E+03  0.58448672635E+03  0.00000000000E+00 0.  1.
          1   -1    0    0  501    0  0.00000000000E+00 -0.00000000000E+00 -0.37185167715E+04  0.37185167715E+04  0.00000000000E+00 0. -1.
         23    2    1    2    0    0  0.13937945859E+03  0.13175817018E+04 -0.11735589102E+04  0.17722462071E+04  0.90376592291E+02 0.  0.
        254    2    1    2    0    0 -0.13937945859E+03 -0.13175817018E+04 -0.19604711350E+04  0.25307572908E+04  0.89768436518E+03 0.  0.
        -24    2    4    4    0    0  0.14356583264E+03 -0.10406427262E+04 -0.18179911840E+04  0.21011996740E+04  0.79998082031E+02 0.  0.
         24    2    4    4    0    0 -0.28294529123E+03 -0.27693897560E+03 -0.14247995098E+03  0.42955761678E+03  0.86405877517E+02 0.  0.
         13    1    3    3    0    0  0.50010496904E+02  0.18419410217E+03 -0.18076865364E+03  0.26287986460E+03  0.00000000000E+00 0. -1.
        -13    1    3    3    0    0  0.89368961684E+02  0.11333875996E+04 -0.99279025658E+03  0.15093663425E+04  0.00000000000E+00 0.  1.
          2    1    6    6  502    0 -0.25451020041E+03 -0.26542755305E+03 -0.10769496849E+03  0.38317807123E+03  0.00000000000E+00 0. -1.
          1    1    5    5  503    0  0.10379773502E+03 -0.66392981637E+03 -0.10885710594E+04  0.12792825029E+04  0.00000000000E+00 0. -1.
         -2    1    5    5    0  503  0.39768097626E+02 -0.37671290982E+03 -0.72942012460E+03  0.82191717112E+03  0.00000000000E+00 0.  1.
         -1    1    6    6    0  502 -0.28435090821E+02 -0.11511422548E+02 -0.34784982492E+02  0.46379545556E+02  0.00000000000E+00 0.  1.
<mgrwt>
<rscale>  0 0.29485072E+04</rscale>
<asrwt>0</asrwt>
<pdfrwt beam="1">  1        1 0.57207950E+00 0.29485072E+04</pdfrwt>
<pdfrwt beam="2">  1       -1 0.89921035E-01 0.29485072E+04</pdfrwt>
<totfact> 0.17223154E-01</totfact>
</mgrwt>
</event>
<event>
12    1  0.2048318E-007  0.1463921E+04  0.7818608E-02  0.8908806E-01
         -2   -1    0    0    0  501 -0.00000000000E+00  0.00000000000E+00  0.20503783005E+03  0.20503783005E+03  0.00000000000E+00 0.  1.
          2   -1    0    0  501    0  0.00000000000E+00 -0.00000000000E+00 -0.26130113375E+04  0.26130113375E+04  0.00000000000E+00 0. -1.
         23    2    1    2    0    0  0.44184497792E+03 -0.48525662623E+02 -0.79228066248E+03  0.91268288474E+03  0.87747794908E+02 0.  0.
        254    2    1    2    0    0 -0.44184497792E+03  0.48525662623E+02 -0.16156928450E+04  0.19053662828E+04  0.90684925867E+03 0.  0.
        -24    2    4    4    0    0 -0.67590628977E+03 -0.74553284582E+01 -0.79594081481E+03  0.10472546296E+04  0.79470649351E+02 0.  0.
         24    2    4    4    0    0  0.23406131186E+03  0.55980991081E+02 -0.81975203020E+03  0.85811165322E+03  0.80272344621E+02 0.  0.
         11    1    3    3    0    0  0.24944818904E+03  0.11363683825E+02 -0.39692418734E+03  0.46893746152E+03  0.00000000000E+00 0.  1.
        -11    1    3    3    0    0  0.19239678888E+03 -0.59889346448E+02 -0.39535647514E+03  0.44374542322E+03  0.00000000000E+00 0. -1.
          4    1    6    6  502    0  0.89904685623E+02 -0.73620142157E+01 -0.39348114224E+03  0.40368856938E+03  0.00000000000E+00 0. -1.
          1    1    5    5  503    0 -0.16581480305E+03  0.32228478947E+02 -0.19197484462E+03  0.25570992302E+03  0.00000000000E+00 0. -1.
         -2    1    5    5    0  503 -0.51009148672E+03 -0.39683807405E+02 -0.60396597019E+03  0.79154470660E+03  0.00000000000E+00 0.  1.
         -3    1    6    6    0  502  0.14415662624E+03  0.63343005297E+02 -0.42627088796E+03  0.45442308384E+03  0.00000000000E+00 0.  1.
<mgrwt>
<rscale>  0 0.14639210E+04</rscale>
<asrwt>0</asrwt>
<pdfrwt beam="1">  1        2 0.40200171E+00 0.14639210E+04</pdfrwt>
<pdfrwt beam="2">  1       -2 0.31544284E-01 0.14639210E+04</pdfrwt>
<totfact> 0.27143668E+01</totfact>
</mgrwt>
</event>
<event>
12    1  0.2048318E-007  0.1053732E+04  0.7818608E-02  0.9251499E-01
          1   -1    0    0  501    0  0.00000000000E+00  0.00000000000E+00  0.24341526253E+03  0.24341526253E+03  0.00000000000E+00 0. -1.
         -1   -1    0    0    0  501 -0.00000000000E+00 -0.00000000000E+00 -0.11403879941E+04  0.11403879941E+04  0.00000000000E+00 0.  1.
         23    2    1    2    0    0  0.64809672907E+02  0.40896728496E+02 -0.16731499571E+02  0.12252155272E+03  0.94120941870E+02 0.  0.
        254    2    1    2    0    0 -0.64809672907E+02 -0.40896728496E+02 -0.88024123204E+03  0.12612817040E+04  0.90007448250E+03 0.  0.
        -24    2    4    4    0    0 -0.14361345415E+03 -0.43010627451E+03 -0.64408920080E+03  0.79167616059E+03  0.79271767184E+02 0.  0.
         24    2    4    4    0    0  0.78803781244E+02  0.38920954601E+03 -0.23615203123E+03  0.46960554336E+03  0.84068292818E+02 0.  0.
         11    1    3    3    0    0  0.56222594462E+02 -0.14797757112E+02  0.11853736658E+02  0.59333505006E+02  0.00000000000E+00 0. -1.
        -11    1    3    3    0    0  0.85870784458E+01  0.55694485608E+02 -0.28585236229E+02  0.63188047712E+02  0.00000000000E+00 0.  1.
          4    1    6    6  502    0  0.36074256736E+02  0.32936320861E+03 -0.20585301503E+03  0.39007299187E+03  0.00000000000E+00 0. -1.
          1    1    5    5  503    0 -0.14280746022E+03 -0.39408599028E+03 -0.61977424176E+03  0.74820976282E+03  0.00000000000E+00 0. -1.
         -2    1    5    5    0  503 -0.80599393304E+00 -0.36020284225E+02 -0.24314959044E+02  0.43466397771E+02  0.00000000000E+00 0.  1.
         -3    1    6    6    0  502  0.42729524508E+02  0.59846337397E+02 -0.30299016202E+02  0.79532551495E+02  0.00000000000E+00 0.  1.
<mgrwt>
<rscale>  0 0.10537321E+04</rscale>
<asrwt>0</asrwt>
<pdfrwt beam="1">  1        1 0.37448503E-01 0.10537321E+04</pdfrwt>
<pdfrwt beam="2">  1       -1 0.17544430E+00 0.10537321E+04</pdfrwt>
<totfact> 0.25847538E+01</totfact>
</mgrwt>
</event>
<event>
12    1  0.2048318E-007  0.3746200E+04  0.7818608E-02  0.8057800E-01
          1   -1    0    0  501    0  0.00000000000E+00  0.00000000000E+00  0.26670467205E+04  0.26670467205E+04  0.00000000000E+00 0. -1.
         -1   -1    0    0    0  501 -0.00000000000E+00 -0.00000000000E+00 -0.13155017158E+04  0.13155017158E+04  0.00000000000E+00 0.  1.
         23    2    1    2    0    0  0.12630101628E+04 -0.12293555494E+04  0.64024575006E+03  0.18776351086E+04  0.95337518376E+02 0.  0.
        254    2    1    2    0    0 -0.12630101628E+04  0.12293555494E+04  0.71129925465E+03  0.21049133278E+04  0.90454615683E+03 0.  0.
        -24    2    4    4    0    0 -0.57378991240E+03  0.13454021434E+02  0.16869301775E+03  0.60335320723E+03  0.78497669879E+02 0.  0.
         24    2    4    4    0    0 -0.68922025037E+03  0.12159015280E+04  0.54260623690E+03  0.15015601206E+04  0.82584430569E+02 0.  0.
         11    1    3    3    0    0  0.17765680392E+03 -0.18316361329E+03  0.58447017589E+02  0.26177643721E+03  0.00000000000E+00 0. -1.
        -11    1    3    3    0    0  0.10853533588E+04 -0.10461919361E+04  0.58179873247E+03  0.16158586714E+04  0.00000000000E+00 0.  1.
          2    1    6    6  502    0 -0.41147137093E+03  0.65741779951E+03  0.32572945449E+03  0.84119351503E+03  0.00000000000E+00 0. -1.
          3    1    5    5  503    0 -0.56736216098E+02  0.14860187422E+02 -0.24742800297E+01  0.58702175846E+02  0.00000000000E+00 0. -1.
         -4    1    5    5    0  503 -0.51705369630E+03 -0.14061659883E+01  0.17116729778E+03  0.54465103139E+03  0.00000000000E+00 0.  1.
         -1    1    6    6    0  502 -0.27774887944E+03  0.55848372845E+03  0.21687678241E+03  0.66036660554E+03  0.00000000000E+00 0.  1.
<mgrwt>
<rscale>  0 0.37462005E+04</rscale>
<asrwt>0</asrwt>
<pdfrwt beam="1">  1        1 0.41031488E+00 0.37462005E+04</pdfrwt>
<pdfrwt beam="2">  1       -1 0.20238488E+00 0.37462005E+04</pdfrwt>
<totfact> 0.11989085E-01</totfact>
</mgrwt>
</event>
<event>
12    1  0.2048318E-007  0.1802686E+04  0.7818608E-02  0.8704872E-01
          2   -1    0    0  501    0  0.00000000000E+00  0.00000000000E+00  0.18423920327E+04  0.18423920327E+04  0.00000000000E+00 0. -1.
         -2   -1    0    0    0  501 -0.00000000000E+00 -0.00000000000E+00 -0.44095912996E+03  0.44095912996E+03  0.00000000000E+00 0.  1.
         23    2    1    2    0    0  0.64062961735E+03 -0.10904721419E+03  0.31006435701E+03  0.72553237747E+03  0.89217283770E+02 0.  0.
        254    2    1    2    0    0 -0.64062961735E+03  0.10904721419E+03  0.10913685457E+04  0.15578187852E+04  0.90189603799E+03 0.  0.
        -24    2    4    4    0    0 -0.57380088858E+03 -0.25387435662E+03  0.34378852870E+03  0.72023211655E+03  0.82729079317E+02 0.  0.
         24    2    4    4    0    0 -0.66828728770E+02  0.36292157081E+03  0.74758001702E+03  0.83758666863E+03  0.80606451816E+02 0.  0.
         13    1    3    3    0    0  0.27352041440E+03 -0.73182315304E+01  0.10653177393E+03  0.29362559913E+03  0.00000000000E+00 0.  1.
        -13    1    3    3    0    0  0.36710920295E+03 -0.10172898266E+03  0.20353258309E+03  0.43190677834E+03  0.00000000000E+00 0. -1.
          4    1    6    6  502    0 -0.83159634257E+02  0.32508595693E+03  0.64562080940E+03  0.72761434407E+03  0.00000000000E+00 0. -1.
          3    1    5    5  503    0 -0.56210738766E+03 -0.24330156134E+03  0.34725260898E+03  0.70409142834E+03  0.00000000000E+00 0. -1.
         -4    1    5    5    0  503 -0.11693500915E+02 -0.10572795277E+02 -0.34640802875E+01  0.16140688209E+02  0.00000000000E+00 0.  1.
         -3    1    6    6    0  502  0.16330905487E+02  0.37835613885E+02  0.10195920762E+03  0.10997232457E+03  0.00000000000E+00 0.  1.
<mgrwt>
<rscale>  0 0.18026864E+04</rscale>
<asrwt>0</asrwt>
<pdfrwt beam="1">  1        2 0.28344492E+00 0.18026864E+04</pdfrwt>
<pdfrwt beam="2">  1       -2 0.67839867E-01 0.18026864E+04</pdfrwt>
<totfact> 0.15353674E+01</totfact>
</mgrwt>
</event>
<event>
12    1  0.2048318E-007  0.2036314E+04  0.7818608E-02  0.8589829E-01
          1   -1    0    0  501    0  0.00000000000E+00  0.00000000000E+00  0.21246462997E+04  0.21246462997E+04  0.00000000000E+00 0. -1.
         -1   -1    0    0    0  501 -0.00000000000E+00 -0.00000000000E+00 -0.48791338753E+03  0.48791338753E+03  0.00000000000E+00 0.  1.
         23    2    1    2    0    0  0.41098180169E+02 -0.76175640074E+03  0.28493797098E+03  0.81877730785E+03  0.85116144546E+02 0.  0.
        254    2    1    2    0    0 -0.41098180169E+02  0.76175640074E+03  0.13517949412E+04  0.17937823793E+04  0.89907941085E+03 0.  0.
        -24    2    4    4    0    0  0.23716681116E+03  0.41666080403E+03  0.12387948141E+04  0.13307472824E+04  0.80133740262E+02 0.  0.
         24    2    4    4    0    0 -0.27826499133E+03  0.34509559671E+03  0.11300012704E+03  0.46303509689E+03  0.71484935299E+02 0.  0.
         11    1    3    3    0    0  0.51962048139E+02 -0.28848225506E+03  0.13010433914E+03  0.32070111474E+03  0.00000000000E+00 0. -1.
        -11    1    3    3    0    0 -0.10863867970E+02 -0.47327414568E+03  0.15483363184E+03  0.49807619312E+03  0.00000000000E+00 0.  1.
          2    1    6    6  502    0 -0.28138096476E+03  0.33059800974E+03  0.11076162588E+03  0.44803842374E+03  0.00000000000E+00 0. -1.
          3    1    5    5  503    0  0.15505906655E+03  0.29324970286E+03  0.75270711031E+03  0.82256105929E+03  0.00000000000E+00 0. -1.
         -2    1    5    5    0  503  0.82107744609E+02  0.12341110117E+03  0.48608770380E+03  0.50818622315E+03  0.00000000000E+00 0.  1.
         -1    1    6    6    0  502  0.31159734323E+01  0.14497586967E+02  0.22385011548E+01  0.14996673155E+02  0.00000000000E+00 0.  1.
<mgrwt>
<rscale>  0 0.20363137E+04</rscale>
<asrwt>0</asrwt>
<pdfrwt beam="1">  1        1 0.32686866E+00 0.20363137E+04</pdfrwt>
<pdfrwt beam="2">  1       -1 0.75063599E-01 0.20363137E+04</pdfrwt>
<totfact> 0.40466339E+00</totfact>
</mgrwt>
</event>
<event>
12    1  0.2048318E-007  0.3500535E+04  0.7818608E-02  0.8113663E-01
         -2   -1    0    0    0  501 -0.00000000000E+00  0.00000000000E+00  0.14840139764E+04  0.14840139764E+04  0.00000000000E+00 0.  1.
          2   -1    0    0  501    0  0.00000000000E+00 -0.00000000000E+00 -0.20642906756E+04  0.20642906756E+04  0.00000000000E+00 0. -1.
         23    2    1    2    0    0 -0.11648531668E+04  0.10457255217E+04 -0.74394186236E+03  0.17355894699E+04  0.91632671186E+02 0.  0.
        254    2    1    2    0    0  0.11648531668E+04 -0.10457255217E+04  0.16366516318E+03  0.18127151822E+04  0.89929154286E+03 0.  0.
        -24    2    4    4    0    0  0.30866571364E+03 -0.76721516405E+03  0.33070409120E+03  0.89407180511E+03  0.78138121466E+02 0.  0.
         24    2    4    4    0    0  0.85618745320E+03 -0.27851035761E+03 -0.16703892802E+03  0.91864337705E+03  0.73339460153E+02 0.  0.
         13    1    3    3    0    0 -0.98340012791E+03  0.92328687239E+03 -0.65101099617E+03  0.14977816187E+04  0.00000000000E+00 0. -1.
        -13    1    3    3    0    0 -0.18145303892E+03  0.12243864927E+03 -0.92930866194E+02  0.23780785113E+03  0.00000000000E+00 0.  1.
          2    1    6    6  502    0  0.21652544591E+03 -0.38087487306E+02 -0.34062502810E+02  0.22247287366E+03  0.00000000000E+00 0. -1.
          3    1    5    5  503    0  0.69683650540E+02 -0.23206180905E+03  0.67015815125E+02  0.25139533379E+03  0.00000000000E+00 0. -1.
         -4    1    5    5    0  503  0.23898206310E+03 -0.53515335500E+03  0.26368827607E+03  0.64267647132E+03  0.00000000000E+00 0.  1.
         -1    1    6    6    0  502  0.63966200729E+03 -0.24042287030E+03 -0.13297642521E+03  0.69617050339E+03  0.00000000000E+00 0.  1.
<mgrwt>
<rscale>  0 0.35005349E+04</rscale>
<asrwt>0</asrwt>
<pdfrwt beam="1">  1        2 0.31758318E+00 0.35005349E+04</pdfrwt>
<pdfrwt beam="2">  1       -2 0.22830984E+00 0.35005349E+04</pdfrwt>
<totfact> 0.44289883E-01</totfact>
</mgrwt>
</event>
<event>
12    1  0.2048318E-007  0.2899553E+04  0.7818608E-02  0.8273011E-01
          2   -1    0    0  501    0  0.00000000000E+00  0.00000000000E+00  0.15950424969E+04  0.15950424969E+04  0.00000000000E+00 0. -1.
         -2   -1    0    0    0  501 -0.00000000000E+00 -0.00000000000E+00 -0.13177400605E+04  0.13177400605E+04  0.00000000000E+00 0.  1.
         23    2    1    2    0    0  0.11738964997E+04 -0.39404307880E+03  0.55123908273E+03  0.13584911944E+04  0.91273539387E+02 0.  0.
        254    2    1    2    0    0 -0.11738964997E+04  0.39404307880E+03 -0.27393664632E+03  0.15542913630E+04  0.89859747109E+03 0.  0.
        -24    2    4    4    0    0 -0.41647434518E+03  0.79343003268E+02 -0.53743109610E+03  0.68915149875E+03  0.79695751488E+02 0.  0.
         24    2    4    4    0    0 -0.75742215449E+03  0.31470007553E+03  0.26349444978E+03  0.86513986427E+03  0.79455660752E+02 0.  0.
         13    1    3    3    0    0  0.15043280585E+03 -0.45797420778E+02  0.38085773892E+02  0.16179604135E+03  0.00000000000E+00 0. -1.
        -13    1    3    3    0    0  0.10234636938E+04 -0.34824565802E+03  0.51315330883E+03  0.11966951530E+04  0.00000000000E+00 0.  1.
          4    1    6    6  502    0 -0.21198103040E+03  0.61511320066E+02  0.97564059768E+02  0.24132622216E+03  0.00000000000E+00 0. -1.
          1    1    5    5  503    0 -0.23647807030E+03  0.70829520416E+02 -0.35796345859E+03  0.43482931868E+03  0.00000000000E+00 0. -1.
         -2    1    5    5    0  503 -0.17999627488E+03  0.85134828515E+01 -0.17946763751E+03  0.25432218007E+03  0.00000000000E+00 0.  1.
         -3    1    6    6    0  502 -0.54544112410E+03  0.25318875546E+03  0.16593039001E+03  0.62381364211E+03  0.00000000000E+00 0.  1.
<mgrwt>
<rscale>  0 0.28995527E+04</rscale>
<asrwt>0</asrwt>
<pdfrwt beam="1">  1        2 0.24539115E+00 0.28995527E+04</pdfrwt>
<pdfrwt beam="2">  1       -2 0.20272924E+00 0.28995527E+04</pdfrwt>
<totfact> 0.12365211E+00</totfact>
</mgrwt>
</event>
<event>
12    1  0.2048318E-007  0.1779647E+04  0.7818608E-02  0.8717198E-01
         -2   -1    0    0    0  501 -0.00000000000E+00  0.00000000000E+00  0.74615692913E+03  0.74615692913E+03  0.00000000000E+00 0.  1.
          2   -1    0    0  501    0  0.00000000000E+00 -0.00000000000E+00 -0.10611519607E+04  0.10611519607E+04  0.00000000000E+00 0. -1.
         23    2    1    2    0    0 -0.38867532743E+03  0.51824602461E+03 -0.22881580298E+03  0.69341993897E+03  0.93952583229E+02 0.  0.
        254    2    1    2    0    0  0.38867532743E+03 -0.51824602461E+03 -0.86179228570E+02  0.11138889508E+04  0.90203895881E+03 0.  0.
        -24    2    4    4    0    0  0.37377226544E+03  0.14106078135E+03 -0.17607286011E+03  0.44341514359E+03  0.77533780045E+02 0.  0.
         24    2    4    4    0    0  0.14903061987E+02 -0.65930680596E+03  0.89893631540E+02  0.67047380726E+03  0.80911652971E+02 0.  0.
         13    1    3    3    0    0 -0.29193770728E+03  0.40026455659E+03 -0.21553373194E+03  0.54027227377E+03  0.00000000000E+00 0. -1.
        -13    1    3    3    0    0 -0.96737620145E+02  0.11798146801E+03 -0.13282071043E+02  0.15314766520E+03  0.00000000000E+00 0.  1.
          2    1    6    6  502    0  0.19558036958E+02 -0.14182128412E+03  0.49151769764E+02  0.15136607913E+03  0.00000000000E+00 0. -1.
          1    1    5    5  503    0 -0.11186592319E+01  0.91478770836E+01 -0.67632635560E+01  0.11431394821E+02  0.00000000000E+00 0. -1.
         -2    1    5    5    0  503  0.37489092467E+03  0.13191290427E+03 -0.16930959655E+03  0.43198374877E+03  0.00000000000E+00 0.  1.
         -1    1    6    6    0  502 -0.46549749705E+01 -0.51748552184E+03  0.40741861777E+02  0.51910772813E+03  0.00000000000E+00 0.  1.
<mgrwt>
<rscale>  0 0.17796470E+04</rscale>
<asrwt>0</asrwt>
<pdfrwt beam="1">  1        2 0.16325415E+00 0.17796470E+04</pdfrwt>
<pdfrwt beam="2">  1       -2 0.11479337E+00 0.17796470E+04</pdfrwt>
<totfact> 0.12901065E+01</totfact>
</mgrwt>
</event>
<event>
12    1  0.2048318E-007  0.2050488E+04  0.7818608E-02  0.8583373E-01
          2   -1    0    0  501    0  0.00000000000E+00  0.00000000000E+00  0.15898035645E+04  0.15898035645E+04  0.00000000000E+00 0.  1.
         -2   -1    0    0    0  501 -0.00000000000E+00 -0.00000000000E+00 -0.66116651937E+03  0.66116651937E+03  0.00000000000E+00 0. -1.
         23    2    1    2    0    0 -0.42139944375E+03 -0.69965490179E+03  0.48742364170E+03  0.95546151767E+03  0.90721730996E+02 0.  0.
        254    2    1    2    0    0  0.42139944375E+03  0.69965490179E+03  0.44121340344E+03  0.12955085662E+04  0.90364744503E+03 0.  0.
        -24    2    4    4    0    0 -0.54517525210E+02  0.61834948598E+03  0.50186522003E+03  0.80234184619E+03  0.80965991049E+02 0.  0.
         24    2    4    4    0    0  0.47591696896E+03  0.81305415813E+02 -0.60651816590E+02  0.49316672000E+03  0.80170062220E+02 0.  0.
         11    1    3    3    0    0 -0.13918859359E+03 -0.17211239450E+03  0.10155539921E+03  0.24353570587E+03  0.00000000000E+00 0. -1.
        -11    1    3    3    0    0 -0.28221085016E+03 -0.52754250729E+03  0.38586824248E+03  0.71192581180E+03  0.00000000000E+00 0.  1.
          2    1    6    6  502    0  0.43137782730E+03  0.54680839491E+02 -0.37806665280E+02  0.43647012273E+03  0.00000000000E+00 0. -1.
          1    1    5    5  503    0 -0.68581708988E+02  0.59330116081E+03  0.48039476798E+03  0.76647821321E+03  0.00000000000E+00 0. -1.
         -2    1    5    5    0  503  0.14064183778E+02  0.25048325161E+02  0.21470452053E+02  0.35863632974E+02  0.00000000000E+00 0.  1.
         -1    1    6    6    0  502  0.44539141661E+02  0.26624576321E+02 -0.22845151311E+02  0.56696597276E+02  0.00000000000E+00 0.  1.
<mgrwt>
<rscale>  0 0.20504876E+04</rscale>
<asrwt>0</asrwt>
<pdfrwt beam="1">  1        2 0.24458516E+00 0.20504876E+04</pdfrwt>
<pdfrwt beam="2">  1       -2 0.10171793E+00 0.20504876E+04</pdfrwt>
<totfact> 0.82934167E+00</totfact>
</mgrwt>
</event>
<event>
12    1  0.2048318E-007  0.1304955E+04  0.7818608E-02  0.9025645E-01
         -1   -1    0    0    0  501 -0.00000000000E+00  0.00000000000E+00  0.29427741686E+03  0.29427741686E+03  0.00000000000E+00 0.  1.
          1   -1    0    0  501    0  0.00000000000E+00 -0.00000000000E+00 -0.14466846497E+04  0.14466846497E+04  0.00000000000E+00 0. -1.
         23    2    1    2    0    0  0.23429420445E+03 -0.23487848148E+03 -0.35801809099E+03  0.49663482434E+03  0.91692529490E+02 0.  0.
        254    2    1    2    0    0 -0.23429420445E+03  0.23487848148E+03 -0.79438914185E+03  0.12443272422E+04  0.89846229845E+03 0.  0.
        -24    2    4    4    0    0 -0.46974224212E+03 -0.13310133575E+03 -0.29614962385E+03  0.57682985065E+03  0.81574121440E+02 0.  0.
         24    2    4    4    0    0  0.23544803767E+03  0.36797981723E+03 -0.49823951800E+03  0.66749739157E+03  0.80406629829E+02 0.  0.
         11    1    3    3    0    0  0.92878330635E+02 -0.34889580614E+02 -0.99735977181E+02  0.14068024837E+03  0.00000000000E+00 0.  1.
        -11    1    3    3    0    0  0.14141587381E+03 -0.19998890087E+03 -0.25828211381E+03  0.35595457597E+03  0.00000000000E+00 0. -1.
          2    1    6    6  502    0  0.20296550044E+03  0.34828185250E+03 -0.43004159831E+03  0.58943279467E+03  0.00000000000E+00 0. -1.
          3    1    5    5  503    0 -0.35427359207E+03 -0.88380649552E+02 -0.25861383047E+03  0.44743941553E+03  0.00000000000E+00 0. -1.
         -4    1    5    5    0  503 -0.11546865005E+03 -0.44720686199E+02 -0.37535793375E+02  0.12939043513E+03  0.00000000000E+00 0.  1.
         -1    1    6    6    0  502  0.32482537226E+02  0.19697964730E+02 -0.68197919689E+02  0.78064596900E+02  0.00000000000E+00 0.  1.
<mgrwt>
<rscale>  0 0.13049546E+04</rscale>
<asrwt>0</asrwt>
<pdfrwt beam="1">  1        1 0.22256686E+00 0.13049546E+04</pdfrwt>
<pdfrwt beam="2">  1       -1 0.45273450E-01 0.13049546E+04</pdfrwt>
<totfact> 0.33880796E+01</totfact>
</mgrwt>
</event>
<event>
12    1  0.2048318E-007  0.1257197E+04  0.7818608E-02  0.9064214E-01
          2   -1    0    0  501    0  0.00000000000E+00  0.00000000000E+00  0.19325642795E+04  0.19325642795E+04  0.00000000000E+00 0.  1.
         -2   -1    0    0    0  501 -0.00000000000E+00 -0.00000000000E+00 -0.20446207444E+03  0.20446207444E+03  0.00000000000E+00 0. -1.
         23    2    1    2    0    0 -0.28051484935E+03 -0.89059942748E+02  0.56886771576E+03  0.64701415635E+03  0.91632889223E+02 0.  0.
        254    2    1    2    0    0  0.28051484935E+03  0.89059942748E+02  0.11592344893E+04  0.14900121976E+04  0.88864587641E+03 0.  0.
        -24    2    4    4    0    0 -0.25345506091E+03 -0.14303706673E+03  0.62866376743E+03  0.69812290113E+03  0.86361925912E+02 0.  0.
         24    2    4    4    0    0  0.53396991026E+03  0.23209700948E+03  0.53057072183E+03  0.79188929642E+03  0.81181771670E+02 0.  0.
         13    1    3    3    0    0 -0.13052866580E+02 -0.31164011451E+02  0.78342556131E+02  0.85317811955E+02  0.00000000000E+00 0. -1.
        -13    1    3    3    0    0 -0.26746198277E+03 -0.57895931296E+02  0.49052515963E+03  0.56169634440E+03  0.00000000000E+00 0.  1.
          2    1    6    6  502    0  0.35547843628E+02  0.20393684374E+02  0.69449983991E+02  0.80640261813E+02  0.00000000000E+00 0. -1.
          3    1    5    5  503    0 -0.15611633080E+03 -0.12129171573E+03  0.34759951756E+03  0.39988675104E+03  0.00000000000E+00 0. -1.
         -4    1    5    5    0  503 -0.97338730107E+02 -0.21745351006E+02  0.28106424987E+03  0.29823615009E+03  0.00000000000E+00 0.  1.
         -1    1    6    6    0  502  0.49842206663E+03  0.21170332511E+03  0.46112073784E+03  0.71124903461E+03  0.00000000000E+00 0.  1.
<mgrwt>
<rscale>  0 0.12571970E+04</rscale>
<asrwt>0</asrwt>
<pdfrwt beam="1">  1        2 0.29731757E+00 0.12571970E+04</pdfrwt>
<pdfrwt beam="2">  1       -2 0.31455705E-01 0.12571970E+04</pdfrwt>
<totfact> 0.67226531E+01</totfact>
</mgrwt>
</event>
<event>
12    1  0.2048318E-007  0.2632396E+04  0.7818608E-02  0.8357279E-01
         -2   -1    0    0    0  501 -0.00000000000E+00  0.00000000000E+00  0.81210579255E+03  0.81210579255E+03  0.00000000000E+00 0.  1.
          2   -1    0    0  501    0  0.00000000000E+00 -0.00000000000E+00 -0.21331922790E+04  0.21331922790E+04  0.00000000000E+00 0. -1.
         23    2    1    2    0    0 -0.63705994153E+03 -0.42928040806E+03 -0.15559594757E+04  0.17377155292E+04  0.92294813093E+02 0.  0.
        254    2    1    2    0    0  0.63705994153E+03  0.42928040806E+03  0.23487298919E+03  0.12075825424E+04  0.90164474038E+03 0.  0.
        -24    2    4    4    0    0  0.10004528302E+03  0.42789424994E+03 -0.22124036586E+03  0.49847809136E+03  0.80190774352E+02 0.  0.
         24    2    4    4    0    0  0.53701465851E+03  0.13861581160E+01  0.45611335504E+03  0.70910445106E+03  0.80019153794E+02 0.  0.
         13    1    3    3    0    0 -0.20123978175E+03 -0.85581496693E+02 -0.43834337184E+03  0.48986381165E+03  0.00000000000E+00 0.  1.
        -13    1    3    3    0    0 -0.43582015979E+03 -0.34369891137E+03 -0.11176161038E+04  0.12478517175E+04  0.00000000000E+00 0. -1.
          4    1    6    6  502    0  0.31860935753E+03 -0.30919680726E+02  0.29993604482E+03  0.43866796138E+03  0.00000000000E+00 0. -1.
          1    1    5    5  503    0  0.96360447862E+02  0.31690603667E+03 -0.19500464501E+03  0.38437167373E+03  0.00000000000E+00 0. -1.
         -2    1    5    5    0  503  0.36848351579E+01  0.11098821328E+03 -0.26235720847E+02  0.11410641763E+03  0.00000000000E+00 0.  1.
         -3    1    6    6    0  502  0.21840530098E+03  0.32305838842E+02  0.15617731022E+03  0.27043648968E+03  0.00000000000E+00 0.  1.
<mgrwt>
<rscale>  0 0.26323965E+04</rscale>
<asrwt>0</asrwt>
<pdfrwt beam="1">  1        2 0.32818342E+00 0.26323965E+04</pdfrwt>
<pdfrwt beam="2">  1       -2 0.12493936E+00 0.26323965E+04</pdfrwt>
<totfact> 0.23841757E+00</totfact>
</mgrwt>
</event>
<event>
12    1  0.2048318E-007  0.1625433E+04  0.7818608E-02  0.8805074E-01
          1   -1    0    0  501    0  0.00000000000E+00  0.00000000000E+00  0.27117916394E+04  0.27117916394E+04  0.00000000000E+00 0. -1.
         -1   -1    0    0    0  501 -0.00000000000E+00 -0.00000000000E+00 -0.24356900521E+03  0.24356900521E+03  0.00000000000E+00 0.  1.
         23    2    1    2    0    0 -0.56424149297E+02 -0.20152931335E+03 -0.82443022185E+02  0.24222896172E+03  0.89890317750E+02 0.  0.
        254    2    1    2    0    0  0.56424149297E+02  0.20152931335E+03  0.25506656564E+04  0.27131316829E+04  0.90077216282E+03 0.  0.
        -24    2    4    4    0    0 -0.22961401422E+03  0.12636384329E+03  0.23025212290E+04  0.23187020813E+04  0.78005867150E+02 0.  0.
         24    2    4    4    0    0  0.28603816352E+03  0.75165470059E+02  0.24814442736E+03  0.39442960159E+03  0.80816922124E+02 0.  0.
         11    1    3    3    0    0  0.10667857802E+02 -0.12693818941E+03 -0.43440119852E+02  0.13458882247E+03  0.00000000000E+00 0. -1.
        -11    1    3    3    0    0 -0.67092007098E+02 -0.74591123934E+02 -0.39002902332E+02  0.10764013924E+03  0.00000000000E+00 0.  1.
          4    1    6    6  502    0  0.10621515003E+03  0.54174699110E+01  0.48682416416E+02  0.11696574175E+03  0.00000000000E+00 0. -1.
          1    1    5    5  503    0 -0.14368944085E+03  0.10735506647E+03  0.12981346742E+04  0.13104676258E+04  0.00000000000E+00 0. -1.
         -2    1    5    5    0  503 -0.85924573379E+02  0.19008776819E+02  0.10043865548E+04  0.10082344556E+04  0.00000000000E+00 0.  1.
         -3    1    6    6    0  502  0.17982301349E+03  0.69748000148E+02  0.19946201095E+03  0.27746385984E+03  0.00000000000E+00 0.  1.
<mgrwt>
<rscale>  0 0.16254333E+04</rscale>
<asrwt>0</asrwt>
<pdfrwt beam="1">  1        1 0.41719869E+00 0.16254333E+04</pdfrwt>
<pdfrwt beam="2">  1       -1 0.37472156E-01 0.16254333E+04</pdfrwt>
<totfact> 0.63429529E+00</totfact>
</mgrwt>
</event>
<event>
12    1  0.2048318E-007  0.1779490E+04  0.7818608E-02  0.8717283E-01
         -1   -1    0    0    0  501 -0.00000000000E+00  0.00000000000E+00  0.31647824296E+03  0.31647824296E+03  0.00000000000E+00 0.  1.
          1   -1    0    0  501    0  0.00000000000E+00 -0.00000000000E+00 -0.25014250215E+04  0.25014250215E+04  0.00000000000E+00 0. -1.
         23    2    1    2    0    0 -0.11240845601E+03 -0.45130824215E+03 -0.15629095415E+04  0.16332656781E+04  0.92497295733E+02 0.  0.
        254    2    1    2    0    0  0.11240845601E+03  0.45130824215E+03 -0.62203723700E+03  0.11846375864E+04  0.89449488341E+03 0.  0.
        -24    2    4    4    0    0  0.41303853223E+03  0.22817467806E+03 -0.64208314878E+03  0.80074381634E+03  0.79090939054E+02 0.  0.
         24    2    4    4    0    0 -0.30063007621E+03  0.22313356409E+03  0.20045911776E+02  0.38389377005E+03  0.82495805727E+02 0.  0.
         13    1    3    3    0    0 -0.52623370380E+02 -0.36755220065E+03 -0.12227818878E+04  0.12779121192E+04  0.00000000000E+00 0. -1.
        -13    1    3    3    0    0 -0.59785085635E+02 -0.83756041501E+02 -0.34012765375E+03  0.35535355887E+03  0.00000000000E+00 0.  1.
          4    1    6    6  502    0 -0.16601935280E+03  0.13509238210E+03 -0.28391752517E+02  0.21591310478E+03  0.00000000000E+00 0. -1.
          3    1    5    5  503    0  0.40634544063E+03  0.22948883598E+03 -0.61051227817E+03  0.76844452289E+03  0.00000000000E+00 0. -1.
         -4    1    5    5    0  503  0.66930915966E+01 -0.13141579177E+01 -0.31570870611E+02  0.32299293449E+02  0.00000000000E+00 0.  1.
         -3    1    6    6    0  502 -0.13461072342E+03  0.88041181983E+02  0.48437664293E+02  0.16798066527E+03  0.00000000000E+00 0.  1.
<mgrwt>
<rscale>  0 0.17794905E+04</rscale>
<asrwt>0</asrwt>
<pdfrwt beam="1">  1        1 0.38483462E+00 0.17794905E+04</pdfrwt>
<pdfrwt beam="2">  1       -1 0.48688960E-01 0.17794905E+04</pdfrwt>
<totfact> 0.54006357E+00</totfact>
</mgrwt>
</event>
<event>
12    1  0.2048318E-007  0.1969210E+04  0.7818608E-02  0.8621153E-01
         -2   -1    0    0    0  501 -0.00000000000E+00  0.00000000000E+00  0.62972027347E+03  0.62972027347E+03  0.00000000000E+00 0.  1.
          2   -1    0    0  501    0  0.00000000000E+00 -0.00000000000E+00 -0.15394887219E+04  0.15394887219E+04  0.00000000000E+00 0. -1.
         23    2    1    2    0    0 -0.76935335010E+03  0.10380905399E+03 -0.35609231254E+03  0.85745442918E+03  0.75798852690E+02 0.  0.
        254    2    1    2    0    0  0.76935335010E+03 -0.10380905399E+03 -0.55367613588E+03  0.13117545662E+04  0.90081179027E+03 0.  0.
        -24    2    4    4    0    0 -0.10328365164E+03  0.16571309061E+03 -0.28711769936E+03  0.35696017025E+03  0.82798845195E+02 0.  0.
         24    2    4    4    0    0  0.87263700174E+03 -0.26952214459E+03 -0.26655843652E+03  0.95479439594E+03  0.80258427659E+02 0.  0.
         13    1    3    3    0    0 -0.32691117378E+03  0.62382348328E+02 -0.11656279513E+03  0.35263204355E+03  0.00000000000E+00 0.  1.
        -13    1    3    3    0    0 -0.44244217631E+03  0.41426705662E+02 -0.23952951741E+03  0.50482238563E+03  0.00000000000E+00 0. -1.
          4    1    6    6  502    0  0.81499361185E+03 -0.23096755839E+03 -0.23889034869E+03  0.88013021712E+03  0.00000000000E+00 0. -1.
          1    1    5    5  503    0 -0.77482302301E+02  0.10065108766E+03 -0.24308297057E+03  0.27426899059E+03  0.00000000000E+00 0. -1.
         -2    1    5    5    0  503 -0.25801349339E+02  0.65062002943E+02 -0.44034728797E+02  0.82691179668E+02  0.00000000000E+00 0.  1.
         -3    1    6    6    0  502  0.57643389885E+02 -0.38554586204E+02 -0.27668087831E+02  0.74664178821E+02  0.00000000000E+00 0.  1.
<mgrwt>
<rscale>  0 0.19692103E+04</rscale>
<asrwt>0</asrwt>
<pdfrwt beam="1">  1        2 0.23684442E+00 0.19692103E+04</pdfrwt>
<pdfrwt beam="2">  1       -2 0.96880043E-01 0.19692103E+04</pdfrwt>
<totfact> 0.99986644E+00</totfact>
</mgrwt>
</event>
<event>
12    1  0.2048318E-007  0.1802289E+04  0.7818608E-02  0.8705083E-01
          2   -1    0    0  501    0  0.00000000000E+00  0.00000000000E+00  0.21520820859E+04  0.21520820859E+04  0.00000000000E+00 0. -1.
         -2   -1    0    0    0  501 -0.00000000000E+00 -0.00000000000E+00 -0.37733759575E+03  0.37733759575E+03  0.00000000000E+00 0.  1.
         23    2    1    2    0    0 -0.51198986789E+03  0.13133888905E+03  0.12530901283E+04  0.13628937475E+04  0.88662104199E+02 0.  0.
        254    2    1    2    0    0  0.51198986789E+03 -0.13133888905E+03  0.52165436183E+03  0.11665259341E+04  0.89959766185E+03 0.  0.
        -24    2    4    4    0    0  0.67526198987E+03 -0.33959853350E+03  0.32430891258E+03  0.82708279889E+03  0.87084823733E+02 0.  0.
         24    2    4    4    0    0 -0.16327212199E+03  0.20825964445E+03  0.19734544926E+03  0.33944313525E+03  0.79035121301E+02 0.  0.
         13    1    3    3    0    0 -0.31668910757E+03  0.47445226776E+02  0.67915171958E+03  0.75085957316E+03  0.00000000000E+00 0. -1.
        -13    1    3    3    0    0 -0.19530076032E+03  0.83893662270E+02  0.57393840871E+03  0.61203417432E+03  0.00000000000E+00 0.  1.
          2    1    6    6  502    0 -0.44692386298E+02  0.11975929154E+03  0.10048778592E+03  0.16259610211E+03  0.00000000000E+00 0. -1.
          3    1    5    5  503    0  0.10789543984E+03 -0.91452306813E+02  0.53940731797E+02  0.15137553602E+03  0.00000000000E+00 0. -1.
         -4    1    5    5    0  503  0.56736655003E+03 -0.24814622669E+03  0.27036818078E+03  0.67570726287E+03  0.00000000000E+00 0.  1.
         -1    1    6    6    0  502 -0.11857973569E+03  0.88500352912E+02  0.96857663341E+02  0.17684703314E+03  0.00000000000E+00 0.  1.
<mgrwt>
<rscale>  0 0.18022891E+04</rscale>
<asrwt>0</asrwt>
<pdfrwt beam="1">  1        2 0.33108955E+00 0.18022891E+04</pdfrwt>
<pdfrwt beam="2">  1       -2 0.58051939E-01 0.18022891E+04</pdfrwt>
<totfact> 0.14402851E+01</totfact>
</mgrwt>
</event>
<event>
12    1  0.2141400E-007  0.2608310E+04  0.7818608E-02  0.8365384E-01
         -2   -1    0    0    0  501 -0.00000000000E+00  0.00000000000E+00  0.74679735628E+03  0.74679735628E+03  0.00000000000E+00 0.  1.
          2   -1    0    0  501    0  0.00000000000E+00 -0.00000000000E+00 -0.22774861011E+04  0.22774861011E+04  0.00000000000E+00 0. -1.
         23    2    1    2    0    0 -0.11384632535E+04 -0.13246207745E+03 -0.74479694069E+03  0.13698840661E+04  0.90637134455E+02 0.  0.
        254    2    1    2    0    0  0.11384632535E+04  0.13246207745E+03 -0.78589180412E+03  0.16543993913E+04  0.89764505052E+03 0.  0.
        -24    2    4    4    0    0  0.10358126566E+03 -0.28295609050E+03 -0.51262866462E+02  0.31657970588E+03  0.82471819145E+02 0.  0.
         24    2    4    4    0    0  0.10348819878E+04  0.41541816794E+03 -0.73462893766E+03  0.13378196854E+04  0.80801310202E+02 0.  0.
         13    1    3    3    0    0 -0.69682226765E+03 -0.80678157228E+02 -0.40269105658E+03  0.80884505611E+03  0.00000000000E+00 0.  1.
        -13    1    3    3    0    0 -0.44164098582E+03 -0.51783920219E+02 -0.34210588412E+03  0.56103900996E+03  0.00000000000E+00 0. -1.
          2    1    6    6  502    0  0.37955682454E+03  0.14063003201E+03 -0.22244756740E+03  0.46186914727E+03  0.00000000000E+00 0. -1.
          1    1    5    5  503    0  0.28800037617E+02 -0.29260674223E+02 -0.30755504872E+02  0.51298443472E+02  0.00000000000E+00 0. -1.
         -2    1    5    5    0  503  0.74781228041E+02 -0.25369541627E+03 -0.20507361590E+02  0.26528126241E+03  0.00000000000E+00 0.  1.
         -3    1    6    6    0  502  0.65532516327E+03  0.27478813593E+03 -0.51218137025E+03  0.87595053816E+03  0.00000000000E+00 0.  1.
<mgrwt>
<rscale>  0 0.26083103E+04</rscale>
<asrwt>0</asrwt>
<pdfrwt beam="1">  1        2 0.35038247E+00 0.26083103E+04</pdfrwt>
<pdfrwt beam="2">  1       -2 0.11489190E+00 0.26083103E+04</pdfrwt>
<totfact> 0.24387882E+00</totfact>
</mgrwt>
</event>
<event>
12    1  0.2048318E-007  0.2428603E+04  0.7818608E-02  0.8428872E-01
          2   -1    0    0  501    0  0.00000000000E+00  0.00000000000E+00  0.25476983368E+04  0.25476983368E+04  0.00000000000E+00 0. -1.
         -2   -1    0    0    0  501 -0.00000000000E+00 -0.00000000000E+00 -0.57876889504E+03  0.57876889504E+03  0.00000000000E+00 0.  1.
         23    2    1    2    0    0 -0.25025189153E+03  0.88432401235E+03  0.20757631686E+03  0.94582392865E+03  0.82704344766E+02 0.  0.
        254    2    1    2    0    0  0.25025189153E+03 -0.88432401235E+03  0.17613531248E+04  0.21806433031E+04  0.89899133317E+03 0.  0.
        -24    2    4    4    0    0  0.46093385341E+02 -0.36856569836E+03  0.15264573898E+04  0.15728353286E+04  0.75983773422E+02 0.  0.
         24    2    4    4    0    0  0.20415850619E+03 -0.51575831400E+03  0.23489573503E+03  0.60780797453E+03  0.81038222257E+02 0.  0.
         11    1    3    3    0    0 -0.42657313253E+02  0.10128013163E+03  0.14068586218E+01  0.10990582645E+03  0.00000000000E+00 0.  1.
        -11    1    3    3    0    0 -0.20759457827E+03  0.78304388072E+03  0.20616945824E+03  0.83591810220E+03  0.00000000000E+00 0. -1.
          2    1    6    6  502    0  0.19376955042E+02 -0.92131688712E+02  0.12708753253E+02  0.95001193998E+02  0.00000000000E+00 0. -1.
          3    1    5    5  503    0  0.33355508042E+02 -0.51788474925E+02  0.27937825474E+03  0.28608887652E+03  0.00000000000E+00 0. -1.
         -4    1    5    5    0  503  0.12737877299E+02 -0.31677722343E+03  0.12470791351E+04  0.12867464521E+04  0.00000000000E+00 0.  1.
         -1    1    6    6    0  502  0.18478155114E+03 -0.42362662528E+03  0.22218698177E+03  0.51280678054E+03  0.00000000000E+00 0.  1.
<mgrwt>
<rscale>  0 0.24286033E+04</rscale>
<asrwt>0</asrwt>
<pdfrwt beam="1">  1        2 0.39195358E+00 0.24286033E+04</pdfrwt>
<pdfrwt beam="2">  1       -2 0.89041370E-01 0.24286033E+04</pdfrwt>
<totfact> 0.31731694E+00</totfact>
</mgrwt>
</event>
<event>
12    1  0.2048318E-007  0.1252647E+04  0.7818608E-02  0.9067983E-01
         -1   -1    0    0    0  501 -0.00000000000E+00  0.00000000000E+00  0.13375960337E+03  0.13375960337E+03  0.00000000000E+00 0.  1.
          1   -1    0    0  501    0  0.00000000000E+00 -0.00000000000E+00 -0.29327313560E+04  0.29327313560E+04  0.00000000000E+00 0. -1.
         23    2    1    2    0    0  0.12857293072E+03  0.23801157549E+03 -0.41454236752E+03  0.50356079212E+03  0.92453168242E+02 0.  0.
        254    2    1    2    0    0 -0.12857293072E+03 -0.23801157549E+03 -0.23844293851E+04  0.25629301673E+04  0.89995946633E+03 0.  0.
        -24    2    4    4    0    0  0.29409242433E+03  0.13907700450E+02 -0.16333600554E+04  0.16614315689E+04  0.76197175311E+02 0.  0.
         24    2    4    4    0    0 -0.42266535505E+03 -0.25191927594E+03 -0.75106932973E+03  0.90149859832E+03  0.80531116771E+02 0.  0.
         11    1    3    3    0    0  0.13665021411E+03  0.23412511555E+03 -0.41363397583E+03  0.49455122758E+03  0.00000000000E+00 0.  1.
        -11    1    3    3    0    0 -0.80772833864E+01  0.38864599404E+01 -0.90839169116E+00  0.90095645421E+01  0.00000000000E+00 0. -1.
          2    1    6    6  502    0 -0.23519970014E+03 -0.10267345577E+03 -0.34470239999E+03  0.42974467073E+03  0.00000000000E+00 0. -1.
          3    1    5    5  503    0  0.22938019080E+03  0.40248244282E+02 -0.13189399319E+04  0.13393422778E+04  0.00000000000E+00 0. -1.
         -4    1    5    5    0  503  0.64712233532E+02 -0.26340543832E+02 -0.31442012350E+03  0.32208929116E+03  0.00000000000E+00 0.  1.
         -1    1    6    6    0  502 -0.18746565491E+03 -0.14924582017E+03 -0.40636692974E+03  0.47175392759E+03  0.00000000000E+00 0.  1.
<mgrwt>
<rscale>  0 0.12526468E+04</rscale>
<asrwt>0</asrwt>
<pdfrwt beam="1">  1        1 0.45118945E+00 0.12526468E+04</pdfrwt>
<pdfrwt beam="2">  1       -1 0.20578400E-01 0.12526468E+04</pdfrwt>
<totfact> 0.12997015E+01</totfact>
</mgrwt>
</event>
<event>
12    1  0.2048318E-007  0.1789737E+04  0.7818608E-02  0.8711776E-01
         -2   -1    0    0    0  501 -0.00000000000E+00  0.00000000000E+00  0.12984104046E+04  0.12984104046E+04  0.00000000000E+00 0.  1.
          2   -1    0    0  501    0  0.00000000000E+00 -0.00000000000E+00 -0.61674623836E+03  0.61674623836E+03  0.00000000000E+00 0. -1.
         23    2    1    2    0    0 -0.27950198202E+03 -0.60319956546E+03  0.24660788947E+03  0.71514430493E+03  0.92977696251E+02 0.  0.
        254    2    1    2    0    0  0.27950198202E+03  0.60319956546E+03  0.43505627676E+03  0.12000123380E+04  0.89932450970E+03 0.  0.
        -24    2    4    4    0    0  0.19451513329E+03  0.29340865936E+03 -0.24915585341E+03  0.43989061041E+03  0.86604453546E+02 0.  0.
         24    2    4    4    0    0  0.84986848732E+02  0.30979090610E+03  0.68421213017E+03  0.76012172761E+03  0.80284691942E+02 0.  0.
         13    1    3    3    0    0 -0.22143598120E+03 -0.39757938587E+03  0.19643217180E+03  0.49567011203E+03  0.00000000000E+00 0.  1.
        -13    1    3    3    0    0 -0.58066000813E+02 -0.20562017959E+03  0.50175717662E+02  0.21947419289E+03  0.00000000000E+00 0. -1.
          2    1    6    6  502    0  0.36608695059E+02  0.60764838443E+02  0.21947164331E+03  0.23065204175E+03  0.00000000000E+00 0. -1.
          1    1    5    5  503    0  0.10457909127E+01  0.54615422270E+02 -0.46708194626E+02  0.71872063234E+02  0.00000000000E+00 0. -1.
         -2    1    5    5    0  503  0.19346934237E+03  0.23879323709E+03 -0.20244765879E+03  0.36801854718E+03  0.00000000000E+00 0.  1.
         -1    1    6    6    0  502  0.48378153673E+02  0.24902606766E+03  0.46474048686E+03  0.52946968586E+03  0.00000000000E+00 0.  1.
<mgrwt>
<rscale>  0 0.17897371E+04</rscale>
<asrwt>0</asrwt>
<pdfrwt beam="1">  1        2 0.94884037E-01 0.17897371E+04</pdfrwt>
<pdfrwt beam="2">  1       -2 0.19975545E+00 0.17897371E+04</pdfrwt>
<totfact> 0.60445397E+00</totfact>
</mgrwt>
</event>
<event>
12    1  0.2048318E-007  0.1098620E+04  0.7818608E-02  0.9206537E-01
         -2   -1    0    0    0  501 -0.00000000000E+00  0.00000000000E+00  0.98224544842E+03  0.98224544842E+03  0.00000000000E+00 0.  1.
          2   -1    0    0  501    0  0.00000000000E+00 -0.00000000000E+00 -0.30719585684E+03  0.30719585684E+03  0.00000000000E+00 0. -1.
         23    2    1    2    0    0 -0.83078044029E+02 -0.13190518566E+03  0.16463325931E+03  0.24495197118E+03  0.92716873917E+02 0.  0.
        254    2    1    2    0    0  0.83078044029E+02  0.13190518566E+03  0.51041633226E+03  0.10444893341E+04  0.89784864947E+03 0.  0.
        -24    2    4    4    0    0 -0.77509594257E+02 -0.35575651190E+03  0.11643747635E+03  0.39132906073E+03  0.83727623356E+02 0.  0.
         24    2    4    4    0    0  0.16058763829E+03  0.48766169757E+03  0.39397885592E+03  0.65316027335E+03  0.88298827415E+02 0.  0.
         11    1    3    3    0    0 -0.30815044755E+02 -0.10435004848E+03  0.14777803728E+03  0.18351252792E+03  0.00000000000E+00 0.  1.
        -11    1    3    3    0    0 -0.52262999274E+02 -0.27555137181E+02  0.16855222031E+02  0.61439443259E+02  0.00000000000E+00 0. -1.
          4    1    6    6  502    0  0.25486856342E+01  0.30794644393E+02  0.53785497277E+02  0.62029715775E+02  0.00000000000E+00 0. -1.
          3    1    5    5  503    0  0.35901914745E+01 -0.12587001058E+03  0.13248931796E+02  0.12661628344E+03  0.00000000000E+00 0. -1.
         -4    1    5    5    0  503 -0.81099785731E+02 -0.22988650133E+03  0.10318854455E+03  0.26471277730E+03  0.00000000000E+00 0.  1.
         -3    1    6    6    0  502  0.15803895265E+03  0.45686705318E+03  0.34019335864E+03  0.59113055757E+03  0.00000000000E+00 0.  1.
<mgrwt>
<rscale>  0 0.10986205E+04</rscale>
<asrwt>0</asrwt>
<pdfrwt beam="1">  1        2 0.47260901E-01 0.10986205E+04</pdfrwt>
<pdfrwt beam="2">  1       -2 0.15111468E+00 0.10986205E+04</pdfrwt>
<totfact> 0.31156887E+01</totfact>
</mgrwt>
</event>
<event>
12    1  0.2048318E-007  0.1709557E+04  0.7818608E-02  0.8755932E-01
         -2   -1    0    0    0  501 -0.00000000000E+00  0.00000000000E+00  0.23449766907E+03  0.23449766907E+03  0.00000000000E+00 0.  1.
          2   -1    0    0  501    0  0.00000000000E+00 -0.00000000000E+00 -0.31157942354E+04  0.31157942354E+04  0.00000000000E+00 0. -1.
         23    2    1    2    0    0  0.25979192654E+03  0.54670718427E+03 -0.12529353359E+04  0.13943784544E+04  0.89798261966E+02 0.  0.
        254    2    1    2    0    0 -0.25979192654E+03 -0.54670718427E+03 -0.16283612304E+04  0.19559134500E+04  0.89869713296E+03 0.  0.
        -24    2    4    4    0    0  0.31192837779E+03 -0.33281977952E+03 -0.60767784164E+03  0.76408360325E+03  0.80517544877E+02 0.  0.
         24    2    4    4    0    0 -0.57172030433E+03 -0.21388740475E+03 -0.10206833888E+04  0.11918298468E+04  0.77793799246E+02 0.  0.
         13    1    3    3    0    0  0.33182210100E+02  0.14363655728E+03 -0.35451087003E+03  0.38394072020E+03  0.00000000000E+00 0. -1.
        -13    1    3    3    0    0  0.22660971644E+03  0.40307062699E+03 -0.89842446587E+03  0.10104377343E+04  0.00000000000E+00 0.  1.
          4    1    6    6  502    0 -0.36733629707E+03 -0.17631960142E+03 -0.66639132007E+03  0.78109023068E+03  0.00000000000E+00 0. -1.
          3    1    5    5  503    0  0.55968363867E+02 -0.40026820524E+02 -0.53975593689E+02  0.87452666222E+02  0.00000000000E+00 0. -1.
         -4    1    5    5    0  503  0.25596001392E+03 -0.29279295899E+03 -0.55370224795E+03  0.67663093703E+03  0.00000000000E+00 0.  1.
         -3    1    6    6    0  502 -0.20438400726E+03 -0.37567803329E+02 -0.35429206873E+03  0.41073961610E+03  0.00000000000E+00 0.  1.
<mgrwt>
<rscale>  0 0.17095572E+04</rscale>
<asrwt>0</asrwt>
<pdfrwt beam="1">  1        2 0.47935291E+00 0.17095572E+04</pdfrwt>
<pdfrwt beam="2">  1       -2 0.36076568E-01 0.17095572E+04</pdfrwt>
<totfact> 0.10161972E+01</totfact>
</mgrwt>
</event>
<event>
12    1  0.2048318E-007  0.2251729E+04  0.7818608E-02  0.8497201E-01
         -1   -1    0    0    0  501 -0.00000000000E+00  0.00000000000E+00  0.10123117080E+04  0.10123117080E+04  0.00000000000E+00 0.  1.
          1   -1    0    0  501    0  0.00000000000E+00 -0.00000000000E+00 -0.12521542114E+04  0.12521542114E+04  0.00000000000E+00 0. -1.
         23    2    1    2    0    0 -0.78253041632E+03  0.36657585491E+03 -0.47811524832E+03  0.99174530109E+03  0.90735008037E+02 0.  0.
        254    2    1    2    0    0  0.78253041632E+03 -0.36657585491E+03  0.23827274489E+03  0.12727206183E+04  0.90349995101E+03 0.  0.
        -24    2    4    4    0    0  0.97033502683E+03 -0.37401613846E+03  0.22348926931E+03  0.10667010678E+04  0.80408820127E+02 0.  0.
         24    2    4    4    0    0 -0.18780461051E+03  0.74402835556E+01  0.14783475588E+02  0.20601955056E+03  0.83063677462E+02 0.  0.
         13    1    3    3    0    0 -0.17083854371E+03  0.12285743005E+03 -0.11679154456E+03  0.24066578697E+03  0.00000000000E+00 0. -1.
        -13    1    3    3    0    0 -0.61169187261E+03  0.24371842486E+03 -0.36132370376E+03  0.75107951412E+03  0.00000000000E+00 0.  1.
          4    1    6    6  502    0 -0.11742473565E+03 -0.30150807313E+02  0.29767720044E+02  0.12483491852E+03  0.00000000000E+00 0. -1.
          1    1    5    5  503    0  0.59009822125E+03 -0.20500467331E+03  0.99927023781E+02  0.63263594340E+03  0.00000000000E+00 0. -1.
         -2    1    5    5    0  503  0.38023680559E+03 -0.16901146516E+03  0.12356224552E+03  0.43406512437E+03  0.00000000000E+00 0.  1.
         -1    1    6    6    0  502 -0.70379874857E+02  0.37591090869E+02 -0.14984244456E+02  0.81184632040E+02  0.00000000000E+00 0.  1.
<mgrwt>
<rscale>  0 0.22517286E+04</rscale>
<asrwt>0</asrwt>
<pdfrwt beam="1">  1        1 0.19263911E+00 0.22517286E+04</pdfrwt>
<pdfrwt beam="2">  1       -1 0.15574026E+00 0.22517286E+04</pdfrwt>
<totfact> 0.27994635E+00</totfact>
</mgrwt>
</event>
<event>
12    1  0.2048318E-007  0.2159469E+04  0.7818608E-02  0.8535490E-01
         -1   -1    0    0    0  501 -0.00000000000E+00  0.00000000000E+00  0.71076188881E+03  0.71076188881E+03  0.00000000000E+00 0. -1.
          1   -1    0    0  501    0  0.00000000000E+00 -0.00000000000E+00 -0.16402487831E+04  0.16402487831E+04  0.00000000000E+00 0.  1.
         23    2    1    2    0    0  0.63834432049E+03  0.60388243962E+03 -0.24324531984E+03  0.91528458406E+03  0.80125600235E+02 0.  0.
        254    2    1    2    0    0 -0.63834432049E+03 -0.60388243962E+03 -0.68624157447E+03  0.14357260879E+04  0.90455758715E+03 0.  0.
        -24    2    4    4    0    0 -0.48568208778E+03 -0.59903136876E+01  0.22718550748E+02  0.49245554893E+03  0.77931770627E+02 0.  0.
         24    2    4    4    0    0 -0.15266223271E+03 -0.59789212594E+03 -0.70896012522E+03  0.94327053894E+03  0.79712602094E+02 0.  0.
         11    1    3    3    0    0  0.29512417363E+03  0.31577012274E+03 -0.15052741541E+03  0.45767625137E+03  0.00000000000E+00 0. -1.
        -11    1    3    3    0    0  0.34322014685E+03  0.28811231688E+03 -0.92717904426E+02  0.45760833269E+03  0.00000000000E+00 0.  1.
          2    1    6    6  502    0 -0.15393624340E+03 -0.58849988422E+03 -0.67796932373E+03  0.91086271451E+03  0.00000000000E+00 0. -1.
          1    1    5    5  503    0 -0.38191731567E+03 -0.20626437841E+02  0.45636201700E+02  0.38518690119E+03  0.00000000000E+00 0. -1.
         -2    1    5    5    0  503 -0.10376477211E+03  0.14636124154E+02 -0.22917650951E+02  0.10726864773E+03  0.00000000000E+00 0.  1.
         -1    1    6    6    0  502  0.12740106961E+01 -0.93922417188E+01 -0.30990801489E+02  0.32407824436E+02  0.00000000000E+00 0.  1.
<mgrwt>
<rscale>  0 0.21594688E+04</rscale>
<asrwt>0</asrwt>
<pdfrwt beam="1">  1        1 0.25234597E+00 0.21594688E+04</pdfrwt>
<pdfrwt beam="2">  1       -1 0.10934798E+00 0.21594688E+04</pdfrwt>
<totfact> 0.37078304E+00</totfact>
</mgrwt>
</event>
<event>
12    1  0.2048318E-007  0.1798394E+04  0.7818608E-02  0.8707154E-01
          2   -1    0    0  501    0  0.00000000000E+00  0.00000000000E+00  0.17729800241E+04  0.17729800241E+04  0.00000000000E+00 0. -1.
         -2   -1    0    0    0  501 -0.00000000000E+00 -0.00000000000E+00 -0.45604302394E+03  0.45604302394E+03  0.00000000000E+00 0.  1.
         23    2    1    2    0    0 -0.29028832245E+03 -0.46267410205E+03  0.15432424321E+02  0.55407556371E+03  0.91798342686E+02 0.  0.
        254    2    1    2    0    0  0.29028832245E+03  0.46267410205E+03  0.13015045759E+04  0.16749474844E+04  0.90177618038E+03 0.  0.
        -24    2    4    4    0    0  0.41689542419E+02  0.65691536380E+03  0.11219872173E+04  0.13031836208E+04  0.78462861566E+02 0.  0.
         24    2    4    4    0    0  0.24859878004E+03 -0.19424126176E+03  0.17951735855E+03  0.37176386352E+03  0.80317289509E+02 0.  0.
         13    1    3    3    0    0 -0.19077385868E+03 -0.35210274859E+03  0.43064268151E+02  0.40277232019E+03  0.00000000000E+00 0. -1.
        -13    1    3    3    0    0 -0.99514463776E+02 -0.11057135346E+03 -0.27631843830E+02  0.15130324352E+03  0.00000000000E+00 0.  1.
          4    1    6    6  502    0  0.10989369222E+03 -0.38068279873E+02  0.55743786257E+02  0.12896971438E+03  0.00000000000E+00 0. -1.
          1    1    5    5  503    0  0.14392247939E+02  0.95579701262E+02  0.11729864670E+03  0.15199206760E+03  0.00000000000E+00 0. -1.
         -2    1    5    5    0  503  0.27297294479E+02  0.56133566254E+03  0.10046885706E+04  0.11511915533E+04  0.00000000000E+00 0.  1.
         -3    1    6    6    0  502  0.13870508782E+03 -0.15617298188E+03  0.12377357229E+03  0.24279414914E+03  0.00000000000E+00 0.  1.
<mgrwt>
<rscale>  0 0.17983939E+04</rscale>
<asrwt>0</asrwt>
<pdfrwt beam="1">  1        2 0.27276615E+00 0.17983939E+04</pdfrwt>
<pdfrwt beam="2">  1       -2 0.70160466E-01 0.17983939E+04</pdfrwt>
<totfact> 0.15597449E+01</totfact>
</mgrwt>
</event>
<event>
12    1  0.2048318E-007  0.2815531E+04  0.7818608E-02  0.8298463E-01
          1   -1    0    0  501    0  0.00000000000E+00  0.00000000000E+00  0.15380897713E+04  0.15380897713E+04  0.00000000000E+00 0.  1.
         -1   -1    0    0    0  501 -0.00000000000E+00 -0.00000000000E+00 -0.12884840783E+04  0.12884840783E+04  0.00000000000E+00 0. -1.
         23    2    1    2    0    0 -0.10169363637E+04  0.65754631962E+03  0.46287449369E+03  0.12996310233E+04  0.90891526250E+02 0.  0.
        254    2    1    2    0    0  0.10169363637E+04 -0.65754631962E+03 -0.21326880068E+03  0.15269428264E+04  0.90528674103E+03 0.  0.
        -24    2    4    4    0    0  0.40464391373E+03  0.15908861912E+02  0.27009307912E+03  0.49324031429E+03  0.79661455214E+02 0.  0.
         24    2    4    4    0    0  0.61229244996E+03 -0.67345518153E+03 -0.48336187980E+03  0.10337025121E+04  0.80363243279E+02 0.  0.
         13    1    3    3    0    0 -0.48403881522E+03  0.36576805985E+03  0.24198106344E+03  0.65317278212E+03  0.00000000000E+00 0. -1.
        -13    1    3    3    0    0 -0.53289754847E+03  0.29177825977E+03  0.22089343025E+03  0.64645824116E+03  0.00000000000E+00 0.  1.
          4    1    6    6  502    0  0.10193065415E+03 -0.12755230483E+03 -0.12064819001E+03  0.20301584785E+03  0.00000000000E+00 0. -1.
          3    1    5    5  503    0  0.43862985681E+01 -0.10683530912E+02  0.85337744544E+01  0.14359761638E+02  0.00000000000E+00 0. -1.
         -4    1    5    5    0  503  0.40025761516E+03  0.26592392824E+02  0.26155930467E+03  0.47888055265E+03  0.00000000000E+00 0.  1.
         -3    1    6    6    0  502  0.51036179581E+03 -0.54590287670E+03 -0.36271368979E+03  0.83068666425E+03  0.00000000000E+00 0.  1.
<mgrwt>
<rscale>  0 0.28155313E+04</rscale>
<asrwt>0</asrwt>
<pdfrwt beam="1">  1        1 0.23662919E+00 0.28155313E+04</pdfrwt>
<pdfrwt beam="2">  1       -1 0.19822832E+00 0.28155313E+04</pdfrwt>
<totfact> 0.82402054E-01</totfact>
</mgrwt>
</event>
<event>
12    1  0.2048318E-007  0.2031130E+04  0.7818608E-02  0.8592203E-01
          2   -1    0    0  501    0  0.00000000000E+00  0.00000000000E+00  0.25380028965E+04  0.25380028965E+04  0.00000000000E+00 0. -1.
         -2   -1    0    0    0  501 -0.00000000000E+00 -0.00000000000E+00 -0.40637140249E+03  0.40637140249E+03  0.00000000000E+00 0.  1.
         23    2    1    2    0    0 -0.74949903792E+03  0.87935101102E+02  0.42329912132E+03  0.86999853149E+03  0.90740888464E+02 0.  0.
        254    2    1    2    0    0  0.74949903792E+03 -0.87935101102E+02  0.17083323727E+04  0.20743757675E+04  0.90285875937E+03 0.  0.
        -24    2    4    4    0    0  0.42287939635E+03 -0.70017529754E+02  0.16808343828E+04  0.17365484025E+04  0.81649822243E+02 0.  0.
         24    2    4    4    0    0  0.32661964157E+03 -0.17917571348E+02  0.27497989870E+02  0.33782736499E+03  0.79810772882E+02 0.  0.
         11    1    3    3    0    0 -0.60379639260E+03  0.49339170697E+02  0.37136339402E+03  0.71057385816E+03  0.00000000000E+00 0. -1.
        -11    1    3    3    0    0 -0.14570264532E+03  0.38595930405E+02  0.51935727301E+02  0.15942467333E+03  0.00000000000E+00 0.  1.
          4    1    6    6  502    0  0.20115607501E+03 -0.16612710250E+02  0.55371461133E+02  0.20929822590E+03  0.00000000000E+00 0. -1.
          1    1    5    5  503    0  0.32104838191E+03 -0.36605528583E+02  0.13757296669E+04  0.14131681233E+04  0.00000000000E+00 0. -1.
         -2    1    5    5    0  503  0.10183101444E+03 -0.33412001171E+02  0.30510471591E+03  0.32338027922E+03  0.00000000000E+00 0.  1.
         -3    1    6    6    0  502  0.12546356656E+03 -0.13048610978E+01 -0.27873471262E+02  0.12852913909E+03  0.00000000000E+00 0.  1.
<mgrwt>
<rscale>  0 0.20311295E+04</rscale>
<asrwt>0</asrwt>
<pdfrwt beam="1">  1        2 0.39046197E+00 0.20311295E+04</pdfrwt>
<pdfrwt beam="2">  1       -2 0.62518679E-01 0.20311295E+04</pdfrwt>
<totfact> 0.72800439E+00</totfact>
</mgrwt>
</event>
<event>
12    1  0.2048318E-007  0.2998703E+04  0.7818608E-02  0.8244101E-01
          1   -1    0    0  501    0  0.00000000000E+00  0.00000000000E+00  0.18184628160E+04  0.18184628160E+04  0.00000000000E+00 0. -1.
         -1   -1    0    0    0  501 -0.00000000000E+00 -0.00000000000E+00 -0.12362388943E+04  0.12362388943E+04  0.00000000000E+00 0.  1.
         23    2    1    2    0    0 -0.10282778524E+04  0.51000869831E+03 -0.48298607903E+03  0.12485422424E+04  0.90099746675E+02 0.  0.
        254    2    1    2    0    0  0.10282778524E+04 -0.51000869831E+03  0.10652100008E+04  0.18061594679E+04  0.90004192318E+03 0.  0.
        -24    2    4    4    0    0  0.57016145805E+02 -0.15783702357E+03  0.67230588361E+03  0.69778309024E+03  0.82113780786E+02 0.  0.
         24    2    4    4    0    0  0.97126170663E+03 -0.35217167474E+03  0.39290411716E+03  0.11083763776E+04  0.82160562093E+02 0.  0.
         13    1    3    3    0    0 -0.22964572178E+03  0.15235426347E+03 -0.97368331349E+02  0.29228337462E+03  0.00000000000E+00 0.  1.
        -13    1    3    3    0    0 -0.79863213066E+03  0.35765443484E+03 -0.38561774769E+03  0.95625886778E+03  0.00000000000E+00 0. -1.
          4    1    6    6  502    0  0.69582708663E+03 -0.27273461022E+03  0.25002413423E+03  0.78808094115E+03  0.00000000000E+00 0. -1.
          1    1    5    5  503    0  0.21193995237E+02 -0.97856648472E+02  0.52854955194E+03  0.53794956821E+03  0.00000000000E+00 0. -1.
         -2    1    5    5    0  503  0.35822150568E+02 -0.59980375098E+02  0.14375633167E+03  0.15983352203E+03  0.00000000000E+00 0.  1.
         -3    1    6    6    0  502  0.27543462000E+03 -0.79437064516E+02  0.14287998292E+03  0.32029543648E+03  0.00000000000E+00 0.  1.
<mgrwt>
<rscale>  0 0.29987027E+04</rscale>
<asrwt>0</asrwt>
<pdfrwt beam="1">  1        1 0.27976351E+00 0.29987027E+04</pdfrwt>
<pdfrwt beam="2">  1       -1 0.19019060E+00 0.29987027E+04</pdfrwt>
<totfact> 0.59346269E-01</totfact>
</mgrwt>
</event>
<event>
12    1  0.2048318E-007  0.1940371E+04  0.7818608E-02  0.8635018E-01
         -2   -1    0    0    0  501 -0.00000000000E+00  0.00000000000E+00  0.78935113111E+03  0.78935113111E+03  0.00000000000E+00 0.  1.
          2   -1    0    0  501    0  0.00000000000E+00 -0.00000000000E+00 -0.11924480153E+04  0.11924480153E+04  0.00000000000E+00 0. -1.
         23    2    1    2    0    0 -0.16069978061E+03 -0.67309830646E+03 -0.47672408803E+03  0.84526083675E+03  0.91182653997E+02 0.  0.
        254    2    1    2    0    0  0.16069978061E+03  0.67309830646E+03  0.73627203880E+02  0.11365383096E+04  0.89856141385E+03 0.  0.
        -24    2    4    4    0    0  0.36506024492E+03 -0.47155972213E+02  0.72207798560E+02  0.38354590587E+03  0.80005172327E+02 0.  0.
         24    2    4    4    0    0 -0.20436046431E+03  0.72025427867E+03  0.14194053209E+01  0.75299240376E+03  0.80412188686E+02 0.  0.
         11    1    3    3    0    0 -0.82391910311E+02 -0.47805910055E+03 -0.36613150309E+03  0.60776739634E+03  0.00000000000E+00 0. -1.
        -11    1    3    3    0    0 -0.78307870303E+02 -0.19503920591E+03 -0.11059258494E+03  0.23749344041E+03  0.00000000000E+00 0.  1.
          2    1    6    6  502    0 -0.20402500127E+03  0.68175108672E+03 -0.13354494791E+02  0.71175072035E+03  0.00000000000E+00 0. -1.
          1    1    5    5  503    0  0.25859637540E+03 -0.37386438780E+02  0.13633476288E+02  0.26164040752E+03  0.00000000000E+00 0. -1.
         -2    1    5    5    0  503  0.10646386953E+03 -0.97695334326E+01  0.58574322271E+02  0.12190549835E+03  0.00000000000E+00 0.  1.
         -1    1    6    6    0  502 -0.33546304000E+00  0.38503191948E+02  0.14773900112E+02  0.41241683406E+02  0.00000000000E+00 0.  1.
<mgrwt>
<rscale>  0 0.19403713E+04</rscale>
<asrwt>0</asrwt>
<pdfrwt beam="1">  1        2 0.18345354E+00 0.19403713E+04</pdfrwt>
<pdfrwt beam="2">  1       -2 0.12143864E+00 0.19403713E+04</pdfrwt>
<totfact> 0.92113574E+00</totfact>
</mgrwt>
</event>
<event>
12    1  0.2048318E-007  0.1449101E+04  0.7818608E-02  0.8919024E-01
         -2   -1    0    0    0  501 -0.00000000000E+00  0.00000000000E+00  0.36226177032E+03  0.36226177032E+03  0.00000000000E+00 0.  1.
          2   -1    0    0  501    0  0.00000000000E+00 -0.00000000000E+00 -0.14491557786E+04  0.14491557786E+04  0.00000000000E+00 0. -1.
         23    2    1    2    0    0 -0.30698858285E+03  0.12189502802E+03  0.43373536228E+02  0.34526038380E+03  0.90681205994E+02 0.  0.
        254    2    1    2    0    0  0.30698858285E+03 -0.12189502802E+03 -0.11302675445E+04  0.14661571651E+04  0.87350542232E+03 0.  0.
        -24    2    4    4    0    0  0.48698226871E+03 -0.31084268237E+03 -0.45872270581E+03  0.74190414028E+03  0.78869064460E+02 0.  0.
         24    2    4    4    0    0 -0.17999368585E+03  0.18894765434E+03 -0.67154483872E+03  0.72425302486E+03  0.73966415183E+02 0.  0.
         11    1    3    3    0    0 -0.12963238085E+03  0.76266379582E+02 -0.19443293327E+02  0.15165472784E+03  0.00000000000E+00 0. -1.
        -11    1    3    3    0    0 -0.17735620200E+03  0.45628648439E+02  0.62816829555E+02  0.19360565597E+03  0.00000000000E+00 0.  1.
          4    1    6    6  502    0 -0.13958331591E+03  0.10171184357E+03 -0.38374092594E+03  0.42081575475E+03  0.00000000000E+00 0. -1.
          3    1    5    5  503    0  0.41325997205E+03 -0.25209789216E+03 -0.41656259207E+03  0.63864038773E+03  0.00000000000E+00 0. -1.
         -4    1    5    5    0  503  0.73722296655E+02 -0.58744790201E+02 -0.42160113741E+02  0.10326375255E+03  0.00000000000E+00 0.  1.
         -3    1    6    6    0  502 -0.40410369944E+02  0.87235810779E+02 -0.28780391278E+03  0.30343727011E+03  0.00000000000E+00 0.  1.
<mgrwt>
<rscale>  0 0.14491014E+04</rscale>
<asrwt>0</asrwt>
<pdfrwt beam="1">  1        2 0.22294704E+00 0.14491014E+04</pdfrwt>
<pdfrwt beam="2">  1       -2 0.55732581E-01 0.14491014E+04</pdfrwt>
<totfact> 0.39782620E+01</totfact>
</mgrwt>
</event>
<event>
12    1  0.2048318E-007  0.1446311E+04  0.7818608E-02  0.8920962E-01
         -1   -1    0    0    0  501 -0.00000000000E+00  0.00000000000E+00  0.31775008202E+03  0.31775008202E+03  0.00000000000E+00 0.  1.
          1   -1    0    0  501    0  0.00000000000E+00 -0.00000000000E+00 -0.16458014986E+04  0.16458014986E+04  0.00000000000E+00 0. -1.
         23    2    1    2    0    0 -0.23016496724E+03  0.17458943670E+03  0.31624871178E+02  0.30820270781E+03  0.10262257583E+03 0.  0.
        254    2    1    2    0    0  0.23016496724E+03 -0.17458943670E+03 -0.13596762878E+04  0.16553488728E+04  0.89888981508E+03 0.  0.
        -24    2    4    4    0    0  0.41263393391E+03 -0.61293410288E+02 -0.19328416558E+03  0.46669423954E+03  0.80131760206E+02 0.  0.
         24    2    4    4    0    0 -0.18246896667E+03 -0.11329602642E+03 -0.11663921222E+04  0.11886546333E+04  0.79362088649E+02 0.  0.
         11    1    3    3    0    0 -0.23259325252E+03  0.16350855244E+03  0.47943735009E+02  0.28832840575E+03  0.00000000000E+00 0.  1.
        -11    1    3    3    0    0  0.24282852767E+01  0.11080884266E+02 -0.16318863831E+02  0.19874302057E+02  0.00000000000E+00 0. -1.
          4    1    6    6  502    0 -0.17521044035E+02 -0.15568998002E+01 -0.28791230314E+02  0.33739381501E+02  0.00000000000E+00 0. -1.
          1    1    5    5  503    0  0.89734189525E+02 -0.31875231225E+02 -0.14177198006E+02  0.96276934303E+02  0.00000000000E+00 0. -1.
         -4    1    5    5    0  503  0.32289974439E+03 -0.29418179062E+02 -0.17910696757E+03  0.37041730524E+03  0.00000000000E+00 0.  1.
         -3    1    6    6    0  502 -0.16494792263E+03 -0.11173912662E+03 -0.11376008919E+04  0.11549152518E+04  0.00000000000E+00 0.  1.
<mgrwt>
<rscale>  0 0.14463106E+04</rscale>
<asrwt>0</asrwt>
<pdfrwt beam="1">  1        1 0.25320023E+00 0.14463106E+04</pdfrwt>
<pdfrwt beam="2">  1       -1 0.48884628E-01 0.14463106E+04</pdfrwt>
<totfact> 0.21129644E+01</totfact>
</mgrwt>
</event>
<event>
12    1  0.2048318E-007  0.3722646E+04  0.7818608E-02  0.8062962E-01
         -2   -1    0    0    0  501 -0.00000000000E+00  0.00000000000E+00  0.11420284310E+04  0.11420284310E+04  0.00000000000E+00 0.  1.
          2   -1    0    0  501    0  0.00000000000E+00 -0.00000000000E+00 -0.30336569113E+04  0.30336569113E+04  0.00000000000E+00 0. -1.
         23    2    1    2    0    0  0.31478934042E+03  0.15025766372E+04 -0.18355196153E+04  0.23945476993E+04  0.88868140892E+02 0.  0.
        254    2    1    2    0    0 -0.31478934042E+03 -0.15025766372E+04 -0.56108865076E+02  0.17811376430E+04  0.90137351802E+03 0.  0.
        -24    2    4    4    0    0 -0.43619252300E+03 -0.15617690244E+04 -0.44523683283E+02  0.16240768167E+04  0.79099592167E+02 0.  0.
         24    2    4    4    0    0  0.12140318258E+03  0.59192387177E+02 -0.11585181793E+02  0.15706082629E+03  0.79318442242E+02 0.  0.
         11    1    3    3    0    0  0.66402748265E+02  0.25225070542E+03 -0.26576278183E+03  0.37238367253E+03  0.00000000000E+00 0.  1.
        -11    1    3    3    0    0  0.24838659215E+03  0.12503259318E+04 -0.15697568334E+04  0.20221640267E+04  0.00000000000E+00 0. -1.
          4    1    6    6  502    0  0.23419414894E+02 -0.17593083659E+02 -0.14189549134E+02  0.32547333089E+02  0.00000000000E+00 0. -1.
          1    1    5    5  503    0 -0.93713893703E+02 -0.24954735698E+03 -0.25318981461E+02  0.26776338075E+03  0.00000000000E+00 0. -1.
         -2    1    5    5    0  503 -0.34247862929E+03 -0.13122216674E+04 -0.19204701822E+02  0.13563134360E+04  0.00000000000E+00 0.  1.
         -3    1    6    6    0  502  0.97983767681E+02  0.76785470837E+02  0.26043673409E+01  0.12451349320E+03  0.00000000000E+00 0.  1.
<mgrwt>
<rscale>  0 0.37226455E+04</rscale>
<asrwt>0</asrwt>
<pdfrwt beam="1">  1        2 0.46671644E+00 0.37226455E+04</pdfrwt>
<pdfrwt beam="2">  1       -2 0.17569669E+00 0.37226455E+04</pdfrwt>
<totfact> 0.25976973E-01</totfact>
</mgrwt>
</event>
<event>
12    1  0.2048318E-007  0.1715018E+04  0.7818608E-02  0.8752845E-01
         -2   -1    0    0    0  501 -0.00000000000E+00  0.00000000000E+00  0.44095707900E+03  0.44095707900E+03  0.00000000000E+00 0.  1.
          2   -1    0    0  501    0  0.00000000000E+00 -0.00000000000E+00 -0.16675577530E+04  0.16675577530E+04  0.00000000000E+00 0. -1.
         23    2    1    2    0    0 -0.11505408337E+03  0.90661708903E+02 -0.11902921130E+04  0.12027290134E+04  0.91130554159E+02 0.  0.
        254    2    1    2    0    0  0.11505408337E+03 -0.90661708903E+02 -0.36308561012E+02  0.90578581859E+03  0.89312521518E+03 0.  0.
        -24    2    4    4    0    0  0.14964502351E+03  0.27080027031E+03  0.27481311218E+03  0.42104201610E+03  0.77638349017E+02 0.  0.
         24    2    4    4    0    0 -0.34590940138E+02 -0.36146197921E+03 -0.31112167319E+03  0.48474380249E+03  0.79552265640E+02 0.  0.
         13    1    3    3    0    0 -0.34330052391E+02  0.50663083663E+02 -0.22282471301E+03  0.23107607680E+03  0.00000000000E+00 0.  1.
        -13    1    3    3    0    0 -0.80724030982E+02  0.39998625240E+02 -0.96746739997E+03  0.97165293660E+03  0.00000000000E+00 0. -1.
          2    1    6    6  502    0 -0.28429768158E+02 -0.13671849691E+03 -0.74226478961E+02  0.15814477321E+03  0.00000000000E+00 0. -1.
          3    1    5    5  503    0  0.11897381270E+03  0.13913804791E+03  0.14388263547E+03  0.23284410509E+03  0.00000000000E+00 0. -1.
         -4    1    5    5    0  503  0.30671210812E+02  0.13166222239E+03  0.13093047671E+03  0.18819791101E+03  0.00000000000E+00 0.  1.
         -1    1    6    6    0  502 -0.61611719796E+01 -0.22474348230E+03 -0.23689519423E+03  0.32659902928E+03  0.00000000000E+00 0.  1.
<mgrwt>
<rscale>  0 0.17150177E+04</rscale>
<asrwt>0</asrwt>
<pdfrwt beam="1">  1        2 0.25654735E+00 0.17150177E+04</pdfrwt>
<pdfrwt beam="2">  1       -2 0.67839550E-01 0.17150177E+04</pdfrwt>
<totfact> 0.19338087E+01</totfact>
</mgrwt>
</event>
<event>
12    1  0.2048318E-007  0.2163007E+04  0.7818608E-02  0.8533985E-01
         -2   -1    0    0    0  501 -0.00000000000E+00  0.00000000000E+00  0.78132502817E+03  0.78132502817E+03  0.00000000000E+00 0.  1.
          2   -1    0    0  501    0  0.00000000000E+00 -0.00000000000E+00 -0.14970086344E+04  0.14970086344E+04  0.00000000000E+00 0. -1.
         23    2    1    2    0    0  0.20844236146E+03 -0.85908005495E+03 -0.40820458087E+03  0.97787613702E+03  0.90244116974E+02 0.  0.
        254    2    1    2    0    0 -0.20844236146E+03  0.85908005495E+03 -0.30747902536E+03  0.13004575256E+04  0.90287300651E+03 0.  0.
        -24    2    4    4    0    0  0.27435894229E+03  0.20955394870E+03  0.12992399061E+03  0.37704731226E+03  0.78094466622E+02 0.  0.
         24    2    4    4    0    0 -0.48280130375E+03  0.64952610625E+03 -0.43740301597E+03  0.92341021329E+03  0.79898448283E+02 0.  0.
         11    1    3    3    0    0  0.57826594825E+02 -0.33319552601E+03 -0.19782493391E+03  0.39178805253E+03  0.00000000000E+00 0. -1.
        -11    1    3    3    0    0  0.15061576664E+03 -0.52588452894E+03 -0.21037964696E+03  0.58608808450E+03  0.00000000000E+00 0.  1.
          4    1    6    6  502    0 -0.25728147227E+03  0.30576823967E+03 -0.25180393564E+03  0.47232742285E+03  0.00000000000E+00 0. -1.
          1    1    5    5  503    0  0.21717368334E+03  0.20073401536E+03  0.11486997567E+03  0.31725961761E+03  0.00000000000E+00 0. -1.
         -2    1    5    5    0  503  0.57185258955E+02  0.88199333420E+01  0.15054014937E+02  0.59787694651E+02  0.00000000000E+00 0.  1.
         -3    1    6    6    0  502 -0.22551983148E+03  0.34375786657E+03 -0.18559908033E+03  0.45108279045E+03  0.00000000000E+00 0.  1.
<mgrwt>
<rscale>  0 0.21630075E+04</rscale>
<asrwt>0</asrwt>
<pdfrwt beam="1">  1        2 0.23030902E+00 0.21630075E+04</pdfrwt>
<pdfrwt beam="2">  1       -2 0.12020385E+00 0.21630075E+04</pdfrwt>
<totfact> 0.61787519E+00</totfact>
</mgrwt>
</event>
<event>
12    1  0.2048318E-007  0.2711469E+04  0.7818608E-02  0.8331293E-01
          2   -1    0    0  501    0  0.00000000000E+00  0.00000000000E+00  0.15164561832E+04  0.15164561832E+04  0.00000000000E+00 0. -1.
         -2   -1    0    0    0  501 -0.00000000000E+00 -0.00000000000E+00 -0.12120466173E+04  0.12120466173E+04  0.00000000000E+00 0.  1.
         23    2    1    2    0    0  0.10633811338E+04  0.36330832379E+03 -0.28920203773E+03  0.11640569859E+04  0.92835735354E+02 0.  0.
        254    2    1    2    0    0 -0.10633811338E+04 -0.36330832379E+03  0.59361160370E+03  0.15644458147E+04  0.91232866721E+03 0.  0.
        -24    2    4    4    0    0 -0.43145799879E+03 -0.61898222632E+03  0.26556893338E+03  0.80369678684E+03  0.78145157117E+02 0.  0.
         24    2    4    4    0    0 -0.63192313505E+03  0.25567390252E+03  0.32804267031E+03  0.76074902782E+03  0.80194119118E+02 0.  0.
         13    1    3    3    0    0  0.60914617881E+03  0.25050894637E+03 -0.19172705890E+03  0.68598328295E+03  0.00000000000E+00 0.  1.
        -13    1    3    3    0    0  0.45423495503E+03  0.11279937742E+03 -0.97474978832E+02  0.47807370291E+03  0.00000000000E+00 0. -1.
          4    1    6    6  502    0 -0.23046326761E+03  0.12315464528E+03  0.95226803573E+02  0.27811603422E+03  0.00000000000E+00 0. -1.
          3    1    5    5  503    0 -0.26587046329E+03 -0.31749452678E+03  0.15915197837E+03  0.44364313362E+03  0.00000000000E+00 0. -1.
         -4    1    5    5    0  503 -0.16558753550E+03 -0.30148769954E+03  0.10641695501E+03  0.36005365322E+03  0.00000000000E+00 0.  1.
         -3    1    6    6    0  502 -0.40145986744E+03  0.13251925724E+03  0.23281586674E+03  0.48263299360E+03  0.00000000000E+00 0.  1.
<mgrwt>
<rscale>  0 0.27114687E+04</rscale>
<asrwt>0</asrwt>
<pdfrwt beam="1">  1        2 0.23330095E+00 0.27114687E+04</pdfrwt>
<pdfrwt beam="2">  1       -2 0.18646871E+00 0.27114687E+04</pdfrwt>
<totfact> 0.17834631E+00</totfact>
</mgrwt>
</event>
<event>
12    1  0.2048318E-007  0.5892641E+04  0.7818608E-02  0.7703857E-01
         -2   -1    0    0    0  501 -0.00000000000E+00  0.00000000000E+00  0.24660620258E+04  0.24660620258E+04  0.00000000000E+00 0. -1.
          2   -1    0    0  501    0  0.00000000000E+00 -0.00000000000E+00 -0.35201074437E+04  0.35201074437E+04  0.00000000000E+00 0.  1.
         23    2    1    2    0    0 -0.13834253059E+04  0.23099813100E+03 -0.30663383425E+04  0.33731508843E+04  0.92143062310E+02 0.  0.
        254    2    1    2    0    0  0.13834253059E+04 -0.23099813100E+03  0.20122929246E+04  0.26130185852E+04  0.90073170182E+03 0.  0.
        -24    2    4    4    0    0  0.70483781183E+03 -0.43688634742E+03  0.58676922840E+03  0.10189365994E+04  0.79168457521E+02 0.  0.
         24    2    4    4    0    0  0.67858749412E+03  0.20588821641E+03  0.14255236962E+04  0.15940819858E+04  0.78157688358E+02 0.  0.
         11    1    3    3    0    0 -0.92516427756E+03  0.19151430732E+03 -0.20061606607E+04  0.22174957197E+04  0.00000000000E+00 0. -1.
        -11    1    3    3    0    0 -0.45826102839E+03  0.39483823687E+02 -0.10601776818E+04  0.11556551646E+04  0.00000000000E+00 0.  1.
          2    1    6    6  502    0  0.15042148329E+03  0.75145102077E+02  0.37660562719E+03  0.41243812558E+03  0.00000000000E+00 0. -1.
          1    1    5    5  503    0  0.38984891669E+03 -0.24300606832E+03  0.37288370422E+03  0.59167253101E+03  0.00000000000E+00 0. -1.
         -2    1    5    5    0  503  0.31498889514E+03 -0.19388027910E+03  0.21388552418E+03  0.42726406839E+03  0.00000000000E+00 0.  1.
         -1    1    6    6    0  502  0.52816601083E+03  0.13074311434E+03  0.10489180690E+04  0.11816438602E+04  0.00000000000E+00 0.  1.
<mgrwt>
<rscale>  0 0.58926406E+04</rscale>
<asrwt>0</asrwt>
<pdfrwt beam="1">  1        2 0.54155499E+00 0.58926406E+04</pdfrwt>
<pdfrwt beam="2">  1       -2 0.37939416E+00 0.58926406E+04</pdfrwt>
<totfact> 0.53872880E-03</totfact>
</mgrwt>
</event>
<event>
12    1  0.2048318E-007  0.1783487E+04  0.7818608E-02  0.8715131E-01
         -1   -1    0    0    0  501 -0.00000000000E+00  0.00000000000E+00  0.68492209258E+03  0.68492209258E+03  0.00000000000E+00 0.  1.
          1   -1    0    0  501    0  0.00000000000E+00 -0.00000000000E+00 -0.11610169245E+04  0.11610169245E+04  0.00000000000E+00 0. -1.
         23    2    1    2    0    0 -0.14873949822E+03  0.10341104218E+03  0.48272586642E+03  0.52401014856E+03  0.93515195031E+02 0.  0.
        254    2    1    2    0    0  0.14873949822E+03 -0.10341104218E+03 -0.95882069834E+03  0.13219288685E+04  0.89181921927E+03 0.  0.
        -24    2    4    4    0    0  0.10922778003E+03 -0.44291577219E+03 -0.24185592122E+03  0.52368352631E+03  0.87436033256E+02 0.  0.
         24    2    4    4    0    0  0.39511718187E+02  0.33950473001E+03 -0.71696477712E+03  0.79824534221E+03  0.79576988825E+02 0.  0.
         13    1    3    3    0    0 -0.95626135564E+02  0.10301164207E+03  0.26578429632E+03  0.30066101905E+03  0.00000000000E+00 0. -1.
        -13    1    3    3    0    0 -0.53113362652E+02  0.39940010897E+00  0.21694157011E+03  0.22334912951E+03  0.00000000000E+00 0.  1.
          4    1    6    6  502    0  0.28440711809E+02  0.33165053288E+03 -0.70688862925E+03  0.78134018469E+03  0.00000000000E+00 0. -1.
          1    1    5    5  503    0  0.58932825956E+02 -0.37661061802E+03 -0.20205492649E+03  0.43143345825E+03  0.00000000000E+00 0. -1.
         -2    1    5    5    0  503  0.50294954073E+02 -0.66305154174E+02 -0.39800994731E+02  0.92250068059E+02  0.00000000000E+00 0.  1.
         -3    1    6    6    0  502  0.11071006379E+02  0.78541971299E+01 -0.10076147872E+02  0.16905157518E+02  0.00000000000E+00 0.  1.
<mgrwt>
<rscale>  0 0.17834866E+04</rscale>
<asrwt>0</asrwt>
<pdfrwt beam="1">  1        1 0.17861799E+00 0.17834866E+04</pdfrwt>
<pdfrwt beam="2">  1       -1 0.10537263E+00 0.17834866E+04</pdfrwt>
<totfact> 0.91091770E+00</totfact>
</mgrwt>
</event>
<event>
12    1  0.2048318E-007  0.1913672E+04  0.7818608E-02  0.8648081E-01
         -2   -1    0    0    0  501 -0.00000000000E+00  0.00000000000E+00  0.10497452375E+04  0.10497452375E+04  0.00000000000E+00 0. -1.
          2   -1    0    0  501    0  0.00000000000E+00 -0.00000000000E+00 -0.87215014721E+03  0.87215014721E+03  0.00000000000E+00 0.  1.
         23    2    1    2    0    0 -0.42587729283E+03  0.45205244241E+03  0.47563593649E+03  0.78730817494E+03  0.88891726339E+02 0.  0.
        254    2    1    2    0    0  0.42587729283E+03 -0.45205244241E+03 -0.29804084621E+03  0.11345872098E+04  0.90151922404E+03 0.  0.
        -24    2    4    4    0    0  0.32609768189E+03 -0.64389039177E+03 -0.45230437866E+03  0.85629653047E+03  0.87920204693E+02 0.  0.
         24    2    4    4    0    0  0.99779610937E+02  0.19183794936E+03  0.15426353245E+03  0.27829067929E+03  0.83010211192E+02 0.  0.
         13    1    3    3    0    0 -0.10136001952E+03  0.57576097898E+02  0.90676447394E+02  0.14768574311E+03  0.00000000000E+00 0. -1.
        -13    1    3    3    0    0 -0.32451727331E+03  0.39447634452E+03  0.38495948910E+03  0.63962243184E+03  0.00000000000E+00 0.  1.
          4    1    6    6  502    0  0.70470391616E+02  0.14608317829E+03  0.15443018854E+03  0.22395324112E+03  0.00000000000E+00 0. -1.
          1    1    5    5  503    0  0.21605263858E+03 -0.33872752244E+03 -0.27170890448E+03  0.48501629444E+03  0.00000000000E+00 0. -1.
         -2    1    5    5    0  503  0.11004504331E+03 -0.30516286933E+03 -0.18059547418E+03  0.37128023603E+03  0.00000000000E+00 0.  1.
         -3    1    6    6    0  502  0.29309219321E+02  0.45754771073E+02 -0.16665609099E+00  0.54337438175E+02  0.00000000000E+00 0.  1.
<mgrwt>
<rscale>  0 0.19136723E+04</rscale>
<asrwt>0</asrwt>
<pdfrwt beam="1">  1        2 0.13417695E+00 0.19136723E+04</pdfrwt>
<pdfrwt beam="2">  1       -2 0.16149927E+00 0.19136723E+04</pdfrwt>
<totfact> 0.70353713E+00</totfact>
</mgrwt>
</event>
<event>
12    1  0.2048318E-007  0.1418607E+04  0.7818608E-02  0.8940459E-01
          2   -1    0    0  501    0  0.00000000000E+00  0.00000000000E+00  0.13917958499E+04  0.13917958499E+04  0.00000000000E+00 0. -1.
         -2   -1    0    0    0  501 -0.00000000000E+00 -0.00000000000E+00 -0.36148361077E+03  0.36148361077E+03  0.00000000000E+00 0.  1.
         23    2    1    2    0    0 -0.22764811434E+01 -0.40241208247E+03  0.45119735408E+03  0.61119643951E+03  0.89673679813E+02 0.  0.
        254    2    1    2    0    0  0.22764811434E+01  0.40241208247E+03  0.57911488505E+03  0.11420830212E+04  0.89835344417E+03 0.  0.
        -24    2    4    4    0    0 -0.49971255136E+02  0.37634298674E+03 -0.14245642602E+03  0.41326446043E+03  0.79765349195E+02 0.  0.
         24    2    4    4    0    0  0.52247736280E+02  0.26069095728E+02  0.72157131107E+03  0.72881856073E+03  0.84272853327E+02 0.  0.
         11    1    3    3    0    0  0.11502328361E+02 -0.32480062864E+03  0.30813674460E+03  0.44785712598E+03  0.00000000000E+00 0.  1.
        -11    1    3    3    0    0 -0.13778809504E+02 -0.77611453835E+02  0.14306060948E+03  0.16333931352E+03  0.00000000000E+00 0. -1.
          4    1    6    6  502    0 -0.12543391783E+02 -0.19358160213E+02  0.13973581674E+03  0.14162688136E+03  0.00000000000E+00 0. -1.
          1    1    5    5  503    0 -0.43892452317E+01  0.18286712829E+03 -0.31475262354E+02  0.18560803922E+03  0.00000000000E+00 0. -1.
         -2    1    5    5    0  503 -0.45582009905E+02  0.19347585845E+03 -0.11098116367E+03  0.22765642121E+03  0.00000000000E+00 0.  1.
         -3    1    6    6    0  502  0.64791128062E+02  0.45427255941E+02  0.58183549433E+03  0.58719167937E+03  0.00000000000E+00 0.  1.
<mgrwt>
<rscale>  0 0.14186069E+04</rscale>
<asrwt>0</asrwt>
<pdfrwt beam="1">  1        2 0.21412244E+00 0.14186069E+04</pdfrwt>
<pdfrwt beam="2">  1       -2 0.55612864E-01 0.14186069E+04</pdfrwt>
<totfact> 0.43189671E+01</totfact>
</mgrwt>
</event>
<event>
12    1  0.2048318E-007  0.2677518E+04  0.7818608E-02  0.8342336E-01
         -2   -1    0    0    0  501 -0.00000000000E+00  0.00000000000E+00  0.17544905104E+04  0.17544905104E+04  0.00000000000E+00 0.  1.
          2   -1    0    0  501    0  0.00000000000E+00 -0.00000000000E+00 -0.10215365986E+04  0.10215365986E+04  0.00000000000E+00 0. -1.
         23    2    1    2    0    0 -0.61891532317E+02  0.97135026157E+03  0.10326188242E+04  0.14220267210E+04  0.92230508400E+02 0.  0.
        254    2    1    2    0    0  0.61891532317E+02 -0.97135026157E+03 -0.29966491241E+03  0.13540003879E+04  0.89228140087E+03 0.  0.
        -24    2    4    4    0    0  0.44545806366E+03 -0.47934060139E+03 -0.40805962733E+01  0.65928784760E+03  0.80271514910E+02 0.  0.
         24    2    4    4    0    0 -0.38356653135E+03 -0.49200966018E+03 -0.29558431614E+03  0.69471254032E+03  0.77837240801E+02 0.  0.
         11    1    3    3    0    0 -0.20700534294E+02  0.81807618104E+03  0.88326210801E+03  0.12040884941E+04  0.00000000000E+00 0.  1.
        -11    1    3    3    0    0 -0.41190998023E+02  0.15327408053E+03  0.14935671621E+03  0.21793822693E+03  0.00000000000E+00 0. -1.
          4    1    6    6  502    0 -0.22692728171E+01  0.31060259039E+00 -0.88819941299E+01  0.91725619546E+01  0.00000000000E+00 0. -1.
          1    1    5    5  503    0  0.11298230511E+03 -0.16248042363E+03  0.22852209344E+02  0.19921624634E+03  0.00000000000E+00 0. -1.
         -2    1    5    5    0  503  0.33247575855E+03 -0.31686017776E+03 -0.26932805617E+02  0.46007160127E+03  0.00000000000E+00 0.  1.
         -3    1    6    6    0  502 -0.38129725853E+03 -0.49232026277E+03 -0.28670232201E+03  0.68553997836E+03  0.00000000000E+00 0.  1.
<mgrwt>
<rscale>  0 0.26775185E+04</rscale>
<asrwt>0</asrwt>
<pdfrwt beam="1">  1        2 0.15715948E+00 0.26775185E+04</pdfrwt>
<pdfrwt beam="2">  1       -2 0.26992162E+00 0.26775185E+04</pdfrwt>
<totfact> 0.10405408E+00</totfact>
</mgrwt>
</event>
<event>
12    1  0.2048318E-007  0.1042819E+04  0.7818608E-02  0.9262790E-01
          2   -1    0    0  501    0  0.00000000000E+00  0.00000000000E+00  0.21236760304E+04  0.21236760304E+04  0.00000000000E+00 0. -1.
         -2   -1    0    0    0  501 -0.00000000000E+00 -0.00000000000E+00 -0.12801750150E+03  0.12801750150E+03  0.00000000000E+00 0.  1.
         23    2    1    2    0    0  0.73392527775E+02 -0.32730511193E+02  0.18407146463E+03  0.21980515193E+03  0.89298663074E+02 0.  0.
        254    2    1    2    0    0 -0.73392527775E+02  0.32730511193E+02  0.18115870643E+04  0.20318883800E+04  0.91665966845E+03 0.  0.
        -24    2    4    4    0    0  0.40411425519E+02  0.22464862195E+03  0.17759573086E+04  0.17923358393E+04  0.79644914914E+02 0.  0.
         24    2    4    4    0    0 -0.11380395329E+03 -0.19191811076E+03  0.35629755742E+02  0.23955254068E+03  0.79574111543E+02 0.  0.
         13    1    3    3    0    0  0.71568318373E+02 -0.44009974251E+01  0.17637356714E+03  0.19039177545E+03  0.00000000000E+00 0. -1.
        -13    1    3    3    0    0  0.18242094023E+01 -0.28329513768E+02  0.76978974945E+01  0.29413376482E+02  0.00000000000E+00 0.  1.
          4    1    6    6  502    0 -0.74353728650E+02 -0.50855523179E+02  0.74331232269E+01  0.90388121581E+02  0.00000000000E+00 0. -1.
          3    1    5    5  503    0  0.21280078966E+02  0.21625582741E+03  0.15094641994E+04  0.15250251125E+04  0.00000000000E+00 0. -1.
         -4    1    5    5    0  503  0.19131346554E+02  0.83927945402E+01  0.26649310918E+03  0.26731072680E+03  0.00000000000E+00 0.  1.
         -3    1    6    6    0  502 -0.39450224645E+02 -0.14106258758E+03  0.28196632515E+02  0.14916441909E+03  0.00000000000E+00 0.  1.
<mgrwt>
<rscale>  0 0.10428187E+04</rscale>
<asrwt>0</asrwt>
<pdfrwt beam="1">  1        2 0.32671936E+00 0.10428187E+04</pdfrwt>
<pdfrwt beam="2">  1       -2 0.19695002E-01 0.10428187E+04</pdfrwt>
<totfact> 0.12522824E+02</totfact>
</mgrwt>
</event>
<event>
12    1  0.2048318E-007  0.1719404E+04  0.7818608E-02  0.8750374E-01
         -2   -1    0    0    0  501 -0.00000000000E+00  0.00000000000E+00  0.67085223295E+03  0.67085223295E+03  0.00000000000E+00 0.  1.
          2   -1    0    0  501    0  0.00000000000E+00 -0.00000000000E+00 -0.11017144134E+04  0.11017144134E+04  0.00000000000E+00 0. -1.
         23    2    1    2    0    0  0.29569303493E+03  0.30835674537E+03  0.30636133786E+03  0.53354583830E+03  0.91080398032E+02 0.  0.
        254    2    1    2    0    0 -0.29569303493E+03 -0.30835674537E+03 -0.73722351828E+03  0.12390208080E+04  0.89953087410E+03 0.  0.
        -24    2    4    4    0    0  0.11519798873E+03 -0.22177434951E+03 -0.76692534514E+03  0.81049049043E+03  0.79157509724E+02 0.  0.
         24    2    4    4    0    0 -0.41089102366E+03 -0.86582395859E+02  0.29701826856E+02  0.42853031759E+03  0.80175370132E+02 0.  0.
         13    1    3    3    0    0  0.21483299637E+03  0.22755318997E+03  0.17185887703E+03  0.35702821206E+03  0.00000000000E+00 0. -1.
        -13    1    3    3    0    0  0.80860038560E+02  0.80803555404E+02  0.13450246083E+03  0.17651762624E+03  0.00000000000E+00 0.  1.
          4    1    6    6  502    0 -0.21906355104E+03 -0.86904839159E+02  0.16412028528E+02  0.23624276739E+03  0.00000000000E+00 0. -1.
          3    1    5    5  503    0  0.12142544197E+03 -0.19062063463E+03 -0.61340019154E+03  0.65371259686E+03  0.00000000000E+00 0. -1.
         -4    1    5    5    0  503 -0.62274532476E+01 -0.31153714881E+02 -0.15352515360E+03  0.15677789357E+03  0.00000000000E+00 0.  1.
         -3    1    6    6    0  502 -0.19182747262E+03  0.32244329996E+00  0.13289798328E+02  0.19228755020E+03  0.00000000000E+00 0.  1.
<mgrwt>
<rscale>  0 0.17194041E+04</rscale>
<asrwt>0</asrwt>
<pdfrwt beam="1">  1        2 0.16949453E+00 0.17194041E+04</pdfrwt>
<pdfrwt beam="2">  1       -2 0.10320804E+00 0.17194041E+04</pdfrwt>
<totfact> 0.15821125E+01</totfact>
</mgrwt>
</event>
<event>
12    1  0.2048318E-007  0.3798373E+04  0.7818608E-02  0.8046504E-01
         -2   -1    0    0    0  501 -0.00000000000E+00  0.00000000000E+00  0.13354472174E+04  0.13354472174E+04  0.00000000000E+00 0.  1.
          2   -1    0    0  501    0  0.00000000000E+00 -0.00000000000E+00 -0.27008992701E+04  0.27008992701E+04  0.00000000000E+00 0. -1.
         23    2    1    2    0    0 -0.56760994006E+03  0.13551869399E+02  0.11608224972E+04  0.12953914505E+04  0.90362840180E+02 0.  0.
        254    2    1    2    0    0  0.56760994006E+03 -0.13551869399E+02 -0.25262745499E+04  0.27409550370E+04  0.89911440667E+03 0.  0.
        -24    2    4    4    0    0  0.36009465685E+03 -0.40823656348E+03 -0.18255480015E+04  0.19066496781E+04  0.79763622149E+02 0.  0.
         24    2    4    4    0    0  0.20751528321E+03  0.39468469408E+03 -0.70072654840E+03  0.83430535896E+03  0.78798070065E+02 0.  0.
         13    1    3    3    0    0 -0.16578458322E+03  0.14453915570E+02  0.25570866950E+03  0.30509075268E+03  0.00000000000E+00 0. -1.
        -13    1    3    3    0    0 -0.40182535683E+03 -0.90204617176E+00  0.90511382767E+03  0.99030069783E+03  0.00000000000E+00 0.  1.
          2    1    6    6  502    0  0.86741857392E+02  0.13323596443E+03 -0.31585302708E+03  0.35360869157E+03  0.00000000000E+00 0. -1.
          1    1    5    5  503    0  0.14570983093E+03 -0.20429209108E+03 -0.73404068391E+03  0.77574631094E+03  0.00000000000E+00 0. -1.
         -2    1    5    5    0  503  0.21438482591E+03 -0.20394447240E+03 -0.10915073176E+04  0.11309033671E+04  0.00000000000E+00 0.  1.
         -1    1    6    6    0  502  0.12077342582E+03  0.26144872966E+03 -0.38487352132E+03  0.48069666739E+03  0.00000000000E+00 0.  1.
<mgrwt>
<rscale>  0 0.37983725E+04</rscale>
<asrwt>0</asrwt>
<pdfrwt beam="1">  1        2 0.41552296E+00 0.37983725E+04</pdfrwt>
<pdfrwt beam="2">  1       -2 0.20545342E+00 0.37983725E+04</pdfrwt>
<totfact> 0.26054259E-01</totfact>
</mgrwt>
</event>
<event>
12    1  0.2048318E-007  0.1505207E+04  0.7818608E-02  0.8880998E-01
         -2   -1    0    0    0  501 -0.00000000000E+00  0.00000000000E+00  0.27516919281E+03  0.27516919281E+03  0.00000000000E+00 0.  1.
          2   -1    0    0  501    0  0.00000000000E+00 -0.00000000000E+00 -0.20584142736E+04  0.20584142736E+04  0.00000000000E+00 0. -1.
         23    2    1    2    0    0  0.90619829356E+02 -0.45031840287E+03 -0.77750630354E+03  0.90776988109E+03  0.92366051926E+02 0.  0.
        254    2    1    2    0    0 -0.90619829356E+02  0.45031840287E+03 -0.10057387773E+04  0.14258135854E+04  0.90024178674E+03 0.  0.
        -24    2    4    4    0    0 -0.11263475397E+03  0.61392332712E+02  0.14435033609E+03  0.20897904424E+03  0.79872492669E+02 0.  0.
         24    2    4    4    0    0  0.22014924614E+02  0.38892607016E+03 -0.11500891134E+04  0.12168345411E+04  0.78950533624E+02 0.  0.
         13    1    3    3    0    0  0.42754650855E+02 -0.21575147523E+03 -0.46231973429E+03  0.51197284689E+03  0.00000000000E+00 0. -1.
        -13    1    3    3    0    0  0.47865178501E+02 -0.23456692764E+03 -0.31518656924E+03  0.39579703421E+03  0.00000000000E+00 0.  1.
          2    1    6    6  502    0  0.49187406647E+02  0.19319763305E+03 -0.54700357370E+03  0.58220068364E+03  0.00000000000E+00 0. -1.
          3    1    5    5  503    0 -0.12303564357E+03  0.53948683434E+02  0.14285562320E+03  0.19610191002E+03  0.00000000000E+00 0. -1.
         -4    1    5    5    0  503  0.10400889604E+02  0.74436492780E+01  0.14947128913E+01  0.12877134222E+02  0.00000000000E+00 0.  1.
         -3    1    6    6    0  502 -0.27172482033E+02  0.19572843710E+03 -0.60308553970E+03  0.63463385748E+03  0.00000000000E+00 0.  1.
<mgrwt>
<rscale>  0 0.15052072E+04</rscale>
<asrwt>0</asrwt>
<pdfrwt beam="1">  1        2 0.31667911E+00 0.15052072E+04</pdfrwt>
<pdfrwt beam="2">  1       -2 0.42333723E-01 0.15052072E+04</pdfrwt>
<totfact> 0.31681352E+01</totfact>
</mgrwt>
</event>
<event>
12    1  0.2048318E-007  0.3213513E+04  0.7818608E-02  0.8185257E-01
         -2   -1    0    0    0  501 -0.00000000000E+00  0.00000000000E+00  0.80162148102E+03  0.80162148102E+03  0.00000000000E+00 0. -1.
          2   -1    0    0  501    0  0.00000000000E+00 -0.00000000000E+00 -0.32205562934E+04  0.32205562934E+04  0.00000000000E+00 0.  1.
         23    2    1    2    0    0 -0.13967381287E+04  0.15127135305E+03 -0.53785509195E+03  0.15071269221E+04  0.91558927158E+02 0.  0.
        254    2    1    2    0    0  0.13967381287E+04 -0.15127135305E+03 -0.18810797204E+04  0.25150508523E+04  0.90180898894E+03 0.  0.
        -24    2    4    4    0    0  0.11396690753E+04 -0.17333302215E+02 -0.80511908192E+03  0.13978390198E+04  0.81185864734E+02 0.  0.
         24    2    4    4    0    0  0.25706905343E+03 -0.13393805083E+03 -0.10759606385E+04  0.11172118325E+04  0.80293731978E+02 0.  0.
         13    1    3    3    0    0 -0.77976793766E+03  0.68696123345E+02 -0.25378429644E+03  0.82289954617E+03  0.00000000000E+00 0.  1.
        -13    1    3    3    0    0 -0.61697019103E+03  0.82575229705E+02 -0.28407079551E+03  0.68422737598E+03  0.00000000000E+00 0. -1.
          2    1    6    6  502    0  0.19652183677E+03 -0.62121724388E+02 -0.70169383910E+03  0.73133725790E+03  0.00000000000E+00 0. -1.
          1    1    5    5  503    0  0.24897047006E+03 -0.32491910402E+02 -0.15595196204E+03  0.29557238313E+03  0.00000000000E+00 0. -1.
         -2    1    5    5    0  503  0.89069860519E+03  0.15158608187E+02 -0.64916711989E+03  0.11022666366E+04  0.00000000000E+00 0.  1.
         -1    1    6    6    0  502  0.60547216656E+02 -0.71816326447E+02 -0.37426679941E+03  0.38587457461E+03  0.00000000000E+00 0.  1.
<mgrwt>
<rscale>  0 0.32135134E+04</rscale>
<asrwt>0</asrwt>
<pdfrwt beam="1">  1        2 0.49547020E+00 0.32135134E+04</pdfrwt>
<pdfrwt beam="2">  1       -2 0.12332638E+00 0.32135134E+04</pdfrwt>
<totfact> 0.52395517E-01</totfact>
</mgrwt>
</event>
<event>
12    1  0.2139841E-007  0.1835705E+04  0.7818608E-02  0.8687539E-01
          2   -1    0    0  501    0  0.00000000000E+00  0.00000000000E+00  0.73589471345E+03  0.73589471345E+03  0.00000000000E+00 0. -1.
         -2   -1    0    0    0  501 -0.00000000000E+00 -0.00000000000E+00 -0.11448011122E+04  0.11448011122E+04  0.00000000000E+00 0.  1.
         23    2    1    2    0    0 -0.29841179435E+03 -0.54339038863E+03 -0.47634737577E+03  0.78705811922E+03  0.90724567533E+02 0.  0.
        254    2    1    2    0    0  0.29841179435E+03  0.54339038863E+03  0.67440977051E+02  0.10936377064E+04  0.89842775670E+03 0.  0.
        -24    2    4    4    0    0  0.26114766702E+03  0.44266511655E+03  0.45029973560E+03  0.68809514801E+03  0.80960307826E+02 0.  0.
         24    2    4    4    0    0  0.37264127338E+02  0.10072527209E+03 -0.38285875855E+03  0.40554255839E+03  0.79685268685E+02 0.  0.
         11    1    3    3    0    0 -0.15643658963E+03 -0.36970319379E+03 -0.32414946273E+03  0.51597066996E+03  0.00000000000E+00 0.  1.
        -11    1    3    3    0    0 -0.14197520473E+03 -0.17368719484E+03 -0.15219791304E+03  0.27108744926E+03  0.00000000000E+00 0. -1.
          2    1    6    6  502    0  0.21662621642E+02  0.47045458345E+02 -0.30685201132E+03  0.31119238612E+03  0.00000000000E+00 0. -1.
          1    1    5    5  503    0  0.17672684890E+03  0.35524382190E+03  0.31830000308E+03  0.50867027049E+03  0.00000000000E+00 0. -1.
         -2    1    5    5    0  503  0.84420818117E+02  0.87421294647E+02  0.13199973251E+03  0.17942487752E+03  0.00000000000E+00 0.  1.
         -1    1    6    6    0  502  0.15601505696E+02  0.53679813743E+02 -0.76006747229E+02  0.94350172273E+02  0.00000000000E+00 0.  1.
<mgrwt>
<rscale>  0 0.18357049E+04</rscale>
<asrwt>0</asrwt>
<pdfrwt beam="1">  1        2 0.11321457E+00 0.18357049E+04</pdfrwt>
<pdfrwt beam="2">  1       -2 0.17612325E+00 0.18357049E+04</pdfrwt>
<totfact> 0.69764572E+00</totfact>
</mgrwt>
</event>
<event>
12    1  0.2048318E-007  0.1196337E+04  0.7818608E-02  0.9116069E-01
         -1   -1    0    0    0  501 -0.00000000000E+00  0.00000000000E+00  0.61232872972E+03  0.61232872972E+03  0.00000000000E+00 0.  1.
          1   -1    0    0  501    0  0.00000000000E+00 -0.00000000000E+00 -0.58433569609E+03  0.58433569609E+03  0.00000000000E+00 0. -1.
         23    2    1    2    0    0  0.84748518984E+02  0.22345708150E+03 -0.55184752177E+02  0.26255576511E+03  0.93673871379E+02 0.  0.
        254    2    1    2    0    0 -0.84748518984E+02 -0.22345708150E+03  0.83177785811E+02  0.93410866069E+03  0.89918021953E+03 0.  0.
        -24    2    4    4    0    0  0.17857564433E+03 -0.86230812895E+02 -0.34563578270E+03  0.40637510746E+03  0.79697050430E+02 0.  0.
         24    2    4    4    0    0 -0.26332416331E+03 -0.13722626860E+03  0.42881356851E+03  0.52773355323E+03  0.80317886517E+02 0.  0.
         11    1    3    3    0    0  0.30838485112E+02  0.16023131472E+03 -0.65871792987E+00  0.16317328302E+03  0.00000000000E+00 0.  1.
        -11    1    3    3    0    0  0.53910033872E+02  0.63225766776E+02 -0.54526034247E+02  0.99382482094E+02  0.00000000000E+00 0. -1.
          4    1    6    6  502    0 -0.20156998652E+03 -0.66143142406E+02  0.27391483039E+03  0.34646025611E+03  0.00000000000E+00 0. -1.
          3    1    5    5  503    0  0.75607071200E+02 -0.35382916513E+02 -0.74361793563E+02  0.11179470622E+03  0.00000000000E+00 0. -1.
         -4    1    5    5    0  503  0.10296857313E+03 -0.50847896382E+02 -0.27127398913E+03  0.29458040125E+03  0.00000000000E+00 0.  1.
         -3    1    6    6    0  502 -0.61754176784E+02 -0.71083126196E+02  0.15489873811E+03  0.18127329712E+03  0.00000000000E+00 0.  1.
<mgrwt>
<rscale>  0 0.11963370E+04</rscale>
<asrwt>0</asrwt>
<pdfrwt beam="1">  1        1 0.89897798E-01 0.11963370E+04</pdfrwt>
<pdfrwt beam="2">  1       -1 0.94204421E-01 0.11963370E+04</pdfrwt>
<totfact> 0.38458064E+01</totfact>
</mgrwt>
</event>
<event>
12    1  0.2048318E-007  0.3138889E+04  0.7818608E-02  0.8205145E-01
         -2   -1    0    0    0  501 -0.00000000000E+00  0.00000000000E+00  0.88054118049E+03  0.88054118049E+03  0.00000000000E+00 0.  1.
          2   -1    0    0  501    0  0.00000000000E+00 -0.00000000000E+00 -0.27973210900E+04  0.27973210900E+04  0.00000000000E+00 0. -1.
         23    2    1    2    0    0  0.11034133325E+04 -0.89408903588E+03 -0.59248107607E+03  0.15414835082E+04  0.90671904167E+02 0.  0.
        254    2    1    2    0    0 -0.11034133325E+04  0.89408903588E+03 -0.13242988335E+04  0.21363787623E+04  0.89074723081E+03 0.  0.
        -24    2    4    4    0    0  0.13165069683E+03  0.24585260409E+02 -0.18937330031E+03  0.24544065937E+03  0.80265368608E+02 0.  0.
         24    2    4    4    0    0 -0.12350640293E+04  0.86950377547E+03 -0.11349255332E+04  0.18909381029E+04  0.78555528925E+02 0.  0.
         13    1    3    3    0    0  0.33825302122E+03 -0.31022271501E+03 -0.22595583722E+03  0.51157529225E+03  0.00000000000E+00 0. -1.
        -13    1    3    3    0    0  0.76516031129E+03 -0.58386632087E+03 -0.36652523885E+03  0.10299082160E+04  0.00000000000E+00 0.  1.
          2    1    6    6  502    0 -0.36454619604E+03  0.21355844439E+03 -0.31653962221E+03  0.52791900008E+03  0.00000000000E+00 0. -1.
          3    1    5    5  503    0  0.86952448495E+02  0.48825410531E+02 -0.92425283620E+02  0.13596720952E+03  0.00000000000E+00 0. -1.
         -4    1    5    5    0  503  0.44698248335E+02 -0.24240150122E+02 -0.96948016691E+02  0.10947344985E+03  0.00000000000E+00 0.  1.
         -1    1    6    6    0  502 -0.87051783330E+03  0.65594533108E+03 -0.81838591095E+03  0.13630191028E+04  0.00000000000E+00 0.  1.
<mgrwt>
<rscale>  0 0.31388892E+04</rscale>
<asrwt>0</asrwt>
<pdfrwt beam="1">  1        2 0.43035709E+00 0.31388892E+04</pdfrwt>
<pdfrwt beam="2">  1       -2 0.13546788E+00 0.31388892E+04</pdfrwt>
<totfact> 0.76776361E-01</totfact>
</mgrwt>
</event>
<event>
12    1  0.2048318E-007  0.1822961E+04  0.7818608E-02  0.8694183E-01
          2   -1    0    0  501    0  0.00000000000E+00  0.00000000000E+00  0.31846854838E+03  0.31846854838E+03  0.00000000000E+00 0. -1.
         -2   -1    0    0    0  501 -0.00000000000E+00 -0.00000000000E+00 -0.26087256787E+04  0.26087256787E+04  0.00000000000E+00 0.  1.
         23    2    1    2    0    0  0.57073326989E+03  0.15049368162E+03 -0.30917335290E+03  0.67261714747E+03  0.91874106031E+02 0.  0.
        254    2    1    2    0    0 -0.57073326989E+03 -0.15049368162E+03 -0.19810837774E+04  0.22545770796E+04  0.90002225591E+03 0.  0.
        -24    2    4    4    0    0  0.41756881118E+02 -0.39371922109E+03 -0.88480346307E+03  0.97272676734E+03  0.81004527374E+02 0.  0.
         24    2    4    4    0    0 -0.61249015101E+03  0.24322553947E+03 -0.10962803144E+04  0.12818503123E+04  0.83706912979E+02 0.  0.
         13    1    3    3    0    0  0.11978429721E+03  0.59176991308E+00 -0.86931945781E+02  0.14800605139E+03  0.00000000000E+00 0.  1.
        -13    1    3    3    0    0  0.45094897269E+03  0.14990191171E+03 -0.22224140712E+03  0.52461109609E+03  0.00000000000E+00 0. -1.
          2    1    6    6  502    0 -0.39716048217E+03  0.18815454517E+03 -0.77996039026E+03  0.89525236210E+03  0.00000000000E+00 0. -1.
          3    1    5    5  503    0 -0.13924951602E+02 -0.24355391338E+03 -0.52929721113E+03  0.58281039001E+03  0.00000000000E+00 0. -1.
         -4    1    5    5    0  503  0.55681832720E+02 -0.15016530772E+03 -0.35550625194E+03  0.38991637732E+03  0.00000000000E+00 0.  1.
         -1    1    6    6    0  502 -0.21532966884E+03  0.55070994300E+02 -0.31631992410E+03  0.38659795018E+03  0.00000000000E+00 0.  1.
<mgrwt>
<rscale>  0 0.18229614E+04</rscale>
<asrwt>0</asrwt>
<pdfrwt beam="1">  1        2 0.48995161E-01 0.18229614E+04</pdfrwt>
<pdfrwt beam="2">  1       -2 0.40134242E+00 0.18229614E+04</pdfrwt>
<totfact> 0.70715297E-01</totfact>
</mgrwt>
</event>
<event>
12    1  0.2048318E-007  0.2336974E+04  0.7818608E-02  0.8463484E-01
          2   -1    0    0  501    0  0.00000000000E+00  0.00000000000E+00  0.20829681639E+04  0.20829681639E+04  0.00000000000E+00 0. -1.
         -2   -1    0    0    0  501 -0.00000000000E+00 -0.00000000000E+00 -0.65548833893E+03  0.65548833893E+03  0.00000000000E+00 0.  1.
         23    2    1    2    0    0 -0.57891097770E+03 -0.67841702520E+03  0.95985924398E+02  0.90131614347E+03  0.88147107806E+02 0.  0.
        254    2    1    2    0    0  0.57891097770E+03  0.67841702520E+03  0.13314939005E+04  0.18371403593E+04  0.89823221524E+03 0.  0.
        -24    2    4    4    0    0 -0.31584856628E+02  0.43562498200E+03  0.12519991392E+03  0.46133953554E+03  0.79952614101E+02 0.  0.
         24    2    4    4    0    0  0.61049583432E+03  0.24279204320E+03  0.12062939866E+04  0.13758008238E+04  0.77650399788E+02 0.  0.
         11    1    3    3    0    0 -0.32190695564E+03 -0.39332312545E+03  0.97247244097E+02  0.51747869095E+03  0.00000000000E+00 0. -1.
        -11    1    3    3    0    0 -0.25700402206E+03 -0.28509389976E+03 -0.12613196990E+01  0.38383745252E+03  0.00000000000E+00 0.  1.
          4    1    6    6  502    0  0.52039929795E+03  0.19084952496E+03  0.10618102242E+04  0.11977812499E+04  0.00000000000E+00 0. -1.
          3    1    5    5  503    0 -0.16792271574E+02  0.39116256599E+03  0.87459136692E+02  0.40117232458E+03  0.00000000000E+00 0. -1.
         -4    1    5    5    0  503 -0.14792585054E+02  0.44462416010E+02  0.37740777225E+02  0.60167210968E+02  0.00000000000E+00 0.  1.
         -3    1    6    6    0  502  0.90096536378E+02  0.51942518239E+02  0.14448376241E+03  0.17801957384E+03  0.00000000000E+00 0.  1.
<mgrwt>
<rscale>  0 0.23369735E+04</rscale>
<asrwt>0</asrwt>
<pdfrwt beam="1">  1        2 0.32045664E+00 0.23369735E+04</pdfrwt>
<pdfrwt beam="2">  1       -2 0.10084436E+00 0.23369735E+04</pdfrwt>
<totfact> 0.43950382E+00</totfact>
</mgrwt>
</event>
<event>
12    1  0.2048318E-007  0.2069964E+04  0.7818608E-02  0.8574591E-01
          1   -1    0    0  501    0  0.00000000000E+00  0.00000000000E+00  0.29160089059E+04  0.29160089059E+04  0.00000000000E+00 0. -1.
         -1   -1    0    0    0  501 -0.00000000000E+00 -0.00000000000E+00 -0.36734723513E+03  0.36734723513E+03  0.00000000000E+00 0.  1.
         23    2    1    2    0    0  0.16067406221E+03  0.93916979750E+02  0.23302015636E+04  0.23393518175E+04  0.89950238528E+02 0.  0.
        254    2    1    2    0    0 -0.16067406221E+03 -0.93916979750E+02  0.21846010718E+03  0.94400432360E+03  0.89932351864E+03 0.  0.
        -24    2    4    4    0    0 -0.86697072912E+02  0.18864504479E+03 -0.28182168413E+03  0.35909310519E+03  0.80131524242E+02 0.  0.
         24    2    4    4    0    0 -0.73976989300E+02 -0.28256202454E+03  0.50028179131E+03  0.58491121840E+03  0.80779762573E+02 0.  0.
         11    1    3    3    0    0  0.66605927336E+02  0.30046646203E+02  0.46677897376E+03  0.47246350213E+03  0.00000000000E+00 0.  1.
        -11    1    3    3    0    0  0.94068134876E+02  0.63870333547E+02  0.18634225899E+04  0.18668883153E+04  0.00000000000E+00 0. -1.
          2    1    6    6  502    0 -0.28868363755E+02 -0.50329981835E+02  0.51442849369E+02  0.77542609246E+02  0.00000000000E+00 0. -1.
          1    1    5    5  503    0  0.57966391388E+01  0.20364009154E+02 -0.70256006156E+02  0.73377110157E+02  0.00000000000E+00 0. -1.
         -2    1    5    5    0  503 -0.92493712050E+02  0.16828103563E+03 -0.21156567798E+03  0.28571599504E+03  0.00000000000E+00 0.  1.
         -1    1    6    6    0  502 -0.45108625546E+02 -0.23223204270E+03  0.44883894194E+03  0.50736860916E+03  0.00000000000E+00 0.  1.
<mgrwt>
<rscale>  0 0.20699641E+04</rscale>
<asrwt>0</asrwt>
<pdfrwt beam="1">  1        1 0.44861674E+00 0.20699641E+04</pdfrwt>
<pdfrwt beam="2">  1       -1 0.56514961E-01 0.20699641E+04</pdfrwt>
<totfact> 0.20125226E+00</totfact>
</mgrwt>
</event>
<event>
12    1  0.2048318E-007  0.1888510E+04  0.7818608E-02  0.8660597E-01
          1   -1    0    0  501    0  0.00000000000E+00  0.00000000000E+00  0.18235301218E+04  0.18235301218E+04  0.00000000000E+00 0. -1.
         -1   -1    0    0    0  501 -0.00000000000E+00 -0.00000000000E+00 -0.48895138315E+03  0.48895138315E+03  0.00000000000E+00 0.  1.
         23    2    1    2    0    0  0.34593772854E+03  0.60337700504E+03  0.26601762255E+03  0.75027028316E+03  0.91670060816E+02 0.  0.
        254    2    1    2    0    0 -0.34593772854E+03 -0.60337700504E+03  0.10685611161E+04  0.15622112218E+04  0.90274266566E+03 0.  0.
        -24    2    4    4    0    0 -0.70060811242E+02 -0.65542095109E+02 -0.15223931370E+03  0.19777905061E+03  0.82069852689E+02 0.  0.
         24    2    4    4    0    0 -0.27587691730E+03 -0.53783490993E+03  0.12208004298E+04  0.13644321712E+04  0.77116771945E+02 0.  0.
         11    1    3    3    0    0  0.19076802718E+03  0.40095316483E+03  0.13854741079E+03  0.46513574967E+03  0.00000000000E+00 0.  1.
        -11    1    3    3    0    0  0.15516970136E+03  0.20242384021E+03  0.12747021176E+03  0.28513453350E+03  0.00000000000E+00 0. -1.
          4    1    6    6  502    0 -0.16021118164E+03 -0.37988995997E+03  0.86849636265E+03  0.96138958614E+03  0.00000000000E+00 0. -1.
          1    1    5    5  503    0 -0.74460838973E+02 -0.16319982496E+02 -0.82749594361E+02  0.11250890514E+03  0.00000000000E+00 0. -1.
         -2    1    5    5    0  503  0.44000277306E+01 -0.49222112613E+02 -0.69489719336E+02  0.85270145464E+02  0.00000000000E+00 0.  1.
         -3    1    6    6    0  502 -0.11566573566E+03 -0.15794494996E+03  0.35230406717E+03  0.40304258506E+03  0.00000000000E+00 0.  1.
<mgrwt>
<rscale>  0 0.18885101E+04</rscale>
<asrwt>0</asrwt>
<pdfrwt beam="1">  1        1 0.28054309E+00 0.18885101E+04</pdfrwt>
<pdfrwt beam="2">  1       -1 0.75223291E-01 0.18885101E+04</pdfrwt>
<totfact> 0.65336236E+00</totfact>
</mgrwt>
</event>
<event>
12    1  0.2048318E-007  0.1404197E+04  0.7818608E-02  0.8950786E-01
         -2   -1    0    0    0  501 -0.00000000000E+00  0.00000000000E+00  0.36771337540E+03  0.36771337540E+03  0.00000000000E+00 0.  1.
          2   -1    0    0  501    0  0.00000000000E+00 -0.00000000000E+00 -0.13405608714E+04  0.13405608714E+04  0.00000000000E+00 0. -1.
         23    2    1    2    0    0  0.38087311566E+03 -0.89545456520E+02 -0.16150499945E+03  0.43428430914E+03  0.97140502898E+02 0.  0.
        254    2    1    2    0    0 -0.38087311566E+03  0.89545456520E+02 -0.81134249654E+03  0.12739899376E+04  0.90093895216E+03 0.  0.
        -24    2    4    4    0    0 -0.26209428917E+03 -0.15495055196E+03 -0.91845850694E+03  0.97085554065E+03  0.79318105569E+02 0.  0.
         24    2    4    4    0    0 -0.11877882648E+03  0.24449600847E+03  0.10711601039E+03  0.30313439700E+03  0.80807890594E+02 0.  0.
         11    1    3    3    0    0  0.10644404507E+03 -0.63299553227E+02 -0.77476240808E+02  0.14608126525E+03  0.00000000000E+00 0. -1.
        -11    1    3    3    0    0  0.27442907059E+03 -0.26245903293E+02 -0.84028758644E+02  0.28820304389E+03  0.00000000000E+00 0.  1.
          4    1    6    6  502    0 -0.90198052836E+02  0.15205029789E+03  0.10645780894E+03  0.20636920048E+03  0.00000000000E+00 0. -1.
          1    1    5    5  503    0 -0.19400404079E+03 -0.10268164661E+03 -0.54254252724E+03  0.58526360066E+03  0.00000000000E+00 0. -1.
         -2    1    5    5    0  503 -0.68090248379E+02 -0.52268905346E+02 -0.37591597969E+03  0.38559193998E+03  0.00000000000E+00 0.  1.
         -3    1    6    6    0  502 -0.28580773648E+02  0.92445710585E+02  0.65820145000E+00  0.96765196518E+02  0.00000000000E+00 0.  1.
<mgrwt>
<rscale>  0 0.14041968E+04</rscale>
<asrwt>0</asrwt>
<pdfrwt beam="1">  1        2 0.20624013E+00 0.14041968E+04</pdfrwt>
<pdfrwt beam="2">  1       -2 0.56571288E-01 0.14041968E+04</pdfrwt>
<totfact> 0.44654774E+01</totfact>
</mgrwt>
</event>
<event>
12    1  0.2048318E-007  0.3649487E+04  0.7818608E-02  0.8079249E-01
          2   -1    0    0  501    0  0.00000000000E+00  0.00000000000E+00  0.21344876837E+04  0.21344876837E+04  0.00000000000E+00 0. -1.
         -2   -1    0    0    0  501 -0.00000000000E+00 -0.00000000000E+00 -0.15599472398E+04  0.15599472398E+04  0.00000000000E+00 0.  1.
         23    2    1    2    0    0 -0.79622752799E+03  0.10528547715E+04  0.13745074669E+04  0.19079204143E+04  0.91695607798E+02 0.  0.
        254    2    1    2    0    0  0.79622752799E+03 -0.10528547715E+04 -0.79996702298E+03  0.17865145091E+04  0.89955845126E+03 0.  0.
        -24    2    4    4    0    0  0.87748578202E+03 -0.59374389584E+03 -0.31370101110E+03  0.11078981460E+04  0.80727108517E+02 0.  0.
         24    2    4    4    0    0 -0.81258254026E+02 -0.45911087571E+03 -0.48626601189E+03  0.67861636315E+03  0.81730251288E+02 0.  0.
         13    1    3    3    0    0 -0.20190100516E+03  0.30593395525E+03  0.33380718383E+03  0.49576893492E+03  0.00000000000E+00 0. -1.
        -13    1    3    3    0    0 -0.59432652284E+03  0.74692081630E+03  0.10407002831E+04  0.14121514794E+04  0.00000000000E+00 0.  1.
          4    1    6    6  502    0  0.97536324731E+00 -0.50430869750E+01  0.30966656283E+01  0.59977827332E+01  0.00000000000E+00 0. -1.
          1    1    5    5  503    0  0.20040883989E+03 -0.10036338903E+03 -0.50461687693E+02  0.22974528262E+03  0.00000000000E+00 0. -1.
         -2    1    5    5    0  503  0.67707694213E+03 -0.49338050682E+03 -0.26323932340E+03  0.87815286337E+03  0.00000000000E+00 0.  1.
         -1    1    6    6    0  502 -0.82233617273E+02 -0.45406778873E+03 -0.48936267752E+03  0.67261858042E+03  0.00000000000E+00 0.  1.
<mgrwt>
<rscale>  0 0.36494866E+04</rscale>
<asrwt>0</asrwt>
<pdfrwt beam="1">  1        2 0.32838272E+00 0.36494866E+04</pdfrwt>
<pdfrwt beam="2">  1       -2 0.23999188E+00 0.36494866E+04</pdfrwt>
<totfact> 0.33801560E-01</totfact>
</mgrwt>
</event>
<event>
12    1  0.2586533E-007  0.3465138E+04  0.7818608E-02  0.8122102E-01
         -2   -1    0    0    0  501 -0.00000000000E+00  0.00000000000E+00  0.11716988075E+04  0.11716988075E+04  0.00000000000E+00 0. -1.
          2   -1    0    0  501    0  0.00000000000E+00 -0.00000000000E+00 -0.25619172982E+04  0.25619172982E+04  0.00000000000E+00 0.  1.
         23    2    1    2    0    0  0.69515271422E+03  0.13856488685E+04 -0.11352262065E+04  0.19235272435E+04  0.89210054294E+02 0.  0.
        254    2    1    2    0    0 -0.69515271422E+03 -0.13856488685E+04 -0.25499228422E+03  0.18100888621E+04  0.89896637356E+03 0.  0.
        -24    2    4    4    0    0 -0.65256723475E+02 -0.73267463059E+02  0.23916781067E+03  0.27078809824E+03  0.80612600668E+02 0.  0.
         24    2    4    4    0    0 -0.62989599074E+03 -0.13123814055E+04 -0.49416009488E+03  0.15393007639E+04  0.78350046037E+02 0.  0.
         11    1    3    3    0    0  0.55662207314E+03  0.10712646687E+04 -0.92361520133E+03  0.15200332769E+04  0.00000000000E+00 0. -1.
        -11    1    3    3    0    0  0.13853064108E+03  0.31438419980E+03 -0.21161100513E+03  0.40349396661E+03  0.00000000000E+00 0.  1.
          4    1    6    6  502    0 -0.59982569091E+03 -0.12236372741E+04 -0.47842426970E+03  0.14442883438E+04  0.00000000000E+00 0. -1.
          1    1    5    5  503    0 -0.45898765998E+02 -0.54796344964E+02  0.23246282037E+03  0.24320423309E+03  0.00000000000E+00 0. -1.
         -2    1    5    5    0  503 -0.19357957477E+02 -0.18471118095E+02  0.67049902987E+01  0.27583865144E+02  0.00000000000E+00 0.  1.
         -3    1    6    6    0  502 -0.30070299834E+02 -0.88744131372E+02 -0.15735825185E+02  0.95012420132E+02  0.00000000000E+00 0.  1.
<mgrwt>
<rscale>  0 0.34651381E+04</rscale>
<asrwt>0</asrwt>
<pdfrwt beam="1">  1        2 0.39414112E+00 0.34651381E+04</pdfrwt>
<pdfrwt beam="2">  1       -2 0.18026136E+00 0.34651381E+04</pdfrwt>
<totfact> 0.47664299E-01</totfact>
</mgrwt>
</event>
<event>
12    1  0.2048318E-007  0.2877370E+04  0.7818608E-02  0.8279642E-01
         -1   -1    0    0    0  501 -0.00000000000E+00  0.00000000000E+00  0.14067744585E+04  0.14067744585E+04  0.00000000000E+00 0.  1.
          1   -1    0    0  501    0  0.00000000000E+00 -0.00000000000E+00 -0.14713196586E+04  0.14713196586E+04  0.00000000000E+00 0. -1.
         23    2    1    2    0    0  0.50155717675E+03  0.11795478264E+04  0.16990868839E+03  0.12962240761E+04  0.91843436218E+02 0.  0.
        254    2    1    2    0    0 -0.50155717675E+03 -0.11795478264E+04 -0.23445388843E+03  0.15818700410E+04  0.89691221661E+03 0.  0.
        -24    2    4    4    0    0 -0.53178987490E+03 -0.55384182878E+03 -0.47540659499E+03  0.90615600192E+03  0.74605810123E+02 0.  0.
         24    2    4    4    0    0  0.30232698153E+02 -0.62570599764E+03  0.24095270657E+03  0.67571403903E+03  0.78161654425E+02 0.  0.
         11    1    3    3    0    0  0.32685663755E+03  0.84234203537E+03  0.88821045467E+02  0.90789016085E+03  0.00000000000E+00 0. -1.
        -11    1    3    3    0    0  0.17470053920E+03  0.33720579106E+03  0.81087642918E+02  0.38833391527E+03  0.00000000000E+00 0.  1.
          2    1    6    6  502    0  0.19061437494E+02 -0.61540638923E+03  0.23130931449E+03  0.65771753912E+03  0.00000000000E+00 0. -1.
          3    1    5    5  503    0 -0.51985435197E+03 -0.55329411221E+03 -0.47092968117E+03  0.89339671283E+03  0.00000000000E+00 0. -1.
         -4    1    5    5    0  503 -0.11935522926E+02 -0.54771656970E+00 -0.44769138184E+01  0.12759289099E+02  0.00000000000E+00 0.  1.
         -1    1    6    6    0  502  0.11171260659E+02 -0.10299608411E+02  0.96433920767E+01  0.17996499906E+02  0.00000000000E+00 0.  1.
<mgrwt>
<rscale>  0 0.28773703E+04</rscale>
<asrwt>0</asrwt>
<pdfrwt beam="1">  1        1 0.22635687E+00 0.28773703E+04</pdfrwt>
<pdfrwt beam="2">  1       -1 0.21642684E+00 0.28773703E+04</pdfrwt>
<totfact> 0.68510571E-01</totfact>
</mgrwt>
</event>
<event>
12    1  0.2048318E-007  0.2923898E+04  0.7818608E-02  0.8265802E-01
         -2   -1    0    0    0  501 -0.00000000000E+00  0.00000000000E+00  0.18498088697E+04  0.18498088697E+04  0.00000000000E+00 0.  1.
          2   -1    0    0  501    0  0.00000000000E+00 -0.00000000000E+00 -0.11554141040E+04  0.11554141040E+04  0.00000000000E+00 0. -1.
         23    2    1    2    0    0 -0.10161689335E+04 -0.66276532986E+03  0.85211282495E+03  0.14853412790E+04  0.91023429456E+02 0.  0.
        254    2    1    2    0    0  0.10161689335E+04  0.66276532986E+03 -0.15771805923E+03  0.15198816948E+04  0.90183601391E+03 0.  0.
        -24    2    4    4    0    0  0.63296328971E+03  0.35285150870E+03  0.34889889196E+03  0.80858622700E+03  0.83273863610E+02 0.  0.
         24    2    4    4    0    0  0.38320564380E+03  0.30991382116E+03 -0.50661695119E+03  0.71129546777E+03  0.79920993808E+02 0.  0.
         13    1    3    3    0    0 -0.42572369196E+03 -0.29978657142E+03  0.31568325300E+03  0.60890768309E+03  0.00000000000E+00 0. -1.
        -13    1    3    3    0    0 -0.59044524155E+03 -0.36297875844E+03  0.53642957196E+03  0.87643359590E+03  0.00000000000E+00 0.  1.
          2    1    6    6  502    0  0.15632350472E+03  0.77687731381E+02 -0.18224297598E+03  0.25235872093E+03  0.00000000000E+00 0. -1.
          3    1    5    5  503    0  0.40159251740E+03  0.26230957836E+03  0.25264831172E+03  0.54213839040E+03  0.00000000000E+00 0. -1.
         -2    1    5    5    0  503  0.23137077231E+03  0.90541930346E+02  0.96250580239E+02  0.26644783659E+03  0.00000000000E+00 0.  1.
         -1    1    6    6    0  502  0.22688213908E+03  0.23222608978E+03 -0.32437397521E+03  0.45893674684E+03  0.00000000000E+00 0.  1.
<mgrwt>
<rscale>  0 0.29238983E+04</rscale>
<asrwt>0</asrwt>
<pdfrwt beam="1">  1        2 0.17775602E+00 0.29238983E+04</pdfrwt>
<pdfrwt beam="2">  1       -2 0.28458598E+00 0.29238983E+04</pdfrwt>
<totfact> 0.68527928E-01</totfact>
</mgrwt>
</event>
<event>
12    1  0.2048318E-007  0.2661227E+04  0.7818608E-02  0.8347696E-01
         -2   -1    0    0    0  501 -0.00000000000E+00  0.00000000000E+00  0.13841061320E+04  0.13841061320E+04  0.00000000000E+00 0.  1.
          2   -1    0    0  501    0  0.00000000000E+00 -0.00000000000E+00 -0.12791881925E+04  0.12791881925E+04  0.00000000000E+00 0. -1.
         23    2    1    2    0    0 -0.88558444650E+03  0.30080995191E+02  0.82119596423E+03  0.12116301779E+04  0.92304919105E+02 0.  0.
        254    2    1    2    0    0  0.88558444650E+03 -0.30080995191E+02 -0.71627802466E+03  0.14516641467E+04  0.89950536850E+03 0.  0.
        -24    2    4    4    0    0  0.13157111841E+03  0.29956416681E+03  0.27956732138E+02  0.33924257466E+03  0.85172157172E+02 0.  0.
         24    2    4    4    0    0  0.75401332809E+03 -0.32964516200E+03 -0.74423475680E+03  0.11124215720E+04  0.79964672631E+02 0.  0.
         11    1    3    3    0    0 -0.51516881674E+03  0.17114520524E+02  0.41504841937E+03  0.66178320240E+03  0.00000000000E+00 0. -1.
        -11    1    3    3    0    0 -0.37041562976E+03  0.12966474667E+02  0.40614754485E+03  0.54984697546E+03  0.00000000000E+00 0.  1.
          2    1    6    6  502    0  0.42332026673E+03 -0.19697321131E+03 -0.37042304712E+03  0.59599641613E+03  0.00000000000E+00 0. -1.
          1    1    5    5  503    0  0.14255840170E+03  0.29077950566E+03  0.28973231067E+02  0.32513853497E+03  0.00000000000E+00 0. -1.
         -2    1    5    5    0  503 -0.10987283287E+02  0.87846611508E+01 -0.10164989285E+01  0.14104039692E+02  0.00000000000E+00 0.  1.
         -1    1    6    6    0  502  0.33069306136E+03 -0.13267195068E+03 -0.37381170968E+03  0.51642515588E+03  0.00000000000E+00 0.  1.
<mgrwt>
<rscale>  0 0.26612270E+04</rscale>
<asrwt>0</asrwt>
<pdfrwt beam="1">  1        2 0.19679818E+00 0.26612270E+04</pdfrwt>
<pdfrwt beam="2">  1       -2 0.21293940E+00 0.26612270E+04</pdfrwt>
<totfact> 0.16404646E+00</totfact>
</mgrwt>
</event>
<event>
12    1  0.2297938E-007  0.2309581E+04  0.7818608E-02  0.8474153E-01
          2   -1    0    0  501    0  0.00000000000E+00  0.00000000000E+00  0.11011612456E+04  0.11011612456E+04  0.00000000000E+00 0. -1.
         -2   -1    0    0    0  501 -0.00000000000E+00 -0.00000000000E+00 -0.12110318204E+04  0.12110318204E+04  0.00000000000E+00 0.  1.
         23    2    1    2    0    0 -0.50363702266E+03 -0.62149134135E+03  0.51281786761E+03  0.95472228865E+03  0.92794100803E+02 0.  0.
        254    2    1    2    0    0  0.50363702266E+03  0.62149134135E+03 -0.62268844238E+03  0.13574707774E+04  0.90282017990E+03 0.  0.
        -24    2    4    4    0    0  0.25242389903E+03 -0.19148206952E+03 -0.54598896178E+02  0.33147874816E+03  0.80708817812E+02 0.  0.
         24    2    4    4    0    0  0.25121312364E+03  0.81297341087E+03 -0.56808954620E+03  0.10259920292E+04  0.76812181741E+02 0.  0.
         11    1    3    3    0    0 -0.21281066615E+03 -0.33398136869E+03  0.26596294133E+03  0.47704110978E+03  0.00000000000E+00 0.  1.
        -11    1    3    3    0    0 -0.29082635652E+03 -0.28750997266E+03  0.24685492628E+03  0.47768117888E+03  0.00000000000E+00 0. -1.
          4    1    6    6  502    0  0.79529421932E+02  0.16228817956E+03 -0.13726212376E+03  0.22694332508E+03  0.00000000000E+00 0. -1.
          3    1    5    5  503    0  0.98962473029E+01 -0.35948242876E+02  0.38856410605E+01  0.37487465679E+02  0.00000000000E+00 0. -1.
         -2    1    5    5    0  503  0.24252765172E+03 -0.15553382665E+03 -0.58484537238E+02  0.29399128249E+03  0.00000000000E+00 0.  1.
         -3    1    6    6    0  502  0.17168370171E+03  0.65068523131E+03 -0.43082742244E+03  0.79904870415E+03  0.00000000000E+00 0.  1.
<mgrwt>
<rscale>  0 0.23095812E+04</rscale>
<asrwt>0</asrwt>
<pdfrwt beam="1">  1        2 0.16940942E+00 0.23095812E+04</pdfrwt>
<pdfrwt beam="2">  1       -2 0.18631259E+00 0.23095812E+04</pdfrwt>
<totfact> 0.32339094E+00</totfact>
</mgrwt>
</event>
<event>
12    1  0.2048318E-007  0.1858095E+04  0.7818608E-02  0.8676001E-01
          1   -1    0    0  501    0  0.00000000000E+00  0.00000000000E+00  0.72480488934E+03  0.72480488934E+03  0.00000000000E+00 0. -1.
         -1   -1    0    0    0  501 -0.00000000000E+00 -0.00000000000E+00 -0.11908432150E+04  0.11908432150E+04  0.00000000000E+00 0.  1.
         23    2    1    2    0    0  0.34330864127E+03 -0.42084879654E+03  0.28870107294E+03  0.62091032093E+03  0.84892781809E+02 0.  0.
        254    2    1    2    0    0 -0.34330864127E+03  0.42084879654E+03 -0.75473939864E+03  0.12947377835E+04  0.90096605669E+03 0.  0.
        -24    2    4    4    0    0 -0.52971596296E+03  0.57387725883E+03 -0.65342117848E+03  0.10214360441E+04  0.80238681591E+02 0.  0.
         24    2    4    4    0    0  0.18640732169E+03 -0.15302846229E+03 -0.10131822016E+03  0.27330173938E+03  0.79139491788E+02 0.  0.
         11    1    3    3    0    0  0.77780517029E+02 -0.84212108709E+02  0.10133783173E+03  0.15300602675E+03  0.00000000000E+00 0. -1.
        -11    1    3    3    0    0  0.26552812424E+03 -0.33663668783E+03  0.18736324122E+03  0.46790429418E+03  0.00000000000E+00 0.  1.
          2    1    6    6  502    0  0.64329089804E+02 -0.10851910945E+02 -0.14790447343E+02  0.66893595349E+02  0.00000000000E+00 0. -1.
          1    1    5    5  503    0 -0.96894833904E+02  0.10495512055E+03 -0.81177608193E+02  0.16429847911E+03  0.00000000000E+00 0. -1.
         -2    1    5    5    0  503 -0.43282112905E+03  0.46892213828E+03 -0.57224357029E+03  0.85713756496E+03  0.00000000000E+00 0.  1.
         -1    1    6    6    0  502  0.12207823189E+03 -0.14217655135E+03 -0.86527772821E+02  0.20640814403E+03  0.00000000000E+00 0.  1.
<mgrwt>
<rscale>  0 0.18580947E+04</rscale>
<asrwt>0</asrwt>
<pdfrwt beam="1">  1        1 0.11150844E+00 0.18580947E+04</pdfrwt>
<pdfrwt beam="2">  1       -1 0.18320665E+00 0.18580947E+04</pdfrwt>
<totfact> 0.47864390E+00</totfact>
</mgrwt>
</event>
<event>
12    1  0.2048318E-007  0.1942040E+04  0.7818608E-02  0.8634209E-01
         -1   -1    0    0    0  501 -0.00000000000E+00  0.00000000000E+00  0.69281033016E+03  0.69281033016E+03  0.00000000000E+00 0.  1.
          1   -1    0    0  501    0  0.00000000000E+00 -0.00000000000E+00 -0.13609501420E+04  0.13609501420E+04  0.00000000000E+00 0. -1.
         23    2    1    2    0    0  0.17668818886E+03  0.20683537011E+03 -0.10184993543E+04  0.10581898122E+04  0.91788656927E+02 0.  0.
        254    2    1    2    0    0 -0.17668818886E+03 -0.20683537011E+03  0.35035954249E+03  0.99557065993E+03  0.89129655193E+03 0.  0.
        -24    2    4    4    0    0  0.22690930789E+03 -0.14957227634E+03 -0.16845223097E+03  0.33095253336E+03  0.85403310033E+02 0.  0.
         24    2    4    4    0    0 -0.40359749675E+03 -0.57263093777E+02  0.51881177346E+03  0.66461812657E+03  0.79884895877E+02 0.  0.
         11    1    3    3    0    0  0.41601585178E+02  0.10700127395E+03 -0.32650691766E+03  0.34610219848E+03  0.00000000000E+00 0. -1.
        -11    1    3    3    0    0  0.13508660368E+03  0.99834096163E+02 -0.69199243668E+03  0.71208761376E+03  0.00000000000E+00 0.  1.
          2    1    6    6  502    0 -0.14450285699E+03 -0.28856416542E+02  0.24995462016E+03  0.29015699301E+03  0.00000000000E+00 0. -1.
          1    1    5    5  503    0  0.16917125730E+03 -0.10782692031E+03 -0.16477680905E+03  0.25960923682E+03  0.00000000000E+00 0. -1.
         -2    1    5    5    0  503  0.57738050588E+02 -0.41745356024E+02 -0.36754219199E+01  0.71343296542E+02  0.00000000000E+00 0.  1.
         -1    1    6    6    0  502 -0.25909463976E+03 -0.28406677235E+02  0.26885715330E+03  0.37446113356E+03  0.00000000000E+00 0.  1.
<mgrwt>
<rscale>  0 0.19420405E+04</rscale>
<asrwt>0</asrwt>
<pdfrwt beam="1">  1        1 0.20937694E+00 0.19420405E+04</pdfrwt>
<pdfrwt beam="2">  1       -1 0.10658621E+00 0.19420405E+04</pdfrwt>
<totfact> 0.62734570E+00</totfact>
</mgrwt>
</event>
<event>
12    1  0.2048318E-007  0.1847071E+04  0.7818608E-02  0.8681661E-01
          1   -1    0    0  501    0  0.00000000000E+00  0.00000000000E+00  0.67920612012E+03  0.67920612012E+03  0.00000000000E+00 0. -1.
         -1   -1    0    0    0  501 -0.00000000000E+00 -0.00000000000E+00 -0.12557567956E+04  0.12557567956E+04  0.00000000000E+00 0.  1.
         23    2    1    2    0    0 -0.20510856807E+03 -0.85349748496E+02 -0.91583633794E+03  0.94678639546E+03  0.91072369386E+02 0.  0.
        254    2    1    2    0    0  0.20510856807E+03  0.85349748496E+02  0.33928566248E+03  0.98817652023E+03  0.90112372631E+03 0.  0.
        -24    2    4    4    0    0 -0.33352595248E+02 -0.30587246423E+03 -0.11303017651E+03  0.33899705704E+03  0.86445496669E+02 0.  0.
         24    2    4    4    0    0  0.23846116332E+03  0.39122221273E+03  0.45231583899E+03  0.64917946319E+03  0.83221458080E+02 0.  0.
         13    1    3    3    0    0 -0.15151005045E+03 -0.71591588661E+02 -0.50114420484E+03  0.52841855096E+03  0.00000000000E+00 0. -1.
        -13    1    3    3    0    0 -0.53598517622E+02 -0.13758159835E+02 -0.41469213310E+03  0.41836784449E+03  0.00000000000E+00 0.  1.
          4    1    6    6  502    0  0.60167556412E+02  0.14478252756E+03  0.11163846161E+03  0.19247145565E+03  0.00000000000E+00 0. -1.
          1    1    5    5  503    0  0.27589343431E+02 -0.13817005392E+03 -0.56784978452E+02  0.15191007027E+03  0.00000000000E+00 0. -1.
         -2    1    5    5    0  503 -0.60941938678E+02 -0.16770241031E+03 -0.56245198056E+02  0.18708698677E+03  0.00000000000E+00 0.  1.
         -3    1    6    6    0  502  0.17829360691E+03  0.24643968517E+03  0.34067737738E+03  0.45670800754E+03  0.00000000000E+00 0.  1.
<mgrwt>
<rscale>  0 0.18470709E+04</rscale>
<asrwt>0</asrwt>
<pdfrwt beam="1">  1        1 0.10449325E+00 0.18470709E+04</pdfrwt>
<pdfrwt beam="2">  1       -1 0.19319335E+00 0.18470709E+04</pdfrwt>
<totfact> 0.44973185E+00</totfact>
</mgrwt>
</event>
<event>
12    1  0.2048318E-007  0.2904133E+04  0.7818608E-02  0.8271649E-01
          1   -1    0    0  501    0  0.00000000000E+00  0.00000000000E+00  0.25970767968E+04  0.25970767968E+04  0.00000000000E+00 0. -1.
         -1   -1    0    0    0  501 -0.00000000000E+00 -0.00000000000E+00 -0.81187318183E+03  0.81187318183E+03  0.00000000000E+00 0.  1.
         23    2    1    2    0    0 -0.10820927657E+04  0.11364559024E+03  0.16680365197E+04  0.19936159215E+04  0.91206016438E+02 0.  0.
        254    2    1    2    0    0  0.10820927657E+04 -0.11364559024E+03  0.11716709523E+03  0.14153340571E+04  0.89755350327E+03 0.  0.
        -24    2    4    4    0    0  0.86027677905E+03  0.25236811058E+03 -0.13898709083E+03  0.91079573912E+03  0.80409372418E+02 0.  0.
         24    2    4    4    0    0  0.22181598667E+03 -0.36601370082E+03  0.25615418605E+03  0.50453831800E+03  0.75997277365E+02 0.  0.
         11    1    3    3    0    0 -0.28941510171E+03 -0.98103399935E+01  0.45042809878E+03  0.53548372154E+03  0.00000000000E+00 0. -1.
        -11    1    3    3    0    0 -0.79267766401E+03  0.12345593023E+03  0.12176084209E+04  0.14581321999E+04  0.00000000000E+00 0.  1.
          4    1    6    6  502    0  0.11115926138E+03 -0.20142778990E+03  0.94660082907E+02  0.24877714370E+03  0.00000000000E+00 0. -1.
          1    1    5    5  503    0  0.25800062515E+02  0.12825767195E+02  0.88074255295E+01  0.30128296905E+02  0.00000000000E+00 0. -1.
         -4    1    5    5    0  503  0.83447671654E+03  0.23954234338E+03 -0.14779451636E+03  0.88066744222E+03  0.00000000000E+00 0.  1.
         -1    1    6    6    0  502  0.11065672529E+03 -0.16458591092E+03  0.16149410315E+03  0.25576117430E+03  0.00000000000E+00 0.  1.
<mgrwt>
<rscale>  0 0.29041329E+04</rscale>
<asrwt>0</asrwt>
<pdfrwt beam="1">  1        1 0.39955027E+00 0.29041329E+04</pdfrwt>
<pdfrwt beam="2">  1       -1 0.12490357E+00 0.29041329E+04</pdfrwt>
<totfact> 0.55748396E-01</totfact>
</mgrwt>
</event>
<event>
12    1  0.2048318E-007  0.2064883E+04  0.7818608E-02  0.8576873E-01
          1   -1    0    0  501    0  0.00000000000E+00  0.00000000000E+00  0.11936216304E+04  0.11936216304E+04  0.00000000000E+00 0. -1.
         -1   -1    0    0    0  501 -0.00000000000E+00 -0.00000000000E+00 -0.89302583828E+03  0.89302583828E+03  0.00000000000E+00 0.  1.
         23    2    1    2    0    0  0.56317673577E+03  0.43842966867E+03 -0.31111143602E+03  0.78394336215E+03  0.91587441010E+02 0.  0.
        254    2    1    2    0    0 -0.56317673577E+03 -0.43842966867E+03  0.61170722815E+03  0.13027041065E+04  0.90192219517E+03 0.  0.
        -24    2    4    4    0    0 -0.69295355979E+03 -0.50781539129E+03  0.24068021027E+03  0.89570719085E+03  0.79393327589E+02 0.  0.
         24    2    4    4    0    0  0.12977682402E+03  0.69385722619E+02  0.37102701788E+03  0.40699691569E+03  0.79555256448E+02 0.  0.
         11    1    3    3    0    0  0.31697098932E+03  0.22192381471E+03 -0.21314666404E+03  0.44176044186E+03  0.00000000000E+00 0.  1.
        -11    1    3    3    0    0  0.24620574645E+03  0.21650585396E+03 -0.97964771984E+02  0.34218292028E+03  0.00000000000E+00 0. -1.
          4    1    6    6  502    0  0.38588057689E+02 -0.16485960254E+02  0.88105820218E+02  0.97588219771E+02  0.00000000000E+00 0. -1.
          3    1    5    5  503    0 -0.38688560216E+03 -0.27363770688E+03  0.17278444648E+03  0.50439322828E+03  0.00000000000E+00 0. -1.
         -4    1    5    5    0  503 -0.30606795763E+03 -0.23417768441E+03  0.67895763789E+02  0.39131396257E+03  0.00000000000E+00 0.  1.
         -3    1    6    6    0  502  0.91188766331E+02  0.85871682873E+02  0.28292119766E+03  0.30940869592E+03  0.00000000000E+00 0.  1.
<mgrwt>
<rscale>  0 0.20648825E+04</rscale>
<asrwt>0</asrwt>
<pdfrwt beam="1">  1        1 0.18363410E+00 0.20648825E+04</pdfrwt>
<pdfrwt beam="2">  1       -1 0.13738859E+00 0.20648825E+04</pdfrwt>
<totfact> 0.43871516E+00</totfact>
</mgrwt>
</event>
<event>
12    1  0.2048318E-007  0.1890714E+04  0.7818608E-02  0.8659492E-01
         -2   -1    0    0    0  501 -0.00000000000E+00  0.00000000000E+00  0.40074480475E+03  0.40074480475E+03  0.00000000000E+00 0.  1.
          2   -1    0    0  501    0  0.00000000000E+00 -0.00000000000E+00 -0.22300976424E+04  0.22300976424E+04  0.00000000000E+00 0. -1.
         23    2    1    2    0    0  0.66893864059E+03 -0.22222277292E+03 -0.45916537380E+03  0.84646187144E+03  0.93824269871E+02 0.  0.
        254    2    1    2    0    0 -0.66893864059E+03  0.22222277292E+03 -0.13701874639E+04  0.17843805757E+04  0.89985470339E+03 0.  0.
        -24    2    4    4    0    0 -0.38042191002E+03 -0.24390993809E+03 -0.10464402542E+04  0.11426229529E+04  0.79606025514E+02 0.  0.
         24    2    4    4    0    0 -0.28851673057E+03  0.46613271102E+03 -0.32374720961E+03  0.64175762280E+03  0.80740216738E+02 0.  0.
         11    1    3    3    0    0  0.38122218232E+03 -0.11720669047E+03 -0.31354244041E+03  0.50732299625E+03  0.00000000000E+00 0. -1.
        -11    1    3    3    0    0  0.28771645827E+03 -0.10501608246E+03 -0.14562293339E+03  0.33913887519E+03  0.00000000000E+00 0.  1.
          4    1    6    6  502    0 -0.57536874082E+01  0.52319451690E+02 -0.24885665627E+02  0.58221356028E+02  0.00000000000E+00 0. -1.
          1    1    5    5  503    0 -0.19685639971E+02 -0.33684430931E+02 -0.61370514449E+02  0.72722110475E+02  0.00000000000E+00 0. -1.
         -2    1    5    5    0  503 -0.36073627005E+03 -0.21022550716E+03 -0.98506973980E+03  0.10699008424E+04  0.00000000000E+00 0.  1.
         -3    1    6    6    0  502 -0.28276304316E+03  0.41381325933E+03 -0.29886154398E+03  0.58353626678E+03  0.00000000000E+00 0.  1.
<mgrwt>
<rscale>  0 0.18907142E+04</rscale>
<asrwt>0</asrwt>
<pdfrwt beam="1">  1        2 0.34309195E+00 0.18907142E+04</pdfrwt>
<pdfrwt beam="2">  1       -2 0.61653046E-01 0.18907142E+04</pdfrwt>
<totfact> 0.11381075E+01</totfact>
</mgrwt>
</event>
<event>
12    1  0.2048318E-007  0.2114578E+04  0.7818608E-02  0.8554849E-01
          2   -1    0    0  501    0  0.00000000000E+00  0.00000000000E+00  0.55054225839E+03  0.55054225839E+03  0.00000000000E+00 0. -1.
         -2   -1    0    0    0  501 -0.00000000000E+00 -0.00000000000E+00 -0.20304699775E+04  0.20304699775E+04  0.00000000000E+00 0.  1.
         23    2    1    2    0    0 -0.74292902165E+03 -0.38999711178E+03 -0.85347690298E+03  0.12002695068E+04  0.90458755974E+02 0.  0.
        254    2    1    2    0    0  0.74292902165E+03  0.38999711178E+03 -0.62645081615E+03  0.13807427291E+04  0.89998254463E+03 0.  0.
        -24    2    4    4    0    0  0.62587585118E+03  0.36932346068E+03  0.63578465436E+01  0.73171098009E+03  0.85088991519E+02 0.  0.
         24    2    4    4    0    0  0.11705317047E+03  0.20673651102E+02 -0.63280866269E+03  0.64903174906E+03  0.81649024106E+02 0.  0.
         13    1    3    3    0    0 -0.42194573623E+03 -0.17326455794E+03 -0.48203721726E+03  0.66364048263E+03  0.00000000000E+00 0.  1.
        -13    1    3    3    0    0 -0.32098328542E+03 -0.21673255383E+03 -0.37143968573E+03  0.53662902413E+03  0.00000000000E+00 0. -1.
          2    1    6    6  502    0  0.29714554023E+02 -0.30820362828E+02 -0.19050847484E+03  0.19525964373E+03  0.00000000000E+00 0. -1.
          3    1    5    5  503    0  0.78425619070E+02  0.65035050368E+02  0.25717708437E+02  0.10507871350E+03  0.00000000000E+00 0. -1.
         -4    1    5    5    0  503  0.54745023211E+03  0.30428841031E+03 -0.19359861893E+02  0.62663226659E+03  0.00000000000E+00 0.  1.
         -1    1    6    6    0  502  0.87338616448E+02  0.51494013930E+02 -0.44230018786E+03  0.45377210533E+03  0.00000000000E+00 0.  1.
<mgrwt>
<rscale>  0 0.21145775E+04</rscale>
<asrwt>0</asrwt>
<pdfrwt beam="1">  1        2 0.84698807E-01 0.21145775E+04</pdfrwt>
<pdfrwt beam="2">  1       -2 0.31238000E+00 0.21145775E+04</pdfrwt>
<totfact> 0.13517629E+00</totfact>
</mgrwt>
</event>
<event>
12    1  0.2048318E-007  0.2180709E+04  0.7818608E-02  0.8526501E-01
          2   -1    0    0  501    0  0.00000000000E+00  0.00000000000E+00  0.11393794292E+04  0.11393794292E+04  0.00000000000E+00 0. -1.
         -2   -1    0    0    0  501 -0.00000000000E+00 -0.00000000000E+00 -0.10434385963E+04  0.10434385963E+04  0.00000000000E+00 0.  1.
         23    2    1    2    0    0  0.55910374577E+03 -0.62754244269E+03  0.36595219061E+03  0.92149876706E+03  0.93981146889E+02 0.  0.
        254    2    1    2    0    0 -0.55910374577E+03  0.62754244269E+03 -0.27001135778E+03  0.12613192584E+04  0.90089601087E+03 0.  0.
        -24    2    4    4    0    0  0.19314294860E+03  0.16101410759E+03 -0.26233085874E+03  0.37247115214E+03  0.81777370289E+02 0.  0.
         24    2    4    4    0    0 -0.75224669437E+03  0.46652833510E+03 -0.76804990392E+01  0.88884810627E+03  0.80425054037E+02 0.  0.
         13    1    3    3    0    0  0.48537911756E+03 -0.54448262319E+03  0.35086216602E+03  0.80941860262E+03  0.00000000000E+00 0.  1.
        -13    1    3    3    0    0  0.73724628203E+02 -0.83059819498E+02  0.15090024598E+02  0.11208016444E+03  0.00000000000E+00 0. -1.
          2    1    6    6  502    0 -0.15405129398E+02  0.17843519227E+02  0.10843718602E+02  0.25947936783E+02  0.00000000000E+00 0. -1.
          3    1    5    5  503    0  0.40516782796E+02 -0.18974056763E+01 -0.31544179892E+02  0.51383315594E+02  0.00000000000E+00 0. -1.
         -4    1    5    5    0  503  0.15262616581E+03  0.16291151327E+03 -0.23078667885E+03  0.32108783655E+03  0.00000000000E+00 0.  1.
         -1    1    6    6    0  502 -0.73684156497E+03  0.44868481587E+03 -0.18524217641E+02  0.86290016949E+03  0.00000000000E+00 0.  1.
<mgrwt>
<rscale>  0 0.21807086E+04</rscale>
<asrwt>0</asrwt>
<pdfrwt beam="1">  1        2 0.17528914E+00 0.21807086E+04</pdfrwt>
<pdfrwt beam="2">  1       -2 0.16052901E+00 0.21807086E+04</pdfrwt>
<totfact> 0.47094487E+00</totfact>
</mgrwt>
</event>
<event>
12    1  0.2048318E-007  0.2670178E+04  0.7818608E-02  0.8344747E-01
          2   -1    0    0  501    0  0.00000000000E+00  0.00000000000E+00  0.27897524321E+04  0.27897524321E+04  0.00000000000E+00 0. -1.
         -2   -1    0    0    0  501 -0.00000000000E+00 -0.00000000000E+00 -0.63893198874E+03  0.63893198874E+03  0.00000000000E+00 0.  1.
         23    2    1    2    0    0  0.80178398630E+03  0.76939313099E+03  0.14682910038E+04  0.18435696471E+04  0.89706304308E+02 0.  0.
        254    2    1    2    0    0 -0.80178398630E+03 -0.76939313099E+03  0.68252943953E+03  0.15851147737E+04  0.90106551339E+03 0.  0.
        -24    2    4    4    0    0 -0.59887572652E+03  0.19972648076E+02  0.21037021249E+03  0.63987781897E+03  0.78338715938E+02 0.  0.
         24    2    4    4    0    0 -0.20290825977E+03 -0.78936577907E+03  0.47215922704E+03  0.94523695478E+03  0.79173669549E+02 0.  0.
         13    1    3    3    0    0  0.57175442513E+03  0.50459885690E+03  0.96042299342E+03  0.12263504619E+04  0.00000000000E+00 0. -1.
        -13    1    3    3    0    0  0.23002956117E+03  0.26479427409E+03  0.50786801038E+03  0.61721918520E+03  0.00000000000E+00 0.  1.
          2    1    6    6  502    0 -0.10512960287E+03 -0.39119792633E+03  0.28007633952E+03  0.49247416879E+03  0.00000000000E+00 0. -1.
          1    1    5    5  503    0 -0.58405469060E+03  0.28119318169E+02  0.19331328443E+03  0.61585761634E+03  0.00000000000E+00 0. -1.
         -2    1    5    5    0  503 -0.14821035923E+02 -0.81466700931E+01  0.17056928063E+02  0.24020202630E+02  0.00000000000E+00 0.  1.
         -1    1    6    6    0  502 -0.97778656902E+02 -0.39816785273E+03  0.19208288753E+03  0.45276278599E+03  0.00000000000E+00 0.  1.
<mgrwt>
<rscale>  0 0.26701776E+04</rscale>
<asrwt>0</asrwt>
<pdfrwt beam="1">  1        2 0.42919267E+00 0.26701776E+04</pdfrwt>
<pdfrwt beam="2">  1       -2 0.98297231E-01 0.26701776E+04</pdfrwt>
<totfact> 0.17740603E+00</totfact>
</mgrwt>
</event>
<event>
12    1  0.2048318E-007  0.1788009E+04  0.7818608E-02  0.8712702E-01
         -2   -1    0    0    0  501 -0.00000000000E+00  0.00000000000E+00  0.54557082480E+03  0.54557082480E+03  0.00000000000E+00 0.  1.
          2   -1    0    0  501    0  0.00000000000E+00 -0.00000000000E+00 -0.14649690571E+04  0.14649690571E+04  0.00000000000E+00 0. -1.
         23    2    1    2    0    0 -0.51882071866E+03 -0.32635495861E+03 -0.63690338759E+03  0.88876273381E+03  0.92578478996E+02 0.  0.
        254    2    1    2    0    0  0.51882071866E+03  0.32635495861E+03 -0.28249484475E+03  0.11217771481E+04  0.89604583344E+03 0.  0.
        -24    2    4    4    0    0  0.64855118454E+03  0.26404211007E+03  0.95557230273E+02  0.71109165808E+03  0.78633879941E+02 0.  0.
         24    2    4    4    0    0 -0.12973046588E+03  0.62312848538E+02 -0.37805207502E+03  0.41068549004E+03  0.70896512127E+02 0.  0.
         13    1    3    3    0    0 -0.20065713607E+03 -0.15823485417E+03 -0.21262902673E+03  0.33243444217E+03  0.00000000000E+00 0.  1.
        -13    1    3    3    0    0 -0.31816358258E+03 -0.16812010443E+03 -0.42427436087E+03  0.55632829165E+03  0.00000000000E+00 0. -1.
          2    1    6    6  502    0  0.15000186493E+01 -0.10191975753E+02 -0.29833667453E+02  0.31562226465E+02  0.00000000000E+00 0. -1.
          1    1    5    5  503    0  0.14625757465E+03  0.91609020354E+02  0.72361635069E+01  0.17273057869E+03  0.00000000000E+00 0. -1.
         -2    1    5    5    0  503  0.50229360989E+03  0.17243308972E+03  0.88321066766E+02  0.53836107939E+03  0.00000000000E+00 0.  1.
         -1    1    6    6    0  502 -0.13123048453E+03  0.72504824291E+02 -0.34821840757E+03  0.37912326358E+03  0.00000000000E+00 0.  1.
<mgrwt>
<rscale>  0 0.17880094E+04</rscale>
<asrwt>0</asrwt>
<pdfrwt beam="1">  1        2 0.22537985E+00 0.17880094E+04</pdfrwt>
<pdfrwt beam="2">  1       -2 0.83933974E-01 0.17880094E+04</pdfrwt>
<totfact> 0.15570275E+01</totfact>
</mgrwt>
</event>
<event>
12    1  0.2048318E-007  0.1995306E+04  0.7818608E-02  0.8608818E-01
          2   -1    0    0  501    0  0.00000000000E+00  0.00000000000E+00  0.24357353603E+04  0.24357353603E+04  0.00000000000E+00 0. -1.
         -2   -1    0    0    0  501 -0.00000000000E+00 -0.00000000000E+00 -0.40862875457E+03  0.40862875457E+03  0.00000000000E+00 0.  1.
         23    2    1    2    0    0 -0.19375028735E+03 -0.75703102357E+03  0.63414029680E+03  0.10111161130E+04  0.97911865735E+02 0.  0.
        254    2    1    2    0    0  0.19375028735E+03  0.75703102357E+03  0.13929663089E+04  0.18332480019E+04  0.89989330149E+03 0.  0.
        -24    2    4    4    0    0  0.53017166426E+03  0.56278130924E+03  0.76562919244E+03  0.10911032335E+04  0.80705701249E+02 0.  0.
         24    2    4    4    0    0 -0.33642137692E+03  0.19424971432E+03  0.62733711647E+03  0.74214476836E+03  0.79465119042E+02 0.  0.
         11    1    3    3    0    0 -0.90299098852E+02 -0.48548575814E+03  0.35495180564E+03  0.60814565109E+03  0.00000000000E+00 0.  1.
        -11    1    3    3    0    0 -0.10345118849E+03 -0.27154526543E+03  0.27918849116E+03  0.40297046191E+03  0.00000000000E+00 0. -1.
          2    1    6    6  502    0 -0.31371984289E+03  0.20121181094E+03  0.59302241472E+03  0.70041553170E+03  0.00000000000E+00 0. -1.
          1    1    5    5  503    0  0.30914774352E+03  0.36428658332E+03  0.42879546263E+03  0.64198332602E+03  0.00000000000E+00 0. -1.
         -2    1    5    5    0  503  0.22102392074E+03  0.19849472592E+03  0.33683372980E+03  0.44911990748E+03  0.00000000000E+00 0.  1.
         -1    1    6    6    0  502 -0.22701534021E+02 -0.69620966122E+01  0.34314701747E+02  0.41729236659E+02  0.00000000000E+00 0.  1.
<mgrwt>
<rscale>  0 0.19953060E+04</rscale>
<asrwt>0</asrwt>
<pdfrwt beam="1">  1        2 0.37472851E+00 0.19953060E+04</pdfrwt>
<pdfrwt beam="2">  1       -2 0.62865964E-01 0.19953060E+04</pdfrwt>
<totfact> 0.82685003E+00</totfact>
</mgrwt>
</event>
<event>
12    1  0.2048318E-007  0.2230394E+04  0.7818608E-02  0.8505883E-01
          1   -1    0    0  501    0  0.00000000000E+00  0.00000000000E+00  0.21537368082E+04  0.21537368082E+04  0.00000000000E+00 0. -1.
         -1   -1    0    0    0  501 -0.00000000000E+00 -0.00000000000E+00 -0.57744506619E+03  0.57744506619E+03  0.00000000000E+00 0.  1.
         23    2    1    2    0    0 -0.76849982835E+03  0.47797155597E+03  0.41147740378E+03  0.99839291293E+03  0.91793029533E+02 0.  0.
        254    2    1    2    0    0  0.76849982835E+03 -0.47797155597E+03  0.11648143382E+04  0.17327889614E+04  0.90923943375E+03 0.  0.
        -24    2    4    4    0    0  0.43983325656E+02  0.11112035944E+03  0.64489847087E+03  0.66078084302E+03  0.80343123832E+02 0.  0.
         24    2    4    4    0    0  0.72451650269E+03 -0.58909191541E+03  0.51991586731E+03  0.10720081184E+04  0.83279345399E+02 0.  0.
         13    1    3    3    0    0 -0.33690935610E+02  0.30728297380E+02  0.42668314209E+02  0.62449118806E+02  0.00000000000E+00 0. -1.
        -13    1    3    3    0    0 -0.73480889274E+03  0.44724325859E+03  0.36880908958E+03  0.93594379412E+03  0.00000000000E+00 0.  1.
          2    1    6    6  502    0  0.45055113847E+02 -0.41805743306E+02  0.59360018328E+02  0.85447616895E+02  0.00000000000E+00 0. -1.
          1    1    5    5  503    0 -0.36240009805E+01 -0.96494165076E+01  0.19552980647E+02  0.22103476519E+02  0.00000000000E+00 0. -1.
         -2    1    5    5    0  503  0.47607326637E+02  0.12076977594E+03  0.62534549023E+03  0.63867736650E+03  0.00000000000E+00 0.  1.
         -3    1    6    6    0  502  0.67946138884E+03 -0.54728617210E+03  0.46055584898E+03  0.98656050151E+03  0.00000000000E+00 0.  1.
<mgrwt>
<rscale>  0 0.22303943E+04</rscale>
<asrwt>0</asrwt>
<pdfrwt beam="1">  1        1 0.33134412E+00 0.22303943E+04</pdfrwt>
<pdfrwt beam="2">  1       -1 0.88837704E-01 0.22303943E+04</pdfrwt>
<totfact> 0.26475130E+00</totfact>
</mgrwt>
</event>
<event>
12    1  0.2048318E-007  0.1390361E+04  0.7818608E-02  0.8960826E-01
         -1   -1    0    0    0  501 -0.00000000000E+00  0.00000000000E+00  0.33137704836E+03  0.33137704836E+03  0.00000000000E+00 0.  1.
          1   -1    0    0  501    0  0.00000000000E+00 -0.00000000000E+00 -0.14583861796E+04  0.14583861796E+04  0.00000000000E+00 0. -1.
         23    2    1    2    0    0 -0.28147007039E+03  0.14791907751E+03 -0.21138048889E+02  0.33120328746E+03  0.90240492545E+02 0.  0.
        254    2    1    2    0    0  0.28147007039E+03 -0.14791907751E+03 -0.11058710823E+04  0.14585599405E+04  0.89629280663E+03 0.  0.
        -24    2    4    4    0    0  0.29747214800E+03 -0.48702600938E+02 -0.12388881487E+04  0.12773643625E+04  0.77163770197E+02 0.  0.
         24    2    4    4    0    0 -0.16002077611E+02 -0.99216476577E+02  0.13301706641E+03  0.18119557794E+03  0.70981136921E+02 0.  0.
         13    1    3    3    0    0 -0.28736359632E+03  0.14674110375E+03 -0.25661890679E+02  0.32368089325E+03  0.00000000000E+00 0.  1.
        -13    1    3    3    0    0  0.58935259333E+01  0.11779737667E+01  0.45238417896E+01  0.75223942105E+01  0.00000000000E+00 0. -1.
          4    1    6    6  502    0 -0.96487035621E+01 -0.10573246062E+03  0.96205663152E+02  0.14327588887E+03  0.00000000000E+00 0. -1.
          3    1    5    5  503    0  0.17861445675E+03 -0.53245200207E+02 -0.87127748062E+03  0.89098968779E+03  0.00000000000E+00 0. -1.
         -4    1    5    5    0  503  0.11885769125E+03  0.45425992690E+01 -0.36761066810E+03  0.38637467474E+03  0.00000000000E+00 0.  1.
         -3    1    6    6    0  502 -0.63533740492E+01  0.65159840424E+01  0.36811403254E+02  0.37919689073E+02  0.00000000000E+00 0.  1.
<mgrwt>
<rscale>  0 0.13903607E+04</rscale>
<asrwt>0</asrwt>
<pdfrwt beam="1">  1        1 0.22436711E+00 0.13903607E+04</pdfrwt>
<pdfrwt beam="2">  1       -1 0.50981084E-01 0.13903607E+04</pdfrwt>
<totfact> 0.26387166E+01</totfact>
</mgrwt>
</event>
<event>
12    1  0.2048318E-007  0.1455625E+04  0.7818608E-02  0.8914510E-01
         -1   -1    0    0    0  501 -0.00000000000E+00  0.00000000000E+00  0.31542520883E+03  0.31542520883E+03  0.00000000000E+00 0.  1.
          1   -1    0    0  501    0  0.00000000000E+00 -0.00000000000E+00 -0.16793558931E+04  0.16793558931E+04  0.00000000000E+00 0. -1.
         23    2    1    2    0    0  0.59768438899E+02  0.41025346140E+03 -0.53289162399E+03  0.68147088622E+03  0.92460353470E+02 0.  0.
        254    2    1    2    0    0 -0.59768438899E+02 -0.41025346140E+03 -0.83103906024E+03  0.13133102157E+04  0.92858905554E+03 0.  0.
        -24    2    4    4    0    0 -0.12572642691E+03 -0.66675688933E+03 -0.37299462446E+03  0.77832115507E+03  0.79290268376E+02 0.  0.
         24    2    4    4    0    0  0.65957988014E+02  0.25650342793E+03 -0.45804443578E+03  0.53498906061E+03  0.79146226056E+02 0.  0.
         13    1    3    3    0    0  0.33501328673E+02  0.62028212185E+02 -0.54134767684E+02  0.88884257335E+02  0.00000000000E+00 0.  1.
        -13    1    3    3    0    0  0.26267110226E+02  0.34822524921E+03 -0.47875685631E+03  0.59258662888E+03  0.00000000000E+00 0. -1.
          4    1    6    6  502    0  0.29097802822E+02  0.16242949458E+02 -0.52908827916E+02  0.62528870193E+02  0.00000000000E+00 0. -1.
          1    1    5    5  503    0 -0.85929973225E+01 -0.11883712785E+02 -0.21167622245E+02  0.25751319656E+02  0.00000000000E+00 0. -1.
         -2    1    5    5    0  503 -0.11713342959E+03 -0.65487317654E+03 -0.35182700222E+03  0.75256983541E+03  0.00000000000E+00 0.  1.
         -3    1    6    6    0  502  0.36860185192E+02  0.24026047847E+03 -0.40513560786E+03  0.47246019042E+03  0.00000000000E+00 0.  1.
<mgrwt>
<rscale>  0 0.14556252E+04</rscale>
<asrwt>0</asrwt>
<pdfrwt beam="1">  1        1 0.25836245E+00 0.14556252E+04</pdfrwt>
<pdfrwt beam="2">  1       -1 0.48526955E-01 0.14556252E+04</pdfrwt>
<totfact> 0.20308443E+01</totfact>
</mgrwt>
</event>
<event>
12    1  0.2048318E-007  0.2740438E+04  0.7818608E-02  0.8322002E-01
          2   -1    0    0  501    0  0.00000000000E+00  0.00000000000E+00  0.28790026619E+04  0.28790026619E+04  0.00000000000E+00 0. -1.
         -2   -1    0    0    0  501 -0.00000000000E+00 -0.00000000000E+00 -0.65213549402E+03  0.65213549402E+03  0.00000000000E+00 0.  1.
         23    2    1    2    0    0 -0.11330144952E+04 -0.23323178871E+03  0.49536394758E+03  0.12620849427E+04  0.96716329077E+02 0.  0.
        254    2    1    2    0    0  0.11330144952E+04  0.23323178871E+03  0.17315032203E+04  0.22690532132E+04  0.90132134606E+03 0.  0.
        -24    2    4    4    0    0  0.48068073037E+03 -0.85503610986E+02  0.13441133308E+03  0.51287304762E+03  0.81286680781E+02 0.  0.
         24    2    4    4    0    0  0.65233376488E+03  0.31873539969E+03  0.15970918872E+04  0.17561801656E+04  0.79590715772E+02 0.  0.
         11    1    3    3    0    0 -0.67363176922E+03 -0.14132931967E+03  0.24287270123E+03  0.72989100974E+03  0.00000000000E+00 0.  1.
        -11    1    3    3    0    0 -0.45938272603E+03 -0.91902469040E+02  0.25249124635E+03  0.53219393296E+03  0.00000000000E+00 0. -1.
          2    1    6    6  502    0  0.31351014269E+03  0.13924741369E+03  0.84530007035E+03  0.91225580882E+03  0.00000000000E+00 0. -1.
          3    1    5    5  503    0  0.30675142566E+03 -0.14681364095E+02  0.86893361086E+02  0.31915895068E+03  0.00000000000E+00 0. -1.
         -4    1    5    5    0  503  0.17392930471E+03 -0.70822246892E+02  0.47517971992E+02  0.19371409694E+03  0.00000000000E+00 0.  1.
         -1    1    6    6    0  502  0.33882362219E+03  0.17948798600E+03  0.75179181687E+03  0.84392435679E+03  0.00000000000E+00 0.  1.
<mgrwt>
<rscale>  0 0.27404378E+04</rscale>
<asrwt>0</asrwt>
<pdfrwt beam="1">  1        2 0.44292348E+00 0.27404378E+04</pdfrwt>
<pdfrwt beam="2">  1       -2 0.10032854E+00 0.27404378E+04</pdfrwt>
<totfact> 0.14827481E+00</totfact>
</mgrwt>
</event>
<event>
12    1  0.2048318E-007  0.2288938E+04  0.7818608E-02  0.8482296E-01
         -2   -1    0    0    0  501 -0.00000000000E+00  0.00000000000E+00  0.78054250767E+03  0.78054250767E+03  0.00000000000E+00 0.  1.
          2   -1    0    0  501    0  0.00000000000E+00 -0.00000000000E+00 -0.16780750874E+04  0.16780750874E+04  0.00000000000E+00 0. -1.
         23    2    1    2    0    0 -0.80659040918E+03 -0.53086930545E+03 -0.46180139110E+03  0.10742308365E+04  0.91110139902E+02 0.  0.
        254    2    1    2    0    0  0.80659040918E+03  0.53086930545E+03 -0.43573118867E+03  0.13843867586E+04  0.89120969530E+03 0.  0.
        -24    2    4    4    0    0  0.82445564755E+03  0.31572062858E+03 -0.62584189255E+03  0.10851798406E+04  0.80812016295E+02 0.  0.
         24    2    4    4    0    0 -0.17865238375E+02  0.21514867687E+03  0.19011070388E+03  0.29920691796E+03  0.82307837563E+02 0.  0.
         13    1    3    3    0    0 -0.35305621141E+03 -0.24709037582E+03 -0.25450688217E+03  0.50047586885E+03  0.00000000000E+00 0. -1.
        -13    1    3    3    0    0 -0.45353419777E+03 -0.28377892963E+03 -0.20729450894E+03  0.57375496764E+03  0.00000000000E+00 0.  1.
          4    1    6    6  502    0  0.32461008797E+02  0.96845421365E+02  0.76102059818E+02  0.12737455099E+03  0.00000000000E+00 0. -1.
          3    1    5    5  503    0  0.41606308672E+03  0.17572534771E+03 -0.36568776315E+03  0.58113288504E+03  0.00000000000E+00 0. -1.
         -4    1    5    5    0  503  0.40839256083E+03  0.13999528087E+03 -0.26015412941E+03  0.50404695561E+03  0.00000000000E+00 0.  1.
         -3    1    6    6    0  502 -0.50326247172E+02  0.11830325551E+03  0.11400864407E+03  0.17183236697E+03  0.00000000000E+00 0.  1.
<mgrwt>
<rscale>  0 0.22889377E+04</rscale>
<asrwt>0</asrwt>
<pdfrwt beam="1">  1        2 0.25816540E+00 0.22889377E+04</pdfrwt>
<pdfrwt beam="2">  1       -2 0.12008346E+00 0.22889377E+04</pdfrwt>
<totfact> 0.48523903E+00</totfact>
</mgrwt>
</event>
<event>
12    1  0.2048318E-007  0.1651373E+04  0.7818608E-02  0.8789594E-01
         -2   -1    0    0    0  501 -0.00000000000E+00  0.00000000000E+00  0.12569361700E+04  0.12569361700E+04  0.00000000000E+00 0.  1.
          2   -1    0    0  501    0  0.00000000000E+00 -0.00000000000E+00 -0.54239714160E+03  0.54239714160E+03  0.00000000000E+00 0. -1.
         23    2    1    2    0    0  0.46355571913E+03  0.10061772610E+03  0.60719008493E+03  0.77583730214E+03  0.90751796780E+02 0.  0.
        254    2    1    2    0    0 -0.46355571913E+03 -0.10061772610E+03  0.10734894351E+03  0.10234960095E+04  0.90056229893E+03 0.  0.
        -24    2    4    4    0    0 -0.28921432069E+03 -0.45922614844E+03  0.23549538555E+03  0.59692638272E+03  0.79557847350E+02 0.  0.
         24    2    4    4    0    0 -0.17434139844E+03  0.35860842234E+03 -0.12814644203E+03  0.42656962678E+03  0.80902485149E+02 0.  0.
         11    1    3    3    0    0 -0.34702409226E+01 -0.23524614263E+01  0.24833465954E+01  0.48727463648E+01  0.00000000000E+00 0. -1.
        -11    1    3    3    0    0  0.46702596005E+03  0.10297018752E+03  0.60470673833E+03  0.77096455578E+03  0.00000000000E+00 0.  1.
          4    1    6    6  502    0 -0.37624161766E+02  0.85047296127E+02  0.47514682135E+01  0.93119259970E+02  0.00000000000E+00 0. -1.
          1    1    5    5  503    0 -0.29717873275E+02 -0.35452125584E+02  0.45623746649E+02  0.64973313435E+02  0.00000000000E+00 0. -1.
         -2    1    5    5    0  503 -0.25949644741E+03 -0.42377402286E+03  0.18987163890E+03  0.53195306929E+03  0.00000000000E+00 0.  1.
         -3    1    6    6    0  502 -0.13671723668E+03  0.27356112621E+03 -0.13289791025E+03  0.33345036681E+03  0.00000000000E+00 0.  1.
<mgrwt>
<rscale>  0 0.16513735E+04</rscale>
<asrwt>0</asrwt>
<pdfrwt beam="1">  1        2 0.83445714E-01 0.16513735E+04</pdfrwt>
<pdfrwt beam="2">  1       -2 0.19337479E+00 0.16513735E+04</pdfrwt>
<totfact> 0.78581782E+00</totfact>
</mgrwt>
</event>
<event>
12    1  0.2048318E-007  0.1717504E+04  0.7818608E-02  0.8751444E-01
          1   -1    0    0  501    0  0.00000000000E+00  0.00000000000E+00  0.10134473547E+04  0.10134473547E+04  0.00000000000E+00 0. -1.
         -1   -1    0    0    0  501 -0.00000000000E+00 -0.00000000000E+00 -0.72766950647E+03  0.72766950647E+03  0.00000000000E+00 0.  1.
         23    2    1    2    0    0  0.89470237901E+02  0.58260483008E+03  0.29776003141E+03  0.66669981312E+03  0.91620374396E+02 0.  0.
        254    2    1    2    0    0 -0.89470237901E+02 -0.58260483008E+03 -0.11982183224E+02  0.10744170480E+04  0.89821774022E+03 0.  0.
        -24    2    4    4    0    0  0.29105738009E+03 -0.35258827209E+03  0.27440561003E+03  0.53928859510E+03  0.80627922398E+02 0.  0.
         24    2    4    4    0    0 -0.38052761799E+03 -0.23001655799E+03 -0.28638779326E+03  0.53512845291E+03  0.81459241247E+02 0.  0.
         13    1    3    3    0    0  0.27262676487E+02  0.40998159496E+03  0.23148733964E+03  0.47160847124E+03  0.00000000000E+00 0. -1.
        -13    1    3    3    0    0  0.62207561414E+02  0.17262323512E+03  0.66272691773E+02  0.19509134188E+03  0.00000000000E+00 0.  1.
          4    1    6    6  502    0 -0.18882493287E+03 -0.14705693612E+03 -0.18742543362E+03  0.30398830718E+03  0.00000000000E+00 0. -1.
          1    1    5    5  503    0  0.10555337620E+03 -0.15542720056E+03  0.15434350963E+03  0.24314820350E+03  0.00000000000E+00 0. -1.
         -2    1    5    5    0  503  0.18550400388E+03 -0.19716107153E+03  0.12006210041E+03  0.29614039160E+03  0.00000000000E+00 0.  1.
         -3    1    6    6    0  502 -0.19170268512E+03 -0.82959621867E+02 -0.98962359639E+02  0.23114014573E+03  0.00000000000E+00 0.  1.
<mgrwt>
<rscale>  0 0.17175037E+04</rscale>
<asrwt>0</asrwt>
<pdfrwt beam="1">  1        1 0.15591498E+00 0.17175037E+04</pdfrwt>
<pdfrwt beam="2">  1       -1 0.11194915E+00 0.17175037E+04</pdfrwt>
<totfact> 0.10275178E+01</totfact>
</mgrwt>
</event>
<event>
12    1  0.2048318E-007  0.2179306E+04  0.7818608E-02  0.8527091E-01
          2   -1    0    0  501    0  0.00000000000E+00  0.00000000000E+00  0.27672432676E+04  0.27672432676E+04  0.00000000000E+00 0. -1.
         -2   -1    0    0    0  501 -0.00000000000E+00 -0.00000000000E+00 -0.42907096964E+03  0.42907096964E+03  0.00000000000E+00 0.  1.
         23    2    1    2    0    0 -0.49973093698E+03 -0.13571785047E+03 -0.11071743007E+03  0.53736151376E+03  0.91371236401E+02 0.  0.
        254    2    1    2    0    0  0.49973093698E+03  0.13571785047E+03  0.24488897280E+04  0.26589527235E+04  0.89711668210E+03 0.  0.
        -24    2    4    4    0    0  0.17993018743E+03  0.50189150754E+03  0.14057313075E+04  0.15052897119E+04  0.74475835322E+02 0.  0.
         24    2    4    4    0    0  0.31980074955E+03 -0.36617365707E+03  0.10431584205E+04  0.11536630116E+04  0.80019919420E+02 0.  0.
         11    1    3    3    0    0 -0.28299976009E+03 -0.11979195069E+03 -0.82737032751E+02  0.31825208915E+03  0.00000000000E+00 0. -1.
        -11    1    3    3    0    0 -0.21673117689E+03 -0.15925899786E+02 -0.27980397317E+02  0.21910942461E+03  0.00000000000E+00 0.  1.
          2    1    6    6  502    0  0.21472580572E+03 -0.29747316041E+03  0.79414472779E+03  0.87479329071E+03  0.00000000000E+00 0. -1.
          1    1    5    5  503    0  0.11362756643E+03  0.30440962075E+03  0.75270966037E+03  0.81984649409E+03  0.00000000000E+00 0. -1.
         -2    1    5    5    0  503  0.66302621006E+02  0.19748188679E+03  0.65302164714E+03  0.68544321778E+03  0.00000000000E+00 0.  1.
         -1    1    6    6    0  502  0.10507494383E+03 -0.68700496657E+02  0.24901369274E+03  0.27886972090E+03  0.00000000000E+00 0.  1.
<mgrwt>
<rscale>  0 0.21793061E+04</rscale>
<asrwt>0</asrwt>
<pdfrwt beam="1">  1        2 0.42572972E+00 0.21793061E+04</pdfrwt>
<pdfrwt beam="2">  1       -2 0.66010920E-01 0.21793061E+04</pdfrwt>
<totfact> 0.46824105E+00</totfact>
</mgrwt>
</event>
<event>
12    1  0.2048318E-007  0.2067246E+04  0.7818608E-02  0.8575811E-01
         -2   -1    0    0    0  501 -0.00000000000E+00  0.00000000000E+00  0.31009040610E+03  0.31009040610E+03  0.00000000000E+00 0. -1.
          2   -1    0    0  501    0  0.00000000000E+00 -0.00000000000E+00 -0.34453694735E+04  0.34453694735E+04  0.00000000000E+00 0.  1.
         23    2    1    2    0    0 -0.55728968597E+03 -0.56868592596E+03 -0.17291894275E+04  0.19059023505E+04  0.91609044539E+02 0.  0.
        254    2    1    2    0    0  0.55728968597E+03  0.56868592596E+03 -0.14060896399E+04  0.18495575291E+04  0.89988860503E+03 0.  0.
        -24    2    4    4    0    0  0.76336361274E+03  0.27912104585E+03 -0.80859443057E+03  0.11492854137E+04  0.79996534581E+02 0.  0.
         24    2    4    4    0    0 -0.20607392677E+03  0.28956488011E+03 -0.59749520931E+03  0.70027211535E+03  0.84060854697E+02 0.  0.
         13    1    3    3    0    0 -0.42308487198E+03 -0.48135140457E+03 -0.14098021211E+04  0.15486258439E+04  0.00000000000E+00 0.  1.
        -13    1    3    3    0    0 -0.13420481399E+03 -0.87334521391E+02 -0.31938730640E+03  0.35727650667E+03  0.00000000000E+00 0. -1.
          2    1    6    6  502    0 -0.77411229146E+02  0.16771385156E+03 -0.25795250310E+03  0.31726948839E+03  0.00000000000E+00 0. -1.
          3    1    5    5  503    0  0.43358562831E+03  0.12829124163E+03 -0.48765146926E+03  0.66502563501E+03  0.00000000000E+00 0. -1.
         -4    1    5    5    0  503  0.32977798443E+03  0.15082980422E+03 -0.32094296132E+03  0.48425977871E+03  0.00000000000E+00 0.  1.
         -1    1    6    6    0  502 -0.12866269762E+03  0.12185102855E+03 -0.33954270621E+03  0.38300262696E+03  0.00000000000E+00 0.  1.
<mgrwt>
<rscale>  0 0.20672455E+04</rscale>
<asrwt>0</asrwt>
<pdfrwt beam="1">  1        2 0.53005685E+00 0.20672455E+04</pdfrwt>
<pdfrwt beam="2">  1       -2 0.47706216E-01 0.20672455E+04</pdfrwt>
<totfact> 0.34291718E+00</totfact>
</mgrwt>
</event>
<event>
12    1  0.2048318E-007  0.1642811E+04  0.7818608E-02  0.8794671E-01
          2   -1    0    0  501    0  0.00000000000E+00  0.00000000000E+00  0.15196896348E+04  0.15196896348E+04  0.00000000000E+00 0.  1.
         -2   -1    0    0    0  501 -0.00000000000E+00 -0.00000000000E+00 -0.44397684096E+03  0.44397684096E+03  0.00000000000E+00 0. -1.
         23    2    1    2    0    0  0.48408708613E+03  0.14518877135E+03  0.69752683173E+03  0.86625199301E+03  0.91808213850E+02 0.  0.
        254    2    1    2    0    0 -0.48408708613E+03 -0.14518877135E+03  0.37818596206E+03  0.10974144827E+04  0.89770476141E+03 0.  0.
        -24    2    4    4    0    0  0.23102887901E+03 -0.14866270426E+03  0.21938357814E+03  0.36057055804E+03  0.80043927893E+02 0.  0.
         24    2    4    4    0    0 -0.71511596514E+03  0.34739329122E+01  0.15880238392E+03  0.73684392467E+03  0.79484969445E+02 0.  0.
         11    1    3    3    0    0  0.14692497259E+03  0.16086855689E+01  0.18715021618E+03  0.23793851907E+03  0.00000000000E+00 0. -1.
        -11    1    3    3    0    0  0.33716211354E+03  0.14358008578E+03  0.51037661555E+03  0.62831347394E+03  0.00000000000E+00 0.  1.
          4    1    6    6  502    0 -0.39504439660E+03 -0.37600160032E+02  0.88473999107E+02  0.40657286657E+03  0.00000000000E+00 0. -1.
          1    1    5    5  503    0  0.22870464728E+03 -0.13438116342E+03  0.22195672557E+03  0.34587411119E+03  0.00000000000E+00 0. -1.
         -2    1    5    5    0  503  0.23242317329E+01 -0.14281540847E+02 -0.25731474363E+01  0.14696446844E+02  0.00000000000E+00 0.  1.
         -3    1    6    6    0  502 -0.32007156854E+03  0.41074092944E+02  0.70328384816E+02  0.33027105809E+03  0.00000000000E+00 0.  1.
<mgrwt>
<rscale>  0 0.16428110E+04</rscale>
<asrwt>0</asrwt>
<pdfrwt beam="1">  1        2 0.23379840E+00 0.16428110E+04</pdfrwt>
<pdfrwt beam="2">  1       -2 0.68304130E-01 0.16428110E+04</pdfrwt>
<totfact> 0.23189401E+01</totfact>
</mgrwt>
</event>
<event>
12    1  0.2048318E-007  0.2364866E+04  0.7818608E-02  0.8452776E-01
         -1   -1    0    0    0  501 -0.00000000000E+00  0.00000000000E+00  0.79385133118E+03  0.79385133118E+03  0.00000000000E+00 0.  1.
          1   -1    0    0  501    0  0.00000000000E+00 -0.00000000000E+00 -0.17612208848E+04  0.17612208848E+04  0.00000000000E+00 0. -1.
         23    2    1    2    0    0  0.21455743495E+03  0.44246827684E+03  0.53679748700E+03  0.73358908847E+03  0.90489445594E+02 0.  0.
        254    2    1    2    0    0 -0.21455743495E+03 -0.44246827684E+03 -0.15041670407E+04  0.18214831276E+04  0.90192529006E+03 0.  0.
        -24    2    4    4    0    0 -0.86055567563E+02 -0.43497888419E+03 -0.17466108922E+03  0.48323375291E+03  0.79976080637E+02 0.  0.
         24    2    4    4    0    0 -0.12850186739E+03 -0.74893926502E+01 -0.13295059515E+04  0.13382493746E+04  0.82197888448E+02 0.  0.
         11    1    3    3    0    0  0.15877387606E+03  0.25366977179E+03  0.27834039183E+03  0.40869410390E+03  0.00000000000E+00 0. -1.
        -11    1    3    3    0    0  0.55783558894E+02  0.18879850505E+03  0.25845709518E+03  0.32489498457E+03  0.00000000000E+00 0.  1.
          4    1    6    6  502    0 -0.63550922176E+02 -0.11893305580E+02 -0.10160312215E+04  0.10180862505E+04  0.00000000000E+00 0. -1.
          3    1    5    5  503    0 -0.40212229845E+02 -0.29156293281E+03 -0.78608120075E+02  0.30463946520E+03  0.00000000000E+00 0. -1.
         -4    1    5    5    0  503 -0.45843337718E+02 -0.14341595137E+03 -0.96052969142E+02  0.17859428771E+03  0.00000000000E+00 0.  1.
         -3    1    6    6    0  502 -0.64950945216E+02  0.44039129296E+01 -0.31347472996E+03  0.32016312414E+03  0.00000000000E+00 0.  1.
<mgrwt>
<rscale>  0 0.23648658E+04</rscale>
<asrwt>0</asrwt>
<pdfrwt beam="1">  1        1 0.27095706E+00 0.23648658E+04</pdfrwt>
<pdfrwt beam="2">  1       -1 0.12213097E+00 0.23648658E+04</pdfrwt>
<totfact> 0.23066588E+00</totfact>
</mgrwt>
</event>
<event>
12    1  0.2048318E-007  0.1709536E+04  0.7818608E-02  0.8755944E-01
          1   -1    0    0  501    0  0.00000000000E+00  0.00000000000E+00  0.81750161648E+03  0.81750161648E+03  0.00000000000E+00 0. -1.
         -1   -1    0    0    0  501 -0.00000000000E+00 -0.00000000000E+00 -0.89373297768E+03  0.89373297768E+03  0.00000000000E+00 0.  1.
         23    2    1    2    0    0 -0.38651384502E+03  0.36834021401E+03 -0.33120853581E+03  0.63479306981E+03  0.90530004046E+02 0.  0.
        254    2    1    2    0    0  0.38651384502E+03 -0.36834021401E+03  0.25497717461E+03  0.10764415244E+04  0.89924720191E+03 0.  0.
        -24    2    4    4    0    0 -0.19041957778E+03  0.14958991800E+03 -0.49578701925E+01  0.25485260783E+03  0.79300139139E+02 0.  0.
         24    2    4    4    0    0  0.57693342280E+03 -0.51793013201E+03  0.25993504480E+03  0.82158891653E+03  0.79613593404E+02 0.  0.
         11    1    3    3    0    0  0.33521071022E+01  0.61385837466E+00  0.17770607317E+01  0.38433564723E+01  0.00000000000E+00 0. -1.
        -11    1    3    3    0    0 -0.38986595212E+03  0.36772635563E+03 -0.33298559654E+03  0.63094971333E+03  0.00000000000E+00 0.  1.
          2    1    6    6  502    0  0.24194693620E+03 -0.23046562561E+03  0.71926852531E+02  0.34179847373E+03  0.00000000000E+00 0. -1.
          3    1    5    5  503    0 -0.30903675099E+02  0.51808213457E+02  0.25126640228E+02  0.65348880368E+02  0.00000000000E+00 0. -1.
         -4    1    5    5    0  503 -0.15951590269E+03  0.97781704548E+02 -0.30084510420E+02  0.18950372746E+03  0.00000000000E+00 0.  1.
         -1    1    6    6    0  502  0.33498648660E+03 -0.28746450640E+03  0.18800819227E+03  0.47979044280E+03  0.00000000000E+00 0.  1.
<mgrwt>
<rscale>  0 0.17095358E+04</rscale>
<asrwt>0</asrwt>
<pdfrwt beam="1">  1        1 0.12576948E+00 0.17095358E+04</pdfrwt>
<pdfrwt beam="2">  1       -1 0.13749738E+00 0.17095358E+04</pdfrwt>
<totfact> 0.89203379E+00</totfact>
</mgrwt>
</event>
<event>
12    1  0.2048318E-007  0.1466167E+04  0.7818608E-02  0.8907268E-01
          2   -1    0    0  501    0  0.00000000000E+00  0.00000000000E+00  0.46190283568E+03  0.46190283568E+03  0.00000000000E+00 0. -1.
         -2   -1    0    0    0  501 -0.00000000000E+00 -0.00000000000E+00 -0.11634733671E+04  0.11634733671E+04  0.00000000000E+00 0.  1.
         23    2    1    2    0    0 -0.88709319058E+02  0.31462220709E+03  0.12334507701E+03  0.36105017442E+03  0.91031554647E+02 0.  0.
        254    2    1    2    0    0  0.88709319058E+02 -0.31462220709E+03 -0.82491560842E+03  0.12643260284E+04  0.90065424468E+03 0.  0.
        -24    2    4    4    0    0 -0.15579468264E+03 -0.16037492896E+03  0.12488618113E+03  0.26819271702E+03  0.79615791457E+02 0.  0.
         24    2    4    4    0    0  0.24450400169E+03 -0.15424727813E+03 -0.94980178955E+03  0.99613331133E+03  0.81140032344E+02 0.  0.
         11    1    3    3    0    0  0.27361843023E+01  0.15333454551E+03  0.66187429924E+02  0.16703216886E+03  0.00000000000E+00 0.  1.
        -11    1    3    3    0    0 -0.91445503361E+02  0.16128766158E+03  0.57157647083E+02  0.19401800556E+03  0.00000000000E+00 0. -1.
          4    1    6    6  502    0  0.17213392347E+02 -0.44582494054E+02 -0.14160953500E+03  0.14945621451E+03  0.00000000000E+00 0. -1.
          1    1    5    5  503    0 -0.79931765006E+02 -0.53482957482E+02  0.15387856397E+02  0.97397638177E+02  0.00000000000E+00 0. -1.
         -2    1    5    5    0  503 -0.75862917629E+02 -0.10689197148E+03  0.10949832473E+03  0.17079507885E+03  0.00000000000E+00 0.  1.
         -3    1    6    6    0  502  0.22729060935E+03 -0.10966478408E+03 -0.80819225455E+03  0.84667709682E+03  0.00000000000E+00 0.  1.
<mgrwt>
<rscale>  0 0.14661673E+04</rscale>
<asrwt>0</asrwt>
<pdfrwt beam="1">  1        2 0.71061976E-01 0.14661673E+04</pdfrwt>
<pdfrwt beam="2">  1       -2 0.17899590E+00 0.14661673E+04</pdfrwt>
<totfact> 0.12032387E+01</totfact>
</mgrwt>
</event>
<event>
12    1  0.2048318E-007  0.2209594E+04  0.7818608E-02  0.8514445E-01
          2   -1    0    0  501    0  0.00000000000E+00  0.00000000000E+00  0.28876989151E+04  0.28876989151E+04  0.00000000000E+00 0. -1.
         -2   -1    0    0    0  501 -0.00000000000E+00 -0.00000000000E+00 -0.42268147748E+03  0.42268147748E+03  0.00000000000E+00 0.  1.
         23    2    1    2    0    0  0.59621596981E+03 -0.54649080976E+03  0.37850908910E+03  0.89782691051E+03  0.93264907093E+02 0.  0.
        254    2    1    2    0    0 -0.59621596981E+03  0.54649080976E+03  0.20865083486E+04  0.24125534821E+04  0.90153842270E+03 0.  0.
        -24    2    4    4    0    0  0.13300053876E+03  0.44315424022E+03  0.87361509044E+03  0.99146472663E+03  0.75658138822E+02 0.  0.
         24    2    4    4    0    0 -0.72921650858E+03  0.10333656955E+03  0.12128932581E+04  0.14210887555E+04  0.77123487821E+02 0.  0.
         13    1    3    3    0    0  0.42588109639E+03 -0.40606134306E+03  0.31827211015E+03  0.66899750276E+03  0.00000000000E+00 0. -1.
        -13    1    3    3    0    0  0.17033487342E+03 -0.14042946670E+03  0.60236978942E+02  0.22882940775E+03  0.00000000000E+00 0.  1.
          2    1    6    6  502    0 -0.65090986570E+03  0.83701377539E+02  0.10319340971E+04  0.12229380829E+04  0.00000000000E+00 0. -1.
          1    1    5    5  503    0  0.89286515479E+02  0.27712430856E+03  0.62305101940E+03  0.68772271812E+03  0.00000000000E+00 0. -1.
         -2    1    5    5    0  503  0.43714023282E+02  0.16602993165E+03  0.25056407104E+03  0.30374200851E+03  0.00000000000E+00 0.  1.
         -1    1    6    6    0  502 -0.78306642871E+02  0.19635192008E+02  0.18095916102E+03  0.19815067257E+03  0.00000000000E+00 0.  1.
<mgrwt>
<rscale>  0 0.22095944E+04</rscale>
<asrwt>0</asrwt>
<pdfrwt beam="1">  1        2 0.44426136E+00 0.22095944E+04</pdfrwt>
<pdfrwt beam="2">  1       -2 0.65027921E-01 0.22095944E+04</pdfrwt>
<totfact> 0.40760116E+00</totfact>
</mgrwt>
</event>
<event>
12    1  0.2048318E-007  0.1312813E+04  0.7818608E-02  0.9019466E-01
         -2   -1    0    0    0  501 -0.00000000000E+00  0.00000000000E+00  0.51725389357E+03  0.51725389357E+03  0.00000000000E+00 0. -1.
          2   -1    0    0  501    0  0.00000000000E+00 -0.00000000000E+00 -0.83299392694E+03  0.83299392694E+03  0.00000000000E+00 0.  1.
         23    2    1    2    0    0  0.20781905730E+03  0.11564665682E+03 -0.33071326092E+03  0.41832183244E+03  0.95178698973E+02 0.  0.
        254    2    1    2    0    0 -0.20781905730E+03 -0.11564665682E+03  0.14973227546E+02  0.93192598807E+03  0.90094336108E+03 0.  0.
        -24    2    4    4    0    0  0.28812054927E+03  0.17978466285E+03  0.15815674115E+02  0.34912017281E+03  0.79364876421E+02 0.  0.
         24    2    4    4    0    0 -0.49593960658E+03 -0.29543131967E+03 -0.84244656942E+00  0.58280581526E+03  0.80163274435E+02 0.  0.
         13    1    3    3    0    0  0.92769805473E+02  0.10499112785E+03 -0.19445418974E+03  0.23967020182E+03  0.00000000000E+00 0.  1.
        -13    1    3    3    0    0  0.11504925183E+03  0.10655528971E+02 -0.13625907118E+03  0.17865163062E+03  0.00000000000E+00 0. -1.
          2    1    6    6  502    0 -0.67002547428E+02 -0.39126107044E+02 -0.27748945859E+02  0.82402655361E+02  0.00000000000E+00 0. -1.
          3    1    5    5  503    0  0.13859920558E+03  0.95595896043E+02  0.46797152279E+02  0.17475207750E+03  0.00000000000E+00 0. -1.
         -4    1    5    5    0  503  0.14952134369E+03  0.84188766806E+02 -0.30981478164E+02  0.17436809531E+03  0.00000000000E+00 0.  1.
         -1    1    6    6    0  502 -0.42893705915E+03 -0.25630521262E+03  0.26906499289E+02  0.50040315989E+03  0.00000000000E+00 0.  1.
<mgrwt>
<rscale>  0 0.13128128E+04</rscale>
<asrwt>0</asrwt>
<pdfrwt beam="1">  1        2 0.12815291E+00 0.13128128E+04</pdfrwt>
<pdfrwt beam="2">  1       -2 0.79577523E-01 0.13128128E+04</pdfrwt>
<totfact> 0.44710582E+01</totfact>
</mgrwt>
</event>
<event>
12    1  0.2048318E-007  0.1169120E+04  0.7818608E-02  0.9140323E-01
          1   -1    0    0  501    0  0.00000000000E+00  0.00000000000E+00  0.64062582615E+03  0.64062582615E+03  0.00000000000E+00 0. -1.
         -1   -1    0    0    0  501 -0.00000000000E+00 -0.00000000000E+00 -0.53340093470E+03  0.53340093470E+03  0.00000000000E+00 0.  1.
         23    2    1    2    0    0  0.20971936299E+03  0.47217224539E+02 -0.33373339811E+02  0.23598254520E+03  0.91445635888E+02 0.  0.
        254    2    1    2    0    0 -0.20971936299E+03 -0.47217224539E+02  0.14059823126E+03  0.93804421565E+03  0.90219034044E+03 0.  0.
        -24    2    4    4    0    0 -0.10147521109E+03 -0.34413496314E+03  0.38382799839E+03  0.53141166727E+03  0.79676448484E+02 0.  0.
         24    2    4    4    0    0 -0.10824415190E+03  0.29691773860E+03 -0.24322976713E+03  0.40663254838E+03  0.79450423969E+02 0.  0.
         13    1    3    3    0    0  0.60689052411E+02 -0.18494492614E+02  0.16661951472E+02  0.65595944741E+02  0.00000000000E+00 0. -1.
        -13    1    3    3    0    0  0.14903031058E+03  0.65711717152E+02 -0.50035291282E+02  0.17038660046E+03  0.00000000000E+00 0.  1.
          4    1    6    6  502    0 -0.19387187409E+02  0.14180900571E+03 -0.13997495416E+03  0.20019651577E+03  0.00000000000E+00 0. -1.
          1    1    5    5  503    0 -0.75251724614E+02 -0.18214063556E+03  0.25780555525E+03  0.32450229198E+03  0.00000000000E+00 0. -1.
         -2    1    5    5    0  503 -0.26223486480E+02 -0.16199432757E+03  0.12602244314E+03  0.20690937529E+03  0.00000000000E+00 0.  1.
         -3    1    6    6    0  502 -0.88856964487E+02  0.15510873289E+03 -0.10325481297E+03  0.20643603261E+03  0.00000000000E+00 0.  1.
<mgrwt>
<rscale>  0 0.11691200E+04</rscale>
<asrwt>0</asrwt>
<pdfrwt beam="1">  1        1 0.98557819E-01 0.11691200E+04</pdfrwt>
<pdfrwt beam="2">  1       -1 0.82061683E-01 0.11691200E+04</pdfrwt>
<totfact> 0.45619131E+01</totfact>
</mgrwt>
</event>
<event>
12    1  0.2048318E-007  0.2274253E+04  0.7818608E-02  0.8488143E-01
          2   -1    0    0  501    0  0.00000000000E+00  0.00000000000E+00  0.21097245711E+04  0.21097245711E+04  0.00000000000E+00 0.  1.
         -2   -1    0    0    0  501 -0.00000000000E+00 -0.00000000000E+00 -0.61290291593E+03  0.61290291593E+03  0.00000000000E+00 0. -1.
         23    2    1    2    0    0  0.69300721990E+03  0.62802188037E+03  0.39042158522E+03  0.10172234899E+04  0.87430687167E+02 0.  0.
        254    2    1    2    0    0 -0.69300721990E+03 -0.62802188037E+03  0.11064000700E+04  0.17054039972E+04  0.89978396835E+03 0.  0.
        -24    2    4    4    0    0 -0.17357813041E+03  0.29635322797E+02  0.77795283011E+03  0.80180448260E+03  0.81683552316E+02 0.  0.
         24    2    4    4    0    0 -0.51942908950E+03 -0.65765720317E+03  0.32844723985E+03  0.90359951458E+03  0.79340516030E+02 0.  0.
         11    1    3    3    0    0  0.60841253740E+03  0.51444258048E+03  0.31491513008E+03  0.85673130177E+03  0.00000000000E+00 0. -1.
        -11    1    3    3    0    0  0.84594682507E+02  0.11357929989E+03  0.75506455136E+02  0.16049218809E+03  0.00000000000E+00 0.  1.
          2    1    6    6  502    0 -0.23061333234E+03 -0.34935989684E+03  0.14460706498E+03  0.44288378816E+03  0.00000000000E+00 0. -1.
          1    1    5    5  503    0 -0.14786134247E+03  0.40350128440E+02  0.51342739045E+03  0.53581600828E+03  0.00000000000E+00 0. -1.
         -2    1    5    5    0  503 -0.25716787935E+02 -0.10714805644E+02  0.26452543966E+03  0.26598847432E+03  0.00000000000E+00 0.  1.
         -1    1    6    6    0  502 -0.28881575716E+03 -0.30829730633E+03  0.18384017488E+03  0.46071572642E+03  0.00000000000E+00 0.  1.
<mgrwt>
<rscale>  0 0.22742527E+04</rscale>
<asrwt>0</asrwt>
<pdfrwt beam="1">  1        2 0.32457301E+00 0.22742527E+04</pdfrwt>
<pdfrwt beam="2">  1       -2 0.94292757E-01 0.22742527E+04</pdfrwt>
<totfact> 0.49994379E+00</totfact>
</mgrwt>
</event>
<event>
12    1  0.2048318E-007  0.3588617E+04  0.7818608E-02  0.8093104E-01
         -2   -1    0    0    0  501 -0.00000000000E+00  0.00000000000E+00  0.18978083001E+04  0.18978083001E+04  0.00000000000E+00 0.  1.
          2   -1    0    0  501    0  0.00000000000E+00 -0.00000000000E+00 -0.16964528774E+04  0.16964528774E+04  0.00000000000E+00 0. -1.
         23    2    1    2    0    0  0.15391781234E+04 -0.31805807509E+03 -0.50011537538E+03  0.16518075859E+04  0.90125898364E+02 0.  0.
        254    2    1    2    0    0 -0.15391781234E+04  0.31805807509E+03  0.70147079808E+03  0.19424535916E+04  0.90046345869E+03 0.  0.
        -24    2    4    4    0    0 -0.10207074675E+04 -0.21878487047E+03  0.52397989565E+03  0.11709378848E+04  0.82644088009E+02 0.  0.
         24    2    4    4    0    0 -0.51847065592E+03  0.53684294556E+03  0.17749090243E+03  0.77151570685E+03  0.81983511893E+02 0.  0.
         11    1    3    3    0    0  0.12678278065E+04 -0.29601867824E+03 -0.40630113892E+03  0.13638530054E+04  0.00000000000E+00 0.  1.
        -11    1    3    3    0    0  0.27135031687E+03 -0.22039396848E+02 -0.93814236458E+02  0.28795458052E+03  0.00000000000E+00 0. -1.
          2    1    6    6  502    0 -0.25010039897E+03  0.31717050533E+03  0.89381036506E+02  0.41368624428E+03  0.00000000000E+00 0. -1.
          1    1    5    5  503    0 -0.76190672791E+03 -0.13499798003E+03  0.41352692769E+03  0.87734305523E+03  0.00000000000E+00 0. -1.
         -4    1    5    5    0  503 -0.25880073956E+03 -0.83786890441E+02  0.11045296796E+03  0.29359482955E+03  0.00000000000E+00 0.  1.
         -1    1    6    6    0  502 -0.26837025695E+03  0.21967244023E+03  0.88109865924E+02  0.35782946257E+03  0.00000000000E+00 0.  1.
<mgrwt>
<rscale>  0 0.35886166E+04</rscale>
<asrwt>0</asrwt>
<pdfrwt beam="1">  1        2 0.26099275E+00 0.35886166E+04</pdfrwt>
<pdfrwt beam="2">  1       -2 0.29197051E+00 0.35886166E+04</pdfrwt>
<totfact> 0.28601309E-01</totfact>
</mgrwt>
</event>
<event>
12    1  0.2048318E-007  0.2425553E+04  0.7818608E-02  0.8429998E-01
          1   -1    0    0  501    0  0.00000000000E+00  0.00000000000E+00  0.17107313012E+04  0.17107313012E+04  0.00000000000E+00 0. -1.
         -1   -1    0    0    0  501 -0.00000000000E+00 -0.00000000000E+00 -0.85976530755E+03  0.85976530755E+03  0.00000000000E+00 0.  1.
         23    2    1    2    0    0 -0.10350697518E+04 -0.11761853681E+03  0.30819737331E+03  0.10900904743E+04  0.90045043871E+02 0.  0.
        254    2    1    2    0    0  0.10350697518E+04  0.11761853681E+03  0.54276862029E+03  0.14804061344E+04  0.90100002005E+03 0.  0.
        -24    2    4    4    0    0  0.31742543788E+03 -0.37342265457E+03  0.11846959026E+03  0.50956391564E+03  0.73599950688E+02 0.  0.
         24    2    4    4    0    0  0.71764431396E+03  0.49104119138E+03  0.42429903003E+03  0.97084221874E+03  0.79813117956E+02 0.  0.
         11    1    3    3    0    0 -0.64402785383E+03 -0.48045408184E+02  0.15323045963E+03  0.66374679775E+03  0.00000000000E+00 0.  1.
        -11    1    3    3    0    0 -0.39104189801E+03 -0.69573128629E+02  0.15496691368E+03  0.42634367658E+03  0.00000000000E+00 0. -1.
          4    1    6    6  502    0  0.49235061387E+03  0.37575661638E+03  0.31970779025E+03  0.69700447120E+03  0.00000000000E+00 0. -1.
          3    1    5    5  503    0  0.24660364431E+03 -0.23771260963E+03  0.82503670424E+02  0.35231732543E+03  0.00000000000E+00 0. -1.
         -4    1    5    5    0  503  0.70821793577E+02 -0.13571004494E+03  0.35965919833E+02  0.15724659021E+03  0.00000000000E+00 0.  1.
         -1    1    6    6    0  502  0.22529370009E+03  0.11528457500E+03  0.10459123979E+03  0.27383774753E+03  0.00000000000E+00 0.  1.
<mgrwt>
<rscale>  0 0.24255535E+04</rscale>
<asrwt>0</asrwt>
<pdfrwt beam="1">  1        1 0.26318943E+00 0.24255535E+04</pdfrwt>
<pdfrwt beam="2">  1       -1 0.13227159E+00 0.24255535E+04</pdfrwt>
<totfact> 0.20335341E+00</totfact>
</mgrwt>
</event>
<event>
12    1  0.2048318E-007  0.1270610E+04  0.7818608E-02  0.9053202E-01
         -1   -1    0    0    0  501 -0.00000000000E+00  0.00000000000E+00  0.17496208108E+03  0.17496208108E+03  0.00000000000E+00 0.  1.
          1   -1    0    0  501    0  0.00000000000E+00 -0.00000000000E+00 -0.23068570462E+04  0.23068570462E+04  0.00000000000E+00 0. -1.
         23    2    1    2    0    0  0.16670760280E+03  0.18771297294E+03 -0.82081285457E+03  0.86317826334E+03  0.91188743976E+02 0.  0.
        254    2    1    2    0    0 -0.16670760280E+03 -0.18771297294E+03 -0.13110821106E+04  0.16186408640E+04  0.91544216684E+03 0.  0.
        -24    2    4    4    0    0 -0.45957808482E+03 -0.98858474952E+02 -0.11878236776E+04  0.12805212334E+04  0.88456351352E+02 0.  0.
         24    2    4    4    0    0  0.29287048203E+03 -0.88854497990E+02 -0.12325843301E+03  0.33811963058E+03  0.73918889438E+02 0.  0.
         13    1    3    3    0    0  0.36165061463E+02  0.70928751098E+02 -0.39141139603E+03  0.39942668958E+03  0.00000000000E+00 0. -1.
        -13    1    3    3    0    0  0.13054254133E+03  0.11678422184E+03 -0.42940145854E+03  0.46375157376E+03  0.00000000000E+00 0.  1.
          4    1    6    6  502    0  0.36380057541E+02 -0.34574516113E+02 -0.47652407751E+01  0.50414415308E+02  0.00000000000E+00 0. -1.
          1    1    5    5  503    0 -0.24155977894E+02 -0.15243442003E+02 -0.13774110480E+03  0.14067155272E+03  0.00000000000E+00 0. -1.
         -2    1    5    5    0  503 -0.43542210693E+03 -0.83615032949E+02 -0.10500825728E+04  0.11398496807E+04  0.00000000000E+00 0.  1.
         -3    1    6    6    0  502  0.25649042449E+03 -0.54279981877E+02 -0.11849319224E+03  0.28770521527E+03  0.00000000000E+00 0.  1.
<mgrwt>
<rscale>  0 0.12706101E+04</rscale>
<asrwt>0</asrwt>
<pdfrwt beam="1">  1        1 0.35490104E+00 0.12706101E+04</pdfrwt>
<pdfrwt beam="2">  1       -1 0.26917246E-01 0.12706101E+04</pdfrwt>
<totfact> 0.22429873E+01</totfact>
</mgrwt>
</event>
<event>
12    1  0.2048318E-007  0.1380739E+04  0.7818608E-02  0.8967880E-01
         -1   -1    0    0    0  501 -0.00000000000E+00  0.00000000000E+00  0.39830794897E+03  0.39830794897E+03  0.00000000000E+00 0.  1.
          1   -1    0    0  501    0  0.00000000000E+00 -0.00000000000E+00 -0.11965863129E+04  0.11965863129E+04  0.00000000000E+00 0. -1.
         23    2    1    2    0    0 -0.22944269745E+03  0.13770669239E+02 -0.57580128768E+03  0.62658102688E+03  0.90681186620E+02 0.  0.
        254    2    1    2    0    0  0.22944269745E+03 -0.13770669239E+02 -0.22247707630E+03  0.96831323504E+03  0.91394796839E+03 0.  0.
        -24    2    4    4    0    0  0.39914156185E+03 -0.36238883566E+03 -0.14314180742E+03  0.56462403141E+03  0.87584617424E+02 0.  0.
         24    2    4    4    0    0 -0.16969886440E+03  0.34861816642E+03 -0.79335268873E+02  0.40368920363E+03  0.79615059535E+02 0.  0.
         13    1    3    3    0    0 -0.23236795654E+03  0.11557351366E+01 -0.55896000141E+03  0.60533667171E+03  0.00000000000E+00 0. -1.
        -13    1    3    3    0    0  0.29252590846E+01  0.12614934102E+02 -0.16841286276E+02  0.21244355169E+02  0.00000000000E+00 0.  1.
          2    1    6    6  502    0 -0.13073631632E+03  0.29325082197E+03 -0.35488867330E+02  0.32302861900E+03  0.00000000000E+00 0. -1.
          1    1    5    5  503    0  0.21874324733E+03 -0.17171100976E+03 -0.11389542636E+03  0.30050864758E+03  0.00000000000E+00 0. -1.
         -2    1    5    5    0  503  0.18039831452E+03 -0.19067782590E+03 -0.29246381068E+02  0.26411538383E+03  0.00000000000E+00 0.  1.
         -1    1    6    6    0  502 -0.38962548075E+02  0.55367344449E+02 -0.43846401543E+02  0.80660584625E+02  0.00000000000E+00 0.  1.
<mgrwt>
<rscale>  0 0.13807387E+04</rscale>
<asrwt>0</asrwt>
<pdfrwt beam="1">  1        1 0.18409020E+00 0.13807387E+04</pdfrwt>
<pdfrwt beam="2">  1       -1 0.61278148E-01 0.13807387E+04</pdfrwt>
<totfact> 0.28346126E+01</totfact>
</mgrwt>
</event>
<event>
12    1  0.2048318E-007  0.3890010E+04  0.7818608E-02  0.8027110E-01
          1   -1    0    0  501    0  0.00000000000E+00  0.00000000000E+00  0.32360363495E+04  0.32360363495E+04  0.00000000000E+00 0. -1.
         -1   -1    0    0    0  501 -0.00000000000E+00 -0.00000000000E+00 -0.11690365685E+04  0.11690365685E+04  0.00000000000E+00 0.  1.
         23    2    1    2    0    0  0.10005061036E+04  0.15396351596E+04  0.84360348445E+03  0.20227507174E+04  0.91458939520E+02 0.  0.
        254    2    1    2    0    0 -0.10005061036E+04 -0.15396351596E+04  0.12233962966E+04  0.23823222007E+04  0.89848298896E+03 0.  0.
        -24    2    4    4    0    0 -0.10928848061E+04 -0.98094347657E+03  0.84257897162E+03  0.16953248427E+04  0.86831419647E+02 0.  0.
         24    2    4    4    0    0  0.92378702458E+02 -0.55869168304E+03  0.38081732494E+03  0.68699735796E+03  0.79204251834E+02 0.  0.
         13    1    3    3    0    0  0.28662504876E+03  0.40039897138E+03  0.26380920096E+03  0.55863095991E+03  0.00000000000E+00 0. -1.
        -13    1    3    3    0    0  0.71388105483E+03  0.11392361882E+04  0.57979428349E+03  0.14641197575E+04  0.00000000000E+00 0.  1.
          2    1    6    6  502    0  0.43985317477E+02 -0.86411841477E+02  0.60454732741E+02  0.11426499557E+03  0.00000000000E+00 0. -1.
          3    1    5    5  503    0 -0.21279704948E+02 -0.10027285292E+02  0.24298255762E+02  0.33819780101E+02  0.00000000000E+00 0. -1.
         -4    1    5    5    0  503 -0.10716051011E+04 -0.97091619128E+03  0.81828071586E+03  0.16615050626E+04  0.00000000000E+00 0.  1.
         -1    1    6    6    0  502  0.48393384981E+02 -0.47227984157E+03  0.32036259219E+03  0.57273236240E+03  0.00000000000E+00 0.  1.
<mgrwt>
<rscale>  0 0.38900102E+04</rscale>
<asrwt>0</asrwt>
<pdfrwt beam="1">  1        1 0.49785174E+00 0.38900102E+04</pdfrwt>
<pdfrwt beam="2">  1       -1 0.17985178E+00 0.38900102E+04</pdfrwt>
<totfact> 0.65726548E-02</totfact>
</mgrwt>
</event>
<event>
12    1  0.2226496E-007  0.2456519E+04  0.7818608E-02  0.8418642E-01
          1   -1    0    0  501    0  0.00000000000E+00  0.00000000000E+00  0.16774256980E+04  0.16774256980E+04  0.00000000000E+00 0. -1.
         -1   -1    0    0    0  501 -0.00000000000E+00 -0.00000000000E+00 -0.89936699308E+03  0.89936699308E+03  0.00000000000E+00 0.  1.
         23    2    1    2    0    0  0.31232391819E+03 -0.95910803883E+03  0.68011535199E+03  0.12200732220E+04  0.92667767260E+02 0.  0.
        254    2    1    2    0    0 -0.31232391819E+03  0.95910803883E+03  0.97943352958E+02  0.13567194691E+04  0.90203123968E+03 0.  0.
        -24    2    4    4    0    0 -0.43821040068E+03  0.73326418836E+02  0.77162059527E+02  0.45809146772E+03  0.80552407780E+02 0.  0.
         24    2    4    4    0    0  0.12588648249E+03  0.88578161999E+03  0.20781293430E+02  0.89862800136E+03  0.81510354373E+02 0.  0.
         11    1    3    3    0    0  0.11096702292E+03 -0.38348777084E+03  0.21741419736E+03  0.45458275789E+03  0.00000000000E+00 0.  1.
        -11    1    3    3    0    0  0.20135689527E+03 -0.57562026799E+03  0.46270115464E+03  0.76549046415E+03  0.00000000000E+00 0. -1.
          2    1    6    6  502    0  0.12167086508E+03  0.65931195614E+03 -0.65458201124E+01  0.67047662352E+03  0.00000000000E+00 0. -1.
          1    1    5    5  503    0 -0.38757582745E+03  0.89433974829E+02  0.60042304505E+02  0.40226674758E+03  0.00000000000E+00 0. -1.
         -2    1    5    5    0  503 -0.50634573235E+02 -0.16107555994E+02  0.17119755022E+02  0.55824720141E+02  0.00000000000E+00 0.  1.
         -1    1    6    6    0  502  0.42156174144E+01  0.22646966385E+03  0.27327113543E+02  0.22815137784E+03  0.00000000000E+00 0.  1.
<mgrwt>
<rscale>  0 0.24565189E+04</rscale>
<asrwt>0</asrwt>
<pdfrwt beam="1">  1        1 0.25806549E+00 0.24565189E+04</pdfrwt>
<pdfrwt beam="2">  1       -1 0.13836415E+00 0.24565189E+04</pdfrwt>
<totfact> 0.19033914E+00</totfact>
</mgrwt>
</event>
<event>
12    1  0.2048318E-007  0.1452704E+04  0.7818608E-02  0.8916528E-01
         -1   -1    0    0    0  501 -0.00000000000E+00  0.00000000000E+00  0.42007699372E+03  0.42007699372E+03  0.00000000000E+00 0.  1.
          1   -1    0    0  501    0  0.00000000000E+00 -0.00000000000E+00 -0.12559301447E+04  0.12559301447E+04  0.00000000000E+00 0. -1.
         23    2    1    2    0    0  0.15196935314E+03 -0.36835279004E+03 -0.44927950506E+02  0.41153048871E+03  0.92522214472E+02 0.  0.
        254    2    1    2    0    0 -0.15196935314E+03  0.36835279004E+03 -0.79092520049E+03  0.12644766497E+04  0.90252981264E+03 0.  0.
        -24    2    4    4    0    0  0.21433486360E+03  0.39238249535E+03 -0.76273372284E+03  0.88784037557E+03  0.81205567091E+02 0.  0.
         24    2    4    4    0    0 -0.36630421674E+03 -0.24029705305E+02 -0.28191477649E+02  0.37663627416E+03  0.79397214448E+02 0.  0.
         13    1    3    3    0    0  0.11021067822E+03 -0.23361196875E+03  0.13932576176E+02  0.25867945843E+03  0.00000000000E+00 0. -1.
        -13    1    3    3    0    0  0.41758674927E+02 -0.13474082130E+03 -0.58860526682E+02  0.15285103028E+03  0.00000000000E+00 0.  1.
          2    1    6    6  502    0 -0.18734476647E+03 -0.37726009633E+02  0.16059118855E+02  0.19177906201E+03  0.00000000000E+00 0. -1.
          1    1    5    5  503    0  0.22060227991E+03  0.37539409012E+03 -0.74193495990E+03  0.86026366512E+03  0.00000000000E+00 0. -1.
         -2    1    5    5    0  503 -0.62674163194E+01  0.16988405228E+02 -0.20798762941E+02  0.27576710453E+02  0.00000000000E+00 0.  1.
         -1    1    6    6    0  502 -0.17895945027E+03  0.13696304328E+02 -0.44250596503E+02  0.18485721215E+03  0.00000000000E+00 0.  1.
<mgrwt>
<rscale>  0 0.14527042E+04</rscale>
<asrwt>0</asrwt>
<pdfrwt beam="1">  1        1 0.19322002E+00 0.14527042E+04</pdfrwt>
<pdfrwt beam="2">  1       -1 0.64627231E-01 0.14527042E+04</pdfrwt>
<totfact> 0.22937632E+01</totfact>
</mgrwt>
</event>
<event>
12    1  0.2048318E-007  0.3923447E+04  0.7818608E-02  0.8020170E-01
          2   -1    0    0  501    0  0.00000000000E+00  0.00000000000E+00  0.42474778453E+04  0.42474778453E+04  0.00000000000E+00 0.  1.
         -2   -1    0    0    0  501 -0.00000000000E+00 -0.00000000000E+00 -0.90603403979E+03  0.90603403979E+03  0.00000000000E+00 0. -1.
         23    2    1    2    0    0 -0.92186905591E+03 -0.13673216810E+04  0.46274244356E+03  0.17160889565E+04  0.10686253767E+03 0.  0.
        254    2    1    2    0    0  0.92186905591E+03  0.13673216810E+04  0.28787013619E+04  0.34374229286E+04  0.89974647698E+03 0.  0.
        -24    2    4    4    0    0  0.10742186833E+04  0.99857900713E+03  0.23304602564E+04  0.27547418552E+04  0.80323528442E+02 0.  0.
         24    2    4    4    0    0 -0.15234962734E+03  0.36874267391E+03  0.54824110549E+03  0.68268107331E+03  0.79395022462E+02 0.  0.
         11    1    3    3    0    0 -0.46717517599E+03 -0.63032190145E+03  0.17814515069E+03  0.80454585899E+03  0.00000000000E+00 0.  1.
        -11    1    3    3    0    0 -0.45469387991E+03 -0.73699977959E+03  0.28459729287E+03  0.91154309753E+03  0.00000000000E+00 0. -1.
          4    1    6    6  502    0 -0.82738336028E+02  0.27339621314E+03  0.34784269446E+03  0.45009516960E+03  0.00000000000E+00 0. -1.
          3    1    5    5  503    0  0.90235139504E+03  0.79788822299E+03  0.19245677948E+04  0.22704239369E+04  0.00000000000E+00 0. -1.
         -2    1    5    5    0  503  0.17186728822E+03  0.20069078414E+03  0.40589246165E+03  0.48431791834E+03  0.00000000000E+00 0.  1.
         -3    1    6    6    0  502 -0.69611291316E+02  0.95346460761E+02  0.20039841104E+03  0.23258590371E+03  0.00000000000E+00 0.  1.
<mgrwt>
<rscale>  0 0.39234472E+04</rscale>
<asrwt>0</asrwt>
<pdfrwt beam="1">  1        2 0.65345812E+00 0.39234472E+04</pdfrwt>
<pdfrwt beam="2">  1       -2 0.13938985E+00 0.39234472E+04</pdfrwt>
<totfact> 0.60623449E-02</totfact>
</mgrwt>
</event>
<event>
12    1  0.2048318E-007  0.2736279E+04  0.7818608E-02  0.8323329E-01
          2   -1    0    0  501    0  0.00000000000E+00  0.00000000000E+00  0.24099080243E+04  0.24099080243E+04  0.00000000000E+00 0. -1.
         -2   -1    0    0    0  501 -0.00000000000E+00 -0.00000000000E+00 -0.77671239541E+03  0.77671239541E+03  0.00000000000E+00 0.  1.
         23    2    1    2    0    0  0.63331306311E+03  0.58736175841E+03 -0.27259835248E+03  0.90984915554E+03  0.86234290819E+02 0.  0.
        254    2    1    2    0    0 -0.63331306311E+03 -0.58736175841E+03  0.19057939813E+04  0.22767712642E+04  0.89752850585E+03 0.  0.
        -24    2    4    4    0    0 -0.46590995143E+03  0.41458932139E+02  0.12993322786E+04  0.13838372346E+04  0.89163870557E+02 0.  0.
         24    2    4    4    0    0 -0.16740311167E+03 -0.62882069055E+03  0.60646170274E+03  0.89293402953E+03  0.78077663541E+02 0.  0.
         11    1    3    3    0    0  0.90530823291E+02  0.12556637248E+03 -0.61784342479E+02  0.16667347971E+03  0.00000000000E+00 0. -1.
        -11    1    3    3    0    0  0.54278223982E+03  0.46179538593E+03 -0.21081401000E+03  0.74317567582E+03  0.00000000000E+00 0.  1.
          2    1    6    6  502    0 -0.10431111384E+03 -0.48935600654E+03  0.49274249639E+03  0.70224303297E+03  0.00000000000E+00 0. -1.
          3    1    5    5  503    0 -0.33029015835E+03 -0.30342389614E+01  0.83100710447E+03  0.89424471091E+03  0.00000000000E+00 0. -1.
         -4    1    5    5    0  503 -0.13561979308E+03  0.44493171100E+02  0.46832517413E+03  0.48959252371E+03  0.00000000000E+00 0.  1.
         -3    1    6    6    0  502 -0.63091997837E+02 -0.13946468401E+03  0.11371920636E+03  0.19069099657E+03  0.00000000000E+00 0.  1.
<mgrwt>
<rscale>  0 0.27362788E+04</rscale>
<asrwt>0</asrwt>
<pdfrwt beam="1">  1        2 0.37075508E+00 0.27362788E+04</pdfrwt>
<pdfrwt beam="2">  1       -2 0.11949422E+00 0.27362788E+04</pdfrwt>
<totfact> 0.18413786E+00</totfact>
</mgrwt>
</event>
<event>
12    1  0.2048318E-007  0.1309475E+04  0.7818608E-02  0.9022085E-01
          1   -1    0    0  501    0  0.00000000000E+00  0.00000000000E+00  0.85460780376E+03  0.85460780376E+03  0.00000000000E+00 0. -1.
         -1   -1    0    0    0  501 -0.00000000000E+00 -0.00000000000E+00 -0.50161171480E+03  0.50161171480E+03  0.00000000000E+00 0.  1.
         23    2    1    2    0    0  0.95345553206E+02 -0.26843249138E+03  0.28425057139E+03  0.41287120592E+03  0.92290131651E+02 0.  0.
        254    2    1    2    0    0 -0.95345553206E+02  0.26843249138E+03  0.68745517573E+02  0.94334831264E+03  0.89667904839E+03 0.  0.
        -24    2    4    4    0    0 -0.12903076254E+03 -0.13133134915E+03 -0.32110489137E+03  0.37832932626E+03  0.78280693039E+02 0.  0.
         24    2    4    4    0    0  0.33685209330E+02  0.39976384053E+03  0.38985040894E+03  0.56501898637E+03  0.79481394615E+02 0.  0.
         11    1    3    3    0    0  0.90543743694E+01 -0.31838107232E+02 -0.75440536252E-02  0.33100556253E+02  0.00000000000E+00 0.  1.
        -11    1    3    3    0    0  0.86291178836E+02 -0.23659438415E+03  0.28425811544E+03  0.37977064967E+03  0.00000000000E+00 0. -1.
          2    1    6    6  502    0  0.13417070835E+02  0.38094922240E+03  0.35967804827E+03  0.52409028444E+03  0.00000000000E+00 0. -1.
          1    1    5    5  503    0 -0.55647110000E+02 -0.64720478887E+02 -0.77316161119E+02  0.11516566332E+03  0.00000000000E+00 0. -1.
         -2    1    5    5    0  503 -0.73383652536E+02 -0.66610870260E+02 -0.24378873025E+03  0.26316366294E+03  0.00000000000E+00 0.  1.
         -1    1    6    6    0  502  0.20268138495E+02  0.18814618121E+02  0.30172360670E+02  0.40928701928E+02  0.00000000000E+00 0.  1.
<mgrwt>
<rscale>  0 0.13094751E+04</rscale>
<asrwt>0</asrwt>
<pdfrwt beam="1">  1        1 0.13147812E+00 0.13094751E+04</pdfrwt>
<pdfrwt beam="2">  1       -1 0.77171033E-01 0.13094751E+04</pdfrwt>
<totfact> 0.32825308E+01</totfact>
</mgrwt>
</event>
<event>
12    1  0.2055472E-007  0.2855426E+04  0.7818608E-02  0.8286264E-01
         -1   -1    0    0    0  501 -0.00000000000E+00  0.00000000000E+00  0.11523024917E+04  0.11523024917E+04  0.00000000000E+00 0.  1.
          1   -1    0    0  501    0  0.00000000000E+00 -0.00000000000E+00 -0.17689491171E+04  0.17689491171E+04  0.00000000000E+00 0. -1.
         23    2    1    2    0    0 -0.10670026998E+04  0.63053667362E+03 -0.62012343511E+03  0.13891492988E+04  0.95453870766E+02 0.  0.
        254    2    1    2    0    0  0.10670026998E+04 -0.63053667362E+03  0.34768097617E+01  0.15321023100E+04  0.90069647598E+03 0.  0.
        -24    2    4    4    0    0  0.16945040703E+03 -0.10309854950E+03  0.36781005915E+03  0.42622087089E+03  0.83888257913E+02 0.  0.
         24    2    4    4    0    0  0.89755229280E+03 -0.52743812413E+03 -0.36433324939E+03  0.11058814391E+04  0.80274202923E+02 0.  0.
         13    1    3    3    0    0 -0.82636405770E+03  0.47404455120E+03 -0.51853983691E+03  0.10846563303E+04  0.00000000000E+00 0. -1.
        -13    1    3    3    0    0 -0.24063864214E+03  0.15649212242E+03 -0.10158359820E+03  0.30449296854E+03  0.00000000000E+00 0.  1.
          4    1    6    6  502    0  0.15586371343E+03 -0.12672043183E+03 -0.60624903568E+02  0.20982598490E+03  0.00000000000E+00 0. -1.
          1    1    5    5  503    0  0.54823536344E+02 -0.85308813876E+01  0.47188549483E+02  0.72836496873E+02  0.00000000000E+00 0. -1.
         -2    1    5    5    0  503  0.11462687069E+03 -0.94567668107E+02  0.32062150967E+03  0.35338437401E+03  0.00000000000E+00 0.  1.
         -1    1    6    6    0  502  0.74168857937E+03 -0.40071769230E+03 -0.30370834582E+03  0.89605545421E+03  0.00000000000E+00 0.  1.
<mgrwt>
<rscale>  0 0.28554260E+04</rscale>
<asrwt>0</asrwt>
<pdfrwt beam="1">  1        1 0.27214602E+00 0.28554260E+04</pdfrwt>
<pdfrwt beam="2">  1       -1 0.17727731E+00 0.28554260E+04</pdfrwt>
<totfact> 0.80246010E-01</totfact>
</mgrwt>
</event>
<event>
12    1  0.2048318E-007  0.1999442E+04  0.7818608E-02  0.8606882E-01
         -2   -1    0    0    0  501 -0.00000000000E+00  0.00000000000E+00  0.63459010391E+03  0.63459010391E+03  0.00000000000E+00 0.  1.
          2   -1    0    0  501    0  0.00000000000E+00 -0.00000000000E+00 -0.15749408024E+04  0.15749408024E+04  0.00000000000E+00 0. -1.
         23    2    1    2    0    0 -0.52829062162E+02  0.77890807949E+03 -0.53996022514E+03  0.95325524916E+03  0.87463244978E+02 0.  0.
        254    2    1    2    0    0  0.52829062162E+02 -0.77890807949E+03 -0.40039047336E+03  0.12562756572E+04  0.89912584742E+03 0.  0.
        -24    2    4    4    0    0  0.14288271234E+03 -0.65992041208E+03  0.13683610379E+03  0.69332327054E+03  0.77862817879E+02 0.  0.
         24    2    4    4    0    0 -0.90053650176E+02 -0.11898766741E+03 -0.53722657715E+03  0.56295238661E+03  0.77686996940E+02 0.  0.
         13    1    3    3    0    0 -0.29560824963E+02  0.63941677016E+03 -0.40306597031E+03  0.75643230018E+03  0.00000000000E+00 0. -1.
        -13    1    3    3    0    0 -0.23268237199E+02  0.13949130933E+03 -0.13689425483E+03  0.19682294898E+03  0.00000000000E+00 0.  1.
          2    1    6    6  502    0 -0.31493470590E+01 -0.33734094333E+02 -0.23004915754E+03  0.23253069129E+03  0.00000000000E+00 0. -1.
          1    1    5    5  503    0 -0.43311988708E+01 -0.11724719050E+03  0.27454123814E+02  0.12049643928E+03  0.00000000000E+00 0. -1.
         -2    1    5    5    0  503  0.14721391121E+03 -0.54267322158E+03  0.10938197998E+03  0.57282683127E+03  0.00000000000E+00 0.  1.
         -1    1    6    6    0  502 -0.86904303117E+02 -0.85253573074E+02 -0.30717741961E+03  0.33042169532E+03  0.00000000000E+00 0.  1.
<mgrwt>
<rscale>  0 0.19994418E+04</rscale>
<asrwt>0</asrwt>
<pdfrwt beam="1">  1        2 0.24229858E+00 0.19994418E+04</pdfrwt>
<pdfrwt beam="2">  1       -2 0.97629248E-01 0.19994418E+04</pdfrwt>
<totfact> 0.93559102E+00</totfact>
</mgrwt>
</event>
<event>
12    1  0.2048318E-007  0.2331850E+04  0.7818608E-02  0.8465468E-01
          2   -1    0    0  501    0  0.00000000000E+00  0.00000000000E+00  0.18526820526E+04  0.18526820526E+04  0.00000000000E+00 0. -1.
         -2   -1    0    0    0  501 -0.00000000000E+00 -0.00000000000E+00 -0.73373695425E+03  0.73373695425E+03  0.00000000000E+00 0.  1.
         23    2    1    2    0    0 -0.95068058808E+03 -0.20892212224E+03  0.67577286637E+03  0.11884859446E+04  0.91585150422E+02 0.  0.
        254    2    1    2    0    0  0.95068058808E+03  0.20892212224E+03  0.44317223202E+03  0.13979330623E+04  0.90020730158E+03 0.  0.
        -24    2    4    4    0    0  0.39940991168E+03  0.93999634264E+02  0.66710951910E+03  0.78670396998E+03  0.74187715451E+02 0.  0.
         24    2    4    4    0    0  0.55127067640E+03  0.11492248798E+03 -0.22393728709E+03  0.61122909235E+03  0.79665286561E+02 0.  0.
         11    1    3    3    0    0 -0.96940255930E+02 -0.30616191013E+02  0.10504885799E+03  0.14618490667E+03  0.00000000000E+00 0. -1.
        -11    1    3    3    0    0 -0.85374033215E+03 -0.17830593123E+03  0.57072400837E+03  0.10423010379E+04  0.00000000000E+00 0.  1.
          4    1    6    6  502    0  0.12112271659E+03  0.42633050625E+02 -0.82779499950E+02  0.15277674919E+03  0.00000000000E+00 0. -1.
          1    1    5    5  503    0  0.39685671093E+03  0.86051427903E+02  0.63673402317E+03  0.75520216731E+03  0.00000000000E+00 0. -1.
         -2    1    5    5    0  503  0.25532007509E+01  0.79482063610E+01  0.30375495929E+02  0.31501802669E+02  0.00000000000E+00 0.  1.
         -3    1    6    6    0  502  0.43014795981E+03  0.72289437352E+02 -0.14115778713E+03  0.45845234316E+03  0.00000000000E+00 0.  1.
<mgrwt>
<rscale>  0 0.23318502E+04</rscale>
<asrwt>0</asrwt>
<pdfrwt beam="1">  1        2 0.28502801E+00 0.23318502E+04</pdfrwt>
<pdfrwt beam="2">  1       -2 0.11288261E+00 0.23318502E+04</pdfrwt>
<totfact> 0.45008689E+00</totfact>
</mgrwt>
</event>
<event>
12    1  0.2048318E-007  0.1757372E+04  0.7818608E-02  0.8729303E-01
         -2   -1    0    0    0  501 -0.00000000000E+00  0.00000000000E+00  0.62688275495E+03  0.62688275495E+03  0.00000000000E+00 0.  1.
          2   -1    0    0  501    0  0.00000000000E+00 -0.00000000000E+00 -0.12316326335E+04  0.12316326335E+04  0.00000000000E+00 0. -1.
         23    2    1    2    0    0  0.91795054012E+02  0.21745011088E+03 -0.85506996500E+03  0.89176140301E+03  0.91558026444E+02 0.  0.
        254    2    1    2    0    0 -0.91795054012E+02 -0.21745011088E+03  0.25032008647E+03  0.96675398540E+03  0.90346125536E+03 0.  0.
        -24    2    4    4    0    0 -0.14430881673E+03  0.13467909130E+03 -0.26207144037E+03  0.33766314396E+03  0.79821467744E+02 0.  0.
         24    2    4    4    0    0  0.52513762714E+02 -0.35212920218E+03  0.51239152684E+03  0.62909084144E+03  0.80358818462E+02 0.  0.
         13    1    3    3    0    0  0.10352750433E+03  0.16000102225E+03 -0.71389685428E+03  0.73889579092E+03  0.00000000000E+00 0. -1.
        -13    1    3    3    0    0 -0.11732450321E+02  0.57449088628E+02 -0.14117311071E+03  0.15286561210E+03  0.00000000000E+00 0.  1.
          4    1    6    6  502    0 -0.13494074472E+02 -0.13535297946E+03  0.22756541704E+03  0.26511985615E+03  0.00000000000E+00 0. -1.
          1    1    5    5  503    0  0.32631692450E+01 -0.90814395990E+00 -0.33534179365E+02  0.33704809518E+02  0.00000000000E+00 0. -1.
         -2    1    5    5    0  503 -0.14757198597E+03  0.13558723526E+03 -0.22853726101E+03  0.30395833444E+03  0.00000000000E+00 0.  1.
         -3    1    6    6    0  502  0.66007837187E+02 -0.21677622272E+03  0.28482610981E+03  0.36397098529E+03  0.00000000000E+00 0.  1.
<mgrwt>
<rscale>  0 0.17573722E+04</rscale>
<asrwt>0</asrwt>
<pdfrwt beam="1">  1        2 0.18948194E+00 0.17573722E+04</pdfrwt>
<pdfrwt beam="2">  1       -2 0.96443501E-01 0.17573722E+04</pdfrwt>
<totfact> 0.15458317E+01</totfact>
</mgrwt>
</event>
<event>
12    1  0.2048318E-007  0.2669220E+04  0.7818608E-02  0.8345061E-01
         -2   -1    0    0    0  501 -0.00000000000E+00  0.00000000000E+00  0.21548110834E+04  0.21548110834E+04  0.00000000000E+00 0.  1.
          2   -1    0    0  501    0  0.00000000000E+00 -0.00000000000E+00 -0.82660819223E+03  0.82660819223E+03  0.00000000000E+00 0. -1.
         23    2    1    2    0    0  0.54743761624E+03  0.61433754533E+03 -0.35751830601E+03  0.90154374904E+03  0.88674849971E+02 0.  0.
        254    2    1    2    0    0 -0.54743761624E+03 -0.61433754533E+03  0.16857211972E+04  0.20798755266E+04  0.89840285409E+03 0.  0.
        -24    2    4    4    0    0 -0.55892304826E+03  0.32634045523E+02  0.74910527921E+03  0.93861378790E+03  0.79857176825E+02 0.  0.
         24    2    4    4    0    0  0.11485432019E+02 -0.64697159085E+03  0.93661591800E+03  0.11412617387E+04  0.80776382098E+02 0.  0.
         13    1    3    3    0    0  0.77001634622E+02  0.77674743196E+02 -0.81340713367E+02  0.13630454547E+03  0.00000000000E+00 0. -1.
        -13    1    3    3    0    0  0.47043598162E+03  0.53666280214E+03 -0.27617759265E+03  0.76523920357E+03  0.00000000000E+00 0.  1.
          2    1    6    6  502    0  0.14572294578E+02 -0.53694958488E+03  0.72004983218E+03  0.89833121358E+03  0.00000000000E+00 0. -1.
          3    1    5    5  503    0 -0.49304559358E+03  0.59725997636E+01  0.63145700125E+03  0.80116638330E+03  0.00000000000E+00 0. -1.
         -4    1    5    5    0  503 -0.65877454677E+02  0.26661445759E+02  0.11764827795E+03  0.13744740459E+03  0.00000000000E+00 0.  1.
         -1    1    6    6    0  502 -0.30868625587E+01 -0.11002200597E+03  0.21656608582E+03  0.24293052514E+03  0.00000000000E+00 0.  1.
<mgrwt>
<rscale>  0 0.26692205E+04</rscale>
<asrwt>0</asrwt>
<pdfrwt beam="1">  1        2 0.12717049E+00 0.26692205E+04</pdfrwt>
<pdfrwt beam="2">  1       -2 0.33150940E+00 0.26692205E+04</pdfrwt>
<totfact> 0.58908306E-01</totfact>
</mgrwt>
</event>
<event>
12    1  0.2048318E-007  0.2603755E+04  0.7818608E-02  0.8366927E-01
          2   -1    0    0  501    0  0.00000000000E+00  0.00000000000E+00  0.22175215947E+04  0.22175215947E+04  0.00000000000E+00 0. -1.
         -2   -1    0    0    0  501 -0.00000000000E+00 -0.00000000000E+00 -0.76431521350E+03  0.76431521350E+03  0.00000000000E+00 0.  1.
         23    2    1    2    0    0  0.11213551491E+04 -0.23062776635E+03  0.63388477188E+03  0.13116886824E+04  0.89948643002E+02 0.  0.
        254    2    1    2    0    0 -0.11213551491E+04  0.23062776635E+03  0.81932160935E+03  0.16701481259E+04  0.89859909066E+03 0.  0.
        -24    2    4    4    0    0 -0.48261881118E+03  0.55091601055E+03  0.41582448573E+03  0.84574053074E+03  0.77056309381E+02 0.  0.
         24    2    4    4    0    0 -0.63873633793E+03 -0.32028824420E+03  0.40349712362E+03  0.82440759513E+03  0.79178818889E+02 0.  0.
         11    1    3    3    0    0  0.41924268858E+03 -0.98290316514E+02  0.19090856920E+03  0.47103237685E+03  0.00000000000E+00 0. -1.
        -11    1    3    3    0    0  0.70211246053E+03 -0.13233744984E+03  0.44297620268E+03  0.84065630551E+03  0.00000000000E+00 0.  1.
          2    1    6    6  502    0 -0.49600096826E+03 -0.23882799219E+03  0.34642473844E+03  0.65043513879E+03  0.00000000000E+00 0. -1.
          1    1    5    5  503    0 -0.46842689515E+03  0.51690629183E+03  0.38009043244E+03  0.79440833799E+03  0.00000000000E+00 0. -1.
         -2    1    5    5    0  503 -0.14191916027E+02  0.34009718723E+02  0.35734053283E+02  0.51332192746E+02  0.00000000000E+00 0.  1.
         -1    1    6    6    0  502 -0.14273536968E+03 -0.81460252011E+02  0.57072385181E+02  0.17397245634E+03  0.00000000000E+00 0.  1.
<mgrwt>
<rscale>  0 0.26037554E+04</rscale>
<asrwt>0</asrwt>
<pdfrwt beam="1">  1        2 0.34115716E+00 0.26037554E+04</pdfrwt>
<pdfrwt beam="2">  1       -2 0.11758696E+00 0.26037554E+04</pdfrwt>
<totfact> 0.24921751E+00</totfact>
</mgrwt>
</event>
<event>
12    1  0.2048318E-007  0.1418481E+04  0.7818608E-02  0.8940549E-01
         -2   -1    0    0    0  501 -0.00000000000E+00  0.00000000000E+00  0.96563750926E+03  0.96563750926E+03  0.00000000000E+00 0.  1.
          2   -1    0    0  501    0  0.00000000000E+00 -0.00000000000E+00 -0.52092235286E+03  0.52092235286E+03  0.00000000000E+00 0. -1.
         23    2    1    2    0    0 -0.21230196326E+03  0.19418798390E+03  0.44500650285E+03  0.53717288431E+03  0.87993314349E+02 0.  0.
        254    2    1    2    0    0  0.21230196326E+03 -0.19418798390E+03 -0.29134644326E+00  0.94938697781E+03  0.90473999141E+03 0.  0.
        -24    2    4    4    0    0  0.43383337627E+03 -0.11835604142E+03  0.31046744452E+03  0.55222973076E+03  0.79674905208E+02 0.  0.
         24    2    4    4    0    0 -0.22153141301E+03 -0.75831942482E+02 -0.31075879097E+03  0.39715724705E+03  0.79600265498E+02 0.  0.
         11    1    3    3    0    0 -0.19706671032E+03  0.17920823570E+03  0.44134392814E+03  0.51549524049E+03  0.00000000000E+00 0.  1.
        -11    1    3    3    0    0 -0.15235252938E+02  0.14979748206E+02  0.36625747067E+01  0.21677643827E+02  0.00000000000E+00 0. -1.
          4    1    6    6  502    0 -0.21375402013E+03 -0.88854334028E+02 -0.28391468154E+03  0.36632420093E+03  0.00000000000E+00 0. -1.
          3    1    5    5  503    0  0.29542217787E+03 -0.44261969507E+02  0.22046380173E+03  0.37126496333E+03  0.00000000000E+00 0. -1.
         -4    1    5    5    0  503  0.13841119840E+03 -0.74094071915E+02  0.90003642789E+02  0.18096476743E+03  0.00000000000E+00 0.  1.
         -3    1    6    6    0  502 -0.77773928839E+01  0.13022391546E+02 -0.26844109430E+02  0.30833046115E+02  0.00000000000E+00 0.  1.
<mgrwt>
<rscale>  0 0.14184811E+04</rscale>
<asrwt>0</asrwt>
<pdfrwt beam="1">  1        2 0.80141901E-01 0.14184811E+04</pdfrwt>
<pdfrwt beam="2">  1       -2 0.14855962E+00 0.14184811E+04</pdfrwt>
<totfact> 0.17522557E+01</totfact>
</mgrwt>
</event>
<event>
12    1  0.2048318E-007  0.1558213E+04  0.7818608E-02  0.8846639E-01
         -2   -1    0    0    0  501 -0.00000000000E+00  0.00000000000E+00  0.18915430606E+03  0.18915430606E+03  0.00000000000E+00 0.  1.
          2   -1    0    0  501    0  0.00000000000E+00 -0.00000000000E+00 -0.32090559186E+04  0.32090559186E+04  0.00000000000E+00 0. -1.
         23    2    1    2    0    0 -0.23247440701E+03  0.20890104393E+03 -0.19018004435E+04  0.19296169615E+04  0.94301086472E+02 0.  0.
        254    2    1    2    0    0  0.23247440701E+03 -0.20890104393E+03 -0.11181011689E+04  0.14685932631E+04  0.89940644450E+03 0.  0.
        -24    2    4    4    0    0 -0.17554736691E+03 -0.38664939398E+03 -0.27731453017E+03  0.51389715337E+03  0.82899358875E+02 0.  0.
         24    2    4    4    0    0  0.40802177392E+03  0.17774835005E+03 -0.84078663878E+03  0.95469610976E+03  0.80288517821E+02 0.  0.
         11    1    3    3    0    0 -0.22926444718E+02 -0.85555537271E+01 -0.14341735180E+03  0.14549005520E+03  0.00000000000E+00 0.  1.
        -11    1    3    3    0    0 -0.20954796229E+03  0.21745659766E+03 -0.17583830918E+04  0.17841269063E+04  0.00000000000E+00 0. -1.
          4    1    6    6  502    0  0.27967625126E+03  0.89240249395E+02 -0.49734706799E+03  0.57752639219E+03  0.00000000000E+00 0. -1.
          1    1    5    5  503    0 -0.97853161039E+02 -0.15848089716E+03 -0.81320013953E+02  0.20323479170E+03  0.00000000000E+00 0. -1.
         -2    1    5    5    0  503 -0.77694205869E+02 -0.22816849682E+03 -0.19599451621E+03  0.31066236166E+03  0.00000000000E+00 0.  1.
         -3    1    6    6    0  502  0.12834552266E+03  0.88508100656E+02 -0.34343957079E+03  0.37716971757E+03  0.00000000000E+00 0.  1.
<mgrwt>
<rscale>  0 0.15582128E+04</rscale>
<asrwt>0</asrwt>
<pdfrwt beam="1">  1        2 0.49370089E+00 0.15582128E+04</pdfrwt>
<pdfrwt beam="2">  1       -2 0.29100663E-01 0.15582128E+04</pdfrwt>
<totfact> 0.13473972E+01</totfact>
</mgrwt>
</event>
<event>
12    1  0.2048318E-007  0.2062186E+04  0.7818608E-02  0.8578086E-01
          2   -1    0    0  501    0  0.00000000000E+00  0.00000000000E+00  0.27353230705E+04  0.27353230705E+04  0.00000000000E+00 0.  1.
         -2   -1    0    0    0  501 -0.00000000000E+00 -0.00000000000E+00 -0.38867541729E+03  0.38867541729E+03  0.00000000000E+00 0. -1.
         23    2    1    2    0    0 -0.90361468797E+02  0.66120506417E+03  0.17002364360E+04  0.18287891965E+04  0.91151823681E+02 0.  0.
        254    2    1    2    0    0  0.90361468797E+02 -0.66120506417E+03  0.64641121725E+03  0.12952092913E+04  0.90242025391E+03 0.  0.
        -24    2    4    4    0    0  0.15885197499E+03 -0.86846658860E+03  0.45799770773E+03  0.99790155115E+03  0.81101418147E+02 0.  0.
         24    2    4    4    0    0 -0.68490506192E+02  0.20726152443E+03  0.18841350952E+03  0.29730774019E+03  0.72415142497E+02 0.  0.
         13    1    3    3    0    0 -0.55999097796E+02  0.47700148049E+03  0.11079205548E+04  0.12075405861E+04  0.00000000000E+00 0. -1.
        -13    1    3    3    0    0 -0.34362371001E+02  0.18420358368E+03  0.59231588117E+03  0.62124861035E+03  0.00000000000E+00 0.  1.
          4    1    6    6  502    0 -0.27609980316E+02  0.12576808672E+02  0.33317728081E+02  0.45061714724E+02  0.00000000000E+00 0. -1.
          1    1    5    5  503    0  0.11937578158E+03 -0.43261860846E+03  0.22201171740E+03  0.50069815286E+03  0.00000000000E+00 0. -1.
         -2    1    5    5    0  503  0.39476193411E+02 -0.43584798014E+03  0.23598599033E+03  0.49720339829E+03  0.00000000000E+00 0.  1.
         -3    1    6    6    0  502 -0.40880525876E+02  0.19468471576E+03  0.15509578144E+03  0.25224602547E+03  0.00000000000E+00 0.  1.
<mgrwt>
<rscale>  0 0.20621861E+04</rscale>
<asrwt>0</asrwt>
<pdfrwt beam="1">  1        2 0.42081892E+00 0.20621861E+04</pdfrwt>
<pdfrwt beam="2">  1       -2 0.59796220E-01 0.20621861E+04</pdfrwt>
<totfact> 0.61057913E+00</totfact>
</mgrwt>
</event>
<event>
12    1  0.2048318E-007  0.2179686E+04  0.7818608E-02  0.8526931E-01
          1   -1    0    0  501    0  0.00000000000E+00  0.00000000000E+00  0.28794424322E+04  0.28794424322E+04  0.00000000000E+00 0. -1.
         -1   -1    0    0    0  501 -0.00000000000E+00 -0.00000000000E+00 -0.41249563576E+03  0.41249563576E+03  0.00000000000E+00 0.  1.
         23    2    1    2    0    0  0.45691294669E+02 -0.60229146556E+03  0.20344329630E+04  0.21241125923E+04  0.89967329117E+02 0.  0.
        254    2    1    2    0    0 -0.45691294669E+02  0.60229146556E+03  0.43251383352E+03  0.11678254756E+04  0.90105794569E+03 0.  0.
        -24    2    4    4    0    0 -0.35257564598E+03  0.56203527499E+02 -0.54582215520E+02  0.37054088699E+03  0.82782293037E+02 0.  0.
         24    2    4    4    0    0  0.30688435131E+03  0.54608793806E+03  0.48709604904E+03  0.79728458865E+03  0.77524919456E+02 0.  0.
         13    1    3    3    0    0  0.68319736040E+02 -0.48779502780E+03  0.15847890466E+04  0.16595685878E+04  0.00000000000E+00 0.  1.
        -13    1    3    3    0    0 -0.22628441371E+02 -0.11449643776E+03  0.44964391639E+03  0.46454400455E+03  0.00000000000E+00 0. -1.
          4    1    6    6  502    0  0.12459495349E+03  0.15098008122E+03  0.16270387741E+03  0.25454162545E+03  0.00000000000E+00 0. -1.
          3    1    5    5  503    0 -0.75909612584E+02  0.39274067009E+02 -0.35984822291E+02  0.92734184945E+02  0.00000000000E+00 0. -1.
         -4    1    5    5    0  503 -0.27666603340E+03  0.16929460490E+02 -0.18597393229E+02  0.27780670205E+03  0.00000000000E+00 0.  1.
         -3    1    6    6    0  502  0.18228939782E+03  0.39510785684E+03  0.32439217163E+03  0.54274296320E+03  0.00000000000E+00 0.  1.
<mgrwt>
<rscale>  0 0.21796857E+04</rscale>
<asrwt>0</asrwt>
<pdfrwt beam="1">  1        1 0.44299113E+00 0.21796857E+04</pdfrwt>
<pdfrwt beam="2">  1       -1 0.63460869E-01 0.21796857E+04</pdfrwt>
<totfact> 0.16825646E+00</totfact>
</mgrwt>
</event>
<event>
12    1  0.2048318E-007  0.2919789E+04  0.7818608E-02  0.8267014E-01
          2   -1    0    0  501    0  0.00000000000E+00  0.00000000000E+00  0.31772217807E+04  0.31772217807E+04  0.00000000000E+00 0. -1.
         -2   -1    0    0    0  501 -0.00000000000E+00 -0.00000000000E+00 -0.67080356412E+03  0.67080356412E+03  0.00000000000E+00 0.  1.
         23    2    1    2    0    0  0.42250801311E+03  0.79998881447E+03 -0.13080514398E+03  0.91861470274E+03  0.90817740418E+02 0.  0.
        254    2    1    2    0    0 -0.42250801311E+03 -0.79998881447E+03  0.26372233605E+04  0.29294106421E+04  0.89889072307E+03 0.  0.
        -24    2    4    4    0    0  0.62372840611E+02  0.15898468789E+03  0.27330285167E+03  0.33149187760E+03  0.77626760559E+02 0.  0.
         24    2    4    4    0    0 -0.48488085372E+03 -0.95897350236E+03  0.23639205089E+04  0.25979187645E+04  0.79511722058E+02 0.  0.
         11    1    3    3    0    0  0.29233375094E+03  0.46142171950E+03 -0.67188395305E+02  0.55034834935E+03  0.00000000000E+00 0.  1.
        -11    1    3    3    0    0  0.13017426217E+03  0.33856709497E+03 -0.63616748671E+02  0.36826635339E+03  0.00000000000E+00 0. -1.
          4    1    6    6  502    0 -0.33193904743E+03 -0.67696464136E+03  0.17407742696E+04  0.18970397240E+04  0.00000000000E+00 0. -1.
          3    1    5    5  503    0  0.46437176504E+02  0.15972333207E+03  0.21969644855E+03  0.27556212307E+03  0.00000000000E+00 0. -1.
         -4    1    5    5    0  503  0.15935664107E+02 -0.73864417741E+00  0.53606403121E+02  0.55929754526E+02  0.00000000000E+00 0.  1.
         -3    1    6    6    0  502 -0.15294180629E+03 -0.28200886100E+03  0.62314623930E+03  0.70087904046E+03  0.00000000000E+00 0.  1.
<mgrwt>
<rscale>  0 0.29197888E+04</rscale>
<asrwt>0</asrwt>
<pdfrwt beam="1">  1        2 0.48880334E+00 0.29197888E+04</pdfrwt>
<pdfrwt beam="2">  1       -2 0.10320055E+00 0.29197888E+04</pdfrwt>
<totfact> 0.88537248E-01</totfact>
</mgrwt>
</event>
<event>
12    1  0.2048318E-007  0.3071384E+04  0.7818608E-02  0.8223635E-01
          2   -1    0    0  501    0  0.00000000000E+00  0.00000000000E+00  0.33114494403E+04  0.33114494403E+04  0.00000000000E+00 0. -1.
         -2   -1    0    0    0  501 -0.00000000000E+00 -0.00000000000E+00 -0.71218072141E+03  0.71218072141E+03  0.00000000000E+00 0.  1.
         23    2    1    2    0    0  0.24715429828E+03  0.11837572697E+04  0.21217838300E+04  0.24439041899E+04  0.91293741757E+02 0.  0.
        254    2    1    2    0    0 -0.24715429828E+03 -0.11837572697E+04  0.47748488887E+03  0.15797259718E+04  0.89731588981E+03 0.  0.
        -24    2    4    4    0    0  0.26794010246E+03 -0.12211123273E+03  0.19995523513E+03  0.36485241255E+03  0.80200593631E+02 0.  0.
         24    2    4    4    0    0 -0.51509440074E+03 -0.10616460370E+04  0.27752965374E+03  0.12148735593E+04  0.80501594703E+02 0.  0.
         13    1    3    3    0    0  0.62465271481E+01  0.18259552732E+03  0.33899559985E+03  0.38509500440E+03  0.00000000000E+00 0.  1.
        -13    1    3    3    0    0  0.24090777113E+03  0.10011617424E+04  0.17827882302E+04  0.20588091855E+04  0.00000000000E+00 0. -1.
          2    1    6    6  502    0 -0.19992231983E+03 -0.33659916136E+03  0.11118849754E+03  0.40697765465E+03  0.00000000000E+00 0. -1.
          3    1    5    5  503    0  0.13623997688E+03 -0.69958041350E+02  0.56481178515E+02  0.16323474623E+03  0.00000000000E+00 0. -1.
         -4    1    5    5    0  503  0.13170012558E+03 -0.52153191385E+02  0.14347405662E+03  0.20161766632E+03  0.00000000000E+00 0.  1.
         -1    1    6    6    0  502 -0.31517208091E+03 -0.72504687563E+03  0.16634115619E+03  0.80789590461E+03  0.00000000000E+00 0.  1.
<mgrwt>
<rscale>  0 0.30713843E+04</rscale>
<asrwt>0</asrwt>
<pdfrwt beam="1">  1        2 0.50945375E+00 0.30713843E+04</pdfrwt>
<pdfrwt beam="2">  1       -2 0.10956627E+00 0.30713843E+04</pdfrwt>
<totfact> 0.61724509E-01</totfact>
</mgrwt>
</event>
<event>
12    1  0.2048318E-007  0.1275211E+04  0.7818608E-02  0.9049457E-01
         -1   -1    0    0    0  501 -0.00000000000E+00  0.00000000000E+00  0.10143534858E+04  0.10143534858E+04  0.00000000000E+00 0.  1.
          1   -1    0    0  501    0  0.00000000000E+00 -0.00000000000E+00 -0.40078814213E+03  0.40078814213E+03  0.00000000000E+00 0. -1.
         23    2    1    2    0    0  0.13910429898E+03  0.23120396327E+03 -0.15682352248E+02  0.28458530604E+03  0.89093106455E+02 0.  0.
        254    2    1    2    0    0 -0.13910429898E+03 -0.23120396327E+03  0.62924769590E+03  0.11305563219E+04  0.89966641346E+03 0.  0.
        -24    2    4    4    0    0 -0.96804255747E+02  0.27016825421E+03  0.53522374567E+03  0.61300339073E+03  0.83347163154E+02 0.  0.
         24    2    4    4    0    0 -0.42300043230E+02 -0.50137221748E+03  0.94023950230E+02  0.51755293114E+03  0.76531948893E+02 0.  0.
         13    1    3    3    0    0  0.92934580176E+02  0.20956440028E+03  0.56427865156E+01  0.22931619022E+03  0.00000000000E+00 0. -1.
        -13    1    3    3    0    0  0.46169718801E+02  0.21639562989E+02 -0.21325138764E+02  0.55269115822E+02  0.00000000000E+00 0.  1.
          4    1    6    6  502    0 -0.52905934609E+02 -0.21786504133E+03  0.25118270529E+02  0.22559951610E+03  0.00000000000E+00 0. -1.
          1    1    5    5  503    0 -0.10097583274E+02  0.25789248897E+02  0.12242052846E+03  0.12551427144E+03  0.00000000000E+00 0. -1.
         -2    1    5    5    0  503 -0.86706672474E+02  0.24437900531E+03  0.41280321721E+03  0.48748911929E+03  0.00000000000E+00 0.  1.
         -1    1    6    6    0  502  0.10605891380E+02 -0.28350717614E+03  0.68905679701E+02  0.29195341504E+03  0.00000000000E+00 0.  1.
<mgrwt>
<rscale>  0 0.12752111E+04</rscale>
<asrwt>0</asrwt>
<pdfrwt beam="1">  1        1 0.61659715E-01 0.12752111E+04</pdfrwt>
<pdfrwt beam="2">  1       -1 0.15605438E+00 0.12752111E+04</pdfrwt>
<totfact> 0.18449557E+01</totfact>
</mgrwt>
</event>
<event>
12    1  0.2048318E-007  0.1460647E+04  0.7818608E-02  0.8911052E-01
          1   -1    0    0  501    0  0.00000000000E+00  0.00000000000E+00  0.12549360733E+04  0.12549360733E+04  0.00000000000E+00 0. -1.
         -1   -1    0    0    0  501 -0.00000000000E+00 -0.00000000000E+00 -0.42501962089E+03  0.42501962089E+03  0.00000000000E+00 0.  1.
         23    2    1    2    0    0  0.20458947738E+03 -0.96383798419E+02 -0.18303309323E+03  0.30567821620E+03  0.93762294091E+02 0.  0.
        254    2    1    2    0    0 -0.20458947738E+03  0.96383798419E+02  0.10129495456E+04  0.13742774780E+04  0.90079138186E+03 0.  0.
        -24    2    4    4    0    0 -0.91016920525E+02 -0.75710232063E+02 -0.14044571969E+03  0.19996847575E+03  0.79033360393E+02 0.  0.
         24    2    4    4    0    0 -0.11357255685E+03  0.17209403048E+03  0.11533952653E+04  0.11743090022E+04  0.78523331813E+02 0.  0.
         11    1    3    3    0    0  0.25293435465E+02  0.18824240866E+02 -0.19827374886E+02  0.37245599964E+02  0.00000000000E+00 0. -1.
        -11    1    3    3    0    0  0.17929604192E+03 -0.11520803928E+03 -0.16320571834E+03  0.26843261624E+03  0.00000000000E+00 0.  1.
          4    1    6    6  502    0  0.18548991344E+01  0.50478023976E+01  0.30523289242E+01  0.61836616746E+01  0.00000000000E+00 0. -1.
          1    1    5    5  503    0 -0.36242154616E+02 -0.28337726278E+01 -0.49936975233E+01  0.36694155577E+02  0.00000000000E+00 0. -1.
         -2    1    5    5    0  503 -0.54774765909E+02 -0.72876459435E+02 -0.13545202217E+03  0.16327432018E+03  0.00000000000E+00 0.  1.
         -3    1    6    6    0  502 -0.11542745599E+03  0.16704622808E+03  0.11503429364E+04  0.11681253406E+04  0.00000000000E+00 0.  1.
<mgrwt>
<rscale>  0 0.14606471E+04</rscale>
<asrwt>0</asrwt>
<pdfrwt beam="1">  1        1 0.19306709E+00 0.14606471E+04</pdfrwt>
<pdfrwt beam="2">  1       -1 0.65387634E-01 0.14606471E+04</pdfrwt>
<totfact> 0.22425031E+01</totfact>
</mgrwt>
</event>
<event>
12    1  0.2048318E-007  0.1848439E+04  0.7818608E-02  0.8680956E-01
          2   -1    0    0  501    0  0.00000000000E+00  0.00000000000E+00  0.15546100305E+04  0.15546100305E+04  0.00000000000E+00 0.  1.
         -2   -1    0    0    0  501 -0.00000000000E+00 -0.00000000000E+00 -0.54945057303E+03  0.54945057303E+03  0.00000000000E+00 0. -1.
         23    2    1    2    0    0 -0.65852174970E+03 -0.77733663622E+02  0.64294744434E+03  0.92800636888E+03  0.90116520184E+02 0.  0.
        254    2    1    2    0    0  0.65852174970E+03  0.77733663622E+02  0.36221201316E+03  0.11760542347E+04  0.90122838566E+03 0.  0.
        -24    2    4    4    0    0  0.42227236423E+03  0.37367866879E+03  0.50834233420E+03  0.76321128932E+03  0.78293335023E+02 0.  0.
         24    2    4    4    0    0  0.23624938547E+03 -0.29594500517E+03 -0.14613032104E+03  0.41284294535E+03  0.75418887424E+02 0.  0.
         11    1    3    3    0    0 -0.14998402847E+03 -0.46770713594E+02  0.11809908208E+03  0.19654541876E+03  0.00000000000E+00 0.  1.
        -11    1    3    3    0    0 -0.50853772124E+03 -0.30962950028E+02  0.52484836226E+03  0.73146095013E+03  0.00000000000E+00 0. -1.
          4    1    6    6  502    0  0.15541237768E+03 -0.18674026160E+03 -0.54572473272E+02  0.24900419129E+03  0.00000000000E+00 0. -1.
          1    1    5    5  503    0  0.40143589727E+03  0.34716264349E+03  0.49837583640E+03  0.72804612145E+03  0.00000000000E+00 0. -1.
         -2    1    5    5    0  503  0.20836466958E+02  0.26516025303E+02  0.99664978017E+01  0.35165167874E+02  0.00000000000E+00 0.  1.
         -3    1    6    6    0  502  0.80837007790E+02 -0.10920474357E+03 -0.91557847766E+02  0.16383875407E+03  0.00000000000E+00 0.  1.
<mgrwt>
<rscale>  0 0.18484387E+04</rscale>
<asrwt>0</asrwt>
<pdfrwt beam="1">  1        2 0.23917077E+00 0.18484387E+04</pdfrwt>
<pdfrwt beam="2">  1       -2 0.84530858E-01 0.18484387E+04</pdfrwt>
<totfact> 0.13569533E+01</totfact>
</mgrwt>
</event>
<event>
12    1  0.2048318E-007  0.2364474E+04  0.7818608E-02  0.8452925E-01
         -2   -1    0    0    0  501 -0.00000000000E+00  0.00000000000E+00  0.29948046018E+03  0.29948046018E+03  0.00000000000E+00 0. -1.
          2   -1    0    0  501    0  0.00000000000E+00 -0.00000000000E+00 -0.46670286550E+04  0.46670286550E+04  0.00000000000E+00 0.  1.
         23    2    1    2    0    0 -0.79022704107E+02 -0.30499073092E+03  0.14137546239E+03  0.35779385378E+03  0.93624178100E+02 0.  0.
        254    2    1    2    0    0  0.79022704107E+02  0.30499073092E+03 -0.45089236572E+04  0.46087152614E+04  0.90033320525E+03 0.  0.
        -24    2    4    4    0    0  0.12546995990E+03 -0.13438866751E+02 -0.39911953859E+04  0.39940063680E+04  0.80764754761E+02 0.  0.
         24    2    4    4    0    0 -0.46447255791E+02  0.31842959767E+03 -0.51772827129E+03  0.61470889335E+03  0.79181465103E+02 0.  0.
         11    1    3    3    0    0 -0.14268535849E+02 -0.22031559067E+03  0.80219024846E+02  0.23489921787E+03  0.00000000000E+00 0.  1.
        -11    1    3    3    0    0 -0.64754168258E+02 -0.84675140254E+02  0.61156437541E+02  0.12289463591E+03  0.00000000000E+00 0. -1.
          4    1    6    6  502    0 -0.67463119182E+02  0.20239748147E+03 -0.32503676004E+03  0.38879931627E+03  0.00000000000E+00 0. -1.
          3    1    5    5  503    0  0.13019126277E+03 -0.10551300817E+02 -0.30510114895E+04  0.30538061831E+04  0.00000000000E+00 0. -1.
         -4    1    5    5    0  503 -0.47213028667E+01 -0.28875659336E+01 -0.94018389635E+03  0.94020018490E+03  0.00000000000E+00 0.  1.
         -3    1    6    6    0  502  0.21015863391E+02  0.11603211620E+03 -0.19269151126E+03  0.22590957708E+03  0.00000000000E+00 0.  1.
<mgrwt>
<rscale>  0 0.23644736E+04</rscale>
<asrwt>0</asrwt>
<pdfrwt beam="1">  1        2 0.71800436E+00 0.23644736E+04</pdfrwt>
<pdfrwt beam="2">  1       -2 0.46073920E-01 0.23644736E+04</pdfrwt>
<totfact> 0.33849412E-01</totfact>
</mgrwt>
</event>
<event>
12    1  0.2048318E-007  0.2943719E+04  0.7818608E-02  0.8259987E-01
         -1   -1    0    0    0  501 -0.00000000000E+00  0.00000000000E+00  0.86212980424E+03  0.86212980424E+03  0.00000000000E+00 0.  1.
          1   -1    0    0  501    0  0.00000000000E+00 -0.00000000000E+00 -0.25128116173E+04  0.25128116173E+04  0.00000000000E+00 0. -1.
         23    2    1    2    0    0  0.39455925281E+03 -0.12580589624E+04 -0.97127308716E+03  0.16401504092E+04  0.91283065890E+02 0.  0.
        254    2    1    2    0    0 -0.39455925281E+03  0.12580589624E+04 -0.67940872594E+03  0.17347910124E+04  0.89973011679E+03 0.  0.
        -24    2    4    4    0    0  0.27224526298E+03  0.40865876853E+03 -0.33049684419E+03  0.59722752120E+03  0.79580624204E+02 0.  0.
         24    2    4    4    0    0 -0.66680451579E+03  0.84940019383E+03 -0.34891188174E+03  0.11375634912E+04  0.78754325011E+02 0.  0.
         13    1    3    3    0    0  0.30776070979E+03 -0.86521096865E+03 -0.70440350378E+03  0.11573638023E+04  0.00000000000E+00 0. -1.
        -13    1    3    3    0    0  0.86798543026E+02 -0.39284799371E+03 -0.26686958338E+03  0.48278660687E+03  0.00000000000E+00 0.  1.
          4    1    6    6  502    0 -0.44210933926E+03  0.60201388775E+03 -0.21209056907E+03  0.77644304260E+03  0.00000000000E+00 0. -1.
          3    1    5    5  503    0  0.23295589826E+03  0.36129121499E+03 -0.25499642061E+03  0.49982293574E+03  0.00000000000E+00 0. -1.
         -4    1    5    5    0  503  0.39289364720E+02  0.47367553537E+02 -0.75500423588E+02  0.97404585468E+02  0.00000000000E+00 0.  1.
         -3    1    6    6    0  502 -0.22469517653E+03  0.24738630608E+03 -0.13682131267E+03  0.36112044859E+03  0.00000000000E+00 0.  1.
<mgrwt>
<rscale>  0 0.29437186E+04</rscale>
<asrwt>0</asrwt>
<pdfrwt beam="1">  1        1 0.38658640E+00 0.29437186E+04</pdfrwt>
<pdfrwt beam="2">  1       -1 0.13263536E+00 0.29437186E+04</pdfrwt>
<totfact> 0.54678653E-01</totfact>
</mgrwt>
</event>
<event>
12    1  0.2048318E-007  0.2411865E+04  0.7818608E-02  0.8435075E-01
         -1   -1    0    0    0  501 -0.00000000000E+00  0.00000000000E+00  0.11531642676E+04  0.11531642676E+04  0.00000000000E+00 0.  1.
          1   -1    0    0  501    0  0.00000000000E+00 -0.00000000000E+00 -0.12611157223E+04  0.12611157223E+04  0.00000000000E+00 0. -1.
         23    2    1    2    0    0 -0.88584922711E+03 -0.18790581923E+03 -0.54823869375E+03  0.10624317251E+04  0.90321953053E+02 0.  0.
        254    2    1    2    0    0  0.88584922711E+03  0.18790581923E+03  0.44028723904E+03  0.13518482647E+04  0.90199968288E+03 0.  0.
        -24    2    4    4    0    0  0.82564258940E+03  0.48132958577E+03  0.40062534151E+03  0.10390587012E+04  0.76016213706E+02 0.  0.
         24    2    4    4    0    0  0.60206637705E+02 -0.29342376655E+03  0.39661897528E+02  0.31278956350E+03  0.80882006160E+02 0.  0.
         11    1    3    3    0    0 -0.29411232768E+03 -0.83409288801E+02 -0.22924935403E+03  0.38211835480E+03  0.00000000000E+00 0. -1.
        -11    1    3    3    0    0 -0.59173689942E+03 -0.10449653042E+03 -0.31898933972E+03  0.68031337034E+03  0.00000000000E+00 0.  1.
          4    1    6    6  502    0  0.34912518353E+02 -0.24728415240E+03  0.50108969366E+01  0.24978679920E+03  0.00000000000E+00 0. -1.
          1    1    5    5  503    0  0.80256936938E+03  0.47021474113E+03  0.37526767863E+03  0.10030181085E+04  0.00000000000E+00 0. -1.
         -2    1    5    5    0  503  0.23073220024E+02  0.11114844646E+02  0.25357662886E+02  0.36040592681E+02  0.00000000000E+00 0.  1.
         -3    1    6    6    0  502  0.25294119352E+02 -0.46139614144E+02  0.34651000592E+02  0.63002764298E+02  0.00000000000E+00 0.  1.
<mgrwt>
<rscale>  0 0.24118653E+04</rscale>
<asrwt>0</asrwt>
<pdfrwt beam="1">  1        1 0.19401780E+00 0.24118653E+04</pdfrwt>
<pdfrwt beam="2">  1       -1 0.17740989E+00 0.24118653E+04</pdfrwt>
<totfact> 0.18763144E+00</totfact>
</mgrwt>
</event>
<event>
12    1  0.2048318E-007  0.2986519E+04  0.7818608E-02  0.8247591E-01
          2   -1    0    0  501    0  0.00000000000E+00  0.00000000000E+00  0.15400360315E+04  0.15400360315E+04  0.00000000000E+00 0. -1.
         -2   -1    0    0    0  501 -0.00000000000E+00 -0.00000000000E+00 -0.14479038627E+04  0.14479038627E+04  0.00000000000E+00 0.  1.
         23    2    1    2    0    0  0.39106468200E+03 -0.12872200721E+04 -0.12847306893E+03  0.13544740904E+04  0.90706299791E+02 0.  0.
        254    2    1    2    0    0 -0.39106468200E+03  0.12872200721E+04  0.22060523775E+03  0.16334658037E+04  0.89982040521E+03 0.  0.
        -24    2    4    4    0    0 -0.30584888040E+02  0.90539483836E+03 -0.22815151035E+03  0.93786302725E+03  0.82817253661E+02 0.  0.
         24    2    4    4    0    0 -0.36047979396E+03  0.38182523370E+03  0.44875674810E+03  0.69560277649E+03  0.82124373653E+02 0.  0.
         11    1    3    3    0    0  0.21856438968E+03 -0.85117961368E+03 -0.63681474885E+02  0.88109730304E+03  0.00000000000E+00 0.  1.
        -11    1    3    3    0    0  0.17250029232E+03 -0.43604045838E+03 -0.64791594041E+02  0.47337678740E+03  0.00000000000E+00 0. -1.
          4    1    6    6  502    0 -0.12913445831E+03  0.15160157238E+03  0.22171516064E+03  0.29802073339E+03  0.00000000000E+00 0. -1.
          1    1    5    5  503    0 -0.36100155970E+02  0.29338452912E+03 -0.44937909476E+02  0.29899350979E+03  0.00000000000E+00 0. -1.
         -2    1    5    5    0  503  0.55152679300E+01  0.61201030924E+03 -0.18321360088E+03  0.63886951746E+03  0.00000000000E+00 0.  1.
         -3    1    6    6    0  502 -0.23134533565E+03  0.23022366132E+03  0.22704158746E+03  0.39758204310E+03  0.00000000000E+00 0.  1.
<mgrwt>
<rscale>  0 0.29865191E+04</rscale>
<asrwt>0</asrwt>
<pdfrwt beam="1">  1        2 0.23692862E+00 0.29865191E+04</pdfrwt>
<pdfrwt beam="2">  1       -2 0.22275444E+00 0.29865191E+04</pdfrwt>
<totfact> 0.98059790E-01</totfact>
</mgrwt>
</event>
<event>
12    1  0.2048318E-007  0.1436489E+04  0.7818608E-02  0.8927821E-01
         -2   -1    0    0    0  501 -0.00000000000E+00  0.00000000000E+00  0.11694205631E+04  0.11694205631E+04  0.00000000000E+00 0. -1.
          2   -1    0    0  501    0  0.00000000000E+00 -0.00000000000E+00 -0.44113765150E+03  0.44113765150E+03  0.00000000000E+00 0.  1.
         23    2    1    2    0    0  0.10107456082E+03 -0.35229614504E+03  0.47022612508E+03  0.60332795764E+03  0.92538506079E+02 0.  0.
        254    2    1    2    0    0 -0.10107456082E+03  0.35229614504E+03  0.25805678656E+03  0.10072302570E+04  0.90199270776E+03 0.  0.
        -24    2    4    4    0    0  0.33624631479E+02 -0.29092321213E+03  0.15825953769E+02  0.30258709003E+03  0.74441621695E+02 0.  0.
         24    2    4    4    0    0 -0.13469919229E+03  0.64321935717E+03  0.24223083279E+03  0.70464316696E+03  0.77273556669E+02 0.  0.
         11    1    3    3    0    0  0.11440345531E+03 -0.32334613318E+03  0.40492828850E+03  0.53066730751E+03  0.00000000000E+00 0.  1.
        -11    1    3    3    0    0 -0.13328894499E+02 -0.28950011853E+02  0.65297836581E+02  0.72660650128E+02  0.00000000000E+00 0. -1.
          2    1    6    6  502    0  0.77115597844E+01  0.77020769268E+02  0.20030627683E+02  0.79955569527E+02  0.00000000000E+00 0. -1.
          3    1    5    5  503    0  0.18963602649E+02 -0.12113167621E+02 -0.32749193706E+01  0.22739220570E+02  0.00000000000E+00 0. -1.
         -4    1    5    5    0  503  0.14661028831E+02 -0.27881004451E+03  0.19100873139E+02  0.27984786946E+03  0.00000000000E+00 0.  1.
         -1    1    6    6    0  502 -0.14241075208E+03  0.56619858790E+03  0.22220020510E+03  0.62468759744E+03  0.00000000000E+00 0.  1.
<mgrwt>
<rscale>  0 0.14364894E+04</rscale>
<asrwt>0</asrwt>
<pdfrwt beam="1">  1        2 0.67867331E-01 0.14364894E+04</pdfrwt>
<pdfrwt beam="2">  1       -2 0.17991085E+00 0.14364894E+04</pdfrwt>
<totfact> 0.12527093E+01</totfact>
</mgrwt>
</event>
<event>
12    1  0.2048318E-007  0.2073584E+04  0.7818608E-02  0.8572970E-01
          2   -1    0    0  501    0  0.00000000000E+00  0.00000000000E+00  0.19076070841E+04  0.19076070841E+04  0.00000000000E+00 0. -1.
         -2   -1    0    0    0  501 -0.00000000000E+00 -0.00000000000E+00 -0.56350068315E+03  0.56350068315E+03  0.00000000000E+00 0.  1.
         23    2    1    2    0    0 -0.10508258451E+03  0.82069946653E+03  0.38289321364E+03  0.91612250767E+03  0.89907019021E+02 0.  0.
        254    2    1    2    0    0  0.10508258451E+03 -0.82069946653E+03  0.96121318734E+03  0.15549852596E+04  0.89969906201E+03 0.  0.
        -24    2    4    4    0    0  0.60468506182E+02  0.88488192456E+02 -0.90766488516E+02  0.16155026388E+03  0.79833150237E+02 0.  0.
         24    2    4    4    0    0  0.44614078326E+02 -0.90918765898E+03  0.10519796759E+04  0.13934349957E+04  0.79920170798E+02 0.  0.
         13    1    3    3    0    0 -0.72251391233E+02  0.75733236499E+03  0.34543980170E+03  0.83552452459E+03  0.00000000000E+00 0.  1.
        -13    1    3    3    0    0 -0.32831193276E+02  0.63367101542E+02  0.37453411943E+02  0.80597983076E+02  0.00000000000E+00 0. -1.
          4    1    6    6  502    0  0.34508325961E+02 -0.69098422322E+03  0.74533583066E+03  0.10169442078E+04  0.00000000000E+00 0. -1.
          3    1    5    5  503    0  0.26375430666E+02  0.26206163033E+01 -0.57570959710E+02  0.63379384460E+02  0.00000000000E+00 0. -1.
         -4    1    5    5    0  503  0.34093075516E+02  0.85867576153E+02 -0.33195528806E+02  0.98170879416E+02  0.00000000000E+00 0.  1.
         -3    1    6    6    0  502  0.10105752366E+02 -0.21820343576E+03  0.30664384520E+03  0.37649078795E+03  0.00000000000E+00 0.  1.
<mgrwt>
<rscale>  0 0.20735842E+04</rscale>
<asrwt>0</asrwt>
<pdfrwt beam="1">  1        2 0.29347801E+00 0.20735842E+04</pdfrwt>
<pdfrwt beam="2">  1       -2 0.86692414E-01 0.20735842E+04</pdfrwt>
<totfact> 0.79988788E+00</totfact>
</mgrwt>
</event>
<event>
12    1  0.2048318E-007  0.1600431E+04  0.7818608E-02  0.8820283E-01
         -1   -1    0    0    0  501 -0.00000000000E+00  0.00000000000E+00  0.15613698312E+04  0.15613698312E+04  0.00000000000E+00 0.  1.
          1   -1    0    0  501    0  0.00000000000E+00 -0.00000000000E+00 -0.41011739660E+03  0.41011739660E+03  0.00000000000E+00 0. -1.
         23    2    1    2    0    0  0.45806469113E+03  0.24651360800E+03  0.20977294698E+03  0.56817489937E+03  0.90696233698E+02 0.  0.
        254    2    1    2    0    0 -0.45806469113E+03 -0.24651360800E+03  0.94147948765E+03  0.14033123285E+04  0.90128222292E+03 0.  0.
        -24    2    4    4    0    0  0.65117384725E+02  0.45378716598E+02  0.76503549318E+03  0.77368905673E+03  0.83761261745E+02 0.  0.
         24    2    4    4    0    0 -0.52318207585E+03 -0.29189232460E+03  0.17644399447E+03  0.62962327173E+03  0.79827109833E+02 0.  0.
         13    1    3    3    0    0  0.25254220819E+03  0.13138416532E+03  0.66101485994E+02  0.29224779258E+03  0.00000000000E+00 0. -1.
        -13    1    3    3    0    0  0.20552248293E+03  0.11512944268E+03  0.14367146098E+03  0.27592710679E+03  0.00000000000E+00 0.  1.
          4    1    6    6  502    0 -0.47471050055E+03 -0.25008222712E+03  0.13470685787E+03  0.55320621581E+03  0.00000000000E+00 0. -1.
          1    1    5    5  503    0  0.73549329175E+02  0.51328724025E+02  0.75062565687E+03  0.75596495850E+03  0.00000000000E+00 0. -1.
         -2    1    5    5    0  503 -0.84319444503E+01 -0.59500074266E+01  0.14409836310E+02  0.17724098230E+02  0.00000000000E+00 0.  1.
         -3    1    6    6    0  502 -0.48471575298E+02 -0.41810097477E+02  0.41737136601E+02  0.76417055914E+02  0.00000000000E+00 0.  1.
<mgrwt>
<rscale>  0 0.16004311E+04</rscale>
<asrwt>0</asrwt>
<pdfrwt beam="1">  1        1 0.63094985E-01 0.16004311E+04</pdfrwt>
<pdfrwt beam="2">  1       -1 0.24021074E+00 0.16004311E+04</pdfrwt>
<totfact> 0.45003671E+00</totfact>
</mgrwt>
</event>
<event>
12    1  0.2048318E-007  0.1655276E+04  0.7818608E-02  0.8787291E-01
          2   -1    0    0  501    0  0.00000000000E+00  0.00000000000E+00  0.21808005184E+04  0.21808005184E+04  0.00000000000E+00 0. -1.
         -2   -1    0    0    0  501 -0.00000000000E+00 -0.00000000000E+00 -0.31409772358E+03  0.31409772358E+03  0.00000000000E+00 0.  1.
         23    2    1    2    0    0 -0.14420885763E+03  0.44394971676E+03  0.14549391072E+03  0.49723588918E+03  0.90484837399E+02 0.  0.
        254    2    1    2    0    0  0.14420885763E+03 -0.44394971676E+03  0.17212088841E+04  0.19976623528E+04  0.90011516344E+03 0.  0.
        -24    2    4    4    0    0  0.24901755889E+02  0.18479399002E+03  0.59570215371E+02  0.21534281286E+03  0.89749653471E+02 0.  0.
         24    2    4    4    0    0  0.11930710174E+03 -0.62874370678E+03  0.16616386687E+04  0.17823195399E+04  0.77891229866E+02 0.  0.
         13    1    3    3    0    0 -0.13868731456E+03  0.29691061009E+03  0.11213909870E+03  0.34636001366E+03  0.00000000000E+00 0.  1.
        -13    1    3    3    0    0 -0.55215430639E+01  0.14703910667E+03  0.33354812019E+02  0.15087587552E+03  0.00000000000E+00 0. -1.
          2    1    6    6  502    0  0.67163157326E+01 -0.50519828121E+02  0.83561711029E+02  0.97877073313E+02  0.00000000000E+00 0. -1.
          3    1    5    5  503    0  0.48758384076E+02  0.50481479848E+02  0.26120656612E+02  0.74886904911E+02  0.00000000000E+00 0. -1.
         -4    1    5    5    0  503 -0.23856628187E+02  0.13431251017E+03  0.33449558758E+02  0.14045590795E+03  0.00000000000E+00 0.  1.
         -1    1    6    6    0  502  0.11259078601E+03 -0.57822387866E+03  0.15780769577E+04  0.16844424666E+04  0.00000000000E+00 0.  1.
<mgrwt>
<rscale>  0 0.16552758E+04</rscale>
<asrwt>0</asrwt>
<pdfrwt beam="1">  1        2 0.33550776E+00 0.16552758E+04</pdfrwt>
<pdfrwt beam="2">  1       -2 0.48322728E-01 0.16552758E+04</pdfrwt>
<totfact> 0.20517287E+01</totfact>
</mgrwt>
</event>
<event>
12    1  0.2048318E-007  0.1448156E+04  0.7818608E-02  0.8919680E-01
          2   -1    0    0  501    0  0.00000000000E+00  0.00000000000E+00  0.19166020958E+04  0.19166020958E+04  0.00000000000E+00 0. -1.
         -2   -1    0    0    0  501 -0.00000000000E+00 -0.00000000000E+00 -0.27355134558E+03  0.27355134558E+03  0.00000000000E+00 0.  1.
         23    2    1    2    0    0 -0.13806832113E+03 -0.35541100080E+03  0.83399849033E+03  0.92181024514E+03  0.93812607847E+02 0.  0.
        254    2    1    2    0    0  0.13806832113E+03  0.35541100080E+03  0.80905225993E+03  0.12683431963E+04  0.89930476672E+03 0.  0.
        -24    2    4    4    0    0  0.45983367170E+03  0.22228031525E+02  0.58196992393E+03  0.74646515050E+03  0.81118046955E+02 0.  0.
         24    2    4    4    0    0 -0.32176535057E+03  0.33318296928E+03  0.22708233600E+03  0.52187804577E+03  0.79034647408E+02 0.  0.
         13    1    3    3    0    0 -0.12146334332E+03 -0.26271346103E+03  0.70495012580E+03  0.76205405730E+03  0.00000000000E+00 0. -1.
        -13    1    3    3    0    0 -0.16604977806E+02 -0.92697539770E+02  0.12904836452E+03  0.15975618784E+03  0.00000000000E+00 0.  1.
          2    1    6    6  502    0 -0.28218701459E+03  0.25256819768E+03  0.16745380742E+03  0.41407847481E+03  0.00000000000E+00 0. -1.
          3    1    5    5  503    0  0.36407997334E+03 -0.12967076355E+02  0.43234760538E+03  0.56537317228E+03  0.00000000000E+00 0. -1.
         -4    1    5    5    0  503  0.95753698361E+02  0.35195107881E+02  0.14962231855E+03  0.18109197823E+03  0.00000000000E+00 0.  1.
         -1    1    6    6    0  502 -0.39578335980E+02  0.80614771597E+02  0.59628528575E+02  0.10779957096E+03  0.00000000000E+00 0.  1.
<mgrwt>
<rscale>  0 0.14481562E+04</rscale>
<asrwt>0</asrwt>
<pdfrwt beam="1">  1        2 0.29486185E+00 0.14481562E+04</pdfrwt>
<pdfrwt beam="2">  1       -2 0.42084824E-01 0.14481562E+04</pdfrwt>
<totfact> 0.38592489E+01</totfact>
</mgrwt>
</event>
<event>
12    1  0.2048318E-007  0.2364758E+04  0.7818608E-02  0.8452817E-01
          2   -1    0    0  501    0  0.00000000000E+00  0.00000000000E+00  0.19615737545E+04  0.19615737545E+04  0.00000000000E+00 0. -1.
         -2   -1    0    0    0  501 -0.00000000000E+00 -0.00000000000E+00 -0.71270316997E+03  0.71270316997E+03  0.00000000000E+00 0.  1.
         23    2    1    2    0    0  0.18078073312E+01  0.10080242049E+04  0.46681143650E+03  0.11146663804E+04  0.91935611130E+02 0.  0.
        254    2    1    2    0    0 -0.18078073312E+01 -0.10080242049E+04  0.78205914805E+03  0.15596105441E+04  0.89702423177E+03 0.  0.
        -24    2    4    4    0    0  0.31936842669E+03 -0.95647067848E+03  0.63017774787E+03  0.11921418224E+04  0.85122148046E+02 0.  0.
         24    2    4    4    0    0 -0.32117623402E+03 -0.51553526393E+02  0.15188140018E+03  0.36746872166E+03  0.78443369974E+02 0.  0.
         13    1    3    3    0    0  0.38921105243E+02  0.37150705543E+03  0.19732584509E+03  0.42245690172E+03  0.00000000000E+00 0.  1.
        -13    1    3    3    0    0 -0.37113297912E+02  0.63651714944E+03  0.26948559141E+03  0.69220947869E+03  0.00000000000E+00 0. -1.
          2    1    6    6  502    0 -0.28580246861E+01  0.16888917924E+01  0.17595991785E+02  0.17906411910E+02  0.00000000000E+00 0. -1.
          3    1    5    5  503    0  0.10465856669E+03 -0.40246312852E+03  0.29617898388E+03  0.51054086604E+03  0.00000000000E+00 0. -1.
         -4    1    5    5    0  503  0.21470986001E+03 -0.55400754995E+03  0.33399876399E+03  0.68160095638E+03  0.00000000000E+00 0.  1.
         -1    1    6    6    0  502 -0.31831820934E+03 -0.53242418186E+02  0.13428540839E+03  0.34956230975E+03  0.00000000000E+00 0.  1.
<mgrwt>
<rscale>  0 0.23647578E+04</rscale>
<asrwt>0</asrwt>
<pdfrwt beam="1">  1        2 0.30178058E+00 0.23647578E+04</pdfrwt>
<pdfrwt beam="2">  1       -2 0.10964664E+00 0.23647578E+04</pdfrwt>
<totfact> 0.41909206E+00</totfact>
</mgrwt>
</event>
<event>
12    1  0.2048318E-007  0.1672829E+04  0.7818608E-02  0.8777014E-01
         -2   -1    0    0    0  501 -0.00000000000E+00  0.00000000000E+00  0.25106894678E+03  0.25106894678E+03  0.00000000000E+00 0.  1.
          2   -1    0    0  501    0  0.00000000000E+00 -0.00000000000E+00 -0.27864435077E+04  0.27864435077E+04  0.00000000000E+00 0. -1.
         23    2    1    2    0    0 -0.30483065539E+03  0.43536381808E+03 -0.13723843130E+04  0.14745284169E+04  0.91279610381E+02 0.  0.
        254    2    1    2    0    0  0.30483065539E+03 -0.43536381808E+03 -0.11629902479E+04  0.15629840375E+04  0.89883780643E+03 0.  0.
        -24    2    4    4    0    0  0.14554548179E+03  0.26615689907E+03 -0.26698818134E+03  0.41089286119E+03  0.74345626687E+02 0.  0.
         24    2    4    4    0    0  0.15928517360E+03 -0.70152071715E+03 -0.89600206656E+03  0.11520911763E+04  0.83613947207E+02 0.  0.
         13    1    3    3    0    0 -0.14837533890E+03  0.13662049490E+03 -0.53871111016E+03  0.57523044168E+03  0.00000000000E+00 0. -1.
        -13    1    3    3    0    0 -0.15645531649E+03  0.29874332318E+03 -0.83367320282E+03  0.89929797526E+03  0.00000000000E+00 0.  1.
          2    1    6    6  502    0  0.77425636133E+02 -0.18553032769E+03 -0.22607534273E+03  0.30253312581E+03  0.00000000000E+00 0. -1.
          3    1    5    5  503    0  0.11572472718E+02  0.46450898864E+02 -0.78383799494E+02  0.91845675746E+02  0.00000000000E+00 0. -1.
         -4    1    5    5    0  503  0.13397300908E+03  0.21970600021E+03 -0.18860438185E+03  0.31904718545E+03  0.00000000000E+00 0.  1.
         -1    1    6    6    0  502  0.81859537464E+02 -0.51599038946E+03 -0.66992672383E+03  0.84955805052E+03  0.00000000000E+00 0.  1.
<mgrwt>
<rscale>  0 0.16728293E+04</rscale>
<asrwt>0</asrwt>
<pdfrwt beam="1">  1        2 0.42868361E+00 0.16728293E+04</pdfrwt>
<pdfrwt beam="2">  1       -2 0.38625993E-01 0.16728293E+04</pdfrwt>
<totfact> 0.14278966E+01</totfact>
</mgrwt>
</event>
<event>
12    1  0.2048318E-007  0.1918740E+04  0.7818608E-02  0.8645584E-01
         -1   -1    0    0    0  501 -0.00000000000E+00  0.00000000000E+00  0.84693955174E+03  0.84693955174E+03  0.00000000000E+00 0.  1.
          1   -1    0    0  501    0  0.00000000000E+00 -0.00000000000E+00 -0.10867252951E+04  0.10867252951E+04  0.00000000000E+00 0. -1.
         23    2    1    2    0    0 -0.44354582274E+03 -0.15255941333E+03  0.49073787830E+03  0.68480448239E+03  0.90145673445E+02 0.  0.
        254    2    1    2    0    0  0.44354582274E+03  0.15255941333E+03 -0.73052362162E+03  0.12488603644E+04  0.89776398714E+03 0.  0.
        -24    2    4    4    0    0 -0.21238909281E+03  0.13017765861E+03 -0.47097056967E+03  0.53873032299E+03  0.79760478066E+02 0.  0.
         24    2    4    4    0    0  0.65593491555E+03  0.22381754724E+02 -0.25955305195E+03  0.71013004143E+03  0.78519631848E+02 0.  0.
         11    1    3    3    0    0 -0.41377968312E+03 -0.16445806658E+03  0.45128620073E+03  0.63397106936E+03  0.00000000000E+00 0.  1.
        -11    1    3    3    0    0 -0.29766139622E+02  0.11898653243E+02  0.39451677568E+02  0.50833413026E+02  0.00000000000E+00 0. -1.
          4    1    6    6  502    0  0.65070790084E+03  0.14087438641E+02 -0.25282941283E+03  0.69824203550E+03  0.00000000000E+00 0. -1.
          3    1    5    5  503    0 -0.17379325264E+03  0.12730172785E+03 -0.43707678101E+03  0.48728424670E+03  0.00000000000E+00 0. -1.
         -4    1    5    5    0  503 -0.38595840166E+02  0.28759307612E+01 -0.33893788658E+02  0.51446076289E+02  0.00000000000E+00 0.  1.
         -3    1    6    6    0  502  0.52270147083E+01  0.82943160829E+01 -0.67236391225E+01  0.11888005934E+02  0.00000000000E+00 0.  1.
<mgrwt>
<rscale>  0 0.19187398E+04</rscale>
<asrwt>0</asrwt>
<pdfrwt beam="1">  1        1 0.16718851E+00 0.19187398E+04</pdfrwt>
<pdfrwt beam="2">  1       -1 0.13029839E+00 0.19187398E+04</pdfrwt>
<totfact> 0.61119268E+00</totfact>
</mgrwt>
</event>
<event>
12    1  0.2048318E-007  0.1208460E+04  0.7818608E-02  0.9105484E-01
          1   -1    0    0  501    0  0.00000000000E+00  0.00000000000E+00  0.99484741294E+03  0.99484741294E+03  0.00000000000E+00 0. -1.
         -1   -1    0    0    0  501 -0.00000000000E+00 -0.00000000000E+00 -0.36698462173E+03  0.36698462173E+03  0.00000000000E+00 0.  1.
         23    2    1    2    0    0  0.19884855150E+03 -0.10804157633E+03  0.26987390316E+03  0.36391197302E+03  0.91576590082E+02 0.  0.
        254    2    1    2    0    0 -0.19884855150E+03  0.10804157633E+03  0.35798888805E+03  0.99792006166E+03  0.90358988310E+03 0.  0.
        -24    2    4    4    0    0  0.11578745533E+03 -0.28654611364E+03  0.36713912797E+03  0.48746471388E+03  0.85529514966E+02 0.  0.
         24    2    4    4    0    0 -0.31463600682E+03  0.39458768997E+03 -0.91502399213E+01  0.51045534778E+03  0.76063613633E+02 0.  0.
         13    1    3    3    0    0  0.19617756282E+03 -0.11802240453E+03  0.26943899670E+03  0.35357078084E+03  0.00000000000E+00 0. -1.
        -13    1    3    3    0    0  0.26709886780E+01  0.99808281968E+01  0.43490646356E+00  0.10341192177E+02  0.00000000000E+00 0.  1.
          2    1    6    6  502    0 -0.24460139691E+03  0.32697680582E+03 -0.34696344605E+02  0.40981399591E+03  0.00000000000E+00 0. -1.
          1    1    5    5  503    0  0.33021088229E+02 -0.12965397975E+03  0.21767745426E+03  0.25550737920E+03  0.00000000000E+00 0. -1.
         -2    1    5    5    0  503  0.82766367097E+02 -0.15689213389E+03  0.14946167371E+03  0.23195733467E+03  0.00000000000E+00 0.  1.
         -1    1    6    6    0  502 -0.70034609918E+02  0.67610884151E+02  0.25546104684E+02  0.10064135187E+03  0.00000000000E+00 0.  1.
<mgrwt>
<rscale>  0 0.12084597E+04</rscale>
<asrwt>0</asrwt>
<pdfrwt beam="1">  1        1 0.15305345E+00 0.12084597E+04</pdfrwt>
<pdfrwt beam="2">  1       -1 0.56459173E-01 0.12084597E+04</pdfrwt>
<totfact> 0.47956043E+01</totfact>
</mgrwt>
</event>
<event>
12    1  0.2048318E-007  0.1988317E+04  0.7818608E-02  0.8612102E-01
         -1   -1    0    0    0  501 -0.00000000000E+00  0.00000000000E+00  0.13973029032E+04  0.13973029032E+04  0.00000000000E+00 0.  1.
          1   -1    0    0  501    0  0.00000000000E+00 -0.00000000000E+00 -0.70732799022E+03  0.70732799022E+03  0.00000000000E+00 0. -1.
         23    2    1    2    0    0  0.12953358213E+03  0.69436663157E+03  0.63436151923E+03  0.95724410464E+03  0.12238370337E+03 0.  0.
        254    2    1    2    0    0 -0.12953358213E+03 -0.69436663157E+03  0.55613393784E+02  0.11473867888E+04  0.90248524953E+03 0.  0.
        -24    2    4    4    0    0 -0.46876870263E+03 -0.57088954625E+03 -0.93171281235E+02  0.74884016620E+03  0.80135736639E+02 0.  0.
         24    2    4    4    0    0  0.33923512050E+03 -0.12347708533E+03  0.14878467502E+03  0.39854662261E+03  0.79846560893E+02 0.  0.
         13    1    3    3    0    0  0.18991728574E+02  0.34523193280E+03  0.36402556432E+03  0.50205615688E+03  0.00000000000E+00 0.  1.
        -13    1    3    3    0    0  0.11054185355E+03  0.34913469877E+03  0.27033595491E+03  0.45518794776E+03  0.00000000000E+00 0. -1.
          2    1    6    6  502    0  0.11065685483E+03 -0.79337730478E+01  0.67379437046E+02  0.12979935598E+03  0.00000000000E+00 0. -1.
          3    1    5    5  503    0 -0.79063135489E+02 -0.89583889099E+02 -0.44995428087E+02  0.12767474742E+03  0.00000000000E+00 0. -1.
         -4    1    5    5    0  503 -0.38970556714E+03 -0.48130565715E+03 -0.48175853148E+02  0.62116541878E+03  0.00000000000E+00 0.  1.
         -1    1    6    6    0  502  0.22857826567E+03 -0.11554331228E+03  0.81405237973E+02  0.26874726663E+03  0.00000000000E+00 0.  1.
<mgrwt>
<rscale>  0 0.19883173E+04</rscale>
<asrwt>0</asrwt>
<pdfrwt beam="1">  1        1 0.10881969E+00 0.19883173E+04</pdfrwt>
<pdfrwt beam="2">  1       -1 0.21496968E+00 0.19883173E+04</pdfrwt>
<totfact> 0.29618368E+00</totfact>
</mgrwt>
</event>
<event>
12    1  0.2048318E-007  0.1635087E+04  0.7818608E-02  0.8799278E-01
         -1   -1    0    0    0  501 -0.00000000000E+00  0.00000000000E+00  0.12520819255E+04  0.12520819255E+04  0.00000000000E+00 0.  1.
          1   -1    0    0  501    0  0.00000000000E+00 -0.00000000000E+00 -0.53381275769E+03  0.53381275769E+03  0.00000000000E+00 0. -1.
         23    2    1    2    0    0 -0.16035561317E+03  0.54212242594E+03  0.23911160940E+03  0.61933528254E+03  0.82408634677E+02 0.  0.
        254    2    1    2    0    0  0.16035561317E+03 -0.54212242594E+03  0.47915755843E+03  0.11665594007E+04  0.90092076350E+03 0.  0.
        -24    2    4    4    0    0 -0.27496478632E+03 -0.50564123718E+03  0.42404651758E+03  0.71929840241E+03  0.79347641320E+02 0.  0.
         24    2    4    4    0    0  0.43532039949E+03 -0.36481188762E+02  0.55111040852E+02  0.44726099826E+03  0.78552189007E+02 0.  0.
         13    1    3    3    0    0 -0.47153133056E+02  0.93354357603E+02  0.73250861883E+02  0.12768767680E+03  0.00000000000E+00 0.  1.
        -13    1    3    3    0    0 -0.11320248011E+03  0.44876806834E+03  0.16586074752E+03  0.49164760574E+03  0.00000000000E+00 0. -1.
          2    1    6    6  502    0  0.61351320609E+02 -0.19001584063E+02 -0.16001004405E+02  0.66189703726E+02  0.00000000000E+00 0. -1.
          3    1    5    5  503    0 -0.71513528552E+02 -0.14739044516E+03  0.16567394633E+03  0.23299352906E+03  0.00000000000E+00 0. -1.
         -4    1    5    5    0  503 -0.20345125777E+03 -0.35825079202E+03  0.25837257125E+03  0.48630487335E+03  0.00000000000E+00 0.  1.
         -1    1    6    6    0  502  0.37396907888E+03 -0.17479604699E+02  0.71112045257E+02  0.38107129453E+03  0.00000000000E+00 0.  1.
<mgrwt>
<rscale>  0 0.16350869E+04</rscale>
<asrwt>0</asrwt>
<pdfrwt beam="1">  1        1 0.82125040E-01 0.16350869E+04</pdfrwt>
<pdfrwt beam="2">  1       -1 0.19262799E+00 0.16350869E+04</pdfrwt>
<totfact> 0.65547083E+00</totfact>
</mgrwt>
</event>
<event>
12    1  0.2048318E-007  0.6641821E+04  0.7818608E-02  0.7615546E-01
         -2   -1    0    0    0  501 -0.00000000000E+00  0.00000000000E+00  0.27809673646E+04  0.27809673646E+04  0.00000000000E+00 0.  1.
          2   -1    0    0  501    0  0.00000000000E+00 -0.00000000000E+00 -0.39656865749E+04  0.39656865749E+04  0.00000000000E+00 0. -1.
         23    2    1    2    0    0 -0.30229865926E+04  0.44271138082E+03 -0.17350756373E+04  0.35146566415E+04  0.88783642101E+02 0.  0.
        254    2    1    2    0    0  0.30229865926E+04 -0.44271138082E+03  0.55035642688E+03  0.32319972980E+04  0.89915128405E+03 0.  0.
        -24    2    4    4    0    0  0.21752849623E+04 -0.57333078394E+03  0.70096439948E+03  0.23575527325E+04  0.78300333443E+02 0.  0.
         24    2    4    4    0    0  0.84770163027E+03  0.13061940313E+03 -0.15060797260E+03  0.87444456541E+03  0.79442143261E+02 0.  0.
         11    1    3    3    0    0 -0.23040610585E+04  0.35731056631E+03 -0.13607434230E+04  0.26996279124E+04  0.00000000000E+00 0.  1.
        -11    1    3    3    0    0 -0.71892553410E+03  0.85400814504E+02 -0.37433221425E+03  0.81502872914E+03  0.00000000000E+00 0. -1.
          2    1    6    6  502    0  0.19691769524E+03  0.36730662526E+02 -0.69063942846E+02  0.21188569671E+03  0.00000000000E+00 0. -1.
          1    1    5    5  503    0  0.14582140271E+03 -0.58982015357E+02  0.47388427376E+02  0.16428153479E+03  0.00000000000E+00 0. -1.
         -2    1    5    5    0  503  0.20294635596E+04 -0.51434876859E+03  0.65357597211E+03  0.21932711978E+04  0.00000000000E+00 0.  1.
         -1    1    6    6    0  502  0.65078393503E+03  0.93888740600E+02 -0.81544029758E+02  0.66255886870E+03  0.00000000000E+00 0.  1.
<mgrwt>
<rscale>  0 0.66418205E+04</rscale>
<asrwt>0</asrwt>
<pdfrwt beam="1">  1        2 0.61010563E+00 0.66418205E+04</pdfrwt>
<pdfrwt beam="2">  1       -2 0.42784113E+00 0.66418205E+04</pdfrwt>
<totfact> 0.11345450E-03</totfact>
</mgrwt>
</event>
<event>
12    1  0.2048318E-007  0.1382977E+04  0.7818608E-02  0.8966234E-01
          2   -1    0    0  501    0  0.00000000000E+00  0.00000000000E+00  0.14001502939E+04  0.14001502939E+04  0.00000000000E+00 0. -1.
         -2   -1    0    0    0  501 -0.00000000000E+00 -0.00000000000E+00 -0.34150355267E+03  0.34150355267E+03  0.00000000000E+00 0.  1.
         23    2    1    2    0    0  0.13049832567E+03 -0.35375908152E+03  0.17215986374E+03  0.42439997849E+03  0.91109946199E+02 0.  0.
        254    2    1    2    0    0 -0.13049832567E+03  0.35375908152E+03  0.88648687745E+03  0.13172538680E+04  0.89840050545E+03 0.  0.
        -24    2    4    4    0    0 -0.13311654263E+03  0.55260823927E+03  0.93517875271E+03  0.10972718124E+04  0.79688459827E+02 0.  0.
         24    2    4    4    0    0  0.26182169616E+01 -0.19884915775E+03 -0.48691875265E+02  0.21998205568E+03  0.80457215382E+02 0.  0.
         11    1    3    3    0    0  0.76932767561E+02 -0.14931582100E+03  0.32515139236E+02  0.17108798732E+03  0.00000000000E+00 0.  1.
        -11    1    3    3    0    0  0.53565558108E+02 -0.20444326052E+03  0.13964472450E+03  0.25331199117E+03  0.00000000000E+00 0. -1.
          4    1    6    6  502    0  0.23349490846E+02 -0.15859027003E+03 -0.63382159872E+02  0.17237566726E+03  0.00000000000E+00 0. -1.
          3    1    5    5  503    0 -0.72574548694E+02  0.43424869767E+03  0.74142445118E+03  0.86229299740E+03  0.00000000000E+00 0. -1.
         -4    1    5    5    0  503 -0.60541993937E+02  0.11835954160E+03  0.19375430153E+03  0.23497881496E+03  0.00000000000E+00 0.  1.
         -3    1    6    6    0  502 -0.20731273884E+02 -0.40258887713E+02  0.14690284607E+02  0.47606388422E+02  0.00000000000E+00 0.  1.
<mgrwt>
<rscale>  0 0.13829769E+04</rscale>
<asrwt>0</asrwt>
<pdfrwt beam="1">  1        2 0.21540773E+00 0.13829769E+04</pdfrwt>
<pdfrwt beam="2">  1       -2 0.52539009E-01 0.13829769E+04</pdfrwt>
<totfact> 0.48184545E+01</totfact>
</mgrwt>
</event>
<event>
12    1  0.2341331E-007  0.3228954E+04  0.7818608E-02  0.8181212E-01
          1   -1    0    0  501    0  0.00000000000E+00  0.00000000000E+00  0.17804945755E+04  0.17804945755E+04  0.00000000000E+00 0. -1.
         -1   -1    0    0    0  501 -0.00000000000E+00 -0.00000000000E+00 -0.14639394632E+04  0.14639394632E+04  0.00000000000E+00 0.  1.
         23    2    1    2    0    0 -0.29353593931E+03 -0.13504515867E+04 -0.40605030492E+03  0.14437336541E+04  0.98016212876E+02 0.  0.
        254    2    1    2    0    0  0.29353593931E+03  0.13504515867E+04  0.72260541720E+03  0.18007003846E+04  0.90026687726E+03 0.  0.
        -24    2    4    4    0    0  0.89326588190E+02  0.55307037810E+03 -0.16305607455E+03  0.58900011729E+03  0.80422461001E+02 0.  0.
         24    2    4    4    0    0  0.20420935112E+03  0.79738120864E+03  0.88566149175E+03  0.12117002673E+04  0.79391490771E+02 0.  0.
         11    1    3    3    0    0 -0.19245583683E+02 -0.21260153742E+03 -0.87569388453E+02  0.23073405470E+03  0.00000000000E+00 0.  1.
        -11    1    3    3    0    0 -0.27429035562E+03 -0.11378500493E+04 -0.31848091647E+03  0.12129995994E+04  0.00000000000E+00 0. -1.
          4    1    6    6  502    0  0.18291036118E+02  0.16467636993E+03  0.14702184052E+03  0.22151363481E+03  0.00000000000E+00 0. -1.
          1    1    5    5  503    0  0.13494393625E+02  0.55121184492E+02  0.74436580341E+01  0.57235056426E+02  0.00000000000E+00 0. -1.
         -2    1    5    5    0  503  0.75832194565E+02  0.49794919361E+03 -0.17049973259E+03  0.53176506087E+03  0.00000000000E+00 0.  1.
         -3    1    6    6    0  502  0.18591831500E+03  0.63270483871E+03  0.73863965123E+03  0.99018663249E+03  0.00000000000E+00 0.  1.
<mgrwt>
<rscale>  0 0.32289542E+04</rscale>
<asrwt>0</asrwt>
<pdfrwt beam="1">  1        1 0.27392224E+00 0.32289542E+04</pdfrwt>
<pdfrwt beam="2">  1       -1 0.22522146E+00 0.32289542E+04</pdfrwt>
<totfact> 0.35603382E-01</totfact>
</mgrwt>
</event>
<event>
12    1  0.2048318E-007  0.1706999E+04  0.7818608E-02  0.8757382E-01
          2   -1    0    0  501    0  0.00000000000E+00  0.00000000000E+00  0.16043473592E+04  0.16043473592E+04  0.00000000000E+00 0.  1.
         -2   -1    0    0    0  501 -0.00000000000E+00 -0.00000000000E+00 -0.45405488681E+03  0.45405488681E+03  0.00000000000E+00 0. -1.
         23    2    1    2    0    0 -0.23081535883E+03  0.18775523251E+03  0.10650531279E+04  0.11093154461E+04  0.87834141817E+02 0.  0.
        254    2    1    2    0    0  0.23081535883E+03 -0.18775523251E+03  0.85239344398E+02  0.94908679983E+03  0.89720245796E+03 0.  0.
        -24    2    4    4    0    0  0.48333242487E+02  0.33301230262E+03  0.16778199643E+03  0.38540653519E+03  0.84581930791E+02 0.  0.
         24    2    4    4    0    0  0.18248211634E+03 -0.52076753513E+03 -0.82542652035E+02  0.56368026463E+03  0.80147382375E+02 0.  0.
         11    1    3    3    0    0 -0.34359909902E+02  0.75798515508E+02  0.32520581469E+03  0.33568562715E+03  0.00000000000E+00 0. -1.
        -11    1    3    3    0    0 -0.19645544892E+03  0.11195671700E+03  0.73984731325E+03  0.77362981898E+03  0.00000000000E+00 0.  1.
          4    1    6    6  502    0  0.76414117682E+02 -0.32372158349E+03 -0.31141093650E+02  0.33407266981E+03  0.00000000000E+00 0. -1.
          1    1    5    5  503    0  0.59462070281E+02  0.16262944314E+03  0.58917515089E+02  0.18290802924E+03  0.00000000000E+00 0. -1.
         -2    1    5    5    0  503 -0.11128827793E+02  0.17038285949E+03  0.10886448134E+03  0.20249850595E+03  0.00000000000E+00 0.  1.
         -3    1    6    6    0  502  0.10606799866E+03 -0.19704595164E+03 -0.51401558386E+02  0.22960759483E+03  0.00000000000E+00 0.  1.
<mgrwt>
<rscale>  0 0.17069994E+04</rscale>
<asrwt>0</asrwt>
<pdfrwt beam="1">  1        2 0.24682267E+00 0.17069994E+04</pdfrwt>
<pdfrwt beam="2">  1       -2 0.69854598E-01 0.17069994E+04</pdfrwt>
<totfact> 0.19692630E+01</totfact>
</mgrwt>
</event>
<event>
12    1  0.2048318E-007  0.1763978E+04  0.7818608E-02  0.8725694E-01
          1   -1    0    0  501    0  0.00000000000E+00  0.00000000000E+00  0.14944916516E+04  0.14944916516E+04  0.00000000000E+00 0. -1.
         -1   -1    0    0    0  501 -0.00000000000E+00 -0.00000000000E+00 -0.52051442629E+03  0.52051442629E+03  0.00000000000E+00 0.  1.
         23    2    1    2    0    0  0.25932200449E+03  0.13056448428E+03  0.10555747023E+04  0.10986457669E+04  0.92138930873E+02 0.  0.
        254    2    1    2    0    0 -0.25932200449E+03 -0.13056448428E+03 -0.81597476965E+02  0.91636031095E+03  0.86531097570E+03 0.  0.
        -24    2    4    4    0    0 -0.26897451926E+03 -0.40308799043E+03 -0.28386631420E+03  0.56715062465E+03  0.79072919927E+02 0.  0.
         24    2    4    4    0    0  0.96525147685E+01  0.27252350615E+03  0.20226883723E+03  0.34920968629E+03  0.81685311048E+02 0.  0.
         13    1    3    3    0    0  0.15376449427E+03  0.37177612717E+02  0.66064470838E+03  0.67932107673E+03  0.00000000000E+00 0.  1.
        -13    1    3    3    0    0  0.10555751022E+03  0.93386871568E+02  0.39492999388E+03  0.41932469021E+03  0.00000000000E+00 0. -1.
          4    1    6    6  502    0 -0.84301446600E+01 -0.15558475022E+01  0.13249288785E+02  0.15780736793E+02  0.00000000000E+00 0. -1.
          1    1    5    5  503    0 -0.23527925249E+01 -0.28091987566E+02 -0.36636026933E+01  0.28427405488E+02  0.00000000000E+00 0. -1.
         -2    1    5    5    0  503 -0.26662172674E+03 -0.37499600287E+03 -0.28020271150E+03  0.53872321917E+03  0.00000000000E+00 0.  1.
         -3    1    6    6    0  502  0.18082659428E+02  0.27407935365E+03  0.18901954845E+03  0.33342894950E+03  0.00000000000E+00 0.  1.
<mgrwt>
<rscale>  0 0.17639779E+04</rscale>
<asrwt>0</asrwt>
<pdfrwt beam="1">  1        1 0.22992179E+00 0.17639779E+04</pdfrwt>
<pdfrwt beam="2">  1       -1 0.80079143E-01 0.17639779E+04</pdfrwt>
<totfact> 0.97228765E+00</totfact>
</mgrwt>
</event>
<event>
12    1  0.2105566E-007  0.2260305E+04  0.7818608E-02  0.8493739E-01
          2   -1    0    0  501    0  0.00000000000E+00  0.00000000000E+00  0.17876876636E+04  0.17876876636E+04  0.00000000000E+00 0. -1.
         -2   -1    0    0    0  501 -0.00000000000E+00 -0.00000000000E+00 -0.71446730929E+03  0.71446730929E+03  0.00000000000E+00 0.  1.
         23    2    1    2    0    0 -0.69583625154E+03  0.57720942926E+03  0.13296586466E+03  0.91747096937E+03  0.81940492353E+02 0.  0.
        254    2    1    2    0    0  0.69583625154E+03 -0.57720942926E+03  0.94025448965E+03  0.15846840035E+04  0.89988114299E+03 0.  0.
        -24    2    4    4    0    0  0.70883681673E+03 -0.77922036868E+03  0.74965868477E+03  0.12953528019E+04  0.79477808539E+02 0.  0.
         24    2    4    4    0    0 -0.13000565194E+02  0.20201093942E+03  0.19059580488E+03  0.28933120161E+03  0.80052164535E+02 0.  0.
         13    1    3    3    0    0 -0.28947738765E+03  0.20249019154E+03  0.79727364824E+02  0.36215450893E+03  0.00000000000E+00 0. -1.
        -13    1    3    3    0    0 -0.40635886388E+03  0.37471923772E+03  0.53238499841E+02  0.55531646044E+03  0.00000000000E+00 0.  1.
          4    1    6    6  502    0 -0.77264517791E+01  0.68447219223E+02  0.18312224659E+02  0.71274521734E+02  0.00000000000E+00 0. -1.
          3    1    5    5  503    0  0.11795315181E+03 -0.15462691348E+03  0.17095778974E+03  0.25893820550E+03  0.00000000000E+00 0. -1.
         -4    1    5    5    0  503  0.59088366492E+03 -0.62459345520E+03  0.57870089503E+03  0.10364145964E+04  0.00000000000E+00 0.  1.
         -3    1    6    6    0  502 -0.52741134147E+01  0.13356372019E+03  0.17228358022E+03  0.21805667987E+03  0.00000000000E+00 0.  1.
<mgrwt>
<rscale>  0 0.22603048E+04</rscale>
<asrwt>0</asrwt>
<pdfrwt beam="1">  1        2 0.27502887E+00 0.22603048E+04</pdfrwt>
<pdfrwt beam="2">  1       -2 0.10991805E+00 0.22603048E+04</pdfrwt>
<totfact> 0.52480292E+00</totfact>
</mgrwt>
</event>
<event>
12    1  0.2048318E-007  0.1379358E+04  0.7818608E-02  0.8968897E-01
         -2   -1    0    0    0  501 -0.00000000000E+00  0.00000000000E+00  0.56349180776E+03  0.56349180776E+03  0.00000000000E+00 0.  1.
          2   -1    0    0  501    0  0.00000000000E+00 -0.00000000000E+00 -0.84412429133E+03  0.84412429133E+03  0.00000000000E+00 0. -1.
         23    2    1    2    0    0 -0.27921078434E+03 -0.26635519343E+03 -0.36838525387E+02  0.39780428036E+03  0.89372352334E+02 0.  0.
        254    2    1    2    0    0  0.27921078434E+03  0.26635519343E+03 -0.24379395818E+03  0.10098118187E+04  0.90076670901E+03 0.  0.
        -24    2    4    4    0    0  0.31527403081E+03  0.15376451071E+03 -0.55861263384E+03  0.66425278657E+03  0.78373787270E+02 0.  0.
         24    2    4    4    0    0 -0.36063246467E+02  0.11259068272E+03  0.31481867565E+03  0.34555903217E+03  0.79517460909E+02 0.  0.
         13    1    3    3    0    0 -0.13332290751E+03 -0.18228325035E+03 -0.19289686698E+01  0.22584486256E+03  0.00000000000E+00 0.  1.
        -13    1    3    3    0    0 -0.14588787683E+03 -0.84071943077E+02 -0.34909556718E+02  0.17195941780E+03  0.00000000000E+00 0. -1.
          2    1    6    6  502    0 -0.35291566709E+02  0.10956002864E+03  0.31968440435E+03  0.33977494455E+03  0.00000000000E+00 0. -1.
          1    1    5    5  503    0  0.90823622140E+02  0.85705242863E+02 -0.19305843679E+03  0.22992581197E+03  0.00000000000E+00 0. -1.
         -2    1    5    5    0  503  0.22445040867E+03  0.68059267845E+02 -0.36555419705E+03  0.43432697461E+03  0.00000000000E+00 0.  1.
         -1    1    6    6    0  502 -0.77167975774E+00  0.30306540793E+01 -0.48657286984E+01  0.57840876172E+01  0.00000000000E+00 0.  1.
<mgrwt>
<rscale>  0 0.13793580E+04</rscale>
<asrwt>0</asrwt>
<pdfrwt beam="1">  1        2 0.12986528E+00 0.13793580E+04</pdfrwt>
<pdfrwt beam="2">  1       -2 0.86691048E-01 0.13793580E+04</pdfrwt>
<totfact> 0.35987552E+01</totfact>
</mgrwt>
</event>
<event>
12    1  0.2048318E-007  0.3319953E+04  0.7818608E-02  0.8157837E-01
          1   -1    0    0  501    0  0.00000000000E+00  0.00000000000E+00  0.15660221440E+04  0.15660221440E+04  0.00000000000E+00 0. -1.
         -1   -1    0    0    0  501 -0.00000000000E+00 -0.00000000000E+00 -0.17595675012E+04  0.17595675012E+04  0.00000000000E+00 0.  1.
         23    2    1    2    0    0 -0.15349960950E+04 -0.68346945476E+02 -0.10177791888E+03  0.15425937652E+04  0.91391811242E+02 0.  0.
        254    2    1    2    0    0  0.15349960950E+04  0.68346945476E+02 -0.91767438349E+02  0.17829958799E+04  0.89987150661E+03 0.  0.
        -24    2    4    4    0    0  0.26031540257E+03 -0.28710197945E+03 -0.21665858701E+03  0.45145931226E+03  0.81749078783E+02 0.  0.
         24    2    4    4    0    0  0.12746806924E+04  0.35544892492E+03  0.12489114866E+03  0.13315365676E+04  0.78974844634E+02 0.  0.
         11    1    3    3    0    0 -0.11044418813E+04 -0.14052276753E+02 -0.94531868969E+02  0.11085691724E+04  0.00000000000E+00 0. -1.
        -11    1    3    3    0    0 -0.43055421367E+03 -0.54294668723E+02 -0.72460499161E+01  0.43402459285E+03  0.00000000000E+00 0.  1.
          4    1    6    6  502    0  0.44695091608E+03  0.91525931260E+02  0.62877812997E+02  0.46053852916E+03  0.00000000000E+00 0. -1.
          1    1    5    5  503    0  0.91484755388E+02 -0.87823066156E+02 -0.11499053303E+03  0.17118754074E+03  0.00000000000E+00 0. -1.
         -2    1    5    5    0  503  0.16883064718E+03 -0.19927891329E+03 -0.10166805398E+03  0.28027177152E+03  0.00000000000E+00 0.  1.
         -3    1    6    6    0  502  0.82772977635E+03  0.26392299366E+03  0.62013335666E+02  0.87099803849E+03  0.00000000000E+00 0.  1.
<mgrwt>
<rscale>  0 0.33199528E+04</rscale>
<asrwt>0</asrwt>
<pdfrwt beam="1">  1        1 0.24092648E+00 0.33199528E+04</pdfrwt>
<pdfrwt beam="2">  1       -1 0.27070269E+00 0.33199528E+04</pdfrwt>
<totfact> 0.24936666E-01</totfact>
</mgrwt>
</event>
<event>
12    1  0.2048318E-007  0.2789292E+04  0.7818608E-02  0.8306601E-01
         -1   -1    0    0    0  501 -0.00000000000E+00  0.00000000000E+00  0.15670825659E+04  0.15670825659E+04  0.00000000000E+00 0.  1.
          1   -1    0    0  501    0  0.00000000000E+00 -0.00000000000E+00 -0.12411836014E+04  0.12411836014E+04  0.00000000000E+00 0. -1.
         23    2    1    2    0    0  0.74604902201E+02  0.42938757653E+03  0.13232321626E+04  0.13955392881E+04  0.81528928532E+02 0.  0.
        254    2    1    2    0    0 -0.74604902201E+02 -0.42938757653E+03 -0.99733319813E+03  0.14127268792E+04  0.90065761791E+03 0.  0.
        -24    2    4    4    0    0 -0.43749911654E+02 -0.65713206467E+03 -0.41773379939E+03  0.78407335818E+03  0.80826348894E+02 0.  0.
         24    2    4    4    0    0 -0.30854990547E+02  0.22774448814E+03 -0.57959939874E+03  0.62865352098E+03  0.80313162676E+02 0.  0.
         11    1    3    3    0    0  0.76028638423E+02  0.22198771205E+03  0.64824597692E+03  0.68940680643E+03  0.00000000000E+00 0.  1.
        -11    1    3    3    0    0 -0.14237362219E+01  0.20739986448E+03  0.67498618568E+03  0.70613248167E+03  0.00000000000E+00 0. -1.
          4    1    6    6  502    0 -0.15543830689E+02  0.27438549267E+01 -0.21181588371E+02  0.26415887232E+02  0.00000000000E+00 0. -1.
          3    1    5    5  503    0 -0.42932907475E+02 -0.14334897316E+03 -0.10006732965E+03  0.18001564686E+03  0.00000000000E+00 0. -1.
         -4    1    5    5    0  503 -0.81700417974E+00 -0.51378309150E+03 -0.31766646974E+03  0.60405771132E+03  0.00000000000E+00 0.  1.
         -3    1    6    6    0  502 -0.15311159857E+02  0.22500063321E+03 -0.55841781037E+03  0.60223763374E+03  0.00000000000E+00 0.  1.
<mgrwt>
<rscale>  0 0.27892918E+04</rscale>
<asrwt>0</asrwt>
<pdfrwt beam="1">  1        1 0.19095132E+00 0.27892918E+04</pdfrwt>
<pdfrwt beam="2">  1       -1 0.24108963E+00 0.27892918E+04</pdfrwt>
<totfact> 0.68910672E-01</totfact>
</mgrwt>
</event>
<event>
12    1  0.2048318E-007  0.1341611E+04  0.7818608E-02  0.8997203E-01
          2   -1    0    0  501    0  0.00000000000E+00  0.00000000000E+00  0.57297647255E+03  0.57297647255E+03  0.00000000000E+00 0. -1.
         -2   -1    0    0    0  501 -0.00000000000E+00 -0.00000000000E+00 -0.78533746709E+03  0.78533746709E+03  0.00000000000E+00 0.  1.
         23    2    1    2    0    0 -0.22352665157E+03  0.15770550606E+03 -0.29826148682E+03  0.41528275142E+03  0.93084147432E+02 0.  0.
        254    2    1    2    0    0  0.22352665157E+03 -0.15770550606E+03  0.85900492279E+02  0.94303118822E+03  0.89838395843E+03 0.  0.
        -24    2    4    4    0    0 -0.32483239654E+03  0.52689769763E+02  0.86899375653E+02  0.35043847949E+03  0.83446562169E+02 0.  0.
         24    2    4    4    0    0  0.54835904811E+03 -0.21039527583E+03 -0.99888337432E+00  0.59259270873E+03  0.78748351962E+02 0.  0.
         13    1    3    3    0    0 -0.10365351051E+03  0.70963987622E+02 -0.71572772405E+02  0.14457731333E+03  0.00000000000E+00 0. -1.
        -13    1    3    3    0    0 -0.11987314106E+03  0.86741518442E+02 -0.22668871441E+03  0.27070543809E+03  0.00000000000E+00 0.  1.
          2    1    6    6  502    0  0.83898287521E+02 -0.49888830700E+02  0.24093534160E+02  0.10054012366E+03  0.00000000000E+00 0. -1.
          1    1    5    5  503    0 -0.89538676567E+02  0.32654571833E+02 -0.86412420443E+01  0.95698310994E+02  0.00000000000E+00 0. -1.
         -2    1    5    5    0  503 -0.23529371997E+03  0.20035197929E+02  0.95540617698E+02  0.25474016850E+03  0.00000000000E+00 0.  1.
         -1    1    6    6    0  502  0.46446076059E+03 -0.16050644513E+03 -0.25092417534E+02  0.49205258507E+03  0.00000000000E+00 0.  1.
<mgrwt>
<rscale>  0 0.13416108E+04</rscale>
<asrwt>0</asrwt>
<pdfrwt beam="1">  1        2 0.88150227E-01 0.13416108E+04</pdfrwt>
<pdfrwt beam="2">  1       -2 0.12082115E+00 0.13416108E+04</pdfrwt>
<totfact> 0.26744454E+01</totfact>
</mgrwt>
</event>
<event>
12    1  0.2048318E-007  0.1486286E+04  0.7818608E-02  0.8893624E-01
         -2   -1    0    0    0  501 -0.00000000000E+00  0.00000000000E+00  0.29901488431E+03  0.29901488431E+03  0.00000000000E+00 0.  1.
          2   -1    0    0  501    0  0.00000000000E+00 -0.00000000000E+00 -0.18469362972E+04  0.18469362972E+04  0.00000000000E+00 0. -1.
         23    2    1    2    0    0 -0.22515764650E+03 -0.26373156753E+01 -0.10715406804E+04  0.10996942123E+04  0.10210293690E+03 0.  0.
        254    2    1    2    0    0  0.22515764650E+03  0.26373156753E+01 -0.47638073251E+03  0.10462569692E+04  0.90388722859E+03 0.  0.
        -24    2    4    4    0    0  0.33180532658E+03  0.91505214293E+02  0.16093533579E+03  0.38909981627E+03  0.83848111028E+02 0.  0.
         24    2    4    4    0    0 -0.10664768008E+03 -0.88867898617E+02 -0.63731606830E+03  0.65715715290E+03  0.80078221897E+02 0.  0.
         13    1    3    3    0    0 -0.24956281267E+02  0.20412619052E+02 -0.58431542835E+02  0.66736318368E+02  0.00000000000E+00 0.  1.
        -13    1    3    3    0    0 -0.20020136524E+03 -0.23049934728E+02 -0.10131091376E+04  0.10329578940E+04  0.00000000000E+00 0. -1.
          2    1    6    6  502    0  0.61516884935E+01 -0.34490208064E+02 -0.14140982331E+03  0.14568512570E+03  0.00000000000E+00 0. -1.
          1    1    5    5  503    0  0.99537415285E+02  0.63517760148E+02  0.33706429038E+02  0.12279383639E+03  0.00000000000E+00 0. -1.
         -2    1    5    5    0  503  0.23226791130E+03  0.27987454145E+02  0.12722890675E+03  0.26630597988E+03  0.00000000000E+00 0.  1.
         -1    1    6    6    0  502 -0.11279936857E+03 -0.54377690553E+02 -0.49590624499E+03  0.51147202719E+03  0.00000000000E+00 0.  1.
<mgrwt>
<rscale>  0 0.14862859E+04</rscale>
<asrwt>0</asrwt>
<pdfrwt beam="1">  1        2 0.28414404E+00 0.14862859E+04</pdfrwt>
<pdfrwt beam="2">  1       -2 0.46002291E-01 0.14862859E+04</pdfrwt>
<totfact> 0.35218208E+01</totfact>
</mgrwt>
</event>
<event>
12    1  0.2048318E-007  0.1119439E+04  0.7818608E-02  0.9186450E-01
         -1   -1    0    0    0  501 -0.00000000000E+00  0.00000000000E+00  0.10332366582E+04  0.10332366582E+04  0.00000000000E+00 0.  1.
          1   -1    0    0  501    0  0.00000000000E+00 -0.00000000000E+00 -0.30320831423E+03  0.30320831423E+03  0.00000000000E+00 0. -1.
         23    2    1    2    0    0  0.71758140583E+02 -0.16062306791E+03  0.90630809083E+02  0.21768640570E+03  0.90688626555E+02 0.  0.
        254    2    1    2    0    0 -0.71758140583E+02  0.16062306791E+03  0.63939753488E+03  0.11187585667E+04  0.90102304206E+03 0.  0.
        -24    2    4    4    0    0 -0.39870362146E+03 -0.37390293094E+01  0.62356229625E+03  0.74343573731E+03  0.69915664175E+02 0.  0.
         24    2    4    4    0    0  0.32694548087E+03  0.16436209722E+03  0.15835238631E+02  0.37532282942E+03  0.81903754697E+02 0.  0.
         13    1    3    3    0    0  0.55085906237E+02 -0.10172744057E+03  0.10339904302E+03  0.15515892281E+03  0.00000000000E+00 0.  1.
        -13    1    3    3    0    0  0.16672234345E+02 -0.58895627347E+02 -0.12768233939E+02  0.62527482891E+02  0.00000000000E+00 0. -1.
          2    1    6    6  502    0  0.16500788296E+03  0.10563815373E+03 -0.27112581910E+02  0.19779310671E+03  0.00000000000E+00 0. -1.
          1    1    5    5  503    0 -0.34477895616E+03 -0.18515029042E+02  0.56732714258E+03  0.66413509290E+03  0.00000000000E+00 0. -1.
         -2    1    5    5    0  503 -0.53924665292E+02  0.14775999733E+02  0.56235153674E+02  0.79300644409E+02  0.00000000000E+00 0.  1.
         -1    1    6    6    0  502  0.16193759791E+03  0.58723943491E+02  0.42947820541E+02  0.17752972271E+03  0.00000000000E+00 0.  1.
<mgrwt>
<rscale>  0 0.11194390E+04</rscale>
<asrwt>0</asrwt>
<pdfrwt beam="1">  1        1 0.46647433E-01 0.11194390E+04</pdfrwt>
<pdfrwt beam="2">  1       -1 0.15895948E+00 0.11194390E+04</pdfrwt>
<totfact> 0.25611163E+01</totfact>
</mgrwt>
</event>
<event>
12    1  0.2048318E-007  0.3201009E+04  0.7818608E-02  0.8188551E-01
          1   -1    0    0  501    0  0.00000000000E+00  0.00000000000E+00  0.12230139308E+04  0.12230139308E+04  0.00000000000E+00 0. -1.
         -1   -1    0    0    0  501 -0.00000000000E+00 -0.00000000000E+00 -0.20945098060E+04  0.20945098060E+04  0.00000000000E+00 0.  1.
         23    2    1    2    0    0 -0.47370032089E+03 -0.13824027301E+04 -0.22146268249E+03  0.14808513178E+04  0.91899964064E+02 0.  0.
        254    2    1    2    0    0  0.47370032089E+03  0.13824027301E+04 -0.65003319270E+03  0.18366724190E+04  0.90299120753E+03 0.  0.
        -24    2    4    4    0    0 -0.18324600528E+03  0.21135376498E+02 -0.11678046338E+03  0.23185730817E+03  0.78066203547E+02 0.  0.
         24    2    4    4    0    0  0.65694632617E+03  0.13612673537E+04 -0.53325272933E+03  0.16048151109E+04  0.80285634607E+02 0.  0.
         11    1    3    3    0    0 -0.33568490182E+03 -0.92893198713E+03 -0.10929905983E+03  0.99375312553E+03  0.00000000000E+00 0. -1.
        -11    1    3    3    0    0 -0.13801541908E+03 -0.45347074302E+03 -0.11216362266E+03  0.48709819228E+03  0.00000000000E+00 0.  1.
          2    1    6    6  502    0  0.50593682808E+02  0.79782217106E+02 -0.16660185877E+02  0.95929581986E+02  0.00000000000E+00 0. -1.
          3    1    5    5  503    0 -0.39096159522E+01  0.12058429141E+02 -0.29696511521E+02  0.32288908417E+02  0.00000000000E+00 0. -1.
         -4    1    5    5    0  503 -0.17933638933E+03  0.90769473571E+01 -0.87083951854E+02  0.19956839976E+03  0.00000000000E+00 0.  1.
         -1    1    6    6    0  502  0.60635264336E+03  0.12814851365E+04 -0.51659254345E+03  0.15088855289E+04  0.00000000000E+00 0.  1.
<mgrwt>
<rscale>  0 0.32010090E+04</rscale>
<asrwt>0</asrwt>
<pdfrwt beam="1">  1        1 0.18815599E+00 0.32010090E+04</pdfrwt>
<pdfrwt beam="2">  1       -1 0.32223227E+00 0.32010090E+04</pdfrwt>
<totfact> 0.20349083E-01</totfact>
</mgrwt>
</event>
<event>
12    1  0.2048318E-007  0.1452567E+04  0.7818608E-02  0.8916623E-01
          1   -1    0    0  501    0  0.00000000000E+00  0.00000000000E+00  0.86755799084E+03  0.86755799084E+03  0.00000000000E+00 0. -1.
         -1   -1    0    0    0  501 -0.00000000000E+00 -0.00000000000E+00 -0.60801469664E+03  0.60801469664E+03  0.00000000000E+00 0.  1.
         23    2    1    2    0    0 -0.32996243081E+03 -0.29096322924E+03  0.10273290344E+03  0.46107913300E+03  0.92223158248E+02 0.  0.
        254    2    1    2    0    0  0.32996243081E+03  0.29096322924E+03  0.15681039076E+03  0.10144935545E+04  0.90059583994E+03 0.  0.
        -24    2    4    4    0    0  0.44987477343E+03  0.54279463012E+03  0.14419134268E+03  0.72397758656E+03  0.79618341376E+02 0.  0.
         24    2    4    4    0    0 -0.11991234262E+03 -0.25183140088E+03  0.12619048078E+02  0.29051596792E+03  0.80263708267E+02 0.  0.
         11    1    3    3    0    0 -0.23525275360E+03 -0.16146459179E+03  0.93952748343E+02  0.30040271537E+03  0.00000000000E+00 0.  1.
        -11    1    3    3    0    0 -0.94709677214E+02 -0.12949863745E+03  0.87801550980E+01  0.16067641763E+03  0.00000000000E+00 0. -1.
          4    1    6    6  502    0 -0.66742683661E+02 -0.81334534119E+02  0.34175111629E+02  0.11062472833E+03  0.00000000000E+00 0. -1.
          1    1    5    5  503    0  0.22293176193E+02  0.59082961242E+01  0.29880559783E+01  0.23255583123E+02  0.00000000000E+00 0. -1.
         -2    1    5    5    0  503  0.42758159724E+03  0.53688633399E+03  0.14120328670E+03  0.70072200343E+03  0.00000000000E+00 0.  1.
         -3    1    6    6    0  502 -0.53169658954E+02 -0.17049686676E+03 -0.21556063551E+02  0.17989123959E+03  0.00000000000E+00 0.  1.
<mgrwt>
<rscale>  0 0.14525674E+04</rscale>
<asrwt>0</asrwt>
<pdfrwt beam="1">  1        1 0.13347046E+00 0.14525674E+04</pdfrwt>
<pdfrwt beam="2">  1       -1 0.93540722E-01 0.14525674E+04</pdfrwt>
<totfact> 0.20846689E+01</totfact>
</mgrwt>
</event>
<event>
12    1  0.2048318E-007  0.3594815E+04  0.7818608E-02  0.8091680E-01
         -1   -1    0    0    0  501 -0.00000000000E+00  0.00000000000E+00  0.29493749556E+04  0.29493749556E+04  0.00000000000E+00 0.  1.
          1   -1    0    0  501    0  0.00000000000E+00 -0.00000000000E+00 -0.10953755736E+04  0.10953755736E+04  0.00000000000E+00 0. -1.
         23    2    1    2    0    0  0.16732914243E+04 -0.97785579229E+02  0.10403899033E+04  0.19748826427E+04  0.91016983293E+02 0.  0.
        254    2    1    2    0    0 -0.16732914243E+04  0.97785579229E+02  0.81360947861E+03  0.20698678865E+04  0.90162435283E+03 0.  0.
        -24    2    4    4    0    0 -0.15445647540E+04 -0.86151262721E+02  0.41232583940E+03  0.16029778987E+04  0.80145033382E+02 0.  0.
         24    2    4    4    0    0 -0.12872667035E+03  0.18393684195E+03  0.40128363921E+03  0.46688998786E+03  0.80959151274E+02 0.  0.
         13    1    3    3    0    0  0.60043019321E+03  0.66308738502E+01  0.38751896755E+03  0.71465469677E+03  0.00000000000E+00 0.  1.
        -13    1    3    3    0    0  0.10728612311E+04 -0.10441645308E+03  0.65287093574E+03  0.12602279459E+04  0.00000000000E+00 0. -1.
          2    1    6    6  502    0 -0.10066400561E+03  0.18472666012E+03  0.34744224910E+03  0.40616905032E+03  0.00000000000E+00 0. -1.
          1    1    5    5  503    0 -0.11856385983E+04 -0.99284051131E+02  0.32381546145E+03  0.12330663655E+04  0.00000000000E+00 0. -1.
         -2    1    5    5    0  503 -0.35892615566E+03  0.13132788409E+02  0.88510377948E+02  0.36991153315E+03  0.00000000000E+00 0.  1.
         -1    1    6    6    0  502 -0.28062664744E+02 -0.78981816873E+00  0.53841390116E+02  0.60720937533E+02  0.00000000000E+00 0.  1.
<mgrwt>
<rscale>  0 0.35948148E+04</rscale>
<asrwt>0</asrwt>
<pdfrwt beam="1">  1        1 0.16851932E+00 0.35948148E+04</pdfrwt>
<pdfrwt beam="2">  1       -1 0.45374999E+00 0.35948148E+04</pdfrwt>
<totfact> 0.31518910E-02</totfact>
</mgrwt>
</event>
<event>
12    1  0.2048318E-007  0.1516950E+04  0.7818608E-02  0.8873259E-01
          1   -1    0    0  501    0  0.00000000000E+00  0.00000000000E+00  0.93898029188E+03  0.93898029188E+03  0.00000000000E+00 0. -1.
         -1   -1    0    0    0  501 -0.00000000000E+00 -0.00000000000E+00 -0.61266945750E+03  0.61266945750E+03  0.00000000000E+00 0.  1.
         23    2    1    2    0    0 -0.29408851535E+03 -0.24115288496E+03 -0.20285611900E+03  0.44011977676E+03  0.88949671685E+02 0.  0.
        254    2    1    2    0    0  0.29408851535E+03  0.24115288496E+03  0.52916695338E+03  0.11115299726E+04  0.90046568324E+03 0.  0.
        -24    2    4    4    0    0 -0.62022560831E+02 -0.18945463736E+03  0.50143627049E+03  0.54634544013E+03  0.85528643825E+02 0.  0.
         24    2    4    4    0    0  0.35611107618E+03  0.43060752231E+03  0.27730682890E+02  0.56518453249E+03  0.80166253123E+02 0.  0.
         13    1    3    3    0    0 -0.19993792961E+03 -0.12008642043E+03 -0.15265291038E+03  0.27874510779E+03  0.00000000000E+00 0.  1.
        -13    1    3    3    0    0 -0.94150585739E+02 -0.12106646453E+03 -0.50203208616E+02  0.16137466897E+03  0.00000000000E+00 0. -1.
          4    1    6    6  502    0  0.26734194270E+03  0.30463071841E+03 -0.13924610343E+02  0.40554344243E+03  0.00000000000E+00 0. -1.
          3    1    5    5  503    0 -0.47772296021E+02 -0.42612136651E+02  0.21235008694E+03  0.22178941787E+03  0.00000000000E+00 0. -1.
         -4    1    5    5    0  503 -0.14250264810E+02 -0.14684250071E+03  0.28908618356E+03  0.32455602226E+03  0.00000000000E+00 0.  1.
         -3    1    6    6    0  502  0.88769133483E+02  0.12597680390E+03  0.41655293233E+02  0.15964109006E+03  0.00000000000E+00 0.  1.
<mgrwt>
<rscale>  0 0.15169503E+04</rscale>
<asrwt>0</asrwt>
<pdfrwt beam="1">  1        1 0.14445851E+00 0.15169503E+04</pdfrwt>
<pdfrwt beam="2">  1       -1 0.94256840E-01 0.15169503E+04</pdfrwt>
<totfact> 0.17814097E+01</totfact>
</mgrwt>
</event>
<event>
12    1  0.2048318E-007  0.3220279E+04  0.7818608E-02  0.8183482E-01
         -1   -1    0    0    0  501 -0.00000000000E+00  0.00000000000E+00  0.16710360378E+04  0.16710360378E+04  0.00000000000E+00 0.  1.
          1   -1    0    0  501    0  0.00000000000E+00 -0.00000000000E+00 -0.15514617845E+04  0.15514617845E+04  0.00000000000E+00 0. -1.
         23    2    1    2    0    0 -0.14334787835E+04  0.27576829581E+03 -0.20902104913E+03  0.14776387041E+04  0.93897632216E+02 0.  0.
        254    2    1    2    0    0  0.14334787835E+04 -0.27576829581E+03  0.32859530244E+03  0.17448591182E+04  0.89757946384E+03 0.  0.
        -24    2    4    4    0    0  0.10841256157E+04 -0.49339798912E+02  0.59915609568E+03  0.12423261041E+04  0.81384000238E+02 0.  0.
         24    2    4    4    0    0  0.34935316777E+03 -0.22642849689E+03 -0.27056079324E+03  0.50253301412E+03  0.77580844312E+02 0.  0.
         13    1    3    3    0    0 -0.10229183670E+04  0.19508106496E+03 -0.19180265014E+03  0.10588705606E+04  0.00000000000E+00 0. -1.
        -13    1    3    3    0    0 -0.41056041646E+03  0.80687230844E+02 -0.17218398992E+02  0.41876814355E+03  0.00000000000E+00 0.  1.
          4    1    6    6  502    0  0.35348701277E+03 -0.22454685175E+03 -0.26900079137E+03  0.49773063255E+03  0.00000000000E+00 0. -1.
          1    1    5    5  503    0  0.57549897549E+03  0.92059011651E+01  0.29424607233E+03  0.64642445071E+03  0.00000000000E+00 0. -1.
         -2    1    5    5    0  503  0.50862664020E+03 -0.58545700077E+02  0.30491002335E+03  0.59590165334E+03  0.00000000000E+00 0.  1.
         -3    1    6    6    0  502 -0.41338449931E+01 -0.18816451414E+01 -0.15600018690E+01  0.48023815651E+01  0.00000000000E+00 0.  1.
<mgrwt>
<rscale>  0 0.32202786E+04</rscale>
<asrwt>0</asrwt>
<pdfrwt beam="1">  1        1 0.23868643E+00 0.32202786E+04</pdfrwt>
<pdfrwt beam="2">  1       -1 0.25708247E+00 0.32202786E+04</pdfrwt>
<totfact> 0.31550808E-01</totfact>
</mgrwt>
</event>
<event>
12    1  0.2048318E-007  0.2779510E+04  0.7818608E-02  0.8309658E-01
          2   -1    0    0  501    0  0.00000000000E+00  0.00000000000E+00  0.17272518821E+04  0.17272518821E+04  0.00000000000E+00 0. -1.
         -2   -1    0    0    0  501 -0.00000000000E+00 -0.00000000000E+00 -0.11182032485E+04  0.11182032485E+04  0.00000000000E+00 0.  1.
         23    2    1    2    0    0  0.11493679114E+04  0.39683228530E+03  0.13130930049E+02  0.12192539174E+04  0.88798847266E+02 0.  0.
        254    2    1    2    0    0 -0.11493679114E+04 -0.39683228530E+03  0.59591770357E+03  0.16262012133E+04  0.90049431880E+03 0.  0.
        -24    2    4    4    0    0 -0.93739958468E+02  0.16779593562E+03 -0.10821058137E+03  0.23497438375E+03  0.80998612785E+02 0.  0.
         24    2    4    4    0    0 -0.10556279530E+04 -0.56462822093E+03  0.70412828494E+03  0.13912268295E+04  0.80994114785E+02 0.  0.
         13    1    3    3    0    0  0.83691216806E+03  0.25931095136E+03 -0.18949077863E+02  0.87636933658E+03  0.00000000000E+00 0.  1.
        -13    1    3    3    0    0  0.31245574336E+03  0.13752133394E+03  0.32080007912E+02  0.34288458081E+03  0.00000000000E+00 0. -1.
          2    1    6    6  502    0 -0.98838977682E+02 -0.78109209450E+02  0.86814942348E+02  0.15299354995E+03  0.00000000000E+00 0. -1.
          3    1    5    5  503    0  0.42343566927E+01  0.15432111736E+02 -0.37040412970E+02  0.40349374744E+02  0.00000000000E+00 0. -1.
         -4    1    5    5    0  503 -0.97974315161E+02  0.15236382389E+03 -0.71170168401E+02  0.19462500901E+03  0.00000000000E+00 0.  1.
         -1    1    6    6    0  502 -0.95678897527E+03 -0.48651901148E+03  0.61731334259E+03  0.12382332796E+04  0.00000000000E+00 0.  1.
<mgrwt>
<rscale>  0 0.27795098E+04</rscale>
<asrwt>0</asrwt>
<pdfrwt beam="1">  1        2 0.26573106E+00 0.27795098E+04</pdfrwt>
<pdfrwt beam="2">  1       -2 0.17203127E+00 0.27795098E+04</pdfrwt>
<totfact> 0.17021562E+00</totfact>
</mgrwt>
</event>
<event>
12    1  0.2048318E-007  0.2702551E+04  0.7818608E-02  0.8334178E-01
         -1   -1    0    0    0  501 -0.00000000000E+00  0.00000000000E+00  0.28795544581E+04  0.28795544581E+04  0.00000000000E+00 0.  1.
          1   -1    0    0  501    0  0.00000000000E+00 -0.00000000000E+00 -0.63410703795E+03  0.63410703795E+03  0.00000000000E+00 0. -1.
         23    2    1    2    0    0  0.11861354615E+04 -0.17769253256E+03  0.10578959673E+04  0.16014683422E+04  0.84053579735E+02 0.  0.
        254    2    1    2    0    0 -0.11861354615E+04  0.17769253256E+03  0.11875514529E+04  0.19121931538E+04  0.89872812085E+03 0.  0.
        -24    2    4    4    0    0  0.31145708330E+02  0.23977018815E+03  0.34208220109E+03  0.42659670314E+03  0.80651823025E+02 0.  0.
         24    2    4    4    0    0 -0.12172811698E+04 -0.62077655583E+02  0.84546925176E+03  0.14855964507E+04  0.80941193790E+02 0.  0.
         13    1    3    3    0    0  0.81211980160E+03 -0.93620628763E+02  0.68284295694E+03  0.10651656670E+04  0.00000000000E+00 0. -1.
        -13    1    3    3    0    0  0.37401565991E+03 -0.84071903801E+02  0.37505301032E+03  0.53630267519E+03  0.00000000000E+00 0.  1.
          2    1    6    6  502    0 -0.33755113917E+02  0.10798756159E+02  0.30650181091E+02  0.46855676828E+02  0.00000000000E+00 0. -1.
          3    1    5    5  503    0  0.25410617926E+02  0.16399086590E+02  0.55447464610E+02  0.63158933462E+02  0.00000000000E+00 0. -1.
         -4    1    5    5    0  503  0.57350904032E+01  0.22337110156E+03  0.28663473648E+03  0.36343776968E+03  0.00000000000E+00 0.  1.
         -1    1    6    6    0  502 -0.11835260559E+04 -0.72876411742E+02  0.81481907067E+03  0.14387407739E+04  0.00000000000E+00 0.  1.
<mgrwt>
<rscale>  0 0.27025512E+04</rscale>
<asrwt>0</asrwt>
<pdfrwt beam="1">  1        1 0.97554931E-01 0.27025512E+04</pdfrwt>
<pdfrwt beam="2">  1       -1 0.44300837E+00 0.27025512E+04</pdfrwt>
<totfact> 0.99629182E-02</totfact>
</mgrwt>
</event>
<event>
12    1  0.2048318E-007  0.4045346E+04  0.7818608E-02  0.7995461E-01
          1   -1    0    0  501    0  0.00000000000E+00  0.00000000000E+00  0.24985219878E+04  0.24985219878E+04  0.00000000000E+00 0. -1.
         -1   -1    0    0    0  501 -0.00000000000E+00 -0.00000000000E+00 -0.16374506434E+04  0.16374506434E+04  0.00000000000E+00 0.  1.
         23    2    1    2    0    0  0.12014171199E+04  0.13881830442E+04  0.98660690234E+03  0.20867955147E+04  0.10424528897E+03 0.  0.
        254    2    1    2    0    0 -0.12014171199E+04 -0.13881830442E+04 -0.12553555794E+03  0.20491771165E+04  0.90161655832E+03 0.  0.
        -24    2    4    4    0    0 -0.38538629938E+03 -0.21242336012E+03  0.31797951530E+03  0.54868219786E+03  0.79340395921E+02 0.  0.
         24    2    4    4    0    0 -0.81603082050E+03 -0.11757596841E+04 -0.44351507325E+03  0.15004949186E+04  0.80388095354E+02 0.  0.
         11    1    3    3    0    0  0.49928827861E+03  0.50015152492E+03  0.38706383781E+03  0.80576593846E+03  0.00000000000E+00 0. -1.
        -11    1    3    3    0    0  0.70212884127E+03  0.88803151928E+03  0.59954306453E+03  0.12810295762E+04  0.00000000000E+00 0.  1.
          4    1    6    6  502    0 -0.31205431545E+03 -0.46766299429E+03 -0.21400785298E+03  0.60156955803E+03  0.00000000000E+00 0. -1.
          1    1    5    5  503    0 -0.25467357306E+03 -0.13732323782E+03  0.16132392438E+03  0.33127286191E+03  0.00000000000E+00 0. -1.
         -2    1    5    5    0  503 -0.13071272631E+03 -0.75100122301E+02  0.15665559093E+03  0.21740933595E+03  0.00000000000E+00 0.  1.
         -3    1    6    6    0  502 -0.50397650506E+03 -0.70809668979E+03 -0.22950722027E+03  0.89892536058E+03  0.00000000000E+00 0.  1.
<mgrwt>
<rscale>  0 0.40453462E+04</rscale>
<asrwt>0</asrwt>
<pdfrwt beam="1">  1        1 0.38438800E+00 0.40453462E+04</pdfrwt>
<pdfrwt beam="2">  1       -1 0.25191548E+00 0.40453462E+04</pdfrwt>
<totfact> 0.71727413E-02</totfact>
</mgrwt>
</event>
<event>
12    1  0.2048318E-007  0.1632480E+04  0.7818608E-02  0.8800839E-01
          1   -1    0    0  501    0  0.00000000000E+00  0.00000000000E+00  0.26192293815E+04  0.26192293815E+04  0.00000000000E+00 0. -1.
         -1   -1    0    0    0  501 -0.00000000000E+00 -0.00000000000E+00 -0.25436775505E+03  0.25436775505E+03  0.00000000000E+00 0.  1.
         23    2    1    2    0    0  0.33717973134E+03 -0.14027300925E+03  0.71458652751E+02  0.38301767707E+03  0.90716666286E+02 0.  0.
        254    2    1    2    0    0 -0.33717973134E+03  0.14027300925E+03  0.22934029737E+04  0.24905794595E+04  0.89995675223E+03 0.  0.
        -24    2    4    4    0    0 -0.18034754680E+02 -0.20059009930E+03  0.87369917307E+02  0.23438159695E+03  0.82095007302E+02 0.  0.
         24    2    4    4    0    0 -0.31914497666E+03  0.34086310855E+03  0.22060330564E+04  0.22561978625E+04  0.76195630584E+02 0.  0.
         13    1    3    3    0    0  0.12579605354E+03 -0.64528221026E+02  0.71589991719E+02  0.15847291664E+03  0.00000000000E+00 0. -1.
        -13    1    3    3    0    0  0.21138367781E+03 -0.75744788221E+02 -0.13133896818E+00  0.22454476043E+03  0.00000000000E+00 0.  1.
          2    1    6    6  502    0 -0.28818575105E+03  0.32114928872E+03  0.19243422166E+04  0.19721259745E+04  0.00000000000E+00 0. -1.
          3    1    5    5  503    0 -0.14689879730E+02 -0.20455589860E+03  0.94300443080E+02  0.22572434912E+03  0.00000000000E+00 0. -1.
         -4    1    5    5    0  503 -0.33448749496E+01  0.39657993008E+01 -0.69305257730E+01  0.86572478313E+01  0.00000000000E+00 0.  1.
         -1    1    6    6    0  502 -0.30959225612E+02  0.19713819825E+02  0.28169083981E+03  0.28407188805E+03  0.00000000000E+00 0.  1.
<mgrwt>
<rscale>  0 0.16324797E+04</rscale>
<asrwt>0</asrwt>
<pdfrwt beam="1">  1        1 0.40295835E+00 0.16324797E+04</pdfrwt>
<pdfrwt beam="2">  1       -1 0.39133502E-01 0.16324797E+04</pdfrwt>
<totfact> 0.68030488E+00</totfact>
</mgrwt>
</event>
<event>
12    1  0.2048318E-007  0.2031910E+04  0.7818608E-02  0.8591845E-01
          2   -1    0    0  501    0  0.00000000000E+00  0.00000000000E+00  0.21425231815E+04  0.21425231815E+04  0.00000000000E+00 0.  1.
         -2   -1    0    0    0  501 -0.00000000000E+00 -0.00000000000E+00 -0.48175184393E+03  0.48175184393E+03  0.00000000000E+00 0. -1.
         23    2    1    2    0    0 -0.19853095353E+03  0.70707523938E+03  0.10976548693E+04  0.13238823820E+04  0.91915262995E+02 0.  0.
        254    2    1    2    0    0  0.19853095353E+03 -0.70707523938E+03  0.56311646827E+03  0.13003926435E+04  0.91353759455E+03 0.  0.
        -24    2    4    4    0    0 -0.28449563334E+03 -0.26445279315E+03  0.49892637473E+03  0.63745199431E+03  0.80897913698E+02 0.  0.
         24    2    4    4    0    0  0.48302658688E+03 -0.44262244623E+03  0.64190093541E+02  0.66294064915E+03  0.78362125150E+02 0.  0.
         13    1    3    3    0    0 -0.66745403228E+02  0.13702730826E+03  0.18377744996E+03  0.23875842011E+03  0.00000000000E+00 0. -1.
        -13    1    3    3    0    0 -0.13178555030E+03  0.57004793112E+03  0.91387741935E+03  0.10851239619E+04  0.00000000000E+00 0.  1.
          4    1    6    6  502    0  0.38220792271E+03 -0.30387049800E+03  0.50293448400E+02  0.49086618002E+03  0.00000000000E+00 0. -1.
          3    1    5    5  503    0 -0.25698415550E+03 -0.22797446318E+03  0.39232079587E+03  0.52146794620E+03  0.00000000000E+00 0. -1.
         -4    1    5    5    0  503 -0.27511477847E+02 -0.36478329978E+02  0.10660557886E+03  0.11598404811E+03  0.00000000000E+00 0.  1.
         -3    1    6    6    0  502  0.10081866417E+03 -0.13875194823E+03  0.13896645141E+02  0.17207446913E+03  0.00000000000E+00 0.  1.
<mgrwt>
<rscale>  0 0.20319099E+04</rscale>
<asrwt>0</asrwt>
<pdfrwt beam="1">  1        2 0.32961895E+00 0.20319099E+04</pdfrwt>
<pdfrwt beam="2">  1       -2 0.74115669E-01 0.20319099E+04</pdfrwt>
<totfact> 0.84496034E+00</totfact>
</mgrwt>
</event>
<event>
12    1  0.2048318E-007  0.1313402E+04  0.7818608E-02  0.9019004E-01
         -1   -1    0    0    0  501 -0.00000000000E+00  0.00000000000E+00  0.21359702259E+03  0.21359702259E+03  0.00000000000E+00 0.  1.
          1   -1    0    0  501    0  0.00000000000E+00 -0.00000000000E+00 -0.20190172146E+04  0.20190172146E+04  0.00000000000E+00 0. -1.
         23    2    1    2    0    0  0.42177425997E+02 -0.33602448475E+03 -0.47544736527E+03  0.59058199156E+03  0.89696722350E+02 0.  0.
        254    2    1    2    0    0 -0.42177425997E+02  0.33602448475E+03 -0.13299728267E+04  0.16420322456E+04  0.90152691928E+03 0.  0.
        -24    2    4    4    0    0 -0.41625396153E+03 -0.39977859093E+02 -0.60814388930E+03  0.74218269791E+03  0.78298003025E+02 0.  0.
         24    2    4    4    0    0  0.37407653553E+03  0.37600234384E+03 -0.72182893743E+03  0.89984954770E+03  0.85913774087E+02 0.  0.
         11    1    3    3    0    0  0.52825991703E+02 -0.17317948238E+03 -0.30437527914E+03  0.35415537419E+03  0.00000000000E+00 0. -1.
        -11    1    3    3    0    0 -0.10648565706E+02 -0.16284500237E+03 -0.17107208613E+03  0.23642661737E+03  0.00000000000E+00 0.  1.
          2    1    6    6  502    0  0.16858593076E+02  0.38442206156E+01 -0.49429254300E+02  0.52366414555E+02  0.00000000000E+00 0. -1.
          3    1    5    5  503    0 -0.42388160401E+02  0.65288167290E+01 -0.30852411342E+02  0.52832309013E+02  0.00000000000E+00 0. -1.
         -4    1    5    5    0  503 -0.37386580113E+03 -0.46506675822E+02 -0.57729147796E+03  0.68935038890E+03  0.00000000000E+00 0.  1.
         -1    1    6    6    0  502  0.35721794246E+03  0.37215812323E+03 -0.67239968313E+03  0.84748313315E+03  0.00000000000E+00 0.  1.
<mgrwt>
<rscale>  0 0.13134018E+04</rscale>
<asrwt>0</asrwt>
<pdfrwt beam="1">  1        1 0.31061802E+00 0.13134018E+04</pdfrwt>
<pdfrwt beam="2">  1       -1 0.32861082E-01 0.13134018E+04</pdfrwt>
<totfact> 0.24693684E+01</totfact>
</mgrwt>
</event>
<event>
12    1  0.2048318E-007  0.4477392E+04  0.7818608E-02  0.7914607E-01
         -2   -1    0    0    0  501 -0.00000000000E+00  0.00000000000E+00  0.24973827930E+04  0.24973827930E+04  0.00000000000E+00 0. -1.
          2   -1    0    0  501    0  0.00000000000E+00 -0.00000000000E+00 -0.20068048086E+04  0.20068048086E+04  0.00000000000E+00 0.  1.
         23    2    1    2    0    0 -0.18106112092E+04 -0.31819503243E+03  0.13499163951E+04  0.22826415963E+04  0.92829702233E+02 0.  0.
        254    2    1    2    0    0  0.18106112092E+04  0.31819503243E+03 -0.85933841075E+03  0.22215460053E+04  0.90401499968E+03 0.  0.
        -24    2    4    4    0    0  0.72801826415E+03 -0.22093717910E+03 -0.62316839639E+03  0.98665661732E+03  0.79552499591E+02 0.  0.
         24    2    4    4    0    0  0.10825929451E+04  0.53913221154E+03 -0.23617001436E+03  0.12348893879E+04  0.80650471320E+02 0.  0.
         13    1    3    3    0    0 -0.84314050757E+03 -0.15584987925E+03  0.57304339917E+03  0.10312874661E+04  0.00000000000E+00 0.  1.
        -13    1    3    3    0    0 -0.96747070165E+03 -0.16234515319E+03  0.77687299597E+03  0.12513541302E+04  0.00000000000E+00 0. -1.
          4    1    6    6  502    0  0.51497580117E+02  0.21858812845E+02  0.56961953417E+01  0.56233931912E+02  0.00000000000E+00 0. -1.
          1    1    5    5  503    0  0.14948214403E+01 -0.46612188295E+01  0.65691674671E+00  0.49389261715E+01  0.00000000000E+00 0. -1.
         -2    1    5    5    0  503  0.72652344271E+03 -0.21627596028E+03 -0.62382531314E+03  0.98171769115E+03  0.00000000000E+00 0.  1.
         -3    1    6    6    0  502  0.10310953650E+04  0.51727339869E+03 -0.24186620970E+03  0.11786554560E+04  0.00000000000E+00 0.  1.
<mgrwt>
<rscale>  0 0.44773920E+04</rscale>
<asrwt>0</asrwt>
<pdfrwt beam="1">  1        2 0.30873920E+00 0.44773920E+04</pdfrwt>
<pdfrwt beam="2">  1       -2 0.38421273E+00 0.44773920E+04</pdfrwt>
<totfact> 0.47277687E-02</totfact>
</mgrwt>
</event>
<event>
12    1  0.2048318E-007  0.3331042E+04  0.7818608E-02  0.8155041E-01
         -2   -1    0    0    0  501 -0.00000000000E+00  0.00000000000E+00  0.14594055580E+04  0.14594055580E+04  0.00000000000E+00 0.  1.
          2   -1    0    0  501    0  0.00000000000E+00 -0.00000000000E+00 -0.19007471351E+04  0.19007471351E+04  0.00000000000E+00 0. -1.
         23    2    1    2    0    0 -0.10745368608E+04  0.43908860240E+03  0.81926008986E+03  0.14242924377E+04  0.99967931563E+02 0.  0.
        254    2    1    2    0    0  0.10745368608E+04 -0.43908860240E+03 -0.12606016669E+04  0.19358602554E+04  0.90056099166E+03 0.  0.
        -24    2    4    4    0    0  0.95995512354E+03 -0.37920811511E+03 -0.13928857676E+04  0.17354796217E+04  0.80287745252E+02 0.  0.
         24    2    4    4    0    0  0.11458173727E+03 -0.59880487295E+02  0.13228410067E+03  0.20038063367E+03  0.77062752254E+02 0.  0.
         13    1    3    3    0    0 -0.63268502740E+03  0.21476142778E+03  0.43563611673E+03  0.79761622411E+03  0.00000000000E+00 0.  1.
        -13    1    3    3    0    0 -0.44185183340E+03  0.22432717462E+03  0.38362397313E+03  0.62667621362E+03  0.00000000000E+00 0. -1.
          4    1    6    6  502    0  0.70257188672E+02  0.43086884659E+01  0.46125700378E+02  0.84155912399E+02  0.00000000000E+00 0. -1.
          3    1    5    5  503    0  0.16554973726E+02 -0.18315200877E+01 -0.99546529536E+01  0.19404039175E+02  0.00000000000E+00 0. -1.
         -4    1    5    5    0  503  0.94340014981E+03 -0.37737659502E+03 -0.13829311146E+04  0.17160755825E+04  0.00000000000E+00 0.  1.
         -3    1    6    6    0  502  0.44324548599E+02 -0.64189175760E+02  0.86158400295E+02  0.11622472127E+03  0.00000000000E+00 0.  1.
<mgrwt>
<rscale>  0 0.33310424E+04</rscale>
<asrwt>0</asrwt>
<pdfrwt beam="1">  1        2 0.29242264E+00 0.33310424E+04</pdfrwt>
<pdfrwt beam="2">  1       -2 0.22452393E+00 0.33310424E+04</pdfrwt>
<totfact> 0.58490524E-01</totfact>
</mgrwt>
</event>
<event>
12    1  0.2048318E-007  0.1317258E+04  0.7818608E-02  0.9015990E-01
         -1   -1    0    0    0  501 -0.00000000000E+00  0.00000000000E+00  0.22568154703E+04  0.22568154703E+04  0.00000000000E+00 0.  1.
          1   -1    0    0  501    0  0.00000000000E+00 -0.00000000000E+00 -0.19221425688E+03  0.19221425688E+03  0.00000000000E+00 0. -1.
         23    2    1    2    0    0  0.14878110232E+03 -0.27844900170E+03  0.80194753665E+03  0.86656812046E+03  0.90281741768E+02 0.  0.
        254    2    1    2    0    0 -0.14878110232E+03  0.27844900170E+03  0.12626536768E+04  0.15824616067E+04  0.90012263961E+03 0.  0.
        -24    2    4    4    0    0  0.25465527265E+03  0.43679227045E+03  0.63234854315E+03  0.81346327094E+03  0.78873428465E+02 0.  0.
         24    2    4    4    0    0 -0.40343637496E+03 -0.15834326875E+03  0.63030513361E+03  0.76899833578E+03  0.78996073196E+02 0.  0.
         11    1    3    3    0    0 -0.12478189482E+02 -0.20389375670E+02  0.65640955085E+02  0.69858190912E+02  0.00000000000E+00 0. -1.
        -11    1    3    3    0    0  0.16125929180E+03 -0.25805962603E+03  0.73630658157E+03  0.79670992955E+03  0.00000000000E+00 0.  1.
          4    1    6    6  502    0 -0.34329411397E+03 -0.11034224171E+03  0.48242372610E+03  0.60229470403E+03  0.00000000000E+00 0. -1.
          1    1    5    5  503    0  0.20677123815E+03  0.29399825665E+03  0.47485935187E+03  0.59555077357E+03  0.00000000000E+00 0. -1.
         -2    1    5    5    0  503  0.47884034498E+02  0.14279401380E+03  0.15748919129E+03  0.21791249737E+03  0.00000000000E+00 0.  1.
         -3    1    6    6    0  502 -0.60142260990E+02 -0.48001027041E+02  0.14788140750E+03  0.16670363175E+03  0.00000000000E+00 0.  1.
<mgrwt>
<rscale>  0 0.13172579E+04</rscale>
<asrwt>0</asrwt>
<pdfrwt beam="1">  1        1 0.29571426E-01 0.13172579E+04</pdfrwt>
<pdfrwt beam="2">  1       -1 0.34720236E+00 0.13172579E+04</pdfrwt>
<totfact> 0.25135696E+00</totfact>
</mgrwt>
</event>
<event>
12    1  0.2048318E-007  0.1549561E+04  0.7818608E-02  0.8852148E-01
          2   -1    0    0  501    0  0.00000000000E+00  0.00000000000E+00  0.73419474692E+03  0.73419474692E+03  0.00000000000E+00 0.  1.
         -2   -1    0    0    0  501 -0.00000000000E+00 -0.00000000000E+00 -0.81761013299E+03  0.81761013299E+03  0.00000000000E+00 0. -1.
         23    2    1    2    0    0 -0.32487608441E+03  0.38401667722E+03 -0.94757822387E+02  0.51937696256E+03  0.88091462251E+02 0.  0.
        254    2    1    2    0    0  0.32487608441E+03 -0.38401667722E+03  0.11342436318E+02  0.10324279174E+04  0.90153506590E+03 0.  0.
        -24    2    4    4    0    0 -0.60895729134E+02  0.25817316317E+03  0.27075015361E+02  0.27848160116E+03  0.80357163473E+02 0.  0.
         24    2    4    4    0    0  0.38577181355E+03 -0.64218984039E+03 -0.15732579043E+02  0.75394631619E+03  0.83425718051E+02 0.  0.
         13    1    3    3    0    0 -0.22022231655E+03  0.25598422621E+03 -0.21053788985E+02  0.33833275751E+03  0.00000000000E+00 0.  1.
        -13    1    3    3    0    0 -0.10465376786E+03  0.12803245101E+03 -0.73704033402E+02  0.18104420504E+03  0.00000000000E+00 0. -1.
          4    1    6    6  502    0  0.30816906130E+03 -0.56736631497E+03 -0.21240983311E+02  0.64600610297E+03  0.00000000000E+00 0. -1.
          1    1    5    5  503    0 -0.29408492340E+02  0.10544113736E+03  0.50912916050E+02  0.12072621045E+03  0.00000000000E+00 0. -1.
         -2    1    5    5    0  503 -0.31487236794E+02  0.15273202581E+03 -0.23837900689E+02  0.15775539071E+03  0.00000000000E+00 0.  1.
         -3    1    6    6    0  502  0.77602752251E+02 -0.74823525417E+02  0.55084042685E+01  0.10794021322E+03  0.00000000000E+00 0.  1.
<mgrwt>
<rscale>  0 0.15495613E+04</rscale>
<asrwt>0</asrwt>
<pdfrwt beam="1">  1        2 0.11295304E+00 0.15495613E+04</pdfrwt>
<pdfrwt beam="2">  1       -2 0.12578617E+00 0.15495613E+04</pdfrwt>
<totfact> 0.17510494E+01</totfact>
</mgrwt>
</event>
<event>
12    1  0.2048318E-007  0.1701280E+04  0.7818608E-02  0.8760635E-01
         -2   -1    0    0    0  501 -0.00000000000E+00  0.00000000000E+00  0.70600683257E+03  0.70600683257E+03  0.00000000000E+00 0.  1.
          2   -1    0    0  501    0  0.00000000000E+00 -0.00000000000E+00 -0.10249027882E+04  0.10249027882E+04  0.00000000000E+00 0. -1.
         23    2    1    2    0    0 -0.41844879033E+03  0.12610179729E+03  0.31547678060E+03  0.54634551511E+03  0.89256760957E+02 0.  0.
        254    2    1    2    0    0  0.41844879033E+03 -0.12610179729E+03 -0.63437273625E+03  0.11845641057E+04  0.89986793395E+03 0.  0.
        -24    2    4    4    0    0  0.16404221506E+03 -0.28157778298E+03 -0.77608738871E+03  0.84577173358E+03  0.82597180506E+02 0.  0.
         24    2    4    4    0    0  0.25440657527E+03  0.15547598569E+03  0.14171465246E+03  0.33879237209E+03  0.76169160443E+02 0.  0.
         11    1    3    3    0    0 -0.62813851119E+02  0.16695248187E+02  0.90885222236E+02  0.11173376761E+03  0.00000000000E+00 0.  1.
        -11    1    3    3    0    0 -0.35563493921E+03  0.10940654910E+03  0.22459155836E+03  0.43461174750E+03  0.00000000000E+00 0. -1.
          2    1    6    6  502    0  0.88714739210E+02  0.21065985327E+02  0.65359574202E+02  0.11218714111E+03  0.00000000000E+00 0. -1.
          1    1    5    5  503    0  0.40976328580E+02 -0.17199370834E+02 -0.11062347513E+03  0.11921590125E+03  0.00000000000E+00 0. -1.
         -2    1    5    5    0  503  0.12306588648E+03 -0.26437841214E+03 -0.66546391358E+03  0.72655583234E+03  0.00000000000E+00 0.  1.
         -1    1    6    6    0  502  0.16569183606E+03  0.13441000036E+03  0.76355078258E+02  0.22660523098E+03  0.00000000000E+00 0.  1.
<mgrwt>
<rscale>  0 0.17012800E+04</rscale>
<asrwt>0</asrwt>
<pdfrwt beam="1">  1        2 0.15767735E+00 0.17012800E+04</pdfrwt>
<pdfrwt beam="2">  1       -2 0.10861644E+00 0.17012800E+04</pdfrwt>
<totfact> 0.15653141E+01</totfact>
</mgrwt>
</event>
<event>
12    1  0.2048318E-007  0.1645448E+04  0.7818608E-02  0.8793104E-01
         -2   -1    0    0    0  501 -0.00000000000E+00  0.00000000000E+00  0.43070599206E+03  0.43070599206E+03  0.00000000000E+00 0.  1.
          2   -1    0    0  501    0  0.00000000000E+00 -0.00000000000E+00 -0.15715462816E+04  0.15715462816E+04  0.00000000000E+00 0. -1.
         23    2    1    2    0    0  0.41928166706E+03  0.38083749826E+03 -0.49885656383E+03  0.76010328577E+03  0.89804328107E+02 0.  0.
        254    2    1    2    0    0 -0.41928166706E+03 -0.38083749826E+03 -0.64198372572E+03  0.12421489879E+04  0.89997593724E+03 0.  0.
        -24    2    4    4    0    0  0.16261873161E+03 -0.43631590689E+03 -0.31415883518E+03  0.56714150832E+03  0.78340884998E+02 0.  0.
         24    2    4    4    0    0 -0.58190039867E+03  0.55478408632E+02 -0.32782489054E+03  0.67500747957E+03  0.80498514418E+02 0.  0.
         11    1    3    3    0    0  0.31626275989E+03  0.33509947798E+03 -0.39939855571E+03  0.60978110805E+03  0.00000000000E+00 0. -1.
        -11    1    3    3    0    0  0.10301890718E+03  0.45738020280E+02 -0.99458008120E+02  0.15032217772E+03  0.00000000000E+00 0.  1.
          2    1    6    6  502    0 -0.31605678468E+03  0.70230163124E+02 -0.17609191626E+03  0.36855464985E+03  0.00000000000E+00 0. -1.
          3    1    5    5  503    0  0.13762385623E+03 -0.35621738769E+03 -0.29093995459E+03  0.48008042063E+03  0.00000000000E+00 0. -1.
         -4    1    5    5    0  503  0.24994875379E+02 -0.80098519206E+02 -0.23218880585E+02  0.87061087690E+02  0.00000000000E+00 0.  1.
         -1    1    6    6    0  502 -0.26584361398E+03 -0.14751754493E+02 -0.15173297428E+03  0.30645282972E+03  0.00000000000E+00 0.  1.
<mgrwt>
<rscale>  0 0.16454475E+04</rscale>
<asrwt>0</asrwt>
<pdfrwt beam="1">  1        2 0.24177635E+00 0.16454475E+04</pdfrwt>
<pdfrwt beam="2">  1       -2 0.66262461E-01 0.16454475E+04</pdfrwt>
<totfact> 0.23152243E+01</totfact>
</mgrwt>
</event>
<event>
12    1  0.2048318E-007  0.1485281E+04  0.7818608E-02  0.8894300E-01
         -1   -1    0    0    0  501 -0.00000000000E+00  0.00000000000E+00  0.10301804950E+04  0.10301804950E+04  0.00000000000E+00 0.  1.
          1   -1    0    0  501    0  0.00000000000E+00 -0.00000000000E+00 -0.53535734493E+03  0.53535734493E+03  0.00000000000E+00 0. -1.
         23    2    1    2    0    0 -0.38198567163E+03  0.26305203261E+03  0.14820626729E+03  0.49529250208E+03  0.90775215574E+02 0.  0.
        254    2    1    2    0    0  0.38198567163E+03 -0.26305203261E+03  0.34661688280E+03  0.10702453379E+04  0.90009576968E+03 0.  0.
        -24    2    4    4    0    0  0.13651808351E+03 -0.47877107199E+03  0.49146722009E+03  0.70477531913E+03  0.85494418137E+02 0.  0.
         24    2    4    4    0    0  0.24546758813E+03  0.21571903938E+03 -0.14485033729E+03  0.36547001874E+03  0.76142456037E+02 0.  0.
         13    1    3    3    0    0 -0.23383851657E+03  0.21126680702E+03  0.10982714858E+03  0.33373060715E+03  0.00000000000E+00 0.  1.
        -13    1    3    3    0    0 -0.14814715506E+03  0.51785225584E+02  0.38379118710E+02  0.16156189493E+03  0.00000000000E+00 0. -1.
          4    1    6    6  502    0  0.80518369697E+02  0.11759304669E+03 -0.76364906902E+02  0.16168775926E+03  0.00000000000E+00 0. -1.
          3    1    5    5  503    0  0.45386465970E+02 -0.53342808618E+02  0.65797475296E+02  0.96097316715E+02  0.00000000000E+00 0. -1.
         -4    1    5    5    0  503  0.91131617536E+02 -0.42542826337E+03  0.42566974479E+03  0.60867800242E+03  0.00000000000E+00 0.  1.
         -3    1    6    6    0  502  0.16494921843E+03  0.98125992691E+02 -0.68485430384E+02  0.20378225948E+03  0.00000000000E+00 0.  1.
<mgrwt>
<rscale>  0 0.14852807E+04</rscale>
<asrwt>0</asrwt>
<pdfrwt beam="1">  1        1 0.82362669E-01 0.14852807E+04</pdfrwt>
<pdfrwt beam="2">  1       -1 0.15848931E+00 0.14852807E+04</pdfrwt>
<totfact> 0.11710580E+01</totfact>
</mgrwt>
</event>
<event>
12    1  0.2048318E-007  0.1469248E+04  0.7818608E-02  0.8905164E-01
         -1   -1    0    0    0  501 -0.00000000000E+00  0.00000000000E+00  0.15543877873E+04  0.15543877873E+04  0.00000000000E+00 0.  1.
          1   -1    0    0  501    0  0.00000000000E+00 -0.00000000000E+00 -0.34719311908E+03  0.34719311908E+03  0.00000000000E+00 0. -1.
         23    2    1    2    0    0  0.58921025423E+02 -0.44462258403E+03  0.43122128593E+03  0.62921234098E+03  0.93784023952E+02 0.  0.
        254    2    1    2    0    0 -0.58921025423E+02  0.44462258403E+03  0.77597338226E+03  0.12723685654E+04  0.90312022825E+03 0.  0.
        -24    2    4    4    0    0 -0.24143245861E+03  0.51071817501E+02  0.79032998660E+03  0.83126330647E+03  0.74021850548E+02 0.  0.
         24    2    4    4    0    0  0.18251143319E+03  0.39355076653E+03 -0.14356604344E+02  0.44110525889E+03  0.78581857006E+02 0.  0.
         11    1    3    3    0    0  0.64900829114E+02 -0.16295776398E+03  0.14474416435E+03  0.22741641008E+03  0.00000000000E+00 0.  1.
        -11    1    3    3    0    0 -0.59798036914E+01 -0.28166482005E+03  0.28647712157E+03  0.40179593090E+03  0.00000000000E+00 0. -1.
          2    1    6    6  502    0  0.88836390310E+02  0.27878248630E+03 -0.44197230243E+01  0.29262794273E+03  0.00000000000E+00 0. -1.
          1    1    5    5  503    0 -0.21758971619E+03  0.59609686878E+02  0.75362174235E+03  0.78666659387E+03  0.00000000000E+00 0. -1.
         -2    1    5    5    0  503 -0.23842742418E+02 -0.85378693770E+01  0.36708244246E+02  0.44596712605E+02  0.00000000000E+00 0.  1.
         -1    1    6    6    0  502  0.93675042877E+02  0.11476828022E+03 -0.99368813197E+01  0.14847731616E+03  0.00000000000E+00 0.  1.
<mgrwt>
<rscale>  0 0.14692484E+04</rscale>
<asrwt>0</asrwt>
<pdfrwt beam="1">  1        1 0.53414327E-01 0.14692484E+04</pdfrwt>
<pdfrwt beam="2">  1       -1 0.23913658E+00 0.14692484E+04</pdfrwt>
<totfact> 0.57683033E+00</totfact>
</mgrwt>
</event>
<event>
12    1  0.2048318E-007  0.2592928E+04  0.7818608E-02  0.8370607E-01
         -2   -1    0    0    0  501 -0.00000000000E+00  0.00000000000E+00  0.55173469109E+03  0.55173469109E+03  0.00000000000E+00 0.  1.
          2   -1    0    0  501    0  0.00000000000E+00 -0.00000000000E+00 -0.30464252422E+04  0.30464252422E+04  0.00000000000E+00 0. -1.
         23    2    1    2    0    0  0.77801766134E+03  0.24492770062E+03 -0.22000961210E+04  0.23486564077E+04  0.10228841561E+03 0.  0.
        254    2    1    2    0    0 -0.77801766134E+03 -0.24492770062E+03 -0.29459443009E+03  0.12495035256E+04  0.89953995034E+03 0.  0.
        -24    2    4    4    0    0 -0.73921876019E+03 -0.24950224196E+03  0.14829119099E+03  0.79829162808E+03  0.81138782162E+02 0.  0.
         24    2    4    4    0    0 -0.38798901144E+02  0.45745413339E+01 -0.44288562109E+03  0.45121189748E+03  0.76929980530E+02 0.  0.
         13    1    3    3    0    0  0.35802940125E+03  0.85364006366E+02 -0.86713974903E+03  0.94202091808E+03  0.00000000000E+00 0.  1.
        -13    1    3    3    0    0  0.41998826009E+03  0.15956369426E+03 -0.13329563720E+04  0.14066354897E+04  0.00000000000E+00 0. -1.
          2    1    6    6  502    0 -0.62111488173E+02  0.79111223599E+01 -0.33208331733E+03  0.33793453873E+03  0.00000000000E+00 0. -1.
          1    1    5    5  503    0 -0.63200070419E+03 -0.19503505418E+03  0.14919510476E+03  0.67802857000E+03  0.00000000000E+00 0. -1.
         -2    1    5    5    0  503 -0.10721805600E+03 -0.54467187775E+02 -0.90391377148E+00  0.12026305807E+03  0.00000000000E+00 0.  1.
         -1    1    6    6    0  502  0.23312587029E+02 -0.33365810260E+01 -0.11080230376E+03  0.11327735875E+03  0.00000000000E+00 0.  1.
<mgrwt>
<rscale>  0 0.25929277E+04</rscale>
<asrwt>0</asrwt>
<pdfrwt beam="1">  1        2 0.46868080E+00 0.25929277E+04</pdfrwt>
<pdfrwt beam="2">  1       -2 0.84882261E-01 0.25929277E+04</pdfrwt>
<totfact> 0.17413285E+00</totfact>
</mgrwt>
</event>
<event>
12    1  0.2048318E-007  0.1434690E+04  0.7818608E-02  0.8929084E-01
         -2   -1    0    0    0  501 -0.00000000000E+00  0.00000000000E+00  0.26140448477E+03  0.26140448477E+03  0.00000000000E+00 0.  1.
          2   -1    0    0  501    0  0.00000000000E+00 -0.00000000000E+00 -0.19685344681E+04  0.19685344681E+04  0.00000000000E+00 0. -1.
         23    2    1    2    0    0 -0.37621120643E+03 -0.17734452244E+03 -0.34964231917E+03  0.55049775644E+03  0.88385954774E+02 0.  0.
        254    2    1    2    0    0  0.37621120643E+03  0.17734452244E+03 -0.13574876641E+04  0.16794411964E+04  0.89708640746E+03 0.  0.
        -24    2    4    4    0    0  0.28444642739E+03  0.47410997469E+03 -0.45125157162E+03  0.71814800885E+03  0.80115813411E+02 0.  0.
         24    2    4    4    0    0  0.91764779040E+02 -0.29676545225E+03 -0.90623609251E+03  0.96129318756E+03  0.79562734788E+02 0.  0.
         11    1    3    3    0    0 -0.36846259473E+03 -0.16817925606E+03 -0.35380129520E+03  0.53779578129E+03  0.00000000000E+00 0. -1.
        -11    1    3    3    0    0 -0.77486117019E+01 -0.91652663796E+01  0.41589760280E+01  0.12701975150E+02  0.00000000000E+00 0.  1.
          2    1    6    6  502    0 -0.25437023232E+01 -0.79583302333E+02 -0.30205090552E+03  0.31236952790E+03  0.00000000000E+00 0. -1.
          3    1    5    5  503    0  0.77674508856E+02  0.69796682204E+02 -0.90266967123E+02  0.13803271904E+03  0.00000000000E+00 0. -1.
         -4    1    5    5    0  503  0.20677191854E+03  0.40431329249E+03 -0.36098460450E+03  0.58011528980E+03  0.00000000000E+00 0.  1.
         -1    1    6    6    0  502  0.94308481363E+02 -0.21718214992E+03 -0.60418518699E+03  0.64892365967E+03  0.00000000000E+00 0.  1.
<mgrwt>
<rscale>  0 0.14346898E+04</rscale>
<asrwt>0</asrwt>
<pdfrwt beam="1">  1        2 0.30285146E+00 0.14346898E+04</pdfrwt>
<pdfrwt beam="2">  1       -2 0.40216074E-01 0.14346898E+04</pdfrwt>
<totfact> 0.39537974E+01</totfact>
</mgrwt>
</event>
<event>
12    1  0.2048318E-007  0.1684706E+04  0.7818608E-02  0.8770135E-01
          2   -1    0    0  501    0  0.00000000000E+00  0.00000000000E+00  0.25442323098E+04  0.25442323098E+04  0.00000000000E+00 0. -1.
         -2   -1    0    0    0  501 -0.00000000000E+00 -0.00000000000E+00 -0.27888919012E+03  0.27888919012E+03  0.00000000000E+00 0.  1.
         23    2    1    2    0    0  0.37654873979E+03 -0.45699432306E+03  0.94280552420E+03  0.11170643914E+04  0.91202156488E+02 0.  0.
        254    2    1    2    0    0 -0.37654873979E+03  0.45699432306E+03  0.13225375955E+04  0.17060571085E+04  0.90049564204E+03 0.  0.
        -24    2    4    4    0    0 -0.36876333785E+03  0.37259045354E+03  0.18336222338E+03  0.56100492539E+03  0.79339624031E+02 0.  0.
         24    2    4    4    0    0 -0.77854019363E+01  0.84403869518E+02  0.11391753721E+04  0.11450521832E+04  0.78989543661E+02 0.  0.
         11    1    3    3    0    0  0.19787341111E+03 -0.25170601908E+03  0.42512085024E+03  0.53220066157E+03  0.00000000000E+00 0. -1.
        -11    1    3    3    0    0  0.17867532868E+03 -0.20528830397E+03  0.51768467396E+03  0.58486372984E+03  0.00000000000E+00 0.  1.
          2    1    6    6  502    0 -0.14037662682E+02 -0.11690288850E+02  0.25341848865E+03  0.25407606974E+03  0.00000000000E+00 0. -1.
          3    1    5    5  503    0 -0.11825847917E+03  0.94812376282E+02  0.86899895757E+02  0.17471704689E+03  0.00000000000E+00 0. -1.
         -4    1    5    5    0  503 -0.25050485868E+03  0.27777807726E+03  0.96462327627E+02  0.38628787850E+03  0.00000000000E+00 0.  1.
         -1    1    6    6    0  502  0.62522607452E+01  0.96094158367E+02  0.88575688348E+03  0.89097611341E+03  0.00000000000E+00 0.  1.
<mgrwt>
<rscale>  0 0.16847064E+04</rscale>
<asrwt>0</asrwt>
<pdfrwt beam="1">  1        2 0.39142034E+00 0.16847064E+04</pdfrwt>
<pdfrwt beam="2">  1       -2 0.42906031E-01 0.16847064E+04</pdfrwt>
<totfact> 0.16128118E+01</totfact>
</mgrwt>
</event>
<event>
12    1  0.2048318E-007  0.3084619E+04  0.7818608E-02  0.8219972E-01
          1   -1    0    0  501    0  0.00000000000E+00  0.00000000000E+00  0.30326177806E+04  0.30326177806E+04  0.00000000000E+00 0. -1.
         -1   -1    0    0    0  501 -0.00000000000E+00 -0.00000000000E+00 -0.78437782439E+03  0.78437782439E+03  0.00000000000E+00 0.  1.
         23    2    1    2    0    0 -0.14575016875E+03  0.12386664581E+04  0.18431730390E+04  0.22270653718E+04  0.83639778441E+02 0.  0.
        254    2    1    2    0    0  0.14575016875E+03 -0.12386664581E+04  0.40506691716E+03  0.15899302331E+04  0.89903349918E+03 0.  0.
        -24    2    4    4    0    0 -0.31437599180E+03 -0.35938098435E+03  0.34219213376E+03  0.59246308230E+03  0.77007086372E+02 0.  0.
         24    2    4    4    0    0  0.46012616054E+03 -0.87928547377E+03  0.62874783405E+02  0.99746715082E+03  0.78284421047E+02 0.  0.
         13    1    3    3    0    0 -0.82530715328E+02  0.72549734529E+03  0.11516119709E+04  0.13635863920E+04  0.00000000000E+00 0. -1.
        -13    1    3    3    0    0 -0.63219453417E+02  0.51316911282E+03  0.69156106813E+03  0.86347897983E+03  0.00000000000E+00 0.  1.
          4    1    6    6  502    0  0.25789472794E+03 -0.52701252157E+03  0.19762543506E+01  0.58673315414E+03  0.00000000000E+00 0. -1.
          1    1    5    5  503    0 -0.10691560412E+03 -0.88196758527E+02  0.13267874288E+03  0.19186782802E+03  0.00000000000E+00 0. -1.
         -2    1    5    5    0  503 -0.20746038767E+03 -0.27118422582E+03  0.20951339088E+03  0.40059525427E+03  0.00000000000E+00 0.  1.
         -3    1    6    6    0  502  0.20223143261E+03 -0.35227295220E+03  0.60898529055E+02  0.41073399668E+03  0.00000000000E+00 0.  1.
<mgrwt>
<rscale>  0 0.30846187E+04</rscale>
<asrwt>0</asrwt>
<pdfrwt beam="1">  1        1 0.46655658E+00 0.30846187E+04</pdfrwt>
<pdfrwt beam="2">  1       -1 0.12067351E+00 0.30846187E+04</pdfrwt>
<totfact> 0.29166594E-01</totfact>
</mgrwt>
</event>
<event>
12    1  0.2048318E-007  0.1812413E+04  0.7818608E-02  0.8699726E-01
         -2   -1    0    0    0  501 -0.00000000000E+00  0.00000000000E+00  0.28303393360E+03  0.28303393360E+03  0.00000000000E+00 0.  1.
          2   -1    0    0  501    0  0.00000000000E+00 -0.00000000000E+00 -0.29014561409E+04  0.29014561409E+04  0.00000000000E+00 0. -1.
         23    2    1    2    0    0  0.61740189457E+03 -0.13640527773E+03 -0.56509607416E+03  0.85334663599E+03  0.95264940567E+02 0.  0.
        254    2    1    2    0    0 -0.61740189457E+03  0.13640527773E+03 -0.20533261331E+04  0.23311434385E+04  0.90459384405E+03 0.  0.
        -24    2    4    4    0    0  0.62205362589E+02  0.18588872932E+03 -0.55303761142E+02  0.21861776867E+03  0.79442406546E+02 0.  0.
         24    2    4    4    0    0 -0.67960725716E+03 -0.49483451590E+02 -0.19980223719E+04  0.21125256698E+04  0.79728732577E+02 0.  0.
         13    1    3    3    0    0  0.56754939303E+03 -0.96937555095E+02 -0.50495074954E+03  0.76582273574E+03  0.00000000000E+00 0.  1.
        -13    1    3    3    0    0  0.49852501542E+02 -0.39467722639E+02 -0.60145324627E+02  0.87523900249E+02  0.00000000000E+00 0. -1.
          2    1    6    6  502    0 -0.53068356251E+03 -0.51572797450E+02 -0.14617670668E+04  0.15559716433E+04  0.00000000000E+00 0. -1.
          1    1    5    5  503    0  0.65872344430E+02  0.89672603872E+02 -0.50558341285E+02  0.12221492347E+03  0.00000000000E+00 0. -1.
         -2    1    5    5    0  503 -0.36669818405E+01  0.96216125452E+02 -0.47454198571E+01  0.96402845199E+02  0.00000000000E+00 0.  1.
         -1    1    6    6    0  502 -0.14892369465E+03  0.20893458602E+01 -0.53625530511E+03  0.55655402654E+03  0.00000000000E+00 0.  1.
<mgrwt>
<rscale>  0 0.18124134E+04</rscale>
<asrwt>0</asrwt>
<pdfrwt beam="1">  1        2 0.44637786E+00 0.18124134E+04</pdfrwt>
<pdfrwt beam="2">  1       -2 0.43543683E-01 0.18124134E+04</pdfrwt>
<totfact> 0.94861582E+00</totfact>
</mgrwt>
</event>
<event>
12    1  0.2048318E-007  0.2171956E+04  0.7818608E-02  0.8530192E-01
         -2   -1    0    0    0  501 -0.00000000000E+00  0.00000000000E+00  0.53479322181E+03  0.53479322181E+03  0.00000000000E+00 0.  1.
          2   -1    0    0  501    0  0.00000000000E+00 -0.00000000000E+00 -0.22052425154E+04  0.22052425154E+04  0.00000000000E+00 0. -1.
         23    2    1    2    0    0 -0.44734590398E+03 -0.41666190269E+03 -0.15229617219E+04  0.16428346682E+04  0.75946309022E+02 0.  0.
        254    2    1    2    0    0  0.44734590398E+03  0.41666190269E+03 -0.14748757170E+03  0.10972010690E+04  0.89909515790E+03 0.  0.
        -24    2    4    4    0    0 -0.15847123952E+03  0.36700726675E+03  0.12445457898E+03  0.42610465617E+03  0.79175552917E+02 0.  0.
         24    2    4    4    0    0  0.60581714350E+03  0.49654635937E+02 -0.27194215067E+03  0.67109641279E+03  0.83293863587E+02 0.  0.
         11    1    3    3    0    0 -0.14103690718E+03 -0.14531833825E+03 -0.59918089255E+03  0.63247653760E+03  0.00000000000E+00 0. -1.
        -11    1    3    3    0    0 -0.30630899680E+03 -0.27134356444E+03 -0.92378082933E+03  0.10103581306E+04  0.00000000000E+00 0.  1.
          4    1    6    6  502    0  0.47826549018E+03  0.20439649200E+02 -0.18115995413E+03  0.51183453120E+03  0.00000000000E+00 0. -1.
          3    1    5    5  503    0 -0.16550366091E+03  0.32838133984E+03  0.10586964717E+03  0.38266715083E+03  0.00000000000E+00 0. -1.
         -4    1    5    5    0  503  0.70324213896E+01  0.38625926909E+02  0.18584931807E+02  0.43437505344E+02  0.00000000000E+00 0.  1.
         -3    1    6    6    0  502  0.12755165333E+03  0.29214986738E+02 -0.90782196539E+02  0.15926188158E+03  0.00000000000E+00 0.  1.
<mgrwt>
<rscale>  0 0.21719565E+04</rscale>
<asrwt>0</asrwt>
<pdfrwt beam="1">  1        2 0.33926808E+00 0.21719565E+04</pdfrwt>
<pdfrwt beam="2">  1       -2 0.82275880E-01 0.21719565E+04</pdfrwt>
<totfact> 0.60958176E+00</totfact>
</mgrwt>
</event>
<event>
12    1  0.2048318E-007  0.2393722E+04  0.7818608E-02  0.8441858E-01
         -2   -1    0    0    0  501 -0.00000000000E+00  0.00000000000E+00  0.74303652430E+03  0.74303652430E+03  0.00000000000E+00 0.  1.
          2   -1    0    0  501    0  0.00000000000E+00 -0.00000000000E+00 -0.19278683027E+04  0.19278683027E+04  0.00000000000E+00 0. -1.
         23    2    1    2    0    0 -0.18256313595E+03  0.93622201552E+03 -0.93136345178E+03  0.13361800865E+04  0.89991018388E+02 0.  0.
        254    2    1    2    0    0  0.18256313595E+03 -0.93622201552E+03 -0.25346832660E+03  0.13347247404E+04  0.89855605236E+03 0.  0.
        -24    2    4    4    0    0 -0.25458655584E+02 -0.46047709901E+03 -0.55733208785E+03  0.72780197226E+03  0.79933427462E+02 0.  0.
         24    2    4    4    0    0  0.20802179153E+03 -0.47574491650E+03  0.30386376125E+03  0.60692276819E+03  0.80098500688E+02 0.  0.
         13    1    3    3    0    0 -0.87533160197E+01  0.16185823747E+03 -0.19477045625E+03  0.25339739581E+03  0.00000000000E+00 0. -1.
        -13    1    3    3    0    0 -0.17380981993E+03  0.77436377805E+03 -0.73659299553E+03  0.10827826907E+04  0.00000000000E+00 0.  1.
          2    1    6    6  502    0  0.30636298653E+02 -0.21068859114E+02  0.17946098048E+02  0.41286100018E+02  0.00000000000E+00 0. -1.
          3    1    5    5  503    0  0.14345478910E+02 -0.37877410470E+02 -0.27723105119E+02  0.49082191745E+02  0.00000000000E+00 0. -1.
         -4    1    5    5    0  503 -0.39804134493E+02 -0.42259968854E+03 -0.52960898273E+03  0.67871978052E+03  0.00000000000E+00 0.  1.
         -1    1    6    6    0  502  0.17738549288E+03 -0.45467605739E+03  0.28591766320E+03  0.56563666817E+03  0.00000000000E+00 0.  1.
<mgrwt>
<rscale>  0 0.23937223E+04</rscale>
<asrwt>0</asrwt>
<pdfrwt beam="1">  1        2 0.29659513E+00 0.23937223E+04</pdfrwt>
<pdfrwt beam="2">  1       -2 0.11431331E+00 0.23937223E+04</pdfrwt>
<totfact> 0.39446430E+00</totfact>
</mgrwt>
</event>
<event>
12    1  0.2048318E-007  0.1315165E+04  0.7818608E-02  0.9017625E-01
          1   -1    0    0  501    0  0.00000000000E+00  0.00000000000E+00  0.16371253987E+04  0.16371253987E+04  0.00000000000E+00 0. -1.
         -1   -1    0    0    0  501 -0.00000000000E+00 -0.00000000000E+00 -0.26413057066E+03  0.26413057066E+03  0.00000000000E+00 0.  1.
         23    2    1    2    0    0 -0.25892340536E+02  0.47097616640E+02 -0.11839316035E+03  0.15887830830E+03  0.91305956206E+02 0.  0.
        254    2    1    2    0    0  0.25892340536E+02 -0.47097616640E+02  0.14913879884E+04  0.17423776611E+04  0.89930705717E+03 0.  0.
        -24    2    4    4    0    0  0.97426377613E+02 -0.45843593900E+03  0.81627601007E+03  0.94467172428E+03  0.80266635790E+02 0.  0.
         24    2    4    4    0    0 -0.71534037076E+02  0.41133832236E+03  0.67511197837E+03  0.79770593682E+03  0.79007875599E+02 0.  0.
         13    1    3    3    0    0 -0.28770766241E+02  0.44264229501E+02 -0.14284307197E+02  0.54691136718E+02  0.00000000000E+00 0. -1.
        -13    1    3    3    0    0  0.28784257050E+01  0.28333871386E+01 -0.10410885315E+03  0.10418717158E+03  0.00000000000E+00 0.  1.
          4    1    6    6  502    0 -0.38026759161E+01  0.14789678000E+03  0.18199565782E+03  0.23454282624E+03  0.00000000000E+00 0. -1.
          1    1    5    5  503    0  0.99475916555E+02 -0.38424215225E+03  0.72947348197E+03  0.83046315418E+03  0.00000000000E+00 0. -1.
         -2    1    5    5    0  503 -0.20495389429E+01 -0.74193786746E+02  0.86802528100E+02  0.11420857011E+03  0.00000000000E+00 0.  1.
         -3    1    6    6    0  502 -0.67731361160E+02  0.26344154237E+03  0.49311632055E+03  0.56316311058E+03  0.00000000000E+00 0.  1.
<mgrwt>
<rscale>  0 0.13151652E+04</rscale>
<asrwt>0</asrwt>
<pdfrwt beam="1">  1        1 0.25186544E+00 0.13151652E+04</pdfrwt>
<pdfrwt beam="2">  1       -1 0.40635473E-01 0.13151652E+04</pdfrwt>
<totfact> 0.30560069E+01</totfact>
</mgrwt>
</event>
<event>
12    1  0.2048318E-007  0.1522948E+04  0.7818608E-02  0.8869335E-01
          2   -1    0    0  501    0  0.00000000000E+00  0.00000000000E+00  0.24510945498E+04  0.24510945498E+04  0.00000000000E+00 0. -1.
         -2   -1    0    0    0  501 -0.00000000000E+00 -0.00000000000E+00 -0.23656479733E+03  0.23656479733E+03  0.00000000000E+00 0.  1.
         23    2    1    2    0    0  0.19839538500E+03 -0.43853731856E+03  0.56694852783E+03  0.74930624834E+03  0.91397549430E+02 0.  0.
        254    2    1    2    0    0 -0.19839538500E+03  0.43853731856E+03  0.16475812246E+04  0.19383530988E+04  0.90056267702E+03 0.  0.
        -24    2    4    4    0    0  0.16281786239E+03  0.15459744415E+03  0.13932672097E+02  0.23943817966E+03  0.82015221000E+02 0.  0.
         24    2    4    4    0    0 -0.36121324739E+03  0.28393987441E+03  0.16336485525E+04  0.16989149191E+04  0.80046529255E+02 0.  0.
         13    1    3    3    0    0  0.67175050310E+02 -0.77187044803E+02  0.86536607193E+02  0.13401086394E+03  0.00000000000E+00 0.  1.
        -13    1    3    3    0    0  0.13122033469E+03 -0.36135027375E+03  0.48041192064E+03  0.61529538440E+03  0.00000000000E+00 0. -1.
          2    1    6    6  502    0 -0.35189906599E+03  0.27421902717E+03  0.16174716395E+04  0.16778687470E+04  0.00000000000E+00 0. -1.
          1    1    5    5  503    0  0.14923621301E+03  0.12354076533E+03 -0.15759097672E+02  0.19437622574E+03  0.00000000000E+00 0. -1.
         -2    1    5    5    0  503  0.13581649377E+02  0.31056678813E+02  0.29691769769E+02  0.45061953916E+02  0.00000000000E+00 0.  1.
         -1    1    6    6    0  502 -0.93141814012E+01  0.97208472435E+01  0.16176913010E+02  0.21046172119E+02  0.00000000000E+00 0.  1.
<mgrwt>
<rscale>  0 0.15229480E+04</rscale>
<asrwt>0</asrwt>
<pdfrwt beam="1">  1        2 0.37709145E+00 0.15229480E+04</pdfrwt>
<pdfrwt beam="2">  1       -2 0.36394586E-01 0.15229480E+04</pdfrwt>
<totfact> 0.25525971E+01</totfact>
</mgrwt>
</event>
<event>
12    1  0.2048318E-007  0.1587131E+04  0.7818608E-02  0.8828493E-01
         -2   -1    0    0    0  501 -0.00000000000E+00  0.00000000000E+00  0.31078318105E+03  0.31078318105E+03  0.00000000000E+00 0.  1.
          2   -1    0    0  501    0  0.00000000000E+00 -0.00000000000E+00 -0.20263190912E+04  0.20263190912E+04  0.00000000000E+00 0. -1.
         23    2    1    2    0    0 -0.10953572545E+03  0.20450854222E+03  0.12140094873E+03  0.27838261392E+03  0.94535022048E+02 0.  0.
        254    2    1    2    0    0  0.10953572545E+03 -0.20450854222E+03 -0.18369368589E+04  0.20587196583E+04  0.90009321133E+03 0.  0.
        -24    2    4    4    0    0  0.24070475778E+03 -0.47814135959E+03 -0.73390756219E+03  0.91186132008E+03  0.79453238210E+02 0.  0.
         24    2    4    4    0    0 -0.13116903233E+03  0.27363281737E+03 -0.11030292967E+04  0.11468583382E+04  0.80809559166E+02 0.  0.
         11    1    3    3    0    0 -0.11832486641E+03  0.13208537165E+03  0.80566841069E+02  0.19477765604E+03  0.00000000000E+00 0. -1.
        -11    1    3    3    0    0  0.87891409563E+01  0.72423170572E+02  0.40834107657E+02  0.83604957883E+02  0.00000000000E+00 0.  1.
          2    1    6    6  502    0 -0.76761007832E+02  0.21465772423E+03 -0.90309012340E+03  0.93141932656E+03  0.00000000000E+00 0. -1.
          1    1    5    5  503    0  0.13883556214E+03 -0.32937509249E+03 -0.43784970410E+03  0.56522175139E+03  0.00000000000E+00 0. -1.
         -2    1    5    5    0  503  0.10186919564E+03 -0.14876626710E+03 -0.29605785809E+03  0.34663956869E+03  0.00000000000E+00 0.  1.
         -1    1    6    6    0  502 -0.54408024496E+02  0.58975093146E+02 -0.19993917326E+03  0.21543901166E+03  0.00000000000E+00 0.  1.
<mgrwt>
<rscale>  0 0.15871306E+04</rscale>
<asrwt>0</asrwt>
<pdfrwt beam="1">  1        2 0.31174140E+00 0.15871306E+04</pdfrwt>
<pdfrwt beam="2">  1       -2 0.47812797E-01 0.15871306E+04</pdfrwt>
<totfact> 0.25706560E+01</totfact>
</mgrwt>
</event>
<event>
12    1  0.2048318E-007  0.1400681E+04  0.7818608E-02  0.8953326E-01
         -1   -1    0    0    0  501 -0.00000000000E+00  0.00000000000E+00  0.60431189840E+03  0.60431189840E+03  0.00000000000E+00 0.  1.
          1   -1    0    0  501    0  0.00000000000E+00 -0.00000000000E+00 -0.81162876785E+03  0.81162876785E+03  0.00000000000E+00 0. -1.
         23    2    1    2    0    0 -0.34430135066E+03  0.20296413869E+03 -0.11913291096E+03  0.42708505470E+03  0.92038751675E+02 0.  0.
        254    2    1    2    0    0  0.34430135066E+03 -0.20296413869E+03 -0.88183958491E+02  0.98885561154E+03  0.90017839803E+03 0.  0.
        -24    2    4    4    0    0  0.85120543015E+02 -0.38258269533E+03 -0.38026911636E+03  0.55165877363E+03  0.78152262000E+02 0.  0.
         24    2    4    4    0    0  0.25918080765E+03  0.17961855664E+03  0.29208515787E+03  0.43719683792E+03  0.79936341512E+02 0.  0.
         13    1    3    3    0    0 -0.64951441114E+02  0.11623206974E+02  0.56554478434E+01  0.66225166919E+02  0.00000000000E+00 0. -1.
        -13    1    3    3    0    0 -0.27934990955E+03  0.19134093172E+03 -0.12478835880E+03  0.36085988778E+03  0.00000000000E+00 0.  1.
          4    1    6    6  502    0 -0.23682144515E+01 -0.44375370208E+01  0.78609078109E+01  0.93324190922E+01  0.00000000000E+00 0. -1.
          3    1    5    5  503    0  0.52601027231E+02 -0.85552570083E+02 -0.10681513484E+03  0.14661372154E+03  0.00000000000E+00 0. -1.
         -4    1    5    5    0  503  0.32519515784E+02 -0.29703012524E+03 -0.27345398152E+03  0.40504505208E+03  0.00000000000E+00 0.  1.
         -3    1    6    6    0  502  0.26154902210E+03  0.18405609366E+03  0.28422425006E+03  0.42786441882E+03  0.00000000000E+00 0.  1.
<mgrwt>
<rscale>  0 0.14006812E+04</rscale>
<asrwt>0</asrwt>
<pdfrwt beam="1">  1        1 0.12486596E+00 0.14006812E+04</pdfrwt>
<pdfrwt beam="2">  1       -1 0.92971062E-01 0.14006812E+04</pdfrwt>
<totfact> 0.23678457E+01</totfact>
</mgrwt>
</event>
<event>
12    1  0.2048318E-007  0.1488229E+04  0.7818608E-02  0.8892319E-01
         -2   -1    0    0    0  501 -0.00000000000E+00  0.00000000000E+00  0.40090807052E+03  0.40090807052E+03  0.00000000000E+00 0.  1.
          2   -1    0    0  501    0  0.00000000000E+00 -0.00000000000E+00 -0.13811297901E+04  0.13811297901E+04  0.00000000000E+00 0. -1.
         23    2    1    2    0    0 -0.37984117513E+03 -0.23007944301E+03 -0.14978512735E+03  0.48041242044E+03  0.10556818137E+03 0.  0.
        254    2    1    2    0    0  0.37984117513E+03  0.23007944301E+03 -0.83043659227E+03  0.13016254402E+04  0.89854770847E+03 0.  0.
        -24    2    4    4    0    0  0.16050354681E+02  0.23183403788E+03 -0.88983608834E+03  0.92324668860E+03  0.81065090490E+02 0.  0.
         24    2    4    4    0    0  0.36379082045E+03 -0.17545948705E+01  0.59399496063E+02  0.37837875161E+03  0.85412761881E+02 0.  0.
         11    1    3    3    0    0 -0.18792629769E+03 -0.82730216474E+02 -0.11677590515E+03  0.23621429700E+03  0.00000000000E+00 0.  1.
        -11    1    3    3    0    0 -0.19191487744E+03 -0.14734922653E+03 -0.33009222198E+02  0.24419812344E+03  0.00000000000E+00 0. -1.
          2    1    6    6  502    0  0.24892660120E+03  0.11893900803E+02  0.78193057058E+02  0.26118972383E+03  0.00000000000E+00 0. -1.
          1    1    5    5  503    0 -0.50491344118E+01  0.19817898729E+03 -0.63182441341E+03  0.66219520848E+03  0.00000000000E+00 0. -1.
         -2    1    5    5    0  503  0.21099489093E+02  0.33655050592E+02 -0.25801167493E+03  0.26105148011E+03  0.00000000000E+00 0.  1.
         -1    1    6    6    0  502  0.11486421926E+03 -0.13648495674E+02 -0.18793560995E+02  0.11718902779E+03  0.00000000000E+00 0.  1.
<mgrwt>
<rscale>  0 0.14882286E+04</rscale>
<asrwt>0</asrwt>
<pdfrwt beam="1">  1        2 0.21248151E+00 0.14882286E+04</pdfrwt>
<pdfrwt beam="2">  1       -2 0.61678164E-01 0.14882286E+04</pdfrwt>
<totfact> 0.35041397E+01</totfact>
</mgrwt>
</event>
<event>
12    1  0.2048318E-007  0.1808253E+04  0.7818608E-02  0.8701923E-01
          1   -1    0    0  501    0  0.00000000000E+00  0.00000000000E+00  0.11978340047E+04  0.11978340047E+04  0.00000000000E+00 0. -1.
         -1   -1    0    0    0  501 -0.00000000000E+00 -0.00000000000E+00 -0.68243591971E+03  0.68243591971E+03  0.00000000000E+00 0.  1.
         23    2    1    2    0    0  0.30124410812E+03  0.47663739453E+03  0.58201048248E+03  0.81542411912E+03  0.90824411835E+02 0.  0.
        254    2    1    2    0    0 -0.30124410812E+03 -0.47663739453E+03 -0.66612397509E+02  0.10648458053E+04  0.90084857717E+03 0.  0.
        -24    2    4    4    0    0  0.67238619122E+02 -0.64090727277E+03 -0.90800661174E+01  0.64929912379E+03  0.78890686211E+02 0.  0.
         24    2    4    4    0    0 -0.36848272724E+03  0.16426987824E+03 -0.57532331391E+02  0.41554668148E+03  0.81270918342E+02 0.  0.
         13    1    3    3    0    0  0.12718552599E+03  0.27725524493E+03  0.34015896216E+03  0.45689686845E+03  0.00000000000E+00 0. -1.
        -13    1    3    3    0    0  0.17405858212E+03  0.19938214960E+03  0.24185152032E+03  0.35852725067E+03  0.00000000000E+00 0.  1.
          4    1    6    6  502    0 -0.24049772043E+03  0.13191833195E+03 -0.75966747645E+01  0.27440719616E+03  0.00000000000E+00 0. -1.
          1    1    5    5  503    0  0.26923514812E+02 -0.53738781210E+03 -0.11391049035E+02  0.53818239681E+03  0.00000000000E+00 0. -1.
         -2    1    5    5    0  503  0.40315104310E+02 -0.10351946067E+03  0.23109829176E+01  0.11111672698E+03  0.00000000000E+00 0.  1.
         -3    1    6    6    0  502 -0.12798500680E+03  0.32351546286E+02 -0.49935656627E+02  0.14113948532E+03  0.00000000000E+00 0.  1.
<mgrwt>
<rscale>  0 0.18082532E+04</rscale>
<asrwt>0</asrwt>
<pdfrwt beam="1">  1        1 0.18428215E+00 0.18082532E+04</pdfrwt>
<pdfrwt beam="2">  1       -1 0.10499014E+00 0.18082532E+04</pdfrwt>
<totfact> 0.86125246E+00</totfact>
</mgrwt>
</event>
<event>
12    1  0.2048318E-007  0.2242438E+04  0.7818608E-02  0.8500969E-01
         -1   -1    0    0    0  501 -0.00000000000E+00  0.00000000000E+00  0.43272558227E+03  0.43272558227E+03  0.00000000000E+00 0.  1.
          1   -1    0    0  501    0  0.00000000000E+00 -0.00000000000E+00 -0.29051495529E+04  0.29051495529E+04  0.00000000000E+00 0. -1.
         23    2    1    2    0    0 -0.56797452480E+03 -0.73615520884E+03 -0.12302878235E+04  0.15447696712E+04  0.90474615420E+02 0.  0.
        254    2    1    2    0    0  0.56797452480E+03  0.73615520884E+03 -0.12421361471E+04  0.17931054640E+04  0.89877997564E+03 0.  0.
        -24    2    4    4    0    0  0.56593241227E+03  0.89284886187E+03 -0.12167532111E+04  0.16137719299E+04  0.79453631480E+02 0.  0.
         24    2    4    4    0    0  0.20421125276E+01 -0.15669365303E+03 -0.25382935971E+02  0.17933353405E+03  0.83421531244E+02 0.  0.
         13    1    3    3    0    0 -0.30860659794E+03 -0.44188484417E+03 -0.77200102465E+03  0.94153376459E+03  0.00000000000E+00 0. -1.
        -13    1    3    3    0    0 -0.25936792686E+03 -0.29427036467E+03 -0.45828679884E+03  0.60323590659E+03  0.00000000000E+00 0.  1.
          2    1    6    6  502    0  0.40174435924E+02 -0.49540179834E+02 -0.99990389597E+01  0.64561563642E+02  0.00000000000E+00 0. -1.
          3    1    5    5  503    0  0.31561589169E+02  0.23951646693E+02 -0.54276895180E+02  0.67199677384E+02  0.00000000000E+00 0. -1.
         -4    1    5    5    0  503  0.53437082310E+03  0.86889721517E+03 -0.11624763159E+04  0.15465722525E+04  0.00000000000E+00 0.  1.
         -1    1    6    6    0  502 -0.38132323396E+02 -0.10715347319E+03 -0.15383897011E+02  0.11477197041E+03  0.00000000000E+00 0.  1.
<mgrwt>
<rscale>  0 0.22424384E+04</rscale>
<asrwt>0</asrwt>
<pdfrwt beam="1">  1        1 0.44694610E+00 0.22424384E+04</pdfrwt>
<pdfrwt beam="2">  1       -1 0.66573164E-01 0.22424384E+04</pdfrwt>
<totfact> 0.14554601E+00</totfact>
</mgrwt>
</event>
<event>
12    1  0.2048318E-007  0.1124185E+04  0.7818608E-02  0.9181935E-01
         -1   -1    0    0    0  501 -0.00000000000E+00  0.00000000000E+00  0.11672631190E+04  0.11672631190E+04  0.00000000000E+00 0.  1.
          1   -1    0    0  501    0  0.00000000000E+00 -0.00000000000E+00 -0.27067420836E+03  0.27067420836E+03  0.00000000000E+00 0. -1.
         23    2    1    2    0    0  0.17949021509E+03  0.34725547098E+02  0.20587149241E+03  0.29218051876E+03  0.97794597109E+02 0.  0.
        254    2    1    2    0    0 -0.17949021509E+03 -0.34725547098E+02  0.69071741825E+03  0.11457568086E+04  0.89568159056E+03 0.  0.
        -24    2    4    4    0    0 -0.14064953011E+03  0.36295927574E+03  0.61315098315E+03  0.73091307676E+03  0.82207490358E+02 0.  0.
         24    2    4    4    0    0 -0.38840684973E+02 -0.39768482283E+03  0.77566435095E+02  0.41484373185E+03  0.80105885426E+02 0.  0.
         11    1    3    3    0    0  0.91525900833E+02 -0.17019232154E+02  0.14804050151E+03  0.17487891489E+03  0.00000000000E+00 0.  1.
        -11    1    3    3    0    0  0.87964314255E+02  0.51744779252E+02  0.57830990899E+02  0.11730160387E+03  0.00000000000E+00 0. -1.
          4    1    6    6  502    0 -0.57601392635E+02 -0.35426373315E+03  0.79056485932E+02  0.36751957911E+03  0.00000000000E+00 0. -1.
          3    1    5    5  503    0 -0.79949574159E+02  0.25524760804E+03  0.35313094316E+03  0.44299519054E+03  0.00000000000E+00 0. -1.
         -4    1    5    5    0  503 -0.60699955955E+02  0.10771166770E+03  0.26002003999E+03  0.28791788622E+03  0.00000000000E+00 0.  1.
         -3    1    6    6    0  502  0.18760707662E+02 -0.43421089682E+02 -0.14900508372E+01  0.47324152741E+02  0.00000000000E+00 0.  1.
<mgrwt>
<rscale>  0 0.11241851E+04</rscale>
<asrwt>0</asrwt>
<pdfrwt beam="1">  1        1 0.41642186E-01 0.11241851E+04</pdfrwt>
<pdfrwt beam="2">  1       -1 0.17957894E+00 0.11241851E+04</pdfrwt>
<totfact> 0.20910818E+01</totfact>
</mgrwt>
</event>
<event>
12    1  0.2048318E-007  0.1860319E+04  0.7818608E-02  0.8674864E-01
         -2   -1    0    0    0  501 -0.00000000000E+00  0.00000000000E+00  0.79387827039E+03  0.79387827039E+03  0.00000000000E+00 0. -1.
          2   -1    0    0  501    0  0.00000000000E+00 -0.00000000000E+00 -0.10898351033E+04  0.10898351033E+04  0.00000000000E+00 0.  1.
         23    2    1    2    0    0 -0.32053569272E+03  0.24912660876E+03 -0.70249955347E+03  0.81616761998E+03  0.88412463883E+02 0.  0.
        254    2    1    2    0    0  0.32053569272E+03 -0.24912660876E+03  0.40654272058E+03  0.10675457537E+04  0.89976094331E+03 0.  0.
        -24    2    4    4    0    0  0.62900720511E+03 -0.13577441105E+03  0.25146699982E+03  0.69540901887E+03  0.79204146079E+02 0.  0.
         24    2    4    4    0    0 -0.30847151239E+03 -0.11335219772E+03  0.15507572076E+03  0.37213673483E+03  0.80211442834E+02 0.  0.
         11    1    3    3    0    0 -0.21786477112E+03  0.20774757106E+03 -0.55931781825E+03  0.63518543244E+03  0.00000000000E+00 0. -1.
        -11    1    3    3    0    0 -0.10267092160E+03  0.41379037707E+02 -0.14318173522E+03  0.18098218753E+03  0.00000000000E+00 0.  1.
          4    1    6    6  502    0 -0.18445935871E+03 -0.28256921430E+02  0.10184988046E+03  0.21259611185E+03  0.00000000000E+00 0. -1.
          3    1    5    5  503    0  0.50094665688E+03 -0.90385026415E+02  0.16842964796E+03  0.53617679207E+03  0.00000000000E+00 0. -1.
         -4    1    5    5    0  503  0.12806054823E+03 -0.45389384633E+02  0.83037351851E+02  0.15923222680E+03  0.00000000000E+00 0.  1.
         -3    1    6    6    0  502 -0.12401215368E+03 -0.85095276287E+02  0.53225840298E+02  0.15954062299E+03  0.00000000000E+00 0.  1.
<mgrwt>
<rscale>  0 0.18603187E+04</rscale>
<asrwt>0</asrwt>
<pdfrwt beam="1">  1        2 0.16766694E+00 0.18603187E+04</pdfrwt>
<pdfrwt beam="2">  1       -2 0.12213512E+00 0.18603187E+04</pdfrwt>
<totfact> 0.10554405E+01</totfact>
</mgrwt>
</event>
<event>
12    1  0.2048318E-007  0.1780088E+04  0.7818608E-02  0.8716961E-01
         -2   -1    0    0    0  501 -0.00000000000E+00  0.00000000000E+00  0.10578427057E+04  0.10578427057E+04  0.00000000000E+00 0.  1.
          2   -1    0    0  501    0  0.00000000000E+00 -0.00000000000E+00 -0.74886189326E+03  0.74886189326E+03  0.00000000000E+00 0. -1.
         23    2    1    2    0    0  0.60026597683E+03  0.23171616929E+03  0.25520193462E+03  0.69817871689E+03  0.91180410333E+02 0.  0.
        254    2    1    2    0    0 -0.60026597683E+03 -0.23171616929E+03  0.53778877795E+02  0.11085258820E+04  0.90106927448E+03 0.  0.
        -24    2    4    4    0    0  0.85209879529E+02 -0.13414351378E+03 -0.28199029898E+03  0.33487876313E+03  0.85849003590E+02 0.  0.
         24    2    4    4    0    0 -0.68547585636E+03 -0.97572655513E+02  0.33576917677E+03  0.77364711892E+03  0.79945930330E+02 0.  0.
         13    1    3    3    0    0  0.32334878144E+03  0.79022858623E+02  0.14790927762E+03  0.36424744480E+03  0.00000000000E+00 0.  1.
        -13    1    3    3    0    0  0.27691719540E+03  0.15269331067E+03  0.10729265701E+03  0.33393127209E+03  0.00000000000E+00 0. -1.
          4    1    6    6  502    0 -0.60362842278E+03 -0.10497238636E+03  0.27574415385E+03  0.67187894227E+03  0.00000000000E+00 0. -1.
          1    1    5    5  503    0  0.84151393685E+02 -0.79421865136E+02 -0.13374732973E+03  0.17685484990E+03  0.00000000000E+00 0. -1.
         -2    1    5    5    0  503  0.10584858446E+01 -0.54721648644E+02 -0.14824296925E+03  0.15802391323E+03  0.00000000000E+00 0.  1.
         -3    1    6    6    0  502 -0.81847433582E+02  0.73997308452E+01  0.60025022922E+02  0.10176817664E+03  0.00000000000E+00 0.  1.
<mgrwt>
<rscale>  0 0.17800877E+04</rscale>
<asrwt>0</asrwt>
<pdfrwt beam="1">  1        2 0.11520952E+00 0.17800877E+04</pdfrwt>
<pdfrwt beam="2">  1       -2 0.16274503E+00 0.17800877E+04</pdfrwt>
<totfact> 0.85378572E+00</totfact>
</mgrwt>
</event>
<event>
12    1  0.2048318E-007  0.1942218E+04  0.7818608E-02  0.8634123E-01
         -2   -1    0    0    0  501 -0.00000000000E+00  0.00000000000E+00  0.74234690288E+03  0.74234690288E+03  0.00000000000E+00 0.  1.
          2   -1    0    0  501    0  0.00000000000E+00 -0.00000000000E+00 -0.12703665717E+04  0.12703665717E+04  0.00000000000E+00 0. -1.
         23    2    1    2    0    0  0.21523844942E+03  0.68674914950E+03  0.42506136235E+02  0.72635816593E+03  0.88529255859E+02 0.  0.
        254    2    1    2    0    0 -0.21523844942E+03 -0.68674914950E+03 -0.57052580506E+03  0.12863553087E+04  0.90069878506E+03 0.  0.
        -24    2    4    4    0    0 -0.34361834627E+03 -0.22275747713E+01  0.42019016684E+02  0.35555355959E+03  0.81081477489E+02 0.  0.
         24    2    4    4    0    0  0.12837989685E+03 -0.68452157473E+03 -0.61254482174E+03  0.93080174906E+03  0.78291463253E+02 0.  0.
         13    1    3    3    0    0  0.17546387886E+03  0.47084521976E+03  0.60396251268E+02  0.50609337174E+03  0.00000000000E+00 0.  1.
        -13    1    3    3    0    0  0.39774570561E+02  0.21590392975E+03 -0.17890115034E+02  0.22026479419E+03  0.00000000000E+00 0. -1.
          4    1    6    6  502    0  0.13355736058E+03 -0.59483204021E+03 -0.55244381281E+03  0.82271312798E+03  0.00000000000E+00 0. -1.
          3    1    5    5  503    0 -0.33987548078E+03  0.39718852476E+01  0.29609936898E+02  0.34118597080E+03  0.00000000000E+00 0. -1.
         -4    1    5    5    0  503 -0.37428654947E+01 -0.61994600189E+01  0.12409079786E+02  0.14367588795E+02  0.00000000000E+00 0.  1.
         -3    1    6    6    0  502 -0.51774637372E+01 -0.89689534519E+02 -0.60101008932E+02  0.10808862108E+03  0.00000000000E+00 0.  1.
<mgrwt>
<rscale>  0 0.19422180E+04</rscale>
<asrwt>0</asrwt>
<pdfrwt beam="1">  1        2 0.19544101E+00 0.19422180E+04</pdfrwt>
<pdfrwt beam="2">  1       -2 0.11420722E+00 0.19422180E+04</pdfrwt>
<totfact> 0.96326445E+00</totfact>
</mgrwt>
</event>
<event>
12    1  0.2048318E-007  0.3120571E+04  0.7818608E-02  0.8210115E-01
          2   -1    0    0  501    0  0.00000000000E+00  0.00000000000E+00  0.11431767298E+04  0.11431767298E+04  0.00000000000E+00 0. -1.
         -2   -1    0    0    0  501 -0.00000000000E+00 -0.00000000000E+00 -0.21295836064E+04  0.21295836064E+04  0.00000000000E+00 0.  1.
         23    2    1    2    0    0 -0.68939606561E+03  0.10951508641E+04  0.18454212955E+03  0.13105371539E+04  0.93965332547E+02 0.  0.
        254    2    1    2    0    0  0.68939606561E+03 -0.10951508641E+04 -0.11709490061E+04  0.19622231824E+04  0.89698154510E+03 0.  0.
        -24    2    4    4    0    0 -0.15545093035E+03 -0.51992495092E+03 -0.44772584331E+03  0.70767012134E+03  0.76495905402E+02 0.  0.
         24    2    4    4    0    0  0.84484699596E+03 -0.57522591314E+03 -0.72322316280E+03  0.12545530610E+04  0.78742250525E+02 0.  0.
         13    1    3    3    0    0 -0.18145666341E+03  0.24611192910E+03  0.77083450786E+02  0.31534023011E+03  0.00000000000E+00 0. -1.
        -13    1    3    3    0    0 -0.50793940221E+03  0.84903893496E+03  0.10745867877E+03  0.99519692374E+03  0.00000000000E+00 0.  1.
          2    1    6    6  502    0  0.25925668712E+03 -0.20311851122E+03 -0.26939231089E+03  0.42549192305E+03  0.00000000000E+00 0. -1.
          1    1    5    5  503    0 -0.17372926055E+02 -0.48738257846E+02 -0.16841633235E+02  0.54413940747E+02  0.00000000000E+00 0. -1.
         -2    1    5    5    0  503 -0.13807800429E+03 -0.47118669307E+03 -0.43088421007E+03  0.65325618059E+03  0.00000000000E+00 0.  1.
         -1    1    6    6    0  502  0.58559030884E+03 -0.37210740192E+03 -0.45383085191E+03  0.82906113798E+03  0.00000000000E+00 0.  1.
<mgrwt>
<rscale>  0 0.31205707E+04</rscale>
<asrwt>0</asrwt>
<pdfrwt beam="1">  1        2 0.17587335E+00 0.31205707E+04</pdfrwt>
<pdfrwt beam="2">  1       -2 0.32762824E+00 0.31205707E+04</pdfrwt>
<totfact> 0.37301281E-01</totfact>
</mgrwt>
</event>
<event>
12    1  0.2048318E-007  0.1932138E+04  0.7818608E-02  0.8639023E-01
          2   -1    0    0  501    0  0.00000000000E+00  0.00000000000E+00  0.69458115522E+03  0.69458115522E+03  0.00000000000E+00 0. -1.
         -2   -1    0    0    0  501 -0.00000000000E+00 -0.00000000000E+00 -0.13436718053E+04  0.13436718053E+04  0.00000000000E+00 0.  1.
         23    2    1    2    0    0  0.72786594446E+03 -0.17661616501E+03 -0.17198646915E+03  0.77404450625E+03  0.92646906250E+02 0.  0.
        254    2    1    2    0    0 -0.72786594446E+03  0.17661616501E+03 -0.47710418097E+03  0.12642084543E+04  0.89978470401E+03 0.  0.
        -24    2    4    4    0    0 -0.82220837717E+03  0.39024351852E+03 -0.30425753125E+03  0.96295191131E+03  0.79919452820E+02 0.  0.
         24    2    4    4    0    0  0.94342432706E+02 -0.21362735351E+03 -0.17284664972E+03  0.30125654299E+03  0.79639183839E+02 0.  0.
         11    1    3    3    0    0  0.17459997728E+03 -0.46943818364E+02 -0.16600592879E+01  0.18080826846E+03  0.00000000000E+00 0. -1.
        -11    1    3    3    0    0  0.55326596718E+03 -0.12967234665E+03 -0.17032640986E+03  0.59323623779E+03  0.00000000000E+00 0.  1.
          4    1    6    6  502    0  0.36640022012E+01 -0.11216211844E+02 -0.42255021304E+02  0.43871575601E+02  0.00000000000E+00 0. -1.
          1    1    5    5  503    0 -0.35605953421E+02  0.18996891142E+02 -0.32077481774E+02  0.51552212650E+02  0.00000000000E+00 0. -1.
         -2    1    5    5    0  503 -0.78660242375E+03  0.37124662738E+03 -0.27218004947E+03  0.91139969866E+03  0.00000000000E+00 0.  1.
         -3    1    6    6    0  502  0.90678430505E+02 -0.20241114166E+03 -0.13059162841E+03  0.25738496739E+03  0.00000000000E+00 0.  1.
<mgrwt>
<rscale>  0 0.19321378E+04</rscale>
<asrwt>0</asrwt>
<pdfrwt beam="1">  1        2 0.10685864E+00 0.19321378E+04</pdfrwt>
<pdfrwt beam="2">  1       -2 0.20671874E+00 0.19321378E+04</pdfrwt>
<totfact> 0.46444411E+00</totfact>
</mgrwt>
</event>
<event>
12    1  0.2048318E-007  0.2747757E+04  0.7818608E-02  0.8319674E-01
          2   -1    0    0  501    0  0.00000000000E+00  0.00000000000E+00  0.13712119041E+04  0.13712119041E+04  0.00000000000E+00 0. -1.
         -2   -1    0    0    0  501 -0.00000000000E+00 -0.00000000000E+00 -0.13765501404E+04  0.13765501404E+04  0.00000000000E+00 0.  1.
         23    2    1    2    0    0  0.11914696513E+04  0.26524243590E+02 -0.28129537125E+03  0.12281407712E+04  0.94335584883E+02 0.  0.
        254    2    1    2    0    0 -0.11914696513E+04 -0.26524243590E+02  0.27595713492E+03  0.15196212732E+04  0.90155033590E+03 0.  0.
        -24    2    4    4    0    0 -0.13656837235E+03 -0.11398287273E+03 -0.26427142641E+03  0.32842977226E+03  0.79898140684E+02 0.  0.
         24    2    4    4    0    0 -0.10549012790E+04  0.87458629139E+02  0.54022856133E+03  0.11911915010E+04  0.81391481606E+02 0.  0.
         11    1    3    3    0    0  0.81640947553E+03 -0.14429379327E+01 -0.15203231362E+03  0.83044586710E+03  0.00000000000E+00 0.  1.
        -11    1    3    3    0    0  0.37506017579E+03  0.27967181523E+02 -0.12926305763E+03  0.39769490414E+03  0.00000000000E+00 0. -1.
          4    1    6    6  502    0 -0.22718784373E+03 -0.30566418900E+01  0.87942835456E+02  0.24363415546E+03  0.00000000000E+00 0. -1.
          3    1    5    5  503    0 -0.18094538964E+02 -0.63836358689E+02 -0.90860162456E+02  0.11250805372E+03  0.00000000000E+00 0. -1.
         -4    1    5    5    0  503 -0.11847383339E+03 -0.50146514039E+02 -0.17341126396E+03  0.21592171853E+03  0.00000000000E+00 0.  1.
         -1    1    6    6    0  502 -0.82771343524E+03  0.90515271029E+02  0.45228572587E+03  0.94755734549E+03  0.00000000000E+00 0.  1.
<mgrwt>
<rscale>  0 0.27477569E+04</rscale>
<asrwt>0</asrwt>
<pdfrwt beam="1">  1        2 0.21095568E+00 0.27477569E+04</pdfrwt>
<pdfrwt beam="2">  1       -2 0.21177694E+00 0.27477569E+04</pdfrwt>
<totfact> 0.14652244E+00</totfact>
</mgrwt>
</event>
<event>
12    1  0.2048318E-007  0.4209211E+04  0.7818608E-02  0.7963622E-01
          2   -1    0    0  501    0  0.00000000000E+00  0.00000000000E+00  0.23468805923E+04  0.23468805923E+04  0.00000000000E+00 0. -1.
         -2   -1    0    0    0  501 -0.00000000000E+00 -0.00000000000E+00 -0.18873408117E+04  0.18873408117E+04  0.00000000000E+00 0.  1.
         23    2    1    2    0    0 -0.11932612224E+04  0.16054161682E+04  0.41922339940E+02  0.20022652897E+04  0.77944786543E+02 0.  0.
        254    2    1    2    0    0  0.11932612224E+04 -0.16054161682E+04  0.41761744069E+03  0.22319561143E+04  0.89776965400E+03 0.  0.
        -24    2    4    4    0    0  0.12610399537E+04 -0.15598746967E+04  0.52559198161E+03  0.20751400557E+04  0.80799044406E+02 0.  0.
         24    2    4    4    0    0 -0.67778731340E+02 -0.45541471538E+02 -0.10797454091E+03  0.15681605862E+03  0.79150443492E+02 0.  0.
         11    1    3    3    0    0 -0.76769264808E+03  0.10250471681E+04 -0.10297095108E+02  0.12806950179E+04  0.00000000000E+00 0.  1.
        -11    1    3    3    0    0 -0.42556857427E+03  0.58036900009E+03  0.52219435049E+02  0.72157027175E+03  0.00000000000E+00 0. -1.
          2    1    6    6  502    0 -0.67658361814E+02 -0.74352123971E+01 -0.40164652798E+02  0.79032497373E+02  0.00000000000E+00 0. -1.
          1    1    5    5  503    0  0.11287729920E+04 -0.14331516456E+04  0.47625261932E+03  0.18854359347E+04  0.00000000000E+00 0. -1.
         -2    1    5    5    0  503  0.13226696172E+03 -0.12672305110E+03  0.49339362292E+02  0.18970412097E+03  0.00000000000E+00 0.  1.
         -1    1    6    6    0  502 -0.12036952631E+00 -0.38106259140E+02 -0.67809888117E+02  0.77783561251E+02  0.00000000000E+00 0.  1.
<mgrwt>
<rscale>  0 0.42092106E+04</rscale>
<asrwt>0</asrwt>
<pdfrwt beam="1">  1        2 0.36105855E+00 0.42092106E+04</pdfrwt>
<pdfrwt beam="2">  1       -2 0.29036013E+00 0.42092106E+04</pdfrwt>
<totfact> 0.12040226E-01</totfact>
</mgrwt>
</event>
<event>
12    1  0.2048318E-007  0.2153130E+04  0.7818608E-02  0.8538194E-01
          2   -1    0    0  501    0  0.00000000000E+00  0.00000000000E+00  0.93464002379E+03  0.93464002379E+03  0.00000000000E+00 0. -1.
         -2   -1    0    0    0  501 -0.00000000000E+00 -0.00000000000E+00 -0.12400407657E+04  0.12400407657E+04  0.00000000000E+00 0.  1.
         23    2    1    2    0    0 -0.74371849629E+03  0.33180162857E+03  0.22538332386E+03  0.85010438658E+03  0.93114461611E+02 0.  0.
        254    2    1    2    0    0  0.74371849629E+03 -0.33180162857E+03 -0.53078406573E+03  0.13245764029E+04  0.89975630043E+03 0.  0.
        -24    2    4    4    0    0  0.48883837124E+03 -0.38704216978E+03 -0.74722603125E+03  0.97643002055E+03  0.79399300156E+02 0.  0.
         24    2    4    4    0    0  0.25488012505E+03  0.55240541213E+02  0.21644196552E+03  0.34814638232E+03  0.79645361128E+02 0.  0.
         13    1    3    3    0    0 -0.41081337362E+03  0.20160964861E+03  0.81717004783E+02  0.46485669537E+03  0.00000000000E+00 0.  1.
        -13    1    3    3    0    0 -0.33290512266E+03  0.13019197996E+03  0.14366631908E+03  0.38524769120E+03  0.00000000000E+00 0. -1.
          4    1    6    6  502    0  0.20594710648E+03  0.62819723677E+02  0.20506034400E+03  0.29733865042E+03  0.00000000000E+00 0. -1.
          3    1    5    5  503    0  0.47463974418E+03 -0.35468007789E+03 -0.71498712780E+03  0.92859433410E+03  0.00000000000E+00 0. -1.
         -4    1    5    5    0  503  0.14198627057E+02 -0.32362091893E+02 -0.32238903446E+02  0.47835686443E+02  0.00000000000E+00 0.  1.
         -3    1    6    6    0  502  0.48933018565E+02 -0.75791824647E+01  0.11381621515E+02  0.50807731902E+02  0.00000000000E+00 0.  1.
<mgrwt>
<rscale>  0 0.21531296E+04</rscale>
<asrwt>0</asrwt>
<pdfrwt beam="1">  1        2 0.14379077E+00 0.21531296E+04</pdfrwt>
<pdfrwt beam="2">  1       -2 0.19077550E+00 0.21531296E+04</pdfrwt>
<totfact> 0.39045179E+00</totfact>
</mgrwt>
</event>
<event>
12    1  0.2048318E-007  0.1061488E+04  0.7818608E-02  0.9243563E-01
          1   -1    0    0  501    0  0.00000000000E+00  0.00000000000E+00  0.20827491511E+03  0.20827491511E+03  0.00000000000E+00 0. -1.
         -1   -1    0    0    0  501 -0.00000000000E+00 -0.00000000000E+00 -0.13524867387E+04  0.13524867387E+04  0.00000000000E+00 0.  1.
         23    2    1    2    0    0  0.37542407473E+02  0.48690947286E+02 -0.22553781807E+02  0.12092934287E+03  0.10166116361E+03 0.  0.
        254    2    1    2    0    0 -0.37542407473E+02 -0.48690947286E+02 -0.11216580418E+04  0.14398323109E+04  0.90067756729E+03 0.  0.
        -24    2    4    4    0    0 -0.42860021365E+03  0.13647688797E+03 -0.49693376808E+03  0.67527353405E+03  0.82018850533E+02 0.  0.
         24    2    4    4    0    0  0.39105780617E+03 -0.18516783526E+03 -0.62472427370E+03  0.76455877689E+03  0.84002203427E+02 0.  0.
         13    1    3    3    0    0  0.28153610754E+02 -0.21023306731E+02 -0.34884706708E+02  0.49513109239E+02  0.00000000000E+00 0.  1.
        -13    1    3    3    0    0  0.93887967180E+01  0.69714254017E+02  0.12330924901E+02  0.71416233630E+02  0.00000000000E+00 0. -1.
          2    1    6    6  502    0  0.21701476274E+03 -0.13854660995E+03 -0.32210843330E+03  0.41236441793E+03  0.00000000000E+00 0. -1.
          3    1    5    5  503    0 -0.17419974922E+03  0.96003425374E+02 -0.19785148853E+03  0.28054843044E+03  0.00000000000E+00 0. -1.
         -4    1    5    5    0  503 -0.25440046443E+03  0.40473462596E+02 -0.29908227955E+03  0.39472510361E+03  0.00000000000E+00 0.  1.
         -1    1    6    6    0  502  0.17404304344E+03 -0.46621225310E+02 -0.30261584040E+03  0.35219435895E+03  0.00000000000E+00 0.  1.
<mgrwt>
<rscale>  0 0.10614877E+04</rscale>
<asrwt>0</asrwt>
<pdfrwt beam="1">  1        1 0.32042293E-01 0.10614877E+04</pdfrwt>
<pdfrwt beam="2">  1       -1 0.20807489E+00 0.10614877E+04</pdfrwt>
<totfact> 0.18704919E+01</totfact>
</mgrwt>
</event>
<event>
12    1  0.2048318E-007  0.1831617E+04  0.7818608E-02  0.8689665E-01
         -2   -1    0    0    0  501 -0.00000000000E+00  0.00000000000E+00  0.73294766140E+03  0.73294766140E+03  0.00000000000E+00 0. -1.
          2   -1    0    0  501    0  0.00000000000E+00 -0.00000000000E+00 -0.11442902090E+04  0.11442902090E+04  0.00000000000E+00 0.  1.
         23    2    1    2    0    0  0.27569948388E+03  0.60094917461E+03 -0.36240665380E+03  0.75920130126E+03  0.88870226956E+02 0.  0.
        254    2    1    2    0    0 -0.27569948388E+03 -0.60094917461E+03 -0.48935893770E+02  0.11180365691E+04  0.90025603707E+03 0.  0.
        -24    2    4    4    0    0 -0.23516168731E+03 -0.41073968205E+03 -0.45468178012E+03  0.66126590385E+03  0.80802034845E+02 0.  0.
         24    2    4    4    0    0 -0.40537796577E+02 -0.19020949256E+03  0.40574588635E+03  0.45677066525E+03  0.78655911021E+02 0.  0.
         11    1    3    3    0    0  0.68874388824E+02  0.14808788029E+03 -0.13488639120E+03  0.21182077390E+03  0.00000000000E+00 0.  1.
        -11    1    3    3    0    0  0.20682509506E+03  0.45286129432E+03 -0.22752026259E+03  0.54738052736E+03  0.00000000000E+00 0. -1.
          2    1    6    6  502    0 -0.30894049227E+02 -0.17984895676E+03  0.30796013259E+03  0.35796582629E+03  0.00000000000E+00 0. -1.
          1    1    5    5  503    0 -0.20699811217E+03 -0.39854811952E+03 -0.43154790854E+03  0.62283418289E+03  0.00000000000E+00 0. -1.
         -2    1    5    5    0  503 -0.28163575138E+02 -0.12191562529E+02 -0.23133871576E+02  0.38431720955E+02  0.00000000000E+00 0.  1.
         -1    1    6    6    0  502 -0.96437473500E+01 -0.10360535793E+02  0.97785753754E+02  0.98804838961E+02  0.00000000000E+00 0.  1.
<mgrwt>
<rscale>  0 0.18316166E+04</rscale>
<asrwt>0</asrwt>
<pdfrwt beam="1">  1        2 0.17604465E+00 0.18316166E+04</pdfrwt>
<pdfrwt beam="2">  1       -2 0.11276118E+00 0.18316166E+04</pdfrwt>
<totfact> 0.11923902E+01</totfact>
</mgrwt>
</event>
<event>
12    1  0.2048318E-007  0.1575463E+04  0.7818608E-02  0.8835765E-01
          2   -1    0    0  501    0  0.00000000000E+00  0.00000000000E+00  0.22321992267E+04  0.22321992267E+04  0.00000000000E+00 0. -1.
         -2   -1    0    0    0  501 -0.00000000000E+00 -0.00000000000E+00 -0.27798640146E+03  0.27798640146E+03  0.00000000000E+00 0.  1.
         23    2    1    2    0    0 -0.50646723227E+03 -0.12561845915E+03  0.72850682857E+03  0.90084688579E+03  0.92270567998E+02 0.  0.
        254    2    1    2    0    0  0.50646723227E+03  0.12561845915E+03  0.12257059966E+04  0.16093387424E+04  0.90295456297E+03 0.  0.
        -24    2    4    4    0    0 -0.16289103984E+03  0.58238703228E+02 -0.20629382868E+02  0.19070664872E+03  0.77577168134E+02 0.  0.
         24    2    4    4    0    0  0.66935827211E+03  0.67379755920E+02  0.12463353795E+04  0.14186320936E+04  0.81145615461E+02 0.  0.
         13    1    3    3    0    0 -0.21629557785E+03 -0.20410711772E+02  0.24751415922E+03  0.32933817448E+03  0.00000000000E+00 0.  1.
        -13    1    3    3    0    0 -0.29017165442E+03 -0.10520774738E+03  0.48099266935E+03  0.57150871131E+03  0.00000000000E+00 0. -1.
          2    1    6    6  502    0  0.25300563350E+03  0.62093457709E+02  0.44821984284E+03  0.51842885297E+03  0.00000000000E+00 0. -1.
          1    1    5    5  503    0 -0.81985779337E+02 -0.84050569625E+01  0.57603368333E+01  0.82616550863E+02  0.00000000000E+00 0. -1.
         -2    1    5    5    0  503 -0.80905260502E+02  0.66643760190E+02 -0.26389719701E+02  0.10809009786E+03  0.00000000000E+00 0.  1.
         -1    1    6    6    0  502  0.41635263861E+03  0.52862982119E+01  0.79811553668E+03  0.90020324067E+03  0.00000000000E+00 0.  1.
<mgrwt>
<rscale>  0 0.15754631E+04</rscale>
<asrwt>0</asrwt>
<pdfrwt beam="1">  1        2 0.34341525E+00 0.15754631E+04</pdfrwt>
<pdfrwt beam="2">  1       -2 0.42767140E-01 0.15754631E+04</pdfrwt>
<totfact> 0.24685387E+01</totfact>
</mgrwt>
</event>
<event>
12    1  0.2048318E-007  0.2318368E+04  0.7818608E-02  0.8470714E-01
         -2   -1    0    0    0  501 -0.00000000000E+00  0.00000000000E+00  0.57131337289E+03  0.57131337289E+03  0.00000000000E+00 0.  1.
          2   -1    0    0  501    0  0.00000000000E+00 -0.00000000000E+00 -0.23519623145E+04  0.23519623145E+04  0.00000000000E+00 0. -1.
         23    2    1    2    0    0  0.62794009788E+03 -0.54443631772E+03 -0.97377788122E+02  0.84168199502E+03  0.90699925777E+02 0.  0.
        254    2    1    2    0    0 -0.62794009788E+03  0.54443631772E+03 -0.16832711535E+04  0.20815936924E+04  0.89939471501E+03 0.  0.
        -24    2    4    4    0    0 -0.53629497693E+03 -0.54138598558E+02 -0.11430692979E+04  0.12662370423E+04  0.78775232450E+02 0.  0.
         24    2    4    4    0    0 -0.91645120949E+02  0.59857491628E+03 -0.54020185563E+03  0.81535665015E+03  0.79357819571E+02 0.  0.
         11    1    3    3    0    0  0.32901883729E+03 -0.34419856471E+03 -0.61304850142E+02  0.48008783768E+03  0.00000000000E+00 0. -1.
        -11    1    3    3    0    0  0.29892126059E+03 -0.20023775302E+03 -0.36072937980E+02  0.36159415734E+03  0.00000000000E+00 0.  1.
          4    1    6    6  502    0 -0.64537884740E+02  0.18480921251E+03 -0.16099965510E+03  0.25345704278E+03  0.00000000000E+00 0. -1.
          1    1    5    5  503    0 -0.40796828041E+03 -0.60964221642E+02 -0.93064758518E+03  0.10179684091E+04  0.00000000000E+00 0. -1.
         -2    1    5    5    0  503 -0.12832669652E+03  0.68256230834E+01 -0.21242171271E+03  0.24826863314E+03  0.00000000000E+00 0.  1.
         -3    1    6    6    0  502 -0.27107236208E+02  0.41376570378E+03 -0.37920220053E+03  0.56189960737E+03  0.00000000000E+00 0.  1.
<mgrwt>
<rscale>  0 0.23183680E+04</rscale>
<asrwt>0</asrwt>
<pdfrwt beam="1">  1        2 0.36184036E+00 0.23183680E+04</pdfrwt>
<pdfrwt beam="2">  1       -2 0.87894365E-01 0.23183680E+04</pdfrwt>
<totfact> 0.42782560E+00</totfact>
</mgrwt>
</event>
<event>
12    1  0.2048318E-007  0.3773739E+04  0.7818608E-02  0.8051814E-01
          2   -1    0    0  501    0  0.00000000000E+00  0.00000000000E+00  0.82712600919E+03  0.82712600919E+03  0.00000000000E+00 0. -1.
         -2   -1    0    0    0  501 -0.00000000000E+00 -0.00000000000E+00 -0.43043954343E+04  0.43043954343E+04  0.00000000000E+00 0.  1.
         23    2    1    2    0    0 -0.96721636586E+03 -0.14138360786E+04 -0.23001303458E+04  0.28694117955E+04  0.92111286330E+02 0.  0.
        254    2    1    2    0    0  0.96721636586E+03  0.14138360786E+04 -0.11771390794E+04  0.22621096480E+04  0.89277303497E+03 0.  0.
        -24    2    4    4    0    0  0.74389026753E+03  0.40247004759E+03 -0.29552113454E+03  0.89998509510E+03  0.85355498484E+02 0.  0.
         24    2    4    4    0    0  0.22332609833E+03  0.10113660310E+04 -0.88161794485E+03  0.13621245529E+04  0.73466333375E+02 0.  0.
         11    1    3    3    0    0 -0.44721459383E+03 -0.70904439058E+03 -0.10683216167E+04  0.13579602047E+04  0.00000000000E+00 0. -1.
        -11    1    3    3    0    0 -0.52000177203E+03 -0.70479168803E+03 -0.12318087290E+04  0.15114515908E+04  0.00000000000E+00 0.  1.
          4    1    6    6  502    0  0.19830649686E+03  0.95027891077E+03 -0.80595316456E+03  0.12617115274E+04  0.00000000000E+00 0. -1.
          3    1    5    5  503    0  0.74219431436E+03  0.39610803840E+03 -0.29861992817E+03  0.89270814932E+03  0.00000000000E+00 0. -1.
         -4    1    5    5    0  503  0.16959531641E+01  0.63620091887E+01  0.30987936264E+01  0.72769457873E+01  0.00000000000E+00 0.  1.
         -3    1    6    6    0  502  0.25019601475E+02  0.61087120251E+02 -0.75664780286E+02  0.10041302552E+03  0.00000000000E+00 0.  1.
<mgrwt>
<rscale>  0 0.37737395E+04</rscale>
<asrwt>0</asrwt>
<pdfrwt beam="1">  1        2 0.12725016E+00 0.37737395E+04</pdfrwt>
<pdfrwt beam="2">  1       -2 0.66221467E+00 0.37737395E+04</pdfrwt>
<totfact> 0.80679975E-03</totfact>
</mgrwt>
</event>
<event>
12    1  0.2048318E-007  0.1598213E+04  0.7818608E-02  0.8821646E-01
         -1   -1    0    0    0  501 -0.00000000000E+00  0.00000000000E+00  0.20996760945E+04  0.20996760945E+04  0.00000000000E+00 0.  1.
          1   -1    0    0  501    0  0.00000000000E+00 -0.00000000000E+00 -0.30412848831E+03  0.30412848831E+03  0.00000000000E+00 0. -1.
         23    2    1    2    0    0 -0.21652661922E+03 -0.47393270911E+03  0.83106669297E+03  0.98500904784E+03  0.89860929026E+02 0.  0.
        254    2    1    2    0    0  0.21652661922E+03  0.47393270911E+03  0.96448091318E+03  0.14187955349E+04  0.90070047655E+03 0.  0.
        -24    2    4    4    0    0  0.50979546806E+03  0.10882339697E+03  0.31504809210E+03  0.61351455973E+03  0.73558573095E+02 0.  0.
         24    2    4    4    0    0 -0.29326884885E+03  0.36510931214E+03  0.64943282108E+03  0.80528097520E+03  0.86040876422E+02 0.  0.
         13    1    3    3    0    0 -0.16566180319E+03 -0.34273807001E+03  0.67446400707E+03  0.77447718786E+03  0.00000000000E+00 0.  1.
        -13    1    3    3    0    0 -0.50864816032E+02 -0.13119463910E+03  0.15660268589E+03  0.21053185998E+03  0.00000000000E+00 0. -1.
          4    1    6    6  502    0 -0.12565318900E+03  0.14542194763E+03  0.19759830098E+03  0.27564715727E+03  0.00000000000E+00 0. -1.
          1    1    5    5  503    0  0.47708822983E+03  0.82839649615E+02  0.29664812005E+03  0.56786943369E+03  0.00000000000E+00 0. -1.
         -2    1    5    5    0  503  0.32707238232E+02  0.25983747355E+02  0.18399972046E+02  0.45645126034E+02  0.00000000000E+00 0.  1.
         -1    1    6    6    0  502 -0.16761565984E+03  0.21968736451E+03  0.45183452010E+03  0.52963381794E+03  0.00000000000E+00 0.  1.
<mgrwt>
<rscale>  0 0.15982131E+04</rscale>
<asrwt>0</asrwt>
<pdfrwt beam="1">  1        1 0.46789000E-01 0.15982131E+04</pdfrwt>
<pdfrwt beam="2">  1       -1 0.32302708E+00 0.15982131E+04</pdfrwt>
<totfact> 0.19384561E+00</totfact>
</mgrwt>
</event>
<event>
12    1  0.2048318E-007  0.1819218E+04  0.7818608E-02  0.8696146E-01
          2   -1    0    0  501    0  0.00000000000E+00  0.00000000000E+00  0.13207150796E+04  0.13207150796E+04  0.00000000000E+00 0. -1.
         -2   -1    0    0    0  501 -0.00000000000E+00 -0.00000000000E+00 -0.62647002562E+03  0.62647002562E+03  0.00000000000E+00 0.  1.
         23    2    1    2    0    0 -0.23907488397E+03 -0.50423711745E+03 -0.15843270619E+03  0.58734230394E+03  0.91968412240E+02 0.  0.
        254    2    1    2    0    0  0.23907488397E+03  0.50423711745E+03  0.85267776014E+03  0.13598428013E+04  0.90038947724E+03 0.  0.
        -24    2    4    4    0    0  0.51118206313E+03  0.36868048026E+03  0.25542535811E+03  0.68483862925E+03  0.80804927827E+02 0.  0.
         24    2    4    4    0    0 -0.27210717916E+03  0.13555663719E+03  0.59725240204E+03  0.67500417200E+03  0.80636726440E+02 0.  0.
         13    1    3    3    0    0 -0.38375509752E+02 -0.24538189278E+02 -0.11150607382E+02  0.46894973363E+02  0.00000000000E+00 0.  1.
        -13    1    3    3    0    0 -0.20069937422E+03 -0.47969892817E+03 -0.14728209881E+03  0.54044733058E+03  0.00000000000E+00 0. -1.
          2    1    6    6  502    0 -0.58663353783E+02  0.20646133279E+02  0.64001433697E+02  0.89240323911E+02  0.00000000000E+00 0. -1.
          1    1    5    5  503    0  0.24694273045E+03  0.13083942196E+03  0.12515230619E+03  0.30620706426E+03  0.00000000000E+00 0. -1.
         -2    1    5    5    0  503  0.26423933268E+03  0.23784105830E+03  0.13027305192E+03  0.37863156498E+03  0.00000000000E+00 0.  1.
         -1    1    6    6    0  502 -0.21344382538E+03  0.11491050391E+03  0.53325096834E+03  0.58576384809E+03  0.00000000000E+00 0.  1.
<mgrwt>
<rscale>  0 0.18192179E+04</rscale>
<asrwt>0</asrwt>
<pdfrwt beam="1">  1        2 0.20318693E+00 0.18192179E+04</pdfrwt>
<pdfrwt beam="2">  1       -2 0.96380004E-01 0.18192179E+04</pdfrwt>
<totfact> 0.13657867E+01</totfact>
</mgrwt>
</event>
<event>
12    1  0.2048318E-007  0.3683088E+04  0.7818608E-02  0.8071720E-01
         -2   -1    0    0    0  501 -0.00000000000E+00  0.00000000000E+00  0.15628577219E+04  0.15628577219E+04  0.00000000000E+00 0.  1.
          2   -1    0    0  501    0  0.00000000000E+00 -0.00000000000E+00 -0.21699256901E+04  0.21699256901E+04  0.00000000000E+00 0. -1.
         23    2    1    2    0    0  0.17281758324E+03 -0.10355373481E+03 -0.20295751592E+04  0.20418480773E+04  0.96844983031E+02 0.  0.
        254    2    1    2    0    0 -0.17281758324E+03  0.10355373481E+03  0.14225071910E+04  0.16909353347E+04  0.89170976472E+03 0.  0.
        -24    2    4    4    0    0 -0.21639928088E+03  0.42089028233E+03  0.12010835961E+04  0.12935006248E+04  0.81023348522E+02 0.  0.
         24    2    4    4    0    0  0.43581697648E+02 -0.31733654751E+03  0.22142359490E+03  0.39743470987E+03  0.79524156522E+02 0.  0.
         11    1    3    3    0    0  0.79882155115E+02 -0.10255267269E+03 -0.12563717579E+04  0.12630788587E+04  0.00000000000E+00 0. -1.
        -11    1    3    3    0    0  0.92935428121E+02 -0.10010621162E+01 -0.77320340137E+03  0.77876921858E+03  0.00000000000E+00 0.  1.
          2    1    6    6  502    0  0.42316412079E+02 -0.28745222810E+03  0.16645052495E+03  0.33485107052E+03  0.00000000000E+00 0. -1.
          3    1    5    5  503    0 -0.35604583141E+02  0.10426499642E+03  0.36762842292E+03  0.38378318509E+03  0.00000000000E+00 0. -1.
         -4    1    5    5    0  503 -0.18079469774E+03  0.31662528590E+03  0.83345517320E+03  0.90971743972E+03  0.00000000000E+00 0.  1.
         -1    1    6    6    0  502  0.12652855697E+01 -0.29884319415E+02  0.54973069952E+02  0.62583639351E+02  0.00000000000E+00 0.  1.
<mgrwt>
<rscale>  0 0.36830884E+04</rscale>
<asrwt>0</asrwt>
<pdfrwt beam="1">  1        2 0.33383472E+00 0.36830884E+04</pdfrwt>
<pdfrwt beam="2">  1       -2 0.24043965E+00 0.36830884E+04</pdfrwt>
<totfact> 0.31995340E-01</totfact>
</mgrwt>
</event>
<event>
12    1  0.2048318E-007  0.1283364E+04  0.7818608E-02  0.9042863E-01
          1   -1    0    0  501    0  0.00000000000E+00  0.00000000000E+00  0.63028664522E+03  0.63028664522E+03  0.00000000000E+00 0. -1.
         -1   -1    0    0    0  501 -0.00000000000E+00 -0.00000000000E+00 -0.65328298137E+03  0.65328298137E+03  0.00000000000E+00 0.  1.
         23    2    1    2    0    0  0.41259315177E+02  0.82162372679E+02 -0.30441378615E+03  0.33381723671E+03  0.10155396475E+03 0.  0.
        254    2    1    2    0    0 -0.41259315177E+02 -0.82162372679E+02  0.28141745000E+03  0.94975238988E+03  0.90243051497E+03 0.  0.
        -24    2    4    4    0    0 -0.33564005334E+03 -0.53470427660E+02  0.47338629769E+03  0.58838051883E+03  0.81140101418E+02 0.  0.
         24    2    4    4    0    0  0.29438073816E+03 -0.28691945019E+02 -0.19196884769E+03  0.36137187105E+03  0.79084410580E+02 0.  0.
         13    1    3    3    0    0  0.45677175004E+02  0.43034757280E+02 -0.28117839794E+03  0.28809666107E+03  0.00000000000E+00 0.  1.
        -13    1    3    3    0    0 -0.44178598267E+01  0.39127615399E+02 -0.23235388210E+02  0.45720575648E+02  0.00000000000E+00 0. -1.
          2    1    6    6  502    0  0.27392446222E+03 -0.47923334503E+02 -0.17381631319E+03  0.32793805471E+03  0.00000000000E+00 0. -1.
          3    1    5    5  503    0 -0.26891037507E+03 -0.74288238845E+02  0.36501190427E+03  0.45941835238E+03  0.00000000000E+00 0. -1.
         -4    1    5    5    0  503 -0.66729678266E+02  0.20817811185E+02  0.10837439343E+03  0.12896216645E+03  0.00000000000E+00 0.  1.
         -1    1    6    6    0  502  0.20456275934E+02  0.19231389484E+02 -0.18152534500E+02  0.33433816344E+02  0.00000000000E+00 0.  1.
<mgrwt>
<rscale>  0 0.12833636E+04</rscale>
<asrwt>0</asrwt>
<pdfrwt beam="1">  1        1 0.96967176E-01 0.12833636E+04</pdfrwt>
<pdfrwt beam="2">  1       -1 0.10050507E+00 0.12833636E+04</pdfrwt>
<totfact> 0.29557547E+01</totfact>
</mgrwt>
</event>
<event>
12    1  0.2048318E-007  0.2013862E+04  0.7818608E-02  0.8600167E-01
          1   -1    0    0  501    0  0.00000000000E+00  0.00000000000E+00  0.20397983500E+04  0.20397983500E+04  0.00000000000E+00 0. -1.
         -1   -1    0    0    0  501 -0.00000000000E+00 -0.00000000000E+00 -0.49706380661E+03  0.49706380661E+03  0.00000000000E+00 0.  1.
         23    2    1    2    0    0  0.10570683591E+03 -0.43202356321E+03 -0.22410844716E+03  0.50614920018E+03  0.90244791678E+02 0.  0.
        254    2    1    2    0    0 -0.10570683591E+03  0.43202356321E+03  0.17668429906E+04  0.20307129564E+04  0.89679577599E+03 0.  0.
        -24    2    4    4    0    0  0.14356810094E+03  0.49586413485E+03  0.16619195162E+04  0.17419135091E+04  0.76112778755E+02 0.  0.
         24    2    4    4    0    0 -0.24927493685E+03 -0.63840571633E+02  0.10492347438E+03  0.28879944734E+03  0.78629336635E+02 0.  0.
         11    1    3    3    0    0  0.54419255933E+02 -0.21101103829E+03 -0.16010706723E+03  0.27040966453E+03  0.00000000000E+00 0.  1.
        -11    1    3    3    0    0  0.51287579982E+02 -0.22101252493E+03 -0.64001379924E+02  0.23573953565E+03  0.00000000000E+00 0. -1.
          4    1    6    6  502    0 -0.78853366991E+02  0.11795383173E+02  0.51228360683E+02  0.94769876481E+02  0.00000000000E+00 0. -1.
          1    1    5    5  503    0  0.13243521313E+03  0.34075568435E+03  0.12068066085E+04  0.12609661821E+04  0.00000000000E+00 0. -1.
         -2    1    5    5    0  503  0.11132887808E+02  0.15510845050E+03  0.45511290772E+03  0.48094732703E+03  0.00000000000E+00 0.  1.
         -1    1    6    6    0  502 -0.17042156986E+03 -0.75635954805E+02  0.53695113699E+02  0.19402957086E+03  0.00000000000E+00 0.  1.
<mgrwt>
<rscale>  0 0.20138619E+04</rscale>
<asrwt>0</asrwt>
<pdfrwt beam="1">  1        1 0.31381513E+00 0.20138619E+04</pdfrwt>
<pdfrwt beam="2">  1       -1 0.76471356E-01 0.20138619E+04</pdfrwt>
<totfact> 0.44529802E+00</totfact>
</mgrwt>
</event>
<event>
12    1  0.2048318E-007  0.1368565E+04  0.7818608E-02  0.8976893E-01
          1   -1    0    0  501    0  0.00000000000E+00  0.00000000000E+00  0.89944375135E+03  0.89944375135E+03  0.00000000000E+00 0. -1.
         -1   -1    0    0    0  501 -0.00000000000E+00 -0.00000000000E+00 -0.52059096587E+03  0.52059096587E+03  0.00000000000E+00 0.  1.
         23    2    1    2    0    0 -0.32750766514E+03  0.36143929587E+02 -0.88284579507E+02  0.35281856158E+03  0.90106137647E+02 0.  0.
        254    2    1    2    0    0  0.32750766514E+03 -0.36143929587E+02  0.46713736498E+03  0.10672161556E+04  0.90120216972E+03 0.  0.
        -24    2    4    4    0    0  0.62310971605E+03  0.59473536102E+02  0.24276232434E+03  0.67550804897E+03  0.74664304500E+02 0.  0.
         24    2    4    4    0    0 -0.29560205091E+03 -0.95617465688E+02  0.22437504064E+03  0.39170810667E+03  0.81042024412E+02 0.  0.
         13    1    3    3    0    0 -0.27470338529E+03  0.39099708005E+02 -0.38399015469E+02  0.28011644265E+03  0.00000000000E+00 0. -1.
        -13    1    3    3    0    0 -0.52804279859E+02 -0.29557784188E+01 -0.49885564039E+02  0.72702118930E+02  0.00000000000E+00 0.  1.
          2    1    6    6  502    0 -0.23871702663E+03 -0.76318625710E+02  0.21638695906E+03  0.33110975142E+03  0.00000000000E+00 0. -1.
          1    1    5    5  503    0  0.38857118053E+03  0.22386625542E+02  0.11491423387E+03  0.40582509100E+03  0.00000000000E+00 0. -1.
         -2    1    5    5    0  503  0.23453853552E+03  0.37086910560E+02  0.12784809047E+03  0.26968295796E+03  0.00000000000E+00 0.  1.
         -1    1    6    6    0  502 -0.56885024274E+02 -0.19298839979E+02  0.79880815807E+01  0.60598355246E+02  0.00000000000E+00 0.  1.
<mgrwt>
<rscale>  0 0.13685646E+04</rscale>
<asrwt>0</asrwt>
<pdfrwt beam="1">  1        1 0.13837596E+00 0.13685646E+04</pdfrwt>
<pdfrwt beam="2">  1       -1 0.80090918E-01 0.13685646E+04</pdfrwt>
<totfact> 0.27715219E+01</totfact>
</mgrwt>
</event>
<event>
12    1  0.2048318E-007  0.1797021E+04  0.7818608E-02  0.8707885E-01
         -2   -1    0    0    0  501 -0.00000000000E+00  0.00000000000E+00  0.96504474369E+03  0.96504474369E+03  0.00000000000E+00 0.  1.
          2   -1    0    0  501    0  0.00000000000E+00 -0.00000000000E+00 -0.83656366254E+03  0.83656366254E+03  0.00000000000E+00 0. -1.
         23    2    1    2    0    0  0.26301801128E+03 -0.16167470660E+03  0.64630488882E+03  0.72220317533E+03  0.92467465233E+02 0.  0.
        254    2    1    2    0    0 -0.26301801128E+03  0.16167470660E+03 -0.51782380767E+03  0.10794052309E+04  0.89535298721E+03 0.  0.
        -24    2    4    4    0    0 -0.35846934257E+03  0.33153193308E+03 -0.65981435219E+03  0.82470017205E+03  0.79760279595E+02 0.  0.
         24    2    4    4    0    0  0.95451331284E+02 -0.16985722648E+03  0.14199054453E+03  0.25470505885E+03  0.82163971654E+02 0.  0.
         11    1    3    3    0    0  0.87308900044E+01 -0.38646603228E+02  0.71859048677E+02  0.82057974982E+02  0.00000000000E+00 0. -1.
        -11    1    3    3    0    0  0.25428712128E+03 -0.12302810337E+03  0.57444584014E+03  0.64014520034E+03  0.00000000000E+00 0.  1.
          2    1    6    6  502    0  0.33576396022E+02 -0.73449706119E+02  0.12343017595E+02  0.81698125940E+02  0.00000000000E+00 0. -1.
          3    1    5    5  503    0 -0.14705022697E+03  0.17845784568E+03 -0.26888048129E+03  0.35463739954E+03  0.00000000000E+00 0. -1.
         -4    1    5    5    0  503 -0.21141911560E+03  0.15307408740E+03 -0.39093387091E+03  0.47006277251E+03  0.00000000000E+00 0.  1.
         -1    1    6    6    0  502  0.61874935262E+02 -0.96407520366E+02  0.12964752693E+03  0.17300693291E+03  0.00000000000E+00 0.  1.
<mgrwt>
<rscale>  0 0.17970213E+04</rscale>
<asrwt>0</asrwt>
<pdfrwt beam="1">  1        2 0.12870210E+00 0.17970213E+04</pdfrwt>
<pdfrwt beam="2">  1       -2 0.14846842E+00 0.17970213E+04</pdfrwt>
<totfact> 0.94269128E+00</totfact>
</mgrwt>
</event>
<event>
12    1  0.2048318E-007  0.1659505E+04  0.7818608E-02  0.8784803E-01
         -2   -1    0    0    0  501 -0.00000000000E+00  0.00000000000E+00  0.19384842652E+03  0.19384842652E+03  0.00000000000E+00 0. -1.
          2   -1    0    0  501    0  0.00000000000E+00 -0.00000000000E+00 -0.35516877688E+04  0.35516877688E+04  0.00000000000E+00 0.  1.
         23    2    1    2    0    0  0.56652264471E+03 -0.12484392417E+03 -0.11664119980E+04  0.13058922259E+04  0.91124333293E+02 0.  0.
        254    2    1    2    0    0 -0.56652264471E+03  0.12484392417E+03 -0.21914273443E+04  0.24396439695E+04  0.90165125194E+03 0.  0.
        -24    2    4    4    0    0  0.22535624267E+03 -0.32963093731E+02 -0.73123240566E+03  0.76913785609E+03  0.70712155390E+02 0.  0.
         24    2    4    4    0    0 -0.79187888738E+03  0.15780701790E+03 -0.14601949386E+04  0.16705061134E+04  0.80288161613E+02 0.  0.
         11    1    3    3    0    0  0.35955420200E+03 -0.12017838455E+03 -0.79199875277E+03  0.87805699853E+03  0.00000000000E+00 0. -1.
        -11    1    3    3    0    0  0.20696844270E+03 -0.46655396140E+01 -0.37441324524E+03  0.42783522733E+03  0.00000000000E+00 0.  1.
          4    1    6    6  502    0 -0.83157058405E+02  0.42456077878E+02 -0.17137688792E+03  0.19516058163E+03  0.00000000000E+00 0. -1.
          3    1    5    5  503    0  0.18641548270E+02 -0.11556196488E+02 -0.26485765342E+02  0.34388206771E+02  0.00000000000E+00 0. -1.
         -4    1    5    5    0  503  0.20671469440E+03 -0.21406897243E+02 -0.70474664032E+03  0.73474964931E+03  0.00000000000E+00 0.  1.
         -3    1    6    6    0  502 -0.70872182897E+03  0.11535094002E+03 -0.12888180507E+04  0.14753455317E+04  0.00000000000E+00 0.  1.
<mgrwt>
<rscale>  0 0.16595048E+04</rscale>
<asrwt>0</asrwt>
<pdfrwt beam="1">  1        2 0.54641347E+00 0.16595048E+04</pdfrwt>
<pdfrwt beam="2">  1       -2 0.29822837E-01 0.16595048E+04</pdfrwt>
<totfact> 0.74831684E+00</totfact>
</mgrwt>
</event>
<event>
12    1  0.2048318E-007  0.2064301E+04  0.7818608E-02  0.8577134E-01
         -2   -1    0    0    0  501 -0.00000000000E+00  0.00000000000E+00  0.42418720142E+03  0.42418720142E+03  0.00000000000E+00 0.  1.
          2   -1    0    0  501    0  0.00000000000E+00 -0.00000000000E+00 -0.25114736432E+04  0.25114736432E+04  0.00000000000E+00 0. -1.
         23    2    1    2    0    0  0.50071488033E+03 -0.49920868030E+03 -0.14794294068E+04  0.16421786668E+04  0.90081662932E+02 0.  0.
        254    2    1    2    0    0 -0.50071488033E+03  0.49920868030E+03 -0.60785703494E+03  0.12934821778E+04  0.89648272239E+03 0.  0.
        -24    2    4    4    0    0 -0.62838895197E+02  0.32067625463E+03  0.17244279598E+03  0.37759931365E+03  0.77863577843E+02 0.  0.
         24    2    4    4    0    0 -0.43787598514E+03  0.17853242567E+03 -0.78029983091E+03  0.91588286417E+03  0.79777123167E+02 0.  0.
         11    1    3    3    0    0  0.13329967390E+02 -0.34661364976E+02 -0.51780094708E+02  0.63720298654E+02  0.00000000000E+00 0.  1.
        -11    1    3    3    0    0  0.48738491294E+03 -0.46454731533E+03 -0.14276493121E+04  0.15784583681E+04  0.00000000000E+00 0. -1.
          2    1    6    6  502    0 -0.48843517032E+02  0.14013892712E+02 -0.44890193528E+02  0.67802712482E+02  0.00000000000E+00 0. -1.
          1    1    5    5  503    0  0.42690107289E+01  0.74002826565E+02  0.10205353676E+02  0.74825076251E+02  0.00000000000E+00 0. -1.
         -2    1    5    5    0  503 -0.67107905926E+02  0.24667342806E+03  0.16223744230E+03  0.30277423740E+03  0.00000000000E+00 0.  1.
         -1    1    6    6    0  502 -0.38903246810E+03  0.16451853296E+03 -0.73540963739E+03  0.84808015169E+03  0.00000000000E+00 0.  1.
<mgrwt>
<rscale>  0 0.20643013E+04</rscale>
<asrwt>0</asrwt>
<pdfrwt beam="1">  1        2 0.38638056E+00 0.20643013E+04</pdfrwt>
<pdfrwt beam="2">  1       -2 0.65259570E-01 0.20643013E+04</pdfrwt>
<totfact> 0.68607909E+00</totfact>
</mgrwt>
</event>
<event>
12    1  0.2048318E-007  0.1880946E+04  0.7818608E-02  0.8664400E-01
          2   -1    0    0  501    0  0.00000000000E+00  0.00000000000E+00  0.17038752204E+04  0.17038752204E+04  0.00000000000E+00 0. -1.
         -2   -1    0    0    0  501 -0.00000000000E+00 -0.00000000000E+00 -0.51910439036E+03  0.51910439036E+03  0.00000000000E+00 0.  1.
         23    2    1    2    0    0  0.52720535632E+03  0.48460290108E+03  0.55324399582E+03  0.90964266165E+03  0.92657398594E+02 0.  0.
        254    2    1    2    0    0 -0.52720535632E+03 -0.48460290108E+03  0.63152683425E+03  0.13133369491E+04  0.90179950106E+03 0.  0.
        -24    2    4    4    0    0 -0.54603687239E+03  0.97247998550E+02  0.25779277267E+03  0.61674362942E+03  0.79386091666E+02 0.  0.
         24    2    4    4    0    0  0.18831516071E+02 -0.58185089963E+03  0.37373406158E+03  0.69659331972E+03  0.81608877540E+02 0.  0.
         11    1    3    3    0    0  0.30850572437E+03  0.30048029375E+03  0.27667343234E+03  0.51187144584E+03  0.00000000000E+00 0.  1.
        -11    1    3    3    0    0  0.21869963195E+03  0.18412260734E+03  0.27657056348E+03  0.39777121582E+03  0.00000000000E+00 0. -1.
          4    1    6    6  502    0  0.51216463320E+02 -0.34406285601E+03  0.22322221673E+03  0.41331650468E+03  0.00000000000E+00 0. -1.
          3    1    5    5  503    0 -0.43612508081E+03  0.46326235771E+02  0.19041009044E+03  0.47812886211E+03  0.00000000000E+00 0. -1.
         -4    1    5    5    0  503 -0.10991179158E+03  0.50921762779E+02  0.67382682224E+02  0.13861476731E+03  0.00000000000E+00 0.  1.
         -3    1    6    6    0  502 -0.32384947249E+02 -0.23778804362E+03  0.15051184485E+03  0.28327681504E+03  0.00000000000E+00 0.  1.
<mgrwt>
<rscale>  0 0.18809456E+04</rscale>
<asrwt>0</asrwt>
<pdfrwt beam="1">  1        2 0.26213465E+00 0.18809456E+04</pdfrwt>
<pdfrwt beam="2">  1       -2 0.79862215E-01 0.18809456E+04</pdfrwt>
<totfact> 0.12700786E+01</totfact>
</mgrwt>
</event>
<event>
12    1  0.2048318E-007  0.3147781E+04  0.7818608E-02  0.8202746E-01
         -1   -1    0    0    0  501 -0.00000000000E+00  0.00000000000E+00  0.18810348495E+04  0.18810348495E+04  0.00000000000E+00 0.  1.
          1   -1    0    0  501    0  0.00000000000E+00 -0.00000000000E+00 -0.13168983559E+04  0.13168983559E+04  0.00000000000E+00 0. -1.
         23    2    1    2    0    0 -0.34809851255E+03 -0.12780066397E+04  0.84306466619E+03  0.15727590943E+04  0.91321365030E+02 0.  0.
        254    2    1    2    0    0  0.34809851255E+03  0.12780066397E+04 -0.27892817267E+03  0.16251741111E+04  0.89939780975E+03 0.  0.
        -24    2    4    4    0    0  0.60553838799E+03  0.54593065802E+03 -0.10212612677E+03  0.82525852288E+03  0.76843094133E+02 0.  0.
         24    2    4    4    0    0 -0.25743987544E+03  0.73207598171E+03 -0.17680204590E+03  0.79991558821E+03  0.79971572188E+02 0.  0.
         13    1    3    3    0    0 -0.20301274541E+03 -0.60404096898E+03  0.37358239452E+03  0.73867683902E+03  0.00000000000E+00 0. -1.
        -13    1    3    3    0    0 -0.14508576714E+03 -0.67396567075E+03  0.46948227167E+03  0.83408225529E+03  0.00000000000E+00 0.  1.
          2    1    6    6  502    0 -0.84360348791E+02  0.21075743722E+03 -0.16064649351E+02  0.22758171884E+03  0.00000000000E+00 0. -1.
          1    1    5    5  503    0  0.93849236250E+02  0.12123832807E+03 -0.66101156767E+01  0.15346043453E+03  0.00000000000E+00 0. -1.
         -2    1    5    5    0  503  0.51168915174E+03  0.42469232995E+03 -0.95516011098E+02  0.67179808835E+03  0.00000000000E+00 0.  1.
         -1    1    6    6    0  502 -0.17307952665E+03  0.52131854449E+03 -0.16073739655E+03  0.57233386936E+03  0.00000000000E+00 0.  1.
<mgrwt>
<rscale>  0 0.31477813E+04</rscale>
<asrwt>0</asrwt>
<pdfrwt beam="1">  1        1 0.20259975E+00 0.31477813E+04</pdfrwt>
<pdfrwt beam="2">  1       -1 0.28938998E+00 0.31477813E+04</pdfrwt>
<totfact> 0.28602701E-01</totfact>
</mgrwt>
</event>
<event>
12    1  0.2048318E-007  0.1483748E+04  0.7818608E-02  0.8895333E-01
          2   -1    0    0  501    0  0.00000000000E+00  0.00000000000E+00  0.75682845904E+03  0.75682845904E+03  0.00000000000E+00 0. -1.
         -2   -1    0    0    0  501 -0.00000000000E+00 -0.00000000000E+00 -0.72721469800E+03  0.72721469800E+03  0.00000000000E+00 0.  1.
         23    2    1    2    0    0  0.11234432514E+03  0.20005471300E+03 -0.39271620377E+03  0.46460338103E+03  0.94800576865E+02 0.  0.
        254    2    1    2    0    0 -0.11234432514E+03 -0.20005471300E+03  0.42232996480E+03  0.10194397760E+04  0.89902820988E+03 0.  0.
        -24    2    4    4    0    0 -0.36288315869E+03 -0.36009475618E+03  0.25139946421E+02  0.51817484885E+03  0.80751079142E+02 0.  0.
         24    2    4    4    0    0  0.25053883355E+03  0.16004004318E+03  0.39719001838E+03  0.50126492716E+03  0.71582777028E+02 0.  0.
         13    1    3    3    0    0  0.58435966279E+01  0.65928434240E+02 -0.17826562719E+03  0.19015609351E+03  0.00000000000E+00 0.  1.
        -13    1    3    3    0    0  0.10650072852E+03  0.13412627876E+03 -0.21445057658E+03  0.27444728751E+03  0.00000000000E+00 0. -1.
          4    1    6    6  502    0  0.16938640302E+03  0.70539464187E+02  0.26326373015E+03  0.32089774251E+03  0.00000000000E+00 0. -1.
          1    1    5    5  503    0 -0.95322620799E+02 -0.48966088998E+02  0.80583166074E+01  0.10746634996E+03  0.00000000000E+00 0. -1.
         -4    1    5    5    0  503 -0.26756053789E+03 -0.31112866718E+03  0.17081629814E+02  0.41070849889E+03  0.00000000000E+00 0.  1.
         -3    1    6    6    0  502  0.81152430524E+02  0.89500578990E+02  0.13392628823E+03  0.18036718465E+03  0.00000000000E+00 0.  1.
<mgrwt>
<rscale>  0 0.14837477E+04</rscale>
<asrwt>0</asrwt>
<pdfrwt beam="1">  1        2 0.11643515E+00 0.14837477E+04</pdfrwt>
<pdfrwt beam="2">  1       -2 0.11187918E+00 0.14837477E+04</pdfrwt>
<totfact> 0.22606654E+01</totfact>
</mgrwt>
</event>
<event>
12    1  0.2048318E-007  0.1261095E+04  0.7818608E-02  0.9061000E-01
          1   -1    0    0  501    0  0.00000000000E+00  0.00000000000E+00  0.11903185321E+04  0.11903185321E+04  0.00000000000E+00 0. -1.
         -1   -1    0    0    0  501 -0.00000000000E+00 -0.00000000000E+00 -0.33401970301E+03  0.33401970301E+03  0.00000000000E+00 0.  1.
         23    2    1    2    0    0 -0.85035048841E+02  0.13004234207E+03  0.52146767132E+03  0.55173269119E+03  0.91315168707E+02 0.  0.
        254    2    1    2    0    0  0.85035048841E+02 -0.13004234207E+03  0.33483115776E+03  0.97260554391E+03  0.89983757955E+03 0.  0.
        -24    2    4    4    0    0 -0.15558361264E+02 -0.12573867343E+03 -0.29435014476E+03  0.33036701717E+03  0.80299948408E+02 0.  0.
         24    2    4    4    0    0  0.10059341011E+03 -0.43036686407E+01  0.62918130252E+03  0.64223852674E+03  0.80396878481E+02 0.  0.
         13    1    3    3    0    0 -0.12248206728E+02  0.28271963179E+02  0.26055452784E+03  0.26236993815E+03  0.00000000000E+00 0. -1.
        -13    1    3    3    0    0 -0.72786842113E+02  0.10177037889E+03  0.26091314348E+03  0.28936275304E+03  0.00000000000E+00 0.  1.
          4    1    6    6  502    0  0.34570610339E+02  0.13057758837E+02  0.43192725534E+03  0.43350523189E+03  0.00000000000E+00 0. -1.
          3    1    5    5  503    0 -0.11847604840E+02 -0.13629616349E+03 -0.28347799135E+03  0.31476464462E+03  0.00000000000E+00 0. -1.
         -4    1    5    5    0  503 -0.37107564243E+01  0.10557490057E+02 -0.10872153405E+02  0.15602372550E+02  0.00000000000E+00 0.  1.
         -3    1    6    6    0  502  0.66022799767E+02 -0.17361427478E+02  0.19725404718E+03  0.20873329486E+03  0.00000000000E+00 0.  1.
<mgrwt>
<rscale>  0 0.12610945E+04</rscale>
<asrwt>0</asrwt>
<pdfrwt beam="1">  1        1 0.18312593E+00 0.12610945E+04</pdfrwt>
<pdfrwt beam="2">  1       -1 0.51387647E-01 0.12610945E+04</pdfrwt>
<totfact> 0.40759612E+01</totfact>
</mgrwt>
</event>
<event>
12    1  0.2048318E-007  0.1613687E+04  0.7818608E-02  0.8812183E-01
          1   -1    0    0  501    0  0.00000000000E+00  0.00000000000E+00  0.27856159192E+04  0.27856159192E+04  0.00000000000E+00 0. -1.
         -1   -1    0    0    0  501 -0.00000000000E+00 -0.00000000000E+00 -0.23369936846E+03  0.23369936846E+03  0.00000000000E+00 0.  1.
         23    2    1    2    0    0  0.19097077142E+03  0.51613565222E+03  0.79175496974E+03  0.96869221740E+03  0.92859210171E+02 0.  0.
        254    2    1    2    0    0 -0.19097077142E+03 -0.51613565222E+03  0.17601615810E+04  0.20506230702E+04  0.89667181175E+03 0.  0.
        -24    2    4    4    0    0 -0.30641852769E+03 -0.71210019044E+03  0.11021614614E+04  0.13498492565E+04  0.79712815229E+02 0.  0.
         24    2    4    4    0    0  0.11544775627E+03  0.19596453822E+03  0.65800011956E+03  0.70077381373E+03  0.79934323065E+02 0.  0.
         13    1    3    3    0    0  0.11371412336E+03  0.41782518235E+03  0.60866152269E+03  0.74697900510E+03  0.00000000000E+00 0.  1.
        -13    1    3    3    0    0  0.77256648059E+02  0.98310469870E+02  0.18309344705E+03  0.22171321230E+03  0.00000000000E+00 0. -1.
          4    1    6    6  502    0  0.59356343701E+02  0.10342102669E+03  0.22721186500E+03  0.25660147291E+03  0.00000000000E+00 0. -1.
          1    1    5    5  503    0 -0.26791187976E+03 -0.56068453810E+03  0.91480254095E+03  0.11058967472E+04  0.00000000000E+00 0. -1.
         -2    1    5    5    0  503 -0.38506647934E+02 -0.15141565233E+03  0.18735892049E+03  0.24395250930E+03  0.00000000000E+00 0.  1.
         -3    1    6    6    0  502  0.56091412569E+02  0.92543511524E+02  0.43078825455E+03  0.44417234082E+03  0.00000000000E+00 0.  1.
<mgrwt>
<rscale>  0 0.16136873E+04</rscale>
<asrwt>0</asrwt>
<pdfrwt beam="1">  1        1 0.42855627E+00 0.16136873E+04</pdfrwt>
<pdfrwt beam="2">  1       -1 0.35953751E-01 0.16136873E+04</pdfrwt>
<totfact> 0.60675364E+00</totfact>
</mgrwt>
</event>
<event>
12    1  0.2048318E-007  0.1067814E+04  0.7818608E-02  0.9237143E-01
          2   -1    0    0  501    0  0.00000000000E+00  0.00000000000E+00  0.23353063571E+03  0.23353063571E+03  0.00000000000E+00 0.  1.
         -2   -1    0    0    0  501 -0.00000000000E+00 -0.00000000000E+00 -0.12206395344E+04  0.12206395344E+04  0.00000000000E+00 0. -1.
         23    2    1    2    0    0  0.11184368617E+03 -0.31774309664E+02 -0.21926991668E+03  0.26420385275E+03  0.90585664164E+02 0.  0.
        254    2    1    2    0    0 -0.11184368617E+03  0.31774309664E+02 -0.76783898199E+03  0.11899663173E+04  0.90162326792E+03 0.  0.
        -24    2    4    4    0    0  0.95329819557E+02  0.43088342675E+03 -0.43470904106E+03  0.62477938514E+03  0.81418841615E+02 0.  0.
         24    2    4    4    0    0 -0.20717350573E+03 -0.39910911709E+03 -0.33312994093E+03  0.56518693220E+03  0.79068084372E+02 0.  0.
         13    1    3    3    0    0  0.99747861902E+02 -0.14495488663E+02 -0.22114115672E+03  0.24302914710E+03  0.00000000000E+00 0. -1.
        -13    1    3    3    0    0  0.12095824271E+02 -0.17278821001E+02  0.18712400333E+01  0.21174705647E+02  0.00000000000E+00 0.  1.
          4    1    6    6  502    0 -0.12631745719E+03 -0.29380180055E+03 -0.26825631176E+03  0.41741711368E+03  0.00000000000E+00 0. -1.
          3    1    5    5  503    0  0.61189812813E+02  0.39261307987E+03 -0.38939457198E+03  0.55634284067E+03  0.00000000000E+00 0. -1.
         -4    1    5    5    0  503  0.34140006743E+02  0.38270346879E+02 -0.45314469082E+02  0.68436544469E+02  0.00000000000E+00 0.  1.
         -3    1    6    6    0  502 -0.80856048543E+02 -0.10530731654E+03 -0.64873629165E+02  0.14776981852E+03  0.00000000000E+00 0.  1.
<mgrwt>
<rscale>  0 0.10678141E+04</rscale>
<asrwt>0</asrwt>
<pdfrwt beam="1">  1        2 0.35927790E-01 0.10678141E+04</pdfrwt>
<pdfrwt beam="2">  1       -2 0.18779070E+00 0.10678141E+04</pdfrwt>
<totfact> 0.23171838E+01</totfact>
</mgrwt>
</event>
<event>
12    1  0.2048318E-007  0.2940002E+04  0.7818608E-02  0.8261074E-01
         -2   -1    0    0    0  501 -0.00000000000E+00  0.00000000000E+00  0.19773959614E+04  0.19773959614E+04  0.00000000000E+00 0.  1.
          2   -1    0    0  501    0  0.00000000000E+00 -0.00000000000E+00 -0.10928022520E+04  0.10928022520E+04  0.00000000000E+00 0. -1.
         23    2    1    2    0    0 -0.11753064132E+04 -0.53261588416E+03  0.74039554015E+03  0.14905126544E+04  0.91747327786E+02 0.  0.
        254    2    1    2    0    0  0.11753064132E+04  0.53261588416E+03  0.14419816927E+03  0.15796855590E+04  0.89977136440E+03 0.  0.
        -24    2    4    4    0    0  0.23250925459E+03  0.53271218250E+03 -0.11793850130E+03  0.59806294710E+03  0.76986854362E+02 0.  0.
         24    2    4    4    0    0  0.94279715863E+03 -0.96298342499E-01  0.26213667057E+03  0.98162261188E+03  0.77465001728E+02 0.  0.
         13    1    3    3    0    0 -0.73246980013E+03 -0.32204893163E+03  0.50889579176E+03  0.94826285878E+03  0.00000000000E+00 0. -1.
        -13    1    3    3    0    0 -0.44283661309E+03 -0.21056695253E+03  0.23149974839E+03  0.54224979566E+03  0.00000000000E+00 0.  1.
          2    1    6    6  502    0  0.77411328383E+03 -0.48592115166E+01  0.18418988420E+03  0.79573921707E+03  0.00000000000E+00 0. -1.
          1    1    5    5  503    0  0.12354230982E+03  0.37032889678E+03 -0.68526972224E+02  0.39636112326E+03  0.00000000000E+00 0. -1.
         -2    1    5    5    0  503  0.10896694478E+03  0.16238328572E+03 -0.49411529079E+02  0.20170182384E+03  0.00000000000E+00 0.  1.
         -1    1    6    6    0  502  0.16868387480E+03  0.47629131741E+01  0.77946786372E+02  0.18588339481E+03  0.00000000000E+00 0.  1.
<mgrwt>
<rscale>  0 0.29400019E+04</rscale>
<asrwt>0</asrwt>
<pdfrwt beam="1">  1        2 0.16812342E+00 0.29400019E+04</pdfrwt>
<pdfrwt beam="2">  1       -2 0.30421476E+00 0.29400019E+04</pdfrwt>
<totfact> 0.56701836E-01</totfact>
</mgrwt>
</event>
<event>
12    1  0.2048318E-007  0.2324435E+04  0.7818608E-02  0.8468349E-01
          1   -1    0    0  501    0  0.00000000000E+00  0.00000000000E+00  0.90279482685E+03  0.90279482685E+03  0.00000000000E+00 0. -1.
         -1   -1    0    0    0  501 -0.00000000000E+00 -0.00000000000E+00 -0.14961863223E+04  0.14961863223E+04  0.00000000000E+00 0.  1.
         23    2    1    2    0    0  0.78813194263E+03 -0.51029947747E+03  0.53443562787E+02  0.94472265346E+03  0.89928648799E+02 0.  0.
        254    2    1    2    0    0 -0.78813194263E+03  0.51029947747E+03 -0.64683505821E+03  0.14542584957E+04  0.90272623979E+03 0.  0.
        -24    2    4    4    0    0 -0.34443799546E+02 -0.20085318045E+03  0.19621527667E+02  0.21960028655E+03  0.79441211476E+02 0.  0.
         24    2    4    4    0    0 -0.75368814308E+03  0.71115265792E+03 -0.66645658588E+03  0.12346582091E+04  0.80203444974E+02 0.  0.
         11    1    3    3    0    0  0.49742949507E+03 -0.30041537644E+03  0.72796925057E+02  0.58564912129E+03  0.00000000000E+00 0. -1.
        -11    1    3    3    0    0  0.29070244756E+03 -0.20988410102E+03 -0.19353362270E+02  0.35907353218E+03  0.00000000000E+00 0.  1.
          2    1    6    6  502    0 -0.53145891153E+02  0.59600991080E+02 -0.28632185853E+02  0.84832576001E+02  0.00000000000E+00 0. -1.
          1    1    5    5  503    0 -0.12060319565E+02  0.32803001221E+01  0.58000425190E+01  0.13778685355E+02  0.00000000000E+00 0. -1.
         -2    1    5    5    0  503 -0.22383479982E+02 -0.20413348058E+03  0.13821485148E+02  0.20582160120E+03  0.00000000000E+00 0.  1.
         -1    1    6    6    0  502 -0.70054225193E+03  0.65155166684E+03 -0.63782440003E+03  0.11498256331E+04  0.00000000000E+00 0.  1.
<mgrwt>
<rscale>  0 0.23244348E+04</rscale>
<asrwt>0</asrwt>
<pdfrwt beam="1">  1        1 0.13889151E+00 0.23244348E+04</pdfrwt>
<pdfrwt beam="2">  1       -1 0.23018251E+00 0.23244348E+04</pdfrwt>
<totfact> 0.15367079E+00</totfact>
</mgrwt>
</event>
<event>
12    1  0.2048318E-007  0.3814604E+04  0.7818608E-02  0.8043028E-01
         -2   -1    0    0    0  501 -0.00000000000E+00  0.00000000000E+00  0.11876483340E+04  0.11876483340E+04  0.00000000000E+00 0. -1.
          2   -1    0    0  501    0  0.00000000000E+00 -0.00000000000E+00 -0.30630288411E+04  0.30630288411E+04  0.00000000000E+00 0.  1.
         23    2    1    2    0    0 -0.10766379230E+04  0.13940784956E+04 -0.47317370245E+03  0.18262904406E+04  0.94017825788E+02 0.  0.
        254    2    1    2    0    0  0.10766379230E+04 -0.13940784956E+04 -0.14022068046E+04  0.24243867345E+04  0.89936813724E+03 0.  0.
        -24    2    4    4    0    0 -0.12369946544E+03 -0.29396496161E+03 -0.36991936216E+03  0.49487635444E+03  0.79657487247E+02 0.  0.
         24    2    4    4    0    0  0.12003373884E+04 -0.11001135340E+04 -0.10322874425E+04  0.19295103800E+04  0.79582090427E+02 0.  0.
         13    1    3    3    0    0 -0.68799258004E+03  0.95319760913E+03 -0.33881131469E+03  0.12234020513E+04  0.00000000000E+00 0. -1.
        -13    1    3    3    0    0 -0.38864534294E+03  0.44088088645E+03 -0.13436238776E+03  0.60288838923E+03  0.00000000000E+00 0.  1.
          4    1    6    6  502    0  0.23102662824E+03 -0.23619220918E+03 -0.24119542526E+03  0.40906637090E+03  0.00000000000E+00 0. -1.
          3    1    5    5  503    0 -0.46473462710E+02 -0.34157851053E+02 -0.66410932740E+02  0.87959954026E+02  0.00000000000E+00 0. -1.
         -4    1    5    5    0  503 -0.77226002727E+02 -0.25980711056E+03 -0.30350842942E+03  0.40691640041E+03  0.00000000000E+00 0.  1.
         -3    1    6    6    0  502  0.96931076017E+03 -0.86392132478E+03 -0.79109201722E+03  0.15204440091E+04  0.00000000000E+00 0.  1.
<mgrwt>
<rscale>  0 0.38146041E+04</rscale>
<asrwt>0</asrwt>
<pdfrwt beam="1">  1        2 0.47123520E+00 0.38146041E+04</pdfrwt>
<pdfrwt beam="2">  1       -2 0.18271513E+00 0.38146041E+04</pdfrwt>
<totfact> 0.22082449E-01</totfact>
</mgrwt>
</event>
<event>
12    1  0.2048318E-007  0.2100418E+04  0.7818608E-02  0.8561059E-01
          1   -1    0    0  501    0  0.00000000000E+00  0.00000000000E+00  0.80710054722E+03  0.80710054722E+03  0.00000000000E+00 0. -1.
         -1   -1    0    0    0  501 -0.00000000000E+00 -0.00000000000E+00 -0.13665441035E+04  0.13665441035E+04  0.00000000000E+00 0.  1.
         23    2    1    2    0    0 -0.69053935514E+03  0.48574691055E+03 -0.96523087304E+02  0.85454827316E+03  0.90229610860E+02 0.  0.
        254    2    1    2    0    0  0.69053935514E+03 -0.48574691055E+03 -0.46292046893E+03  0.13190963775E+04  0.90162366347E+03 0.  0.
        -24    2    4    4    0    0  0.71228029232E+03 -0.12864104394E+03 -0.58397901269E+03  0.93341941436E+03  0.79677994658E+02 0.  0.
         24    2    4    4    0    0 -0.21740937185E+02 -0.35710586661E+03  0.12105854376E+03  0.38567696315E+03  0.78065873285E+02 0.  0.
         11    1    3    3    0    0 -0.30008097575E+03  0.15941875019E+03 -0.51698811974E+02  0.34370873873E+03  0.00000000000E+00 0.  1.
        -11    1    3    3    0    0 -0.39045837938E+03  0.32632816037E+03 -0.44824275330E+02  0.51083953443E+03  0.00000000000E+00 0. -1.
          2    1    6    6  502    0  0.33516910132E+01 -0.11562105786E+03  0.29973673897E+01  0.11570845718E+03  0.00000000000E+00 0. -1.
          1    1    5    5  503    0  0.29903824110E+03 -0.76418858118E+02 -0.29075691329E+03  0.42403218527E+03  0.00000000000E+00 0. -1.
         -2    1    5    5    0  503  0.41324205122E+03 -0.52222185825E+02 -0.29322209940E+03  0.50938722910E+03  0.00000000000E+00 0.  1.
         -1    1    6    6    0  502 -0.25092628199E+02 -0.24148480875E+03  0.11806117637E+03  0.26996850597E+03  0.00000000000E+00 0.  1.
<mgrwt>
<rscale>  0 0.21004176E+04</rscale>
<asrwt>0</asrwt>
<pdfrwt beam="1">  1        1 0.12416932E+00 0.21004176E+04</pdfrwt>
<pdfrwt beam="2">  1       -1 0.21023755E+00 0.21004176E+04</pdfrwt>
<totfact> 0.25671930E+00</totfact>
</mgrwt>
</event>
<event>
12    1  0.2048318E-007  0.1540799E+04  0.7818608E-02  0.8857767E-01
          2   -1    0    0  501    0  0.00000000000E+00  0.00000000000E+00  0.87029787781E+03  0.87029787781E+03  0.00000000000E+00 0. -1.
         -2   -1    0    0    0  501 -0.00000000000E+00 -0.00000000000E+00 -0.68196774421E+03  0.68196774421E+03  0.00000000000E+00 0.  1.
         23    2    1    2    0    0  0.38157608682E+03 -0.24420934256E+03 -0.15300379521E+03  0.48820602588E+03  0.98470550540E+02 0.  0.
        254    2    1    2    0    0 -0.38157608682E+03  0.24420934256E+03  0.34133392881E+03  0.10640595961E+04  0.90026410578E+03 0.  0.
        -24    2    4    4    0    0  0.13318999154E+03  0.13459868385E+03  0.47383044379E+03  0.51565848504E+03  0.74377444127E+02 0.  0.
         24    2    4    4    0    0 -0.51476607836E+03  0.10961065872E+03 -0.13249651498E+03  0.54840111110E+03  0.78675537717E+02 0.  0.
         11    1    3    3    0    0  0.23993461565E+03 -0.19587869525E+03 -0.13349282510E+03  0.33727943518E+03  0.00000000000E+00 0.  1.
        -11    1    3    3    0    0  0.14164147117E+03 -0.48330647310E+02 -0.19510970116E+02  0.15092659070E+03  0.00000000000E+00 0. -1.
          4    1    6    6  502    0 -0.14769624984E+03 -0.38772533174E+01 -0.43457345088E+02  0.15400570169E+03  0.00000000000E+00 0. -1.
          3    1    5    5  503    0  0.31780337038E+02  0.76527634573E+02  0.14967521965E+03  0.17108226107E+03  0.00000000000E+00 0. -1.
         -4    1    5    5    0  503  0.10140965451E+03  0.58071049275E+02  0.32415522415E+03  0.34457622398E+03  0.00000000000E+00 0.  1.
         -3    1    6    6    0  502 -0.36706982852E+03  0.11348791203E+03 -0.89039169891E+02  0.39439540941E+03  0.00000000000E+00 0.  1.
<mgrwt>
<rscale>  0 0.15407986E+04</rscale>
<asrwt>0</asrwt>
<pdfrwt beam="1">  1        2 0.13389198E+00 0.15407986E+04</pdfrwt>
<pdfrwt beam="2">  1       -2 0.10491811E+00 0.15407986E+04</pdfrwt>
<totfact> 0.21799782E+01</totfact>
</mgrwt>
</event>
<event>
12    1  0.2048318E-007  0.1910872E+04  0.7818608E-02  0.8649463E-01
          1   -1    0    0  501    0  0.00000000000E+00  0.00000000000E+00  0.36750089242E+03  0.36750089242E+03  0.00000000000E+00 0. -1.
         -1   -1    0    0    0  501 -0.00000000000E+00 -0.00000000000E+00 -0.24839624589E+04  0.24839624589E+04  0.00000000000E+00 0.  1.
         23    2    1    2    0    0 -0.62055975753E+03  0.39940572971E+03 -0.91408154207E+03  0.11783282440E+04  0.91066104364E+02 0.  0.
        254    2    1    2    0    0  0.62055975753E+03 -0.39940572971E+03 -0.12023800244E+04  0.16731351073E+04  0.89946874028E+03 0.  0.
        -24    2    4    4    0    0  0.17700452972E+03  0.27647990900E+03 -0.47502832269E+03  0.58280908650E+03  0.79011267062E+02 0.  0.
         24    2    4    4    0    0  0.44355522781E+03 -0.67588563871E+03 -0.72735170168E+03  0.10903260208E+04  0.78788939594E+02 0.  0.
         11    1    3    3    0    0 -0.41089587077E+03  0.31369840756E+03 -0.62576211902E+03  0.81167748344E+03  0.00000000000E+00 0. -1.
        -11    1    3    3    0    0 -0.20966388676E+03  0.85707322156E+02 -0.28831942305E+03  0.36665076052E+03  0.00000000000E+00 0.  1.
          2    1    6    6  502    0  0.44188509042E+03 -0.65588584413E+03 -0.71808564970E+03  0.10682207983E+04  0.00000000000E+00 0. -1.
          1    1    5    5  503    0  0.14262314432E+03  0.15370557865E+03 -0.31031205532E+03  0.37451346822E+03  0.00000000000E+00 0. -1.
         -4    1    5    5    0  503  0.34381385399E+02  0.12277433035E+03 -0.16471626737E+03  0.20829561827E+03  0.00000000000E+00 0.  1.
         -1    1    6    6    0  502  0.16701373827E+01 -0.19999794581E+02 -0.92660519852E+01  0.22105222495E+02  0.00000000000E+00 0.  1.
<mgrwt>
<rscale>  0 0.19108725E+04</rscale>
<asrwt>0</asrwt>
<pdfrwt beam="1">  1        1 0.56538598E-01 0.19108725E+04</pdfrwt>
<pdfrwt beam="2">  1       -1 0.38214808E+00 0.19108725E+04</pdfrwt>
<totfact> 0.59529272E-01</totfact>
</mgrwt>
</event>
<event>
12    1  0.2169237E-007  0.2209811E+04  0.7818608E-02  0.8514356E-01
          2   -1    0    0  501    0  0.00000000000E+00  0.00000000000E+00  0.22454233569E+04  0.22454233569E+04  0.00000000000E+00 0. -1.
         -2   -1    0    0    0  501 -0.00000000000E+00 -0.00000000000E+00 -0.54369097115E+03  0.54369097115E+03  0.00000000000E+00 0.  1.
         23    2    1    2    0    0  0.90761756461E+03  0.13396623882E+03  0.64170980400E+03  0.11233183233E+04  0.91301622181E+02 0.  0.
        254    2    1    2    0    0 -0.90761756461E+03 -0.13396623882E+03  0.10600225817E+04  0.16657960047E+04  0.89972876958E+03 0.  0.
        -24    2    4    4    0    0 -0.31002609878E+03 -0.30034719325E+03  0.48079671748E+01  0.43916492033E+03  0.80734703058E+02 0.  0.
         24    2    4    4    0    0 -0.59759146582E+03  0.16638095443E+03  0.10552146146E+04  0.12266310844E+04  0.79672783136E+02 0.  0.
         13    1    3    3    0    0  0.47296629378E+03  0.60115634340E+02  0.38762154650E+03  0.61446030616E+03  0.00000000000E+00 0. -1.
        -13    1    3    3    0    0  0.43465127083E+03  0.73850604484E+02  0.25408825750E+03  0.50885801715E+03  0.00000000000E+00 0.  1.
          2    1    6    6  502    0 -0.58534877827E+02  0.11008166913E+02  0.62292305144E+02  0.86184934537E+02  0.00000000000E+00 0. -1.
          3    1    5    5  503    0 -0.63403119252E+02 -0.23532326610E+02 -0.86428413420E+01  0.68179356355E+02  0.00000000000E+00 0. -1.
         -4    1    5    5    0  503 -0.24662297953E+03 -0.27681486664E+03  0.13450808517E+02  0.37098556398E+03  0.00000000000E+00 0.  1.
         -1    1    6    6    0  502 -0.53905658799E+03  0.15537278752E+03  0.99292230942E+03  0.11404461498E+04  0.00000000000E+00 0.  1.
<mgrwt>
<rscale>  0 0.22098112E+04</rscale>
<asrwt>0</asrwt>
<pdfrwt beam="1">  1        2 0.34544974E+00 0.22098112E+04</pdfrwt>
<pdfrwt beam="2">  1       -2 0.83644766E-01 0.22098112E+04</pdfrwt>
<totfact> 0.55559524E+00</totfact>
</mgrwt>
</event>
<event>
12    1  0.2048318E-007  0.1916526E+04  0.7818608E-02  0.8646674E-01
          1   -1    0    0  501    0  0.00000000000E+00  0.00000000000E+00  0.10461079136E+04  0.10461079136E+04  0.00000000000E+00 0. -1.
         -1   -1    0    0    0  501 -0.00000000000E+00 -0.00000000000E+00 -0.87779434950E+03  0.87779434950E+03  0.00000000000E+00 0.  1.
         23    2    1    2    0    0 -0.28293791974E+03  0.61278058111E+03  0.38157164506E+03  0.78063906223E+03  0.90810341701E+02 0.  0.
        254    2    1    2    0    0  0.28293791974E+03 -0.61278058111E+03 -0.21325808096E+03  0.11432632009E+04  0.89778495776E+03 0.  0.
        -24    2    4    4    0    0  0.50994615211E+03 -0.12577194701E+03  0.60291644359E+02  0.53497762946E+03  0.81867703913E+02 0.  0.
         24    2    4    4    0    0 -0.22700823237E+03 -0.48700863410E+03 -0.27354972531E+03  0.60828557142E+03  0.80447106363E+02 0.  0.
         13    1    3    3    0    0 -0.19499188292E+03  0.50561385285E+03  0.31554754974E+03  0.62708648426E+03  0.00000000000E+00 0. -1.
        -13    1    3    3    0    0 -0.87946036824E+02  0.10716672826E+03  0.66024095314E+02  0.15355257797E+03  0.00000000000E+00 0.  1.
          4    1    6    6  502    0 -0.94313539710E+02 -0.26408147514E+03 -0.10779060958E+03  0.30042117901E+03  0.00000000000E+00 0. -1.
          3    1    5    5  503    0  0.19529886696E+03 -0.93199739468E+01  0.10558028216E+02  0.19580597874E+03  0.00000000000E+00 0. -1.
         -4    1    5    5    0  503  0.31464728515E+03 -0.11645197306E+03  0.49733616143E+02  0.33917165072E+03  0.00000000000E+00 0.  1.
         -3    1    6    6    0  502 -0.13269469266E+03 -0.22292715896E+03 -0.16575911574E+03  0.30786439241E+03  0.00000000000E+00 0.  1.
<mgrwt>
<rscale>  0 0.19165256E+04</rscale>
<asrwt>0</asrwt>
<pdfrwt beam="1">  1        1 0.16093968E+00 0.19165256E+04</pdfrwt>
<pdfrwt beam="2">  1       -1 0.13504528E+00 0.19165256E+04</pdfrwt>
<totfact> 0.59927908E+00</totfact>
</mgrwt>
</event>
<event>
12    1  0.2048318E-007  0.1622944E+04  0.7818608E-02  0.8806576E-01
         -2   -1    0    0    0  501 -0.00000000000E+00  0.00000000000E+00  0.33810715736E+03  0.33810715736E+03  0.00000000000E+00 0.  1.
          2   -1    0    0  501    0  0.00000000000E+00 -0.00000000000E+00 -0.19475674366E+04  0.19475674366E+04  0.00000000000E+00 0. -1.
         23    2    1    2    0    0  0.51623074286E+03 -0.89084179611E+02 -0.29099611409E+03  0.60645816548E+03  0.93180454648E+02 0.  0.
        254    2    1    2    0    0 -0.51623074286E+03  0.89084179611E+02 -0.13184641651E+04  0.16792164284E+04  0.89832615900E+03 0.  0.
        -24    2    4    4    0    0 -0.19552522253E+02 -0.35203728753E+03 -0.35849547099E+03  0.50907073474E+03  0.79507592732E+02 0.  0.
         24    2    4    4    0    0 -0.49667822061E+03  0.44112146714E+03 -0.95996869411E+03  0.11701456937E+04  0.80147658818E+02 0.  0.
         11    1    3    3    0    0  0.20374690406E+03 -0.46685475374E+02 -0.16723953613E+03  0.26769646425E+03  0.00000000000E+00 0. -1.
        -11    1    3    3    0    0  0.31248383880E+03 -0.42398704238E+02 -0.12375657796E+03  0.33876170123E+03  0.00000000000E+00 0.  1.
          2    1    6    6  502    0 -0.20130133800E+02  0.11558929258E+02 -0.64596289418E+02  0.68640452643E+02  0.00000000000E+00 0. -1.
          1    1    5    5  503    0 -0.22737580989E+02 -0.29504292704E+02 -0.23548921049E+02  0.44068725416E+02  0.00000000000E+00 0. -1.
         -2    1    5    5    0  503  0.31850587357E+01 -0.32253299483E+03 -0.33494654995E+03  0.46500200932E+03  0.00000000000E+00 0.  1.
         -1    1    6    6    0  502 -0.47654808681E+03  0.42956253788E+03 -0.89537240470E+03  0.11015052411E+04  0.00000000000E+00 0.  1.
<mgrwt>
<rscale>  0 0.16229436E+04</rscale>
<asrwt>0</asrwt>
<pdfrwt beam="1">  1        2 0.29962576E+00 0.16229436E+04</pdfrwt>
<pdfrwt beam="2">  1       -2 0.52016486E-01 0.16229436E+04</pdfrwt>
<totfact> 0.23869803E+01</totfact>
</mgrwt>
</event>
<event>
12    1  0.2048318E-007  0.2730811E+04  0.7818608E-02  0.8325077E-01
          2   -1    0    0  501    0  0.00000000000E+00  0.00000000000E+00  0.23566330737E+04  0.23566330737E+04  0.00000000000E+00 0. -1.
         -2   -1    0    0    0  501 -0.00000000000E+00 -0.00000000000E+00 -0.79109961872E+03  0.79109961872E+03  0.00000000000E+00 0.  1.
         23    2    1    2    0    0  0.40976575186E+02  0.53711374408E+03 -0.55719487054E+03  0.78034519098E+03  0.91116626017E+02 0.  0.
        254    2    1    2    0    0 -0.40976575186E+02 -0.53711374408E+03  0.21227283256E+04  0.23673875015E+04  0.89909831731E+03 0.  0.
        -24    2    4    4    0    0 -0.32360042378E+03 -0.59565868568E+03  0.10375399844E+04  0.12418353603E+04  0.78353932873E+02 0.  0.
         24    2    4    4    0    0  0.28262384859E+03  0.58544941595E+02  0.10851883412E+04  0.11255521412E+04  0.77007380776E+02 0.  0.
         11    1    3    3    0    0 -0.84878101700E+01  0.39665416125E+03 -0.42199514044E+03  0.57921193454E+03  0.00000000000E+00 0.  1.
        -11    1    3    3    0    0  0.49464385356E+02  0.14045958283E+03 -0.13519973011E+03  0.20113325645E+03  0.00000000000E+00 0. -1.
          4    1    6    6  502    0  0.32628795360E+02  0.33119115171E+02  0.13924531503E+03  0.14680181141E+03  0.00000000000E+00 0. -1.
          1    1    5    5  503    0 -0.96252112784E+02 -0.23967832836E+03  0.35145906024E+03  0.43615781699E+03  0.00000000000E+00 0. -1.
         -2    1    5    5    0  503 -0.22734831100E+03 -0.35598035732E+03  0.68608092413E+03  0.80567754329E+03  0.00000000000E+00 0.  1.
         -3    1    6    6    0  502  0.24999505323E+03  0.25425826425E+02  0.94594302616E+03  0.97875032977E+03  0.00000000000E+00 0.  1.
<mgrwt>
<rscale>  0 0.27308105E+04</rscale>
<asrwt>0</asrwt>
<pdfrwt beam="1">  1        2 0.36255893E+00 0.27308105E+04</pdfrwt>
<pdfrwt beam="2">  1       -2 0.12170763E+00 0.27308105E+04</pdfrwt>
<totfact> 0.18879511E+00</totfact>
</mgrwt>
</event>
<event>
12    1  0.2048318E-007  0.2411469E+04  0.7818608E-02  0.8435222E-01
         -2   -1    0    0    0  501 -0.00000000000E+00  0.00000000000E+00  0.52467905533E+03  0.52467905533E+03  0.00000000000E+00 0.  1.
          2   -1    0    0  501    0  0.00000000000E+00 -0.00000000000E+00 -0.27708281252E+04  0.27708281252E+04  0.00000000000E+00 0. -1.
         23    2    1    2    0    0  0.10489242568E+03 -0.34999225185E+03  0.35575478847E+03  0.51807348087E+03  0.91332714481E+02 0.  0.
        254    2    1    2    0    0 -0.10489242568E+03  0.34999225185E+03 -0.26019038583E+04  0.27774336996E+04  0.90040950166E+03 0.  0.
        -24    2    4    4    0    0 -0.12818112643E+03  0.21153477168E+03 -0.11335323871E+03  0.28364840165E+03  0.80187893282E+02 0.  0.
         24    2    4    4    0    0  0.23288700749E+02  0.13845748017E+03 -0.24885506196E+04  0.24937852980E+04  0.79800305505E+02 0.  0.
         11    1    3    3    0    0  0.58021721205E+02 -0.24171952092E+03  0.29366084832E+03  0.38474867220E+03  0.00000000000E+00 0.  1.
        -11    1    3    3    0    0  0.46870704477E+02 -0.10827273094E+03  0.62093940153E+02  0.13332480867E+03  0.00000000000E+00 0. -1.
          4    1    6    6  502    0 -0.17819856138E+01  0.13021907516E+03 -0.17873268389E+04  0.17920651250E+04  0.00000000000E+00 0. -1.
          1    1    5    5  503    0 -0.50981795145E+02  0.27858609499E+02 -0.91790863105E+01  0.58817524471E+02  0.00000000000E+00 0. -1.
         -2    1    5    5    0  503 -0.77199331287E+02  0.18367616218E+03 -0.10417415240E+03  0.22483087718E+03  0.00000000000E+00 0.  1.
         -3    1    6    6    0  502  0.25070686363E+02  0.82384050100E+01 -0.70122378064E+03  0.70172017298E+03  0.00000000000E+00 0.  1.
<mgrwt>
<rscale>  0 0.24114688E+04</rscale>
<asrwt>0</asrwt>
<pdfrwt beam="1">  1        2 0.42628126E+00 0.24114688E+04</pdfrwt>
<pdfrwt beam="2">  1       -2 0.80719853E-01 0.24114688E+04</pdfrwt>
<totfact> 0.29310570E+00</totfact>
</mgrwt>
</event>
<event>
12    1  0.2048318E-007  0.2269804E+04  0.7818608E-02  0.8489923E-01
         -2   -1    0    0    0  501 -0.00000000000E+00  0.00000000000E+00  0.75522854864E+03  0.75522854864E+03  0.00000000000E+00 0.  1.
          2   -1    0    0  501    0  0.00000000000E+00 -0.00000000000E+00 -0.17054472988E+04  0.17054472988E+04  0.00000000000E+00 0. -1.
         23    2    1    2    0    0  0.36733805976E+03 -0.55843668312E+03 -0.11390194918E+04  0.13236266656E+04  0.88506316156E+02 0.  0.
        254    2    1    2    0    0 -0.36733805976E+03  0.55843668312E+03  0.18880074163E+03  0.11370491818E+04  0.90024793401E+03 0.  0.
        -24    2    4    4    0    0 -0.36427837949E+03  0.77855323480E+03  0.24161086200E+03  0.89642064812E+03  0.79688722974E+02 0.  0.
         24    2    4    4    0    0 -0.30596802646E+01 -0.22011655167E+03 -0.52810120364E+02  0.24062853373E+03  0.81563009181E+02 0.  0.
         11    1    3    3    0    0  0.13733790824E+03 -0.22308909512E+03 -0.53177141847E+03  0.59279953349E+03  0.00000000000E+00 0. -1.
        -11    1    3    3    0    0  0.23000015152E+03 -0.33534758800E+03 -0.60724807332E+03  0.73082713210E+03  0.00000000000E+00 0.  1.
          2    1    6    6  502    0  0.17600178356E+01  0.70613844834E+01  0.26889102201E+00  0.72823839494E+01  0.00000000000E+00 0. -1.
          3    1    5    5  503    0 -0.64454472934E+02  0.14931612158E+03  0.78425201688E+02  0.18055524225E+03  0.00000000000E+00 0. -1.
         -4    1    5    5    0  503 -0.29982390656E+03  0.62923711321E+03  0.16318566031E+03  0.71586540587E+03  0.00000000000E+00 0.  1.
         -1    1    6    6    0  502 -0.48196981002E+01 -0.22717793616E+03 -0.53079011386E+02  0.23334614978E+03  0.00000000000E+00 0.  1.
<mgrwt>
<rscale>  0 0.22698039E+04</rscale>
<asrwt>0</asrwt>
<pdfrwt beam="1">  1        2 0.26237651E+00 0.22698039E+04</pdfrwt>
<pdfrwt beam="2">  1       -2 0.11618901E+00 0.22698039E+04</pdfrwt>
<totfact> 0.50897919E+00</totfact>
</mgrwt>
</event>
<event>
12    1  0.2048318E-007  0.1687820E+04  0.7818608E-02  0.8768342E-01
          1   -1    0    0  501    0  0.00000000000E+00  0.00000000000E+00  0.20340087780E+04  0.20340087780E+04  0.00000000000E+00 0. -1.
         -1   -1    0    0    0  501 -0.00000000000E+00 -0.00000000000E+00 -0.35013811636E+03  0.35013811636E+03  0.00000000000E+00 0.  1.
         23    2    1    2    0    0 -0.25302585150E+03  0.14262884999E+03  0.13142553159E+04  0.13491258413E+04  0.92241151818E+02 0.  0.
        254    2    1    2    0    0  0.25302585150E+03 -0.14262884999E+03  0.36961534574E+03  0.10350210530E+04  0.92211062566E+03 0.  0.
        -24    2    4    4    0    0 -0.16731962263E+03 -0.39032618479E+03  0.32082619018E+03  0.53795725792E+03  0.78218798231E+02 0.  0.
         24    2    4    4    0    0  0.42034547413E+03  0.24769733480E+03  0.48789155564E+02  0.49706379507E+03  0.81533719255E+02 0.  0.
         13    1    3    3    0    0 -0.32300152608E+02  0.58354502939E+02  0.35424858619E+03  0.36047275721E+03  0.00000000000E+00 0. -1.
        -13    1    3    3    0    0 -0.22072569889E+03  0.84274347051E+02  0.96000672966E+03  0.98865308410E+03  0.00000000000E+00 0.  1.
          4    1    6    6  502    0  0.38434057259E+03  0.19644060313E+03  0.35985559503E+02  0.43312994215E+03  0.00000000000E+00 0. -1.
          3    1    5    5  503    0 -0.13095868154E+03 -0.21436593712E+03  0.20441176094E+03  0.32386277847E+03  0.00000000000E+00 0. -1.
         -4    1    5    5    0  503 -0.36360941095E+02 -0.17596024767E+03  0.11641442924E+03  0.21409447945E+03  0.00000000000E+00 0.  1.
         -1    1    6    6    0  502  0.36004901546E+02  0.51256731668E+02  0.12803596061E+02  0.63933852916E+02  0.00000000000E+00 0.  1.
<mgrwt>
<rscale>  0 0.16878199E+04</rscale>
<asrwt>0</asrwt>
<pdfrwt beam="1">  1        1 0.31292442E+00 0.16878199E+04</pdfrwt>
<pdfrwt beam="2">  1       -1 0.53867404E-01 0.16878199E+04</pdfrwt>
<totfact> 0.93667055E+00</totfact>
</mgrwt>
</event>
<event>
12    1  0.2048318E-007  0.1857296E+04  0.7818608E-02  0.8676410E-01
          3   -1    0    0  501    0  0.00000000000E+00  0.00000000000E+00  0.51075064387E+03  0.51075064387E+03  0.00000000000E+00 0. -1.
         -3   -1    0    0    0  501 -0.00000000000E+00 -0.00000000000E+00 -0.16884693593E+04  0.16884693593E+04  0.00000000000E+00 0.  1.
         23    2    1    2    0    0  0.28707856713E+03 -0.57054215658E+03 -0.80723723943E+03  0.10330674779E+04  0.87544257446E+02 0.  0.
        254    2    1    2    0    0 -0.28707856713E+03  0.57054215658E+03 -0.37048147601E+03  0.11661525253E+04  0.90261992669E+03 0.  0.
        -24    2    4    4    0    0 -0.88119901176E+02  0.42950924937E+03 -0.64888929114E+03  0.78757115534E+03  0.83472751708E+02 0.  0.
         24    2    4    4    0    0 -0.19895866596E+03  0.14103290721E+03  0.27840781513E+03  0.37858136996E+03  0.79612250849E+02 0.  0.
         11    1    3    3    0    0  0.78541326332E+02 -0.18514329493E+03 -0.31818449929E+03  0.37641487110E+03  0.00000000000E+00 0.  1.
        -11    1    3    3    0    0  0.20853724080E+03 -0.38539886166E+03 -0.48905274014E+03  0.65665260679E+03  0.00000000000E+00 0. -1.
          4    1    6    6  502    0 -0.79454890825E+02  0.11467472695E+02  0.87130902009E+02  0.11847521551E+03  0.00000000000E+00 0. -1.
          1    1    5    5  503    0 -0.43248051255E+02  0.79938056452E+02 -0.98639318783E+02  0.13412755875E+03  0.00000000000E+00 0. -1.
         -2    1    5    5    0  503 -0.44871849921E+02  0.34957119292E+03 -0.55024997236E+03  0.65344359658E+03  0.00000000000E+00 0.  1.
         -3    1    6    6    0  502 -0.11950377513E+03  0.12956543451E+03  0.19127691312E+03  0.26010615445E+03  0.00000000000E+00 0.  1.
<mgrwt>
<rscale>  0 0.18572957E+04</rscale>
<asrwt>0</asrwt>
<pdfrwt beam="1">  1        3 0.78577022E-01 0.18572957E+04</pdfrwt>
<pdfrwt beam="2">  1       -3 0.25976452E+00 0.18572957E+04</pdfrwt>
<totfact> 0.23916508E-01</totfact>
</mgrwt>
</event>
<event>
12    1  0.2048318E-007  0.1183832E+04  0.7818608E-02  0.9127128E-01
          1   -1    0    0  501    0  0.00000000000E+00  0.00000000000E+00  0.11022908333E+04  0.11022908333E+04  0.00000000000E+00 0. -1.
         -1   -1    0    0    0  501 -0.00000000000E+00 -0.00000000000E+00 -0.31785109060E+03  0.31785109060E+03  0.00000000000E+00 0.  1.
         23    2    1    2    0    0 -0.18700005726E+03 -0.30373539460E+02  0.34504266739E+03  0.40408609395E+03  0.91321167777E+02 0.  0.
        254    2    1    2    0    0  0.18700005726E+03  0.30373539460E+02  0.43939707533E+03  0.10160558300E+04  0.89633034451E+03 0.  0.
        -24    2    4    4    0    0 -0.29997267189E+03  0.14898577390E+03  0.36656655573E+03  0.50312620346E+03  0.81145376470E+02 0.  0.
         24    2    4    4    0    0  0.48697272915E+03 -0.11861223444E+03  0.72830519595E+02  0.51292962651E+03  0.81124694586E+02 0.  0.
         13    1    3    3    0    0 -0.16133732921E+03  0.29475555581E+00  0.31553145656E+03  0.35438668253E+03  0.00000000000E+00 0. -1.
        -13    1    3    3    0    0 -0.25662728044E+02 -0.30668295016E+02  0.29511210836E+02  0.49699411413E+02  0.00000000000E+00 0.  1.
          2    1    6    6  502    0  0.72502443486E+02 -0.44293511967E+02  0.28060127081E+02  0.89475640515E+02  0.00000000000E+00 0. -1.
          1    1    5    5  503    0 -0.14885272205E+03  0.11400298053E+03  0.22743376539E+03  0.29475401621E+03  0.00000000000E+00 0. -1.
         -2    1    5    5    0  503 -0.15111994984E+03  0.34982793367E+02  0.13913279034E+03  0.20837218725E+03  0.00000000000E+00 0.  1.
         -1    1    6    6    0  502  0.41447028566E+03 -0.74318722473E+02  0.44770392514E+02  0.42345398599E+03  0.00000000000E+00 0.  1.
<mgrwt>
<rscale>  0 0.11838316E+04</rscale>
<asrwt>0</asrwt>
<pdfrwt beam="1">  1        1 0.16958320E+00 0.11838316E+04</pdfrwt>
<pdfrwt beam="2">  1       -1 0.48900168E-01 0.11838316E+04</pdfrwt>
<totfact> 0.52378835E+01</totfact>
</mgrwt>
</event>
<event>
12    1  0.2048318E-007  0.2220462E+04  0.7818608E-02  0.8509959E-01
         -1   -1    0    0    0  501 -0.00000000000E+00  0.00000000000E+00  0.48738105337E+03  0.48738105337E+03  0.00000000000E+00 0.  1.
          1   -1    0    0  501    0  0.00000000000E+00 -0.00000000000E+00 -0.25290531778E+04  0.25290531778E+04  0.00000000000E+00 0. -1.
         23    2    1    2    0    0 -0.30978145368E+02 -0.87521233457E+03 -0.12633831871E+04  0.15403646484E+04  0.98132036041E+02 0.  0.
        254    2    1    2    0    0  0.30978145368E+02  0.87521233457E+03 -0.77828893726E+03  0.14760695827E+04  0.89782596704E+03 0.  0.
        -24    2    4    4    0    0 -0.18524216790E+03 -0.32511982854E+02  0.65847089218E+02  0.21525926337E+03  0.81418803182E+02 0.  0.
         24    2    4    4    0    0  0.21622031326E+03  0.90772431743E+03 -0.84413602648E+03  0.12608103194E+04  0.79764464964E+02 0.  0.
         13    1    3    3    0    0 -0.50805790135E+02 -0.29159444379E+03 -0.38606341414E+03  0.48647045923E+03  0.00000000000E+00 0.  1.
        -13    1    3    3    0    0  0.19827644767E+02 -0.58361789078E+03 -0.87731977299E+03  0.10538941892E+04  0.00000000000E+00 0. -1.
          4    1    6    6  502    0  0.12688653201E+02  0.95568184280E+02 -0.59152526955E+02  0.11310747637E+03  0.00000000000E+00 0. -1.
          1    1    5    5  503    0 -0.38036950023E+02 -0.35710727062E+02  0.40058347869E+02  0.65777935726E+02  0.00000000000E+00 0. -1.
         -2    1    5    5    0  503 -0.14720521787E+03  0.31987442077E+01  0.25788741349E+02  0.14948132764E+03  0.00000000000E+00 0.  1.
         -3    1    6    6    0  502  0.20353166006E+03  0.81215613315E+03 -0.78498349953E+03  0.11477028430E+04  0.00000000000E+00 0.  1.
<mgrwt>
<rscale>  0 0.22204618E+04</rscale>
<asrwt>0</asrwt>
<pdfrwt beam="1">  1        1 0.38908511E+00 0.22204618E+04</pdfrwt>
<pdfrwt beam="2">  1       -1 0.74981700E-01 0.22204618E+04</pdfrwt>
<totfact> 0.21053461E+00</totfact>
</mgrwt>
</event>
<event>
12    1  0.2048318E-007  0.1799979E+04  0.7818608E-02  0.8706311E-01
         -1   -1    0    0    0  501 -0.00000000000E+00  0.00000000000E+00  0.10275266733E+04  0.10275266733E+04  0.00000000000E+00 0.  1.
          1   -1    0    0  501    0  0.00000000000E+00 -0.00000000000E+00 -0.78828209314E+03  0.78828209314E+03  0.00000000000E+00 0. -1.
         23    2    1    2    0    0  0.74175483259E+02 -0.66549065411E+03  0.46417070273E+02  0.67722131569E+03  0.89968622239E+02 0.  0.
        254    2    1    2    0    0 -0.74175483259E+02  0.66549065411E+03  0.19282750985E+03  0.11385874507E+04  0.90045495243E+03 0.  0.
        -24    2    4    4    0    0 -0.16947062412E+02  0.23245799975E+03 -0.35605047191E+03  0.43278204030E+03  0.78768212390E+02 0.  0.
         24    2    4    4    0    0 -0.57228420847E+02  0.43303265435E+03  0.54887798176E+03  0.70580541042E+03  0.78114445708E+02 0.  0.
         11    1    3    3    0    0  0.47324312714E+02 -0.28433891896E+03 -0.21838844219E+02  0.28907636798E+03  0.00000000000E+00 0. -1.
        -11    1    3    3    0    0  0.26851170545E+02 -0.38115173515E+03  0.68255914492E+02  0.38814494771E+03  0.00000000000E+00 0.  1.
          4    1    6    6  502    0 -0.34716395405E+02  0.41014748972E+03  0.50782265613E+03  0.65368956051E+03  0.00000000000E+00 0. -1.
          1    1    5    5  503    0 -0.28445231025E+02  0.11591344550E+03 -0.23932413028E+03  0.26743428604E+03  0.00000000000E+00 0. -1.
         -2    1    5    5    0  503  0.11498168612E+02  0.11654455426E+03 -0.11672634163E+03  0.16534775426E+03  0.00000000000E+00 0.  1.
         -3    1    6    6    0  502 -0.22512025442E+02  0.22885164631E+02  0.41055325625E+02  0.52115849910E+02  0.00000000000E+00 0.  1.
<mgrwt>
<rscale>  0 0.17999788E+04</rscale>
<asrwt>0</asrwt>
<pdfrwt beam="1">  1        1 0.12127417E+00 0.17999788E+04</pdfrwt>
<pdfrwt beam="2">  1       -1 0.15808103E+00 0.17999788E+04</pdfrwt>
<totfact> 0.64565628E+00</totfact>
</mgrwt>
</event>
<event>
12    1  0.2048318E-007  0.2630020E+04  0.7818608E-02  0.8358075E-01
         -2   -1    0    0    0  501 -0.00000000000E+00  0.00000000000E+00  0.13189739209E+04  0.13189739209E+04  0.00000000000E+00 0.  1.
          2   -1    0    0  501    0  0.00000000000E+00 -0.00000000000E+00 -0.13110584034E+04  0.13110584034E+04  0.00000000000E+00 0. -1.
         23    2    1    2    0    0  0.10155635997E+04 -0.11009697981E+03  0.55134511906E+03  0.11649419793E+04  0.98069387671E+02 0.  0.
        254    2    1    2    0    0 -0.10155635997E+04  0.11009697981E+03 -0.54342960161E+03  0.14650903451E+04  0.89871197687E+03 0.  0.
        -24    2    4    4    0    0 -0.38281678967E+03  0.55562220558E+02  0.23246303054E+03  0.45924303138E+03  0.85024975737E+02 0.  0.
         24    2    4    4    0    0 -0.63274681001E+03  0.54534759252E+02 -0.77589263214E+03  0.10058473137E+04  0.79855346128E+02 0.  0.
         11    1    3    3    0    0  0.46990560715E+03 -0.99149961876E+02  0.24686510067E+03  0.53998552990E+03  0.00000000000E+00 0.  1.
        -11    1    3    3    0    0  0.54565799253E+03 -0.10947017935E+02  0.30448001839E+03  0.62495644937E+03  0.00000000000E+00 0. -1.
          4    1    6    6  502    0 -0.59521023786E+03  0.68941318815E+02 -0.73780018252E+03  0.95046159418E+03  0.00000000000E+00 0. -1.
          1    1    5    5  503    0 -0.34837424326E+03  0.27142035453E+02  0.19058997212E+03  0.39802743740E+03  0.00000000000E+00 0. -1.
         -2    1    5    5    0  503 -0.34442546415E+02  0.28420185105E+02  0.41873058419E+02  0.61215593980E+02  0.00000000000E+00 0.  1.
         -3    1    6    6    0  502 -0.37536572152E+02 -0.14406559563E+02 -0.38092449626E+02  0.55385719512E+02  0.00000000000E+00 0.  1.
<mgrwt>
<rscale>  0 0.26300204E+04</rscale>
<asrwt>0</asrwt>
<pdfrwt beam="1">  1        2 0.20170129E+00 0.26300204E+04</pdfrwt>
<pdfrwt beam="2">  1       -2 0.20291906E+00 0.26300204E+04</pdfrwt>
<totfact> 0.18291952E+00</totfact>
</mgrwt>
</event>
<event>
12    1  0.2048318E-007  0.1776138E+04  0.7818608E-02  0.8719093E-01
          1   -1    0    0  501    0  0.00000000000E+00  0.00000000000E+00  0.40221972516E+03  0.40221972516E+03  0.00000000000E+00 0.  1.
         -1   -1    0    0    0  501 -0.00000000000E+00 -0.00000000000E+00 -0.19607859598E+04  0.19607859598E+04  0.00000000000E+00 0. -1.
         23    2    1    2    0    0  0.47573022605E+03  0.37552286224E+03 -0.24412214762E+03  0.65985930445E+03  0.92097832012E+02 0.  0.
        254    2    1    2    0    0 -0.47573022605E+03 -0.37552286224E+03 -0.13144440871E+04  0.17031463806E+04  0.89755649826E+03 0.  0.
        -24    2    4    4    0    0 -0.29773256475E+02  0.26703450584E+03 -0.48578638223E+03  0.56103085476E+03  0.81076116837E+02 0.  0.
         24    2    4    4    0    0 -0.44595696958E+03 -0.64255736807E+03 -0.82865770483E+03  0.11421155258E+04  0.77438314343E+02 0.  0.
         11    1    3    3    0    0  0.30954480989E+02  0.53658051772E+02 -0.89411977637E+01  0.62588428888E+02  0.00000000000E+00 0.  1.
        -11    1    3    3    0    0  0.44477574507E+03  0.32186481046E+03 -0.23518094986E+03  0.59727087556E+03  0.00000000000E+00 0. -1.
          2    1    6    6  502    0 -0.28714191504E+03 -0.45374422825E+03 -0.60729853875E+03  0.81064531037E+03  0.00000000000E+00 0. -1.
          1    1    5    5  503    0  0.11194435854E+02  0.15367593506E+03 -0.21384657287E+03  0.26357535002E+03  0.00000000000E+00 0. -1.
         -4    1    5    5    0  503 -0.40967692328E+02  0.11335857078E+03 -0.27193980935E+03  0.29745550473E+03  0.00000000000E+00 0.  1.
         -1    1    6    6    0  502 -0.15881505454E+03 -0.18881313982E+03 -0.22135916608E+03  0.33147021544E+03  0.00000000000E+00 0.  1.
<mgrwt>
<rscale>  0 0.17761383E+04</rscale>
<asrwt>0</asrwt>
<pdfrwt beam="1">  1        1 0.61879958E-01 0.17761383E+04</pdfrwt>
<pdfrwt beam="2">  1       -1 0.30165938E+00 0.17761383E+04</pdfrwt>
<totfact> 0.18164765E+00</totfact>
</mgrwt>
</event>
<event>
12    1  0.2948840E-007  0.3763813E+04  0.7818608E-02  0.8053965E-01
         -2   -1    0    0    0  501 -0.00000000000E+00  0.00000000000E+00  0.17950884223E+04  0.17950884223E+04  0.00000000000E+00 0.  1.
          2   -1    0    0  501    0  0.00000000000E+00 -0.00000000000E+00 -0.19729235596E+04  0.19729235596E+04  0.00000000000E+00 0. -1.
         23    2    1    2    0    0 -0.15781252305E+04 -0.23064318593E+03  0.69050417837E+03  0.17403420239E+04  0.91207550851E+02 0.  0.
        254    2    1    2    0    0  0.15781252305E+04  0.23064318593E+03 -0.86833931565E+03  0.20276699580E+04  0.90208467954E+03 0.  0.
        -24    2    4    4    0    0  0.16797803713E+04  0.20080596740E+03 -0.84596468823E+03  0.18932998156E+04  0.83323500401E+02 0.  0.
         24    2    4    4    0    0 -0.10165514078E+03  0.29837218527E+02 -0.22374627415E+02  0.13437014239E+03  0.79565595312E+02 0.  0.
         11    1    3    3    0    0 -0.51127821129E+03 -0.11406767668E+03  0.24597179354E+03  0.57872183942E+03  0.00000000000E+00 0. -1.
        -11    1    3    3    0    0 -0.10668470192E+04 -0.11657550925E+03  0.44453238483E+03  0.11616201844E+04  0.00000000000E+00 0.  1.
          2    1    6    6  502    0 -0.70141525994E+02  0.51322676112E+02  0.55645773410E+01  0.87090844944E+02  0.00000000000E+00 0. -1.
          1    1    5    5  503    0  0.10251559833E+04  0.82694444370E+02 -0.52427827758E+03  0.11544049868E+04  0.00000000000E+00 0. -1.
         -2    1    5    5    0  503  0.65462438793E+03  0.11811152303E+03 -0.32168641065E+03  0.73889482875E+03  0.00000000000E+00 0.  1.
         -1    1    6    6    0  502 -0.31513614786E+02 -0.21485457585E+02 -0.27939204756E+02  0.47279297445E+02  0.00000000000E+00 0.  1.
<mgrwt>
<rscale>  0 0.37638131E+04</rscale>
<asrwt>0</asrwt>
<pdfrwt beam="1">  1        2 0.30352670E+00 0.37638131E+04</pdfrwt>
<pdfrwt beam="2">  1       -2 0.27616745E+00 0.37638131E+04</pdfrwt>
<totfact> 0.24722614E-01</totfact>
</mgrwt>
</event>
<event>
12    1  0.2048318E-007  0.1933249E+04  0.7818608E-02  0.8638481E-01
          1   -1    0    0  501    0  0.00000000000E+00  0.00000000000E+00  0.11970548397E+04  0.11970548397E+04  0.00000000000E+00 0. -1.
         -1   -1    0    0    0  501 -0.00000000000E+00 -0.00000000000E+00 -0.78055156373E+03  0.78055156373E+03  0.00000000000E+00 0.  1.
         23    2    1    2    0    0  0.17633437580E+03 -0.71561745703E+03  0.28175195982E+03  0.79404044648E+03  0.88960142194E+02 0.  0.
        254    2    1    2    0    0 -0.17633437580E+03  0.71561745703E+03  0.13475131614E+03  0.11835659569E+04  0.91622502712E+03 0.  0.
        -24    2    4    4    0    0 -0.74165646867E+02  0.80270321584E+03  0.37895356543E+03  0.89419875540E+03  0.78438597054E+02 0.  0.
         24    2    4    4    0    0 -0.10216872894E+03 -0.87085758812E+02 -0.24420224929E+03  0.28936720154E+03  0.77950370163E+02 0.  0.
         11    1    3    3    0    0  0.12585511949E+03 -0.48232387379E+03  0.23379617957E+03  0.55057831769E+03  0.00000000000E+00 0. -1.
        -11    1    3    3    0    0  0.50479256312E+02 -0.23329358323E+03  0.47955780249E+02  0.24346212879E+03  0.00000000000E+00 0.  1.
          4    1    6    6  502    0  0.10224034721E+02  0.26687852686E+01 -0.25543690414E+02  0.27642963314E+02  0.00000000000E+00 0. -1.
          3    1    5    5  503    0 -0.25429117270E+02  0.14629679778E+03  0.10168538873E+03  0.17997030679E+03  0.00000000000E+00 0. -1.
         -4    1    5    5    0  503 -0.48736529597E+02  0.65640641806E+03  0.27726817670E+03  0.71422844861E+03  0.00000000000E+00 0.  1.
         -3    1    6    6    0  502 -0.11239276366E+03 -0.89754544081E+02 -0.21865855887E+03  0.26172423822E+03  0.00000000000E+00 0.  1.
<mgrwt>
<rscale>  0 0.19332491E+04</rscale>
<asrwt>0</asrwt>
<pdfrwt beam="1">  1        1 0.18416228E+00 0.19332491E+04</pdfrwt>
<pdfrwt beam="2">  1       -1 0.12008486E+00 0.19332491E+04</pdfrwt>
<totfact> 0.61924798E+00</totfact>
</mgrwt>
</event>
<event>
12    1  0.2048318E-007  0.1906529E+04  0.7818608E-02  0.8651613E-01
         -2   -1    0    0    0  501 -0.00000000000E+00  0.00000000000E+00  0.72948907845E+03  0.72948907845E+03  0.00000000000E+00 0. -1.
          2   -1    0    0  501    0  0.00000000000E+00 -0.00000000000E+00 -0.12456842923E+04  0.12456842923E+04  0.00000000000E+00 0.  1.
         23    2    1    2    0    0 -0.69238009010E+03  0.15380627412E+03  0.65164363726E+01  0.71547368993E+03  0.93880657758E+02 0.  0.
        254    2    1    2    0    0  0.69238009010E+03 -0.15380627412E+03 -0.52271165020E+03  0.12596996808E+04  0.90031619857E+03 0.  0.
        -24    2    4    4    0    0  0.22817084100E+02 -0.33829220425E+03  0.55323819594E+02  0.35280630494E+03  0.80307714512E+02 0.  0.
         24    2    4    4    0    0  0.66956300601E+03  0.18448593013E+03 -0.57803546980E+03  0.90689337585E+03  0.77336365315E+02 0.  0.
         11    1    3    3    0    0 -0.24645448821E+03  0.24098918008E+02 -0.30957349937E+02  0.24955746857E+03  0.00000000000E+00 0.  1.
        -11    1    3    3    0    0 -0.44592560190E+03  0.12970735611E+03  0.37473786310E+02  0.46591622135E+03  0.00000000000E+00 0. -1.
          4    1    6    6  502    0  0.34620116823E+02 -0.64286531103E+01 -0.21528684033E+02  0.41271834292E+02  0.00000000000E+00 0. -1.
          1    1    5    5  503    0 -0.29187031613E+02 -0.93935008497E+02  0.96657367253E+01  0.98838732804E+02  0.00000000000E+00 0. -1.
         -2    1    5    5    0  503  0.52004115713E+02 -0.24435719575E+03  0.45658082869E+02  0.25396757214E+03  0.00000000000E+00 0.  1.
         -3    1    6    6    0  502  0.63494288918E+03  0.19091458324E+03 -0.55650678576E+03  0.86562154156E+03  0.00000000000E+00 0.  1.
<mgrwt>
<rscale>  0 0.19065289E+04</rscale>
<asrwt>0</asrwt>
<pdfrwt beam="1">  1        2 0.19164374E+00 0.19065289E+04</pdfrwt>
<pdfrwt beam="2">  1       -2 0.11222909E+00 0.19065289E+04</pdfrwt>
<totfact> 0.10423893E+01</totfact>
</mgrwt>
</event>
<event>
12    1  0.2048318E-007  0.2638174E+04  0.7818608E-02  0.8355349E-01
         -1   -1    0    0    0  501 -0.00000000000E+00  0.00000000000E+00  0.61969660561E+03  0.61969660561E+03  0.00000000000E+00 0.  1.
          1   -1    0    0  501    0  0.00000000000E+00 -0.00000000000E+00 -0.28078101252E+04  0.28078101252E+04  0.00000000000E+00 0. -1.
         23    2    1    2    0    0 -0.11246145328E+03  0.81926278758E+03 -0.20317576439E+04  0.21956387566E+04  0.94611481789E+02 0.  0.
        254    2    1    2    0    0  0.11246145328E+03 -0.81926278758E+03 -0.15635587572E+03  0.12318679742E+04  0.89956236716E+03 0.  0.
        -24    2    4    4    0    0  0.21484217731E+03 -0.93443428485E+03  0.48186459260E+02  0.96334371687E+03  0.79903617694E+02 0.  0.
         24    2    4    4    0    0 -0.10238072403E+03  0.11517149727E+03 -0.20454233498E+03  0.26852425734E+03  0.80755331373E+02 0.  0.
         13    1    3    3    0    0 -0.12612937670E+03  0.78509250995E+03 -0.19274008538E+04  0.20849827146E+04  0.00000000000E+00 0. -1.
        -13    1    3    3    0    0  0.13667923417E+02  0.34170277633E+02 -0.10435679005E+03  0.11065604201E+03  0.00000000000E+00 0.  1.
          4    1    6    6  502    0 -0.94385255937E+02  0.12010951683E+03 -0.20837956590E+03  0.25837359783E+03  0.00000000000E+00 0. -1.
          1    1    5    5  503    0  0.16589912875E+03 -0.63858325479E+03  0.65165008090E+02  0.66299138192E+03  0.00000000000E+00 0. -1.
         -2    1    5    5    0  503  0.48943048553E+02 -0.29585103006E+03 -0.16978548829E+02  0.30035233495E+03  0.00000000000E+00 0.  1.
         -3    1    6    6    0  502 -0.79954680920E+01 -0.49380195625E+01  0.38372309248E+01  0.10150659505E+02  0.00000000000E+00 0.  1.
<mgrwt>
<rscale>  0 0.26381739E+04</rscale>
<asrwt>0</asrwt>
<pdfrwt beam="1">  1        1 0.43197078E+00 0.26381739E+04</pdfrwt>
<pdfrwt beam="2">  1       -1 0.95337941E-01 0.26381739E+04</pdfrwt>
<totfact> 0.76687213E-01</totfact>
</mgrwt>
</event>
<event>
12    1  0.2048318E-007  0.1693888E+04  0.7818608E-02  0.8764858E-01
         -2   -1    0    0    0  501 -0.00000000000E+00  0.00000000000E+00  0.17428346806E+03  0.17428346806E+03  0.00000000000E+00 0.  1.
          2   -1    0    0  501    0  0.00000000000E+00 -0.00000000000E+00 -0.41157885992E+04  0.41157885992E+04  0.00000000000E+00 0. -1.
         23    2    1    2    0    0 -0.39850491090E+03  0.44918720171E+03 -0.12921892808E+04  0.14278627266E+04  0.91997404779E+02 0.  0.
        254    2    1    2    0    0  0.39850491090E+03 -0.44918720171E+03 -0.26493158503E+04  0.28622093406E+04  0.90155006991E+03 0.  0.
        -24    2    4    4    0    0  0.54266030097E+03 -0.19149950553E+02 -0.90735105021E+03  0.10604600525E+04  0.80266254997E+02 0.  0.
         24    2    4    4    0    0 -0.14415539007E+03 -0.43003725116E+03 -0.17419648001E+04  0.18017492882E+04  0.78398460848E+02 0.  0.
         11    1    3    3    0    0 -0.25164402580E+03  0.25089967351E+03 -0.85387158144E+03  0.92486325448E+03  0.00000000000E+00 0. -1.
        -11    1    3    3    0    0 -0.14686088511E+03  0.19828752820E+03 -0.43831769933E+03  0.50299947213E+03  0.00000000000E+00 0.  1.
          2    1    6    6  502    0 -0.13413518173E+03 -0.35644236610E+03 -0.15449518012E+04  0.15912006395E+04  0.00000000000E+00 0. -1.
          3    1    5    5  503    0  0.36199199916E+03  0.14729408856E+02 -0.54995065466E+03  0.65855970534E+03  0.00000000000E+00 0. -1.
         -4    1    5    5    0  503  0.18066830181E+03 -0.33879359409E+02 -0.35740039555E+03  0.40190034712E+03  0.00000000000E+00 0.  1.
         -1    1    6    6    0  502 -0.10020208340E+02 -0.73594885056E+02 -0.19701299895E+03  0.21054864862E+03  0.00000000000E+00 0.  1.
<mgrwt>
<rscale>  0 0.16938877E+04</rscale>
<asrwt>0</asrwt>
<pdfrwt beam="1">  1        2 0.63319826E+00 0.16938877E+04</pdfrwt>
<pdfrwt beam="2">  1       -2 0.26812841E-01 0.16938877E+04</pdfrwt>
<totfact> 0.33637585E+00</totfact>
</mgrwt>
</event>
<event>
12    1  0.2048318E-007  0.2327163E+04  0.7818608E-02  0.8467288E-01
          2   -1    0    0  501    0  0.00000000000E+00  0.00000000000E+00  0.12811300945E+04  0.12811300945E+04  0.00000000000E+00 0.  1.
         -2   -1    0    0    0  501 -0.00000000000E+00 -0.00000000000E+00 -0.10568184392E+04  0.10568184392E+04  0.00000000000E+00 0. -1.
         23    2    1    2    0    0 -0.58772724758E+03 -0.78919706874E+03  0.19983999124E+02  0.98849233301E+03  0.91991311265E+02 0.  0.
        254    2    1    2    0    0  0.58772724758E+03  0.78919706874E+03  0.20432765616E+03  0.13494562007E+04  0.90057032794E+03 0.  0.
        -24    2    4    4    0    0 -0.22773664406E+03  0.27737430605E+03  0.72381723392E+02  0.37453634473E+03  0.78980218668E+02 0.  0.
         24    2    4    4    0    0  0.81546389164E+03  0.51182276268E+03  0.13194593277E+03  0.97491985592E+03  0.78199087727E+02 0.  0.
         13    1    3    3    0    0 -0.29480721099E+03 -0.39204467628E+03  0.55910295156E+02  0.49369654745E+03  0.00000000000E+00 0.  1.
        -13    1    3    3    0    0 -0.29292003658E+03 -0.39715239245E+03 -0.35926296031E+02  0.49479578556E+03  0.00000000000E+00 0. -1.
          4    1    6    6  502    0  0.64704586167E+03  0.38749141781E+03  0.13151062745E+03  0.76558016635E+03  0.00000000000E+00 0. -1.
          1    1    5    5  503    0 -0.23426604302E+03  0.26785868624E+03  0.68678146057E+02  0.36241625578E+03  0.00000000000E+00 0. -1.
         -4    1    5    5    0  503  0.65293989620E+01  0.95156198136E+01  0.37035773350E+01  0.12120088957E+02  0.00000000000E+00 0.  1.
         -3    1    6    6    0  502  0.16841802997E+03  0.12433134487E+03  0.43530532189E+00  0.20933968956E+03  0.00000000000E+00 0.  1.
<mgrwt>
<rscale>  0 0.23271630E+04</rscale>
<asrwt>0</asrwt>
<pdfrwt beam="1">  1        2 0.19709694E+00 0.23271630E+04</pdfrwt>
<pdfrwt beam="2">  1       -2 0.16258745E+00 0.23271630E+04</pdfrwt>
<totfact> 0.36984548E+00</totfact>
</mgrwt>
</event>
<event>
12    1  0.2048318E-007  0.1478088E+04  0.7818608E-02  0.8899156E-01
         -1   -1    0    0    0  501 -0.00000000000E+00  0.00000000000E+00  0.27979690402E+03  0.27979690402E+03  0.00000000000E+00 0.  1.
          1   -1    0    0  501    0  0.00000000000E+00 -0.00000000000E+00 -0.19520803346E+04  0.19520803346E+04  0.00000000000E+00 0. -1.
         23    2    1    2    0    0  0.13498658406E+03  0.43860644413E+03 -0.57194137889E+03  0.73916498690E+03  0.93010463184E+02 0.  0.
        254    2    1    2    0    0 -0.13498658406E+03 -0.43860644413E+03 -0.11003420517E+04  0.14927122517E+04  0.89824286525E+03 0.  0.
        -24    2    4    4    0    0  0.12211380388E+03  0.56802292608E+00  0.10662008592E+03  0.18045100377E+03  0.79262969228E+02 0.  0.
         24    2    4    4    0    0 -0.25710038795E+03 -0.43917446706E+03 -0.12069621376E+04  0.13122612479E+04  0.79354642219E+02 0.  0.
         11    1    3    3    0    0  0.48356004771E+02  0.22794279881E+03 -0.22348620819E+03  0.32286577393E+03  0.00000000000E+00 0.  1.
        -11    1    3    3    0    0  0.86630579291E+02  0.21066364532E+03 -0.34845517071E+03  0.41629921297E+03  0.00000000000E+00 0. -1.
          4    1    6    6  502    0 -0.17922405614E+03 -0.35581318993E+03 -0.98950113691E+03  0.10666943275E+04  0.00000000000E+00 0. -1.
          3    1    5    5  503    0  0.12403362160E+03  0.75144765240E+01  0.11506153016E+03  0.16935159394E+03  0.00000000000E+00 0. -1.
         -4    1    5    5    0  503 -0.19198177215E+01 -0.69464535979E+01 -0.84414442441E+01  0.11099409831E+02  0.00000000000E+00 0.  1.
         -3    1    6    6    0  502 -0.77876331805E+02 -0.83361277126E+02 -0.21746100068E+03  0.24556692040E+03  0.00000000000E+00 0.  1.
<mgrwt>
<rscale>  0 0.14780880E+04</rscale>
<asrwt>0</asrwt>
<pdfrwt beam="1">  1        1 0.30032004E+00 0.14780880E+04</pdfrwt>
<pdfrwt beam="2">  1       -1 0.43045679E-01 0.14780880E+04</pdfrwt>
<totfact> 0.16566443E+01</totfact>
</mgrwt>
</event>
<event>
12    1  0.2048318E-007  0.5063237E+04  0.7818608E-02  0.7818826E-01
         -2   -1    0    0    0  501 -0.00000000000E+00  0.00000000000E+00  0.23745596223E+04  0.23745596223E+04  0.00000000000E+00 0.  1.
          2   -1    0    0  501    0  0.00000000000E+00 -0.00000000000E+00 -0.26990653108E+04  0.26990653108E+04  0.00000000000E+00 0. -1.
         23    2    1    2    0    0 -0.15797257446E+03 -0.24036112563E+04  0.29492120048E+03  0.24285289365E+04  0.92042787695E+02 0.  0.
        254    2    1    2    0    0  0.15797257446E+03  0.24036112563E+04 -0.61942688895E+03  0.26450959966E+04  0.90030036908E+03 0.  0.
        -24    2    4    4    0    0 -0.17149842525E+02  0.17022445863E+04 -0.23446910209E+02  0.17044034974E+04  0.80689377997E+02 0.  0.
         24    2    4    4    0    0  0.17512241698E+03  0.70136667002E+03 -0.59597997875E+03  0.94069249916E+03  0.84422604580E+02 0.  0.
         11    1    3    3    0    0  0.12428255445E+01 -0.19943426645E+03  0.45642199807E+02  0.20459418773E+03  0.00000000000E+00 0. -1.
        -11    1    3    3    0    0 -0.15921540000E+03 -0.22041769899E+04  0.24927900067E+03  0.22239347487E+04  0.00000000000E+00 0.  1.
          2    1    6    6  502    0  0.38825652157E+02  0.12450162408E+03 -0.15089738300E+03  0.19944449318E+03  0.00000000000E+00 0. -1.
          3    1    5    5  503    0  0.23914618181E+02  0.69902888202E+03  0.15220336776E+02  0.69960342017E+03  0.00000000000E+00 0. -1.
         -4    1    5    5    0  503 -0.41064460706E+02  0.10032157043E+04 -0.38667246985E+02  0.10048000773E+04  0.00000000000E+00 0.  1.
         -1    1    6    6    0  502  0.13629676483E+03  0.57686504594E+03 -0.44508259574E+03  0.74124800598E+03  0.00000000000E+00 0.  1.
<mgrwt>
<rscale>  0 0.50632367E+04</rscale>
<asrwt>0</asrwt>
<pdfrwt beam="1">  1        2 0.41524082E+00 0.50632367E+04</pdfrwt>
<pdfrwt beam="2">  1       -2 0.36531687E+00 0.50632367E+04</pdfrwt>
<totfact> 0.23960700E-02</totfact>
</mgrwt>
</event>
<event>
12    1  0.2048318E-007  0.3311431E+04  0.7818608E-02  0.8159993E-01
          2   -1    0    0  501    0  0.00000000000E+00  0.00000000000E+00  0.22783310635E+04  0.22783310635E+04  0.00000000000E+00 0.  1.
         -2   -1    0    0    0  501 -0.00000000000E+00 -0.00000000000E+00 -0.12032465444E+04  0.12032465444E+04  0.00000000000E+00 0. -1.
         23    2    1    2    0    0 -0.98982685865E+03 -0.85275161668E+03 -0.34304588417E+03  0.13541410797E+04  0.95263083642E+02 0.  0.
        254    2    1    2    0    0  0.98982685865E+03  0.85275161668E+03  0.14181304033E+04  0.21274365283E+04  0.89886028472E+03 0.  0.
        -24    2    4    4    0    0 -0.10724488929E+03  0.30810823239E+03  0.16768341743E+03  0.37525191906E+03  0.79146226265E+02 0.  0.
         24    2    4    4    0    0  0.10970717479E+04  0.54464338428E+03  0.12504469859E+04  0.17521846093E+04  0.79563837909E+02 0.  0.
         13    1    3    3    0    0 -0.64685885703E+03 -0.59082759406E+03 -0.19148710201E+03  0.89675578451E+03  0.00000000000E+00 0.  1.
        -13    1    3    3    0    0 -0.34296800163E+03 -0.26192402261E+03 -0.15155878216E+03  0.45738529514E+03  0.00000000000E+00 0. -1.
          4    1    6    6  502    0  0.71529927083E+03  0.38789547733E+03  0.86283153199E+03  0.11859992415E+04  0.00000000000E+00 0. -1.
          3    1    5    5  503    0 -0.13958615713E+02  0.42775441483E+01  0.20064930961E+02  0.24814144979E+02  0.00000000000E+00 0. -1.
         -4    1    5    5    0  503 -0.93286273576E+02  0.30383068825E+03  0.14761848647E+03  0.35043777408E+03  0.00000000000E+00 0.  1.
         -3    1    6    6    0  502  0.38177247711E+03  0.15674790695E+03  0.38761545387E+03  0.56618536778E+03  0.00000000000E+00 0.  1.
<mgrwt>
<rscale>  0 0.33114311E+04</rscale>
<asrwt>0</asrwt>
<pdfrwt beam="1">  1        2 0.35051247E+00 0.33114311E+04</pdfrwt>
<pdfrwt beam="2">  1       -2 0.18511485E+00 0.33114311E+04</pdfrwt>
<totfact> 0.65085235E-01</totfact>
</mgrwt>
</event>
<event>
12    1  0.2048318E-007  0.1073986E+04  0.7818608E-02  0.9230924E-01
         -1   -1    0    0    0  501 -0.00000000000E+00  0.00000000000E+00  0.35020190721E+03  0.35020190721E+03  0.00000000000E+00 0.  1.
          1   -1    0    0  501    0  0.00000000000E+00 -0.00000000000E+00 -0.82341502656E+03  0.82341502656E+03  0.00000000000E+00 0. -1.
         23    2    1    2    0    0  0.41701237460E+02 -0.10616529316E+03 -0.15248422758E+03  0.21102167357E+03  0.90932086618E+02 0.  0.
        254    2    1    2    0    0 -0.41701237460E+02  0.10616529316E+03 -0.32072889177E+03  0.96259526020E+03  0.90039577424E+03 0.  0.
        -24    2    4    4    0    0 -0.10462379413E+03 -0.21973884492E+03  0.21032805755E+03  0.33135861985E+03  0.79557180023E+02 0.  0.
         24    2    4    4    0    0  0.62922556670E+02  0.32590413808E+03 -0.53105694932E+03  0.63123664035E+03  0.79154641962E+02 0.  0.
         11    1    3    3    0    0  0.36586389655E+02 -0.12251545538E+03 -0.12623876953E+03  0.17967979198E+03  0.00000000000E+00 0.  1.
        -11    1    3    3    0    0  0.51148478053E+01  0.16350162222E+02 -0.26245458058E+02  0.31341881587E+02  0.00000000000E+00 0. -1.
          2    1    6    6  502    0  0.75286505482E+02  0.18924779229E+03 -0.30332069704E+03  0.36535767413E+03  0.00000000000E+00 0. -1.
          3    1    5    5  503    0 -0.89557678290E+02 -0.18652154943E+03  0.21010827978E+03  0.29488363023E+03  0.00000000000E+00 0. -1.
         -4    1    5    5    0  503 -0.15066115840E+02 -0.33217295484E+02  0.21977776880E+00  0.36474989624E+02  0.00000000000E+00 0.  1.
         -1    1    6    6    0  502 -0.12363948811E+02  0.13665634579E+03 -0.22773625228E+03  0.26587896622E+03  0.00000000000E+00 0.  1.
<mgrwt>
<rscale>  0 0.10739861E+04</rscale>
<asrwt>0</asrwt>
<pdfrwt beam="1">  1        1 0.12667923E+00 0.10739861E+04</pdfrwt>
<pdfrwt beam="2">  1       -1 0.53877217E-01 0.10739861E+04</pdfrwt>
<totfact> 0.73227468E+01</totfact>
</mgrwt>
</event>
<event>
12    1  0.2048318E-007  0.1996316E+04  0.7818608E-02  0.8608345E-01
         -2   -1    0    0    0  501 -0.00000000000E+00  0.00000000000E+00  0.68214179420E+03  0.68214179420E+03  0.00000000000E+00 0.  1.
          2   -1    0    0  501    0  0.00000000000E+00 -0.00000000000E+00 -0.14605757893E+04  0.14605757893E+04  0.00000000000E+00 0. -1.
         23    2    1    2    0    0  0.43378510428E+03 -0.28550844865E+03 -0.95390573360E+03  0.10900207446E+04  0.92328132722E+02 0.  0.
        254    2    1    2    0    0 -0.43378510428E+03  0.28550844865E+03  0.17547173847E+03  0.10526968389E+04  0.89871892869E+03 0.  0.
        -24    2    4    4    0    0 -0.12275447928E+03 -0.30673679933E+03  0.16818523557E+03  0.37926082830E+03  0.79977347871E+02 0.  0.
         24    2    4    4    0    0 -0.31103062501E+03  0.59224524798E+03  0.72865028932E+01  0.67343601065E+03  0.77255963278E+02 0.  0.
         13    1    3    3    0    0  0.10396056406E+03 -0.86972606527E+02 -0.33204187094E+03  0.35864165573E+03  0.00000000000E+00 0. -1.
        -13    1    3    3    0    0  0.32982454023E+03 -0.19853584212E+03 -0.62186386266E+03  0.73137908886E+03  0.00000000000E+00 0.  1.
          2    1    6    6  502    0 -0.14602069438E+03  0.19824942396E+03  0.52179284468E+01  0.24627647891E+03  0.00000000000E+00 0. -1.
          3    1    5    5  503    0 -0.26206352366E+01 -0.42273965972E+02  0.50360211645E+02  0.65803547358E+02  0.00000000000E+00 0. -1.
         -4    1    5    5    0  503 -0.12013384404E+03 -0.26446283336E+03  0.11782502393E+03  0.31345728094E+03  0.00000000000E+00 0.  1.
         -1    1    6    6    0  502 -0.16500993063E+03  0.39399582402E+03  0.20685744465E+01  0.42715953173E+03  0.00000000000E+00 0.  1.
<mgrwt>
<rscale>  0 0.19963164E+04</rscale>
<asrwt>0</asrwt>
<pdfrwt beam="1">  1        2 0.22470397E+00 0.19963164E+04</pdfrwt>
<pdfrwt beam="2">  1       -2 0.10494489E+00 0.19963164E+04</pdfrwt>
<totfact> 0.91421570E+00</totfact>
</mgrwt>
</event>
<event>
12    1  0.2048318E-007  0.5363886E+04  0.7818608E-02  0.7774701E-01
          3   -1    0    0  501    0  0.00000000000E+00  0.00000000000E+00  0.30214273211E+04  0.30214273211E+04  0.00000000000E+00 0. -1.
         -3   -1    0    0    0  501 -0.00000000000E+00 -0.00000000000E+00 -0.23806030315E+04  0.23806030315E+04  0.00000000000E+00 0.  1.
         23    2    1    2    0    0 -0.16135362102E+04 -0.70472198383E+03  0.22472108355E+04  0.28562596787E+04  0.90170043488E+02 0.  0.
        254    2    1    2    0    0  0.16135362102E+04  0.70472198383E+03 -0.16063865459E+04  0.25457706739E+04  0.89461634954E+03 0.  0.
        -24    2    4    4    0    0  0.57654615207E+03  0.36044918761E+03 -0.11917617292E+04  0.13744065345E+04  0.79801130783E+02 0.  0.
         24    2    4    4    0    0  0.10369900581E+04  0.34427279622E+03 -0.41462481670E+03  0.11713641394E+04  0.79423356285E+02 0.  0.
         11    1    3    3    0    0 -0.14023166058E+04 -0.62577297891E+03  0.19129523259E+04  0.24530532577E+04  0.00000000000E+00 0.  1.
        -11    1    3    3    0    0 -0.21121960434E+03 -0.78949004922E+02  0.33425850964E+03  0.40320642097E+03  0.00000000000E+00 0. -1.
          4    1    6    6  502    0  0.69011259839E+03  0.23329013576E+03 -0.23624798600E+03  0.76582817706E+03  0.00000000000E+00 0. -1.
          1    1    5    5  503    0  0.46312792285E+03  0.25814242036E+03 -0.96352567275E+03  0.10997757518E+04  0.00000000000E+00 0. -1.
         -2    1    5    5    0  503  0.11341822922E+03  0.10230676725E+03 -0.22823605648E+03  0.27463078272E+03  0.00000000000E+00 0.  1.
         -3    1    6    6    0  502  0.34687745973E+03  0.11098266045E+03 -0.17837683070E+03  0.40553596230E+03  0.00000000000E+00 0.  1.
<mgrwt>
<rscale>  0 0.53638863E+04</rscale>
<asrwt>0</asrwt>
<pdfrwt beam="1">  1        3 0.46483497E+00 0.53638863E+04</pdfrwt>
<pdfrwt beam="2">  1       -3 0.36624662E+00 0.53638863E+04</pdfrwt>
<totfact> 0.15117528E-04</totfact>
</mgrwt>
</event>
<event>
12    1  0.2048318E-007  0.1751368E+04  0.7818608E-02  0.8732598E-01
         -3   -1    0    0    0  501 -0.00000000000E+00  0.00000000000E+00  0.18121694422E+04  0.18121694422E+04  0.00000000000E+00 0.  1.
          3   -1    0    0  501    0  0.00000000000E+00 -0.00000000000E+00 -0.42315148345E+03  0.42315148345E+03  0.00000000000E+00 0. -1.
         23    2    1    2    0    0  0.23358880052E+03  0.48523781481E+03  0.75578045393E+02  0.55665101503E+03  0.11886482631E+03 0.  0.
        254    2    1    2    0    0 -0.23358880052E+03 -0.48523781481E+03  0.13134399134E+04  0.16786699107E+04  0.89598482031E+03 0.  0.
        -24    2    4    4    0    0 -0.51083170371E+03 -0.53648465313E+02  0.74654220440E+03  0.90977580383E+03  0.80867564213E+02 0.  0.
         24    2    4    4    0    0  0.27724290319E+03 -0.43158934950E+03  0.56689770900E+03  0.76889410683E+03  0.81805507704E+02 0.  0.
         11    1    3    3    0    0  0.36215842155E+02  0.76312000398E+02 -0.31461743508E+02  0.90138504161E+02  0.00000000000E+00 0. -1.
        -11    1    3    3    0    0  0.19737295837E+03  0.40892581441E+03  0.10703978890E+03  0.46651251087E+03  0.00000000000E+00 0.  1.
          4    1    6    6  502    0  0.23227839672E+03 -0.35044767407E+03  0.41398964364E+03  0.59004597354E+03  0.00000000000E+00 0. -1.
          3    1    5    5  503    0 -0.45591523660E+03 -0.35753564389E+02  0.61755463385E+03  0.76844697027E+03  0.00000000000E+00 0. -1.
         -4    1    5    5    0  503 -0.54916467113E+02 -0.17894900924E+02  0.12898757056E+03  0.14132883357E+03  0.00000000000E+00 0.  1.
         -3    1    6    6    0  502  0.44964506463E+02 -0.81141675428E+02  0.15290806536E+03  0.17884813330E+03  0.00000000000E+00 0.  1.
<mgrwt>
<rscale>  0 0.17513677E+04</rscale>
<asrwt>0</asrwt>
<pdfrwt beam="1">  1        3 0.65100229E-01 0.17513677E+04</pdfrwt>
<pdfrwt beam="2">  1       -3 0.27879529E+00 0.17513677E+04</pdfrwt>
<totfact> 0.28363329E-01</totfact>
</mgrwt>
</event>
<event>
12    1  0.2048318E-007  0.3126377E+04  0.7818608E-02  0.8208536E-01
          2   -1    0    0  501    0  0.00000000000E+00  0.00000000000E+00  0.15363242975E+04  0.15363242975E+04  0.00000000000E+00 0. -1.
         -2   -1    0    0    0  501 -0.00000000000E+00 -0.00000000000E+00 -0.15905228655E+04  0.15905228655E+04  0.00000000000E+00 0.  1.
         23    2    1    2    0    0  0.13542753964E+03 -0.12048471269E+04  0.73390714028E+03  0.14195985365E+04  0.81505193618E+02 0.  0.
        254    2    1    2    0    0 -0.13542753964E+03  0.12048471269E+04 -0.78810570827E+03  0.17072486265E+04  0.90751862106E+03 0.  0.
        -24    2    4    4    0    0 -0.45492319139E+03  0.73091846233E+03 -0.20849107171E+03  0.88936126764E+03  0.79360120691E+02 0.  0.
         24    2    4    4    0    0  0.31949565176E+03  0.47392866458E+03 -0.57961463656E+03  0.81788735886E+03  0.79377290598E+02 0.  0.
         11    1    3    3    0    0  0.59203210296E+02 -0.31055862276E+03  0.22244579492E+03  0.38656669536E+03  0.00000000000E+00 0. -1.
        -11    1    3    3    0    0  0.76224329339E+02 -0.89428850415E+03  0.51146134535E+03  0.10330318412E+04  0.00000000000E+00 0.  1.
          4    1    6    6  502    0  0.13147209426E+03  0.18718057905E+03 -0.28780343470E+03  0.36763065401E+03  0.00000000000E+00 0. -1.
          3    1    5    5  503    0 -0.43122054404E+03  0.66001825460E+03 -0.17576878106E+03  0.80775610082E+03  0.00000000000E+00 0. -1.
         -4    1    5    5    0  503 -0.23702647355E+02  0.70900207727E+02 -0.32722290648E+02  0.81605166826E+02  0.00000000000E+00 0.  1.
         -1    1    6    6    0  502  0.18802355750E+03  0.28674808553E+03 -0.29181120186E+03  0.45025670485E+03  0.00000000000E+00 0.  1.
<mgrwt>
<rscale>  0 0.31263774E+04</rscale>
<asrwt>0</asrwt>
<pdfrwt beam="1">  1        2 0.23635759E+00 0.31263774E+04</pdfrwt>
<pdfrwt beam="2">  1       -2 0.24469582E+00 0.31263774E+04</pdfrwt>
<totfact> 0.71077705E-01</totfact>
</mgrwt>
</event>
<event>
12    1  0.2048318E-007  0.2063337E+04  0.7818608E-02  0.8577568E-01
          2   -1    0    0  501    0  0.00000000000E+00  0.00000000000E+00  0.12089918143E+04  0.12089918143E+04  0.00000000000E+00 0.  1.
         -2   -1    0    0    0  501 -0.00000000000E+00 -0.00000000000E+00 -0.88035367307E+03  0.88035367307E+03  0.00000000000E+00 0. -1.
         23    2    1    2    0    0 -0.78588139879E+03  0.54715334025E+02  0.39468370567E+03  0.88578215213E+03  0.90727354019E+02 0.  0.
        254    2    1    2    0    0  0.78588139879E+03 -0.54715334025E+02 -0.66045564442E+02  0.12035633352E+04  0.90752374328E+03 0.  0.
        -24    2    4    4    0    0  0.84946885399E+03 -0.23074428743E+03 -0.26080944864E+03  0.92165157791E+03  0.81115981670E+02 0.  0.
         24    2    4    4    0    0 -0.63587455205E+02  0.17602895340E+03  0.19476388420E+03  0.28191175733E+03  0.80695176052E+02 0.  0.
         13    1    3    3    0    0 -0.72505706967E+03  0.61937264382E+02  0.38654893437E+03  0.82399275340E+03  0.00000000000E+00 0.  1.
        -13    1    3    3    0    0 -0.60824329117E+02 -0.72219303569E+01  0.81347713018E+01  0.61789398724E+02  0.00000000000E+00 0. -1.
          4    1    6    6  502    0 -0.20220086229E+02  0.15371047200E+03  0.14704205815E+03  0.21367528625E+03  0.00000000000E+00 0. -1.
          3    1    5    5  503    0  0.84687587145E+03 -0.22943517680E+03 -0.26500230808E+03  0.91655085253E+03  0.00000000000E+00 0. -1.
         -2    1    5    5    0  503  0.25929825441E+01 -0.13091106266E+01  0.41928594373E+01  0.51007253766E+01  0.00000000000E+00 0.  1.
         -3    1    6    6    0  502 -0.43367368976E+02  0.22318481402E+02  0.47721826052E+02  0.68236471082E+02  0.00000000000E+00 0.  1.
<mgrwt>
<rscale>  0 0.20633375E+04</rscale>
<asrwt>0</asrwt>
<pdfrwt beam="1">  1        2 0.18599874E+00 0.20633375E+04</pdfrwt>
<pdfrwt beam="2">  1       -2 0.13543903E+00 0.20633375E+04</pdfrwt>
<totfact> 0.67662464E+00</totfact>
</mgrwt>
</event>
<event>
12    1  0.2048318E-007  0.1813536E+04  0.7818608E-02  0.8699134E-01
          2   -1    0    0  501    0  0.00000000000E+00  0.00000000000E+00  0.11541312864E+04  0.11541312864E+04  0.00000000000E+00 0. -1.
         -2   -1    0    0    0  501 -0.00000000000E+00 -0.00000000000E+00 -0.71242179014E+03  0.71242179014E+03  0.00000000000E+00 0.  1.
         23    2    1    2    0    0  0.62968725242E+03  0.11906688019E+03 -0.65529235808E+02  0.65168031536E+03  0.98540321005E+02 0.  0.
        254    2    1    2    0    0 -0.62968725242E+03 -0.11906688019E+03  0.50723873203E+03  0.12148727611E+04  0.89885579303E+03 0.  0.
        -24    2    4    4    0    0  0.10104427700E+03  0.10779363676E+02  0.44833469383E+03  0.46669155800E+03  0.80441730582E+02 0.  0.
         24    2    4    4    0    0 -0.73073152942E+03 -0.12984624387E+03  0.58904038195E+02  0.74818120314E+03  0.74005485422E+02 0.  0.
         11    1    3    3    0    0  0.22228392131E+03  0.85435976278E+02 -0.45177567455E+02  0.24238494243E+03  0.00000000000E+00 0.  1.
        -11    1    3    3    0    0  0.40740333111E+03  0.33630903913E+02 -0.20351668353E+02  0.40929537293E+03  0.00000000000E+00 0. -1.
          2    1    6    6  502    0 -0.53524977611E+03 -0.12539267151E+03  0.56463574163E+02  0.55263349527E+03  0.00000000000E+00 0. -1.
          3    1    5    5  503    0  0.66545019908E+02  0.45221624003E+02  0.26112703972E+03  0.27324085680E+03  0.00000000000E+00 0. -1.
         -4    1    5    5    0  503  0.34499257091E+02 -0.34442260328E+02  0.18720765411E+03  0.19345070120E+03  0.00000000000E+00 0.  1.
         -1    1    6    6    0  502 -0.19548175332E+03 -0.44535723607E+01  0.24404640317E+01  0.19554770786E+03  0.00000000000E+00 0.  1.
<mgrwt>
<rscale>  0 0.18135361E+04</rscale>
<asrwt>0</asrwt>
<pdfrwt beam="1">  1        2 0.17755866E+00 0.18135361E+04</pdfrwt>
<pdfrwt beam="2">  1       -2 0.10960335E+00 0.18135361E+04</pdfrwt>
<totfact> 0.12619061E+01</totfact>
</mgrwt>
</event>
<event>
12    1  0.2048318E-007  0.1742982E+04  0.7818608E-02  0.8737223E-01
          1   -1    0    0  501    0  0.00000000000E+00  0.00000000000E+00  0.54133709720E+03  0.54133709720E+03  0.00000000000E+00 0. -1.
         -1   -1    0    0    0  501 -0.00000000000E+00 -0.00000000000E+00 -0.14030015255E+04  0.14030015255E+04  0.00000000000E+00 0.  1.
         23    2    1    2    0    0 -0.46647057476E+01  0.61283606194E+03 -0.13056891072E+03  0.63282846120E+03  0.88508884096E+02 0.  0.
        254    2    1    2    0    0  0.46647057476E+01 -0.61283606194E+03 -0.73109551758E+03  0.13115101615E+04  0.89998247183E+03 0.  0.
        -24    2    4    4    0    0 -0.35677002369E+03 -0.58863993208E+03 -0.60406428627E+03  0.91932088259E+03  0.80469893643E+02 0.  0.
         24    2    4    4    0    0  0.36143472943E+03 -0.24196129858E+02 -0.12703123131E+03  0.39218927891E+03  0.80342892793E+02 0.  0.
         13    1    3    3    0    0  0.33496965097E+00  0.35266165279E+03 -0.11954502725E+03  0.37237261861E+03  0.00000000000E+00 0.  1.
        -13    1    3    3    0    0 -0.49996753985E+01  0.26017440915E+03 -0.11023883471E+02  0.26045584258E+03  0.00000000000E+00 0. -1.
          4    1    6    6  502    0  0.45675214160E+02  0.90975654720E+01  0.78287921048E+01  0.47225849616E+02  0.00000000000E+00 0. -1.
          3    1    5    5  503    0 -0.96782652712E+01 -0.33983309308E+02 -0.53923055629E+02  0.64468830132E+02  0.00000000000E+00 0. -1.
         -4    1    5    5    0  503 -0.34709175842E+03 -0.55465662277E+03 -0.55014123064E+03  0.85485205246E+03  0.00000000000E+00 0.  1.
         -3    1    6    6    0  502  0.31575951527E+03 -0.33293695330E+02 -0.13486002342E+03  0.34496342930E+03  0.00000000000E+00 0.  1.
<mgrwt>
<rscale>  0 0.17429822E+04</rscale>
<asrwt>0</asrwt>
<pdfrwt beam="1">  1        1 0.83282632E-01 0.17429822E+04</pdfrwt>
<pdfrwt beam="2">  1       -1 0.21584639E+00 0.17429822E+04</pdfrwt>
<totfact> 0.44137880E+00</totfact>
</mgrwt>
</event>
<event>
12    1  0.2048318E-007  0.2135128E+04  0.7818608E-02  0.8545925E-01
          1   -1    0    0  501    0  0.00000000000E+00  0.00000000000E+00  0.18845824598E+04  0.18845824598E+04  0.00000000000E+00 0. -1.
         -1   -1    0    0    0  501 -0.00000000000E+00 -0.00000000000E+00 -0.60474572254E+03  0.60474572254E+03  0.00000000000E+00 0.  1.
         23    2    1    2    0    0 -0.40126868572E+03 -0.77792045912E+03  0.50743494385E+03  0.10159037307E+04  0.91615331688E+02 0.  0.
        254    2    1    2    0    0  0.40126868572E+03  0.77792045912E+03  0.77240179342E+03  0.14734244516E+04  0.89899849017E+03 0.  0.
        -24    2    4    4    0    0  0.29501979923E+03  0.95175409354E+03  0.48251478796E+03  0.11102690038E+04  0.83691120899E+02 0.  0.
         24    2    4    4    0    0  0.10624888649E+03 -0.17383363442E+03  0.28988700546E+03  0.36315544782E+03  0.79626911339E+02 0.  0.
         13    1    3    3    0    0 -0.16767366001E+03 -0.27931742062E+03  0.14415274063E+03  0.35624807417E+03  0.00000000000E+00 0.  1.
        -13    1    3    3    0    0 -0.23359502571E+03 -0.49860303850E+03  0.36328220322E+03  0.65965565655E+03  0.00000000000E+00 0. -1.
          2    1    6    6  502    0  0.39327132576E+02 -0.10786999135E+03  0.10421202217E+03  0.15505709902E+03  0.00000000000E+00 0. -1.
          3    1    5    5  503    0  0.95510534403E+02  0.24937890037E+03  0.16618537054E+03  0.31453088165E+03  0.00000000000E+00 0. -1.
         -4    1    5    5    0  503  0.19950926482E+03  0.70237519317E+03  0.31632941742E+03  0.79573812215E+03  0.00000000000E+00 0.  1.
         -1    1    6    6    0  502  0.66921753915E+02 -0.65963643070E+02  0.18567498329E+03  0.20809834880E+03  0.00000000000E+00 0.  1.
<mgrwt>
<rscale>  0 0.21351283E+04</rscale>
<asrwt>0</asrwt>
<pdfrwt beam="1">  1        1 0.28993576E+00 0.21351283E+04</pdfrwt>
<pdfrwt beam="2">  1       -1 0.93037804E-01 0.21351283E+04</pdfrwt>
<totfact> 0.36712894E+00</totfact>
</mgrwt>
</event>
<event>
12    1  0.2048318E-007  0.1353277E+04  0.7818608E-02  0.8988351E-01
          1   -1    0    0  501    0  0.00000000000E+00  0.00000000000E+00  0.20918542683E+04  0.20918542683E+04  0.00000000000E+00 0. -1.
         -1   -1    0    0    0  501 -0.00000000000E+00 -0.00000000000E+00 -0.21886774943E+03  0.21886774943E+03  0.00000000000E+00 0.  1.
         23    2    1    2    0    0 -0.15820393376E+03 -0.26758605163E+03  0.83799549693E+03  0.89838852038E+03  0.90745253258E+02 0.  0.
        254    2    1    2    0    0  0.15820393376E+03  0.26758605163E+03  0.10349910219E+04  0.14123334973E+04  0.90931221951E+03 0.  0.
        -24    2    4    4    0    0 -0.59266836047E+01 -0.18066845531E+03  0.88375026815E+03  0.90558352990E+03  0.79942334540E+02 0.  0.
         24    2    4    4    0    0  0.16413061736E+03  0.44825450693E+03  0.15124075374E+03  0.50674996740E+03  0.77786896911E+02 0.  0.
         11    1    3    3    0    0 -0.72465054482E+02 -0.99721449742E+02  0.21876516977E+03  0.25110506001E+03  0.00000000000E+00 0.  1.
        -11    1    3    3    0    0 -0.85738879274E+02 -0.16786460189E+03  0.61923032717E+03  0.64728346037E+03  0.00000000000E+00 0. -1.
          4    1    6    6  502    0  0.58879027700E+02  0.21153126525E+03  0.10577952035E+03  0.24372427661E+03  0.00000000000E+00 0. -1.
          1    1    5    5  503    0  0.36201798718E+02 -0.64954813734E+02  0.34986118639E+03  0.35767659667E+03  0.00000000000E+00 0. -1.
         -2    1    5    5    0  503 -0.42128482323E+02 -0.11571364157E+03  0.53388908176E+03  0.54790693324E+03  0.00000000000E+00 0.  1.
         -3    1    6    6    0  502  0.10525158966E+03  0.23672324168E+03  0.45461233389E+02  0.26302569080E+03  0.00000000000E+00 0.  1.
<mgrwt>
<rscale>  0 0.13532767E+04</rscale>
<asrwt>0</asrwt>
<pdfrwt beam="1">  1        1 0.32182372E+00 0.13532767E+04</pdfrwt>
<pdfrwt beam="2">  1       -1 0.33671963E-01 0.13532767E+04</pdfrwt>
<totfact> 0.21037117E+01</totfact>
</mgrwt>
</event>
<event>
12    1  0.2048318E-007  0.1534353E+04  0.7818608E-02  0.8861924E-01
         -1   -1    0    0    0  501 -0.00000000000E+00  0.00000000000E+00  0.91956801999E+03  0.91956801999E+03  0.00000000000E+00 0.  1.
          1   -1    0    0  501    0  0.00000000000E+00 -0.00000000000E+00 -0.64003961246E+03  0.64003961246E+03  0.00000000000E+00 0. -1.
         23    2    1    2    0    0  0.21479036858E+02 -0.30598446099E+03 -0.30594338501E+03  0.44341886710E+03  0.94504483899E+02 0.  0.
        254    2    1    2    0    0 -0.21479036858E+02  0.30598446099E+03  0.58547179253E+03  0.11161887654E+04  0.89945111077E+03 0.  0.
        -24    2    4    4    0    0  0.42195882495E+03  0.54305256799E+02  0.30137106987E+03  0.52762452062E+03  0.81023466608E+02 0.  0.
         24    2    4    4    0    0 -0.44343786180E+03  0.25167920419E+03  0.28410072266E+03  0.58856424473E+03  0.75598217288E+02 0.  0.
         13    1    3    3    0    0  0.10102381794E+02 -0.20843619116E+03 -0.14234485186E+03  0.25260593967E+03  0.00000000000E+00 0.  1.
        -13    1    3    3    0    0  0.11376655064E+02 -0.97548269829E+02 -0.16359853315E+03  0.19081292743E+03  0.00000000000E+00 0. -1.
          2    1    6    6  502    0 -0.19741491499E+03  0.12834031355E+03  0.91326322193E+02  0.25255570053E+03  0.00000000000E+00 0. -1.
          1    1    5    5  503    0  0.48352995678E+02  0.32247458597E+02  0.30554820944E+02  0.65662073223E+02  0.00000000000E+00 0. -1.
         -2    1    5    5    0  503  0.37360582927E+03  0.22057798201E+02  0.27081624893E+03  0.46196244740E+03  0.00000000000E+00 0.  1.
         -1    1    6    6    0  502 -0.24602294681E+03  0.12333889064E+03  0.19277440047E+03  0.33600854420E+03  0.00000000000E+00 0.  1.
<mgrwt>
<rscale>  0 0.15343532E+04</rscale>
<asrwt>0</asrwt>
<pdfrwt beam="1">  1        1 0.98467632E-01 0.15343532E+04</pdfrwt>
<pdfrwt beam="2">  1       -1 0.14147200E+00 0.15343532E+04</pdfrwt>
<totfact> 0.12260452E+01</totfact>
</mgrwt>
</event>
<event>
12    1  0.2048318E-007  0.1774903E+04  0.7818608E-02  0.8719761E-01
         -2   -1    0    0    0  501 -0.00000000000E+00  0.00000000000E+00  0.27465108182E+03  0.27465108182E+03  0.00000000000E+00 0. -1.
          2   -1    0    0  501    0  0.00000000000E+00 -0.00000000000E+00 -0.28675307717E+04  0.28675307717E+04  0.00000000000E+00 0.  1.
         23    2    1    2    0    0 -0.31638617575E+03  0.99009020912E+02  0.35039877384E+02  0.34525494361E+03  0.89834206461E+02 0.  0.
        254    2    1    2    0    0  0.31638617575E+03 -0.99009020912E+02 -0.26279195673E+04  0.27969269099E+04  0.89829610316E+03 0.  0.
        -24    2    4    4    0    0 -0.16175091472E+03  0.13756707579E+02 -0.19357483874E+04  0.19441740768E+04  0.79614168771E+02 0.  0.
         24    2    4    4    0    0  0.47813709047E+03 -0.11276572849E+03 -0.69217117984E+03  0.85275283316E+03  0.82190421948E+02 0.  0.
         13    1    3    3    0    0 -0.13782697495E+03  0.59628481647E+02  0.57968754752E+02  0.16097269140E+03  0.00000000000E+00 0. -1.
        -13    1    3    3    0    0 -0.17855920080E+03  0.39380539265E+02 -0.22928877369E+02  0.18428225221E+03  0.00000000000E+00 0.  1.
          4    1    6    6  502    0  0.15876184310E+03 -0.59508914383E+02 -0.29579094744E+03  0.34093829105E+03  0.00000000000E+00 0. -1.
          1    1    5    5  503    0 -0.14659541880E+03  0.33987203233E+02 -0.17839224195E+04  0.17902582343E+04  0.00000000000E+00 0. -1.
         -2    1    5    5    0  503 -0.15155495920E+02 -0.20230495654E+02 -0.15182596798E+03  0.15391584247E+03  0.00000000000E+00 0.  1.
         -3    1    6    6    0  502  0.31937524737E+03 -0.53256814108E+02 -0.39638023240E+03  0.51181454211E+03  0.00000000000E+00 0.  1.
<mgrwt>
<rscale>  0 0.17749033E+04</rscale>
<asrwt>0</asrwt>
<pdfrwt beam="1">  1        2 0.44115857E+00 0.17749033E+04</pdfrwt>
<pdfrwt beam="2">  1       -2 0.42254014E-01 0.17749033E+04</pdfrwt>
<totfact> 0.10597155E+01</totfact>
</mgrwt>
</event>
<event>
12    1  0.2048318E-007  0.1484388E+04  0.7818608E-02  0.8894902E-01
         -1   -1    0    0    0  501 -0.00000000000E+00  0.00000000000E+00  0.98036530949E+03  0.98036530949E+03  0.00000000000E+00 0.  1.
          1   -1    0    0  501    0  0.00000000000E+00 -0.00000000000E+00 -0.56188422438E+03  0.56188422438E+03  0.00000000000E+00 0. -1.
         23    2    1    2    0    0  0.40476389265E+03 -0.72484617680E+02  0.35289967529E+03  0.54908420837E+03  0.88698694874E+02 0.  0.
        254    2    1    2    0    0 -0.40476389265E+03  0.72484617680E+02  0.65581409823E+02  0.99316532550E+03  0.90165881234E+03 0.  0.
        -24    2    4    4    0    0 -0.68517288312E+03  0.67011155688E+02  0.96441588399E+02  0.69986238933E+03  0.80956835857E+02 0.  0.
         24    2    4    4    0    0  0.28040899048E+03  0.54734619917E+01 -0.30860178576E+02  0.29330293617E+03  0.80094325764E+02 0.  0.
         11    1    3    3    0    0  0.27436131396E+03 -0.24311841938E+02  0.27728111315E+03  0.39083246023E+03  0.00000000000E+00 0.  1.
        -11    1    3    3    0    0  0.13040257869E+03 -0.48172775742E+02  0.75618562136E+02  0.15825174814E+03  0.00000000000E+00 0. -1.
          4    1    6    6  502    0  0.61685483858E+02  0.16277004594E+02  0.22948751294E+02  0.67798856799E+02  0.00000000000E+00 0. -1.
          1    1    5    5  503    0 -0.69463443628E+02  0.20358988915E+02 -0.10667091729E+02  0.73167241825E+02  0.00000000000E+00 0. -1.
         -2    1    5    5    0  503 -0.61570943949E+03  0.46652166773E+02  0.10710868013E+03  0.62669514750E+03  0.00000000000E+00 0.  1.
         -3    1    6    6    0  502  0.21872350662E+03 -0.10803542603E+02 -0.53808929870E+02  0.22550407937E+03  0.00000000000E+00 0.  1.
<mgrwt>
<rscale>  0 0.14843878E+04</rscale>
<asrwt>0</asrwt>
<pdfrwt beam="1">  1        1 0.86443727E-01 0.14843878E+04</pdfrwt>
<pdfrwt beam="2">  1       -1 0.15082543E+00 0.14843878E+04</pdfrwt>
<totfact> 0.12530624E+01</totfact>
</mgrwt>
</event>
<event>
12    1  0.2048318E-007  0.2021762E+04  0.7818608E-02  0.8596513E-01
         -2   -1    0    0    0  501 -0.00000000000E+00  0.00000000000E+00  0.77493254213E+03  0.77493254213E+03  0.00000000000E+00 0.  1.
          2   -1    0    0  501    0  0.00000000000E+00 -0.00000000000E+00 -0.13186699301E+04  0.13186699301E+04  0.00000000000E+00 0. -1.
         23    2    1    2    0    0 -0.67406709869E+03 -0.43468554632E+03 -0.31086482485E+03  0.86505651560E+03  0.91475997623E+02 0.  0.
        254    2    1    2    0    0  0.67406709869E+03  0.43468554632E+03 -0.23287256315E+03  0.12285459567E+04  0.90098699174E+03 0.  0.
        -24    2    4    4    0    0  0.38916883872E+03  0.58871604075E+03  0.14438858034E+03  0.72485364465E+03  0.80782314659E+02 0.  0.
         24    2    4    4    0    0  0.28489825996E+03 -0.15403049444E+03 -0.37726114350E+03  0.50369231202E+03  0.80545409876E+02 0.  0.
         11    1    3    3    0    0 -0.54597100215E+03 -0.38482201642E+03 -0.27940226058E+03  0.72404277686E+03  0.00000000000E+00 0. -1.
        -11    1    3    3    0    0 -0.12809609653E+03 -0.49863529898E+02 -0.31462564269E+02  0.14101373873E+03  0.00000000000E+00 0.  1.
          2    1    6    6  502    0  0.74360012298E+02 -0.81417954231E+02 -0.10919126525E+03  0.15518062735E+03  0.00000000000E+00 0. -1.
          3    1    5    5  503    0  0.11322367850E+03  0.13908874623E+03  0.59733516234E+01  0.17944626390E+03  0.00000000000E+00 0. -1.
         -4    1    5    5    0  503  0.27594516022E+03  0.44962729453E+03  0.13841522872E+03  0.54540738075E+03  0.00000000000E+00 0.  1.
         -1    1    6    6    0  502  0.21053824767E+03 -0.72612540206E+02 -0.26806987825E+03  0.34851168467E+03  0.00000000000E+00 0.  1.
<mgrwt>
<rscale>  0 0.20217618E+04</rscale>
<asrwt>0</asrwt>
<pdfrwt beam="1">  1        2 0.20287230E+00 0.20217618E+04</pdfrwt>
<pdfrwt beam="2">  1       -2 0.11922039E+00 0.20217618E+04</pdfrwt>
<totfact> 0.80708650E+00</totfact>
</mgrwt>
</event>
<event>
12    1  0.2048318E-007  0.1908084E+04  0.7818608E-02  0.8650843E-01
         -2   -1    0    0    0  501 -0.00000000000E+00  0.00000000000E+00  0.62037593314E+03  0.62037593314E+03  0.00000000000E+00 0.  1.
          2   -1    0    0  501    0  0.00000000000E+00 -0.00000000000E+00 -0.14671689783E+04  0.14671689783E+04  0.00000000000E+00 0. -1.
         23    2    1    2    0    0  0.54343800737E+03 -0.47939344608E+03 -0.48261802623E+03  0.87543839501E+03  0.91264890371E+02 0.  0.
        254    2    1    2    0    0 -0.54343800737E+03  0.47939344608E+03 -0.36417501895E+03  0.12121065165E+04  0.90079732394E+03 0.  0.
        -24    2    4    4    0    0  0.29148648083E+02 -0.15171293098E+03 -0.30862088971E+03  0.35449634200E+03  0.80958914369E+02 0.  0.
         24    2    4    4    0    0 -0.57258665546E+03  0.63110637706E+03 -0.55554129241E+02  0.85761017446E+03  0.79108867307E+02 0.  0.
         11    1    3    3    0    0  0.36454232883E+03 -0.36056419222E+03 -0.37488721443E+03  0.63516774931E+03  0.00000000000E+00 0. -1.
        -11    1    3    3    0    0  0.17889567855E+03 -0.11882925386E+03 -0.10773081180E+03  0.24027064570E+03  0.00000000000E+00 0.  1.
          2    1    6    6  502    0 -0.21159992563E+03  0.28284432252E+03 -0.27839102180E+01  0.35324664113E+03  0.00000000000E+00 0. -1.
          1    1    5    5  503    0  0.36272705333E+00 -0.70569942102E+02 -0.21956028905E+03  0.23062300151E+03  0.00000000000E+00 0. -1.
         -2    1    5    5    0  503  0.28785921030E+02 -0.81142988879E+02 -0.89060600654E+02  0.12387334048E+03  0.00000000000E+00 0.  1.
         -1    1    6    6    0  502 -0.36098672982E+03  0.34826205454E+03 -0.52770219023E+02  0.50436353333E+03  0.00000000000E+00 0.  1.
<mgrwt>
<rscale>  0 0.19080842E+04</rscale>
<asrwt>0</asrwt>
<pdfrwt beam="1">  1        2 0.22571830E+00 0.19080842E+04</pdfrwt>
<pdfrwt beam="2">  1       -2 0.95442454E-01 0.19080842E+04</pdfrwt>
<totfact> 0.11433553E+01</totfact>
</mgrwt>
</event>
<event>
12    1  0.2048318E-007  0.5400861E+04  0.7818608E-02  0.7769480E-01
         -1   -1    0    0    0  501 -0.00000000000E+00  0.00000000000E+00  0.23916931491E+04  0.23916931491E+04  0.00000000000E+00 0.  1.
          1   -1    0    0  501    0  0.00000000000E+00 -0.00000000000E+00 -0.30490218915E+04  0.30490218915E+04  0.00000000000E+00 0. -1.
         23    2    1    2    0    0  0.75143154648E+03 -0.25161637629E+04 -0.39211954823E+03  0.26566608008E+04  0.91429862764E+02 0.  0.
        254    2    1    2    0    0 -0.75143154648E+03  0.25161637629E+04 -0.26520919423E+03  0.27840542398E+04  0.88594167005E+03 0.  0.
        -24    2    4    4    0    0 -0.34448048776E+03  0.66674178001E+03  0.29041447719E+03  0.80880140533E+03  0.81287988308E+02 0.  0.
         24    2    4    4    0    0 -0.40695105872E+03  0.18494219829E+04 -0.55562367142E+03  0.19752528345E+04  0.83278213918E+02 0.  0.
         11    1    3    3    0    0  0.32676292547E+03 -0.98834700460E+03 -0.18869878446E+03  0.10579277112E+04  0.00000000000E+00 0. -1.
        -11    1    3    3    0    0  0.42466862101E+03 -0.15278167583E+04 -0.20342076376E+03  0.15987330896E+04  0.00000000000E+00 0.  1.
          4    1    6    6  502    0 -0.49687655180E+02  0.12737718121E+03 -0.44050446528E+02  0.14364627113E+03  0.00000000000E+00 0. -1.
          3    1    5    5  503    0 -0.38749176601E+02  0.10880671255E+03  0.18728524712E+02  0.11700921768E+03  0.00000000000E+00 0. -1.
         -4    1    5    5    0  503 -0.30573131116E+03  0.55793506746E+03  0.27168595248E+03  0.69179218765E+03  0.00000000000E+00 0.  1.
         -3    1    6    6    0  502 -0.35726340354E+03  0.17220448016E+04 -0.51157322489E+03  0.18316065633E+04  0.00000000000E+00 0.  1.
<mgrwt>
<rscale>  0 0.54008610E+04</rscale>
<asrwt>0</asrwt>
<pdfrwt beam="1">  1        1 0.46908029E+00 0.54008610E+04</pdfrwt>
<pdfrwt beam="2">  1       -1 0.36795279E+00 0.54008610E+04</pdfrwt>
<totfact> 0.45403132E-03</totfact>
</mgrwt>
</event>
<event>
12    1  0.2048318E-007  0.1666423E+04  0.7818608E-02  0.8780749E-01
         -1   -1    0    0    0  501 -0.00000000000E+00  0.00000000000E+00  0.64600365409E+03  0.64600365409E+03  0.00000000000E+00 0.  1.
          1   -1    0    0  501    0  0.00000000000E+00 -0.00000000000E+00 -0.10746715829E+04  0.10746715829E+04  0.00000000000E+00 0. -1.
         23    2    1    2    0    0  0.50653336109E+03 -0.29219917002E+03 -0.11196584565E+03  0.60246744477E+03  0.92055801326E+02 0.  0.
        254    2    1    2    0    0 -0.50653336109E+03  0.29219917002E+03 -0.31670208318E+03  0.11182077922E+04  0.89896165450E+03 0.  0.
        -24    2    4    4    0    0 -0.52526947918E+03 -0.14883001422E+03 -0.37376027454E+03  0.66646484990E+03  0.80126490282E+02 0.  0.
         24    2    4    4    0    0  0.18736118089E+02  0.44102918424E+03  0.57058191360E+02  0.45174294232E+03  0.77189800256E+02 0.  0.
         11    1    3    3    0    0  0.70200952141E+02 -0.30919451314E+02  0.15270273575E+02  0.78213601159E+02  0.00000000000E+00 0.  1.
        -11    1    3    3    0    0  0.43633240895E+03 -0.26127971871E+03 -0.12723611922E+03  0.52425384361E+03  0.00000000000E+00 0. -1.
          4    1    6    6  502    0  0.28711006141E+02  0.40595331490E+03  0.33532997201E+02  0.40834651664E+03  0.00000000000E+00 0. -1.
          3    1    5    5  503    0 -0.40938077845E+03 -0.14289919527E+03 -0.26997312386E+03  0.51078203706E+03  0.00000000000E+00 0. -1.
         -4    1    5    5    0  503 -0.11588870073E+03 -0.59308189485E+01 -0.10378715068E+03  0.15568281285E+03  0.00000000000E+00 0.  1.
         -3    1    6    6    0  502 -0.99748880517E+01  0.35075869342E+02  0.23525194159E+02  0.43396425682E+02  0.00000000000E+00 0.  1.
<mgrwt>
<rscale>  0 0.16664234E+04</rscale>
<asrwt>0</asrwt>
<pdfrwt beam="1">  1        1 0.16533409E+00 0.16664234E+04</pdfrwt>
<pdfrwt beam="2">  1       -1 0.99385179E-01 0.16664234E+04</pdfrwt>
<totfact> 0.12226200E+01</totfact>
</mgrwt>
</event>
<event>
12    1  0.2048318E-007  0.2043479E+04  0.7818608E-02  0.8586558E-01
         -1   -1    0    0    0  501 -0.00000000000E+00  0.00000000000E+00  0.16488311170E+04  0.16488311170E+04  0.00000000000E+00 0.  1.
          1   -1    0    0  501    0  0.00000000000E+00 -0.00000000000E+00 -0.63314650106E+03  0.63314650106E+03  0.00000000000E+00 0. -1.
         23    2    1    2    0    0 -0.56516344006E+03  0.49494043741E+03  0.78180836800E+03  0.10890639016E+04  0.10227466417E+03 0.  0.
        254    2    1    2    0    0  0.56516344006E+03 -0.49494043741E+03  0.23387624795E+03  0.11929137165E+04  0.89664334328E+03 0.  0.
        -24    2    4    4    0    0  0.35443523774E+03 -0.17055142801E+03  0.55420253490E+03  0.68430475113E+03  0.80127494544E+02 0.  0.
         24    2    4    4    0    0  0.21072820232E+03 -0.32438900939E+03 -0.32032628694E+03  0.50860896535E+03  0.80246774752E+02 0.  0.
         11    1    3    3    0    0 -0.18384853218E+03  0.21922984443E+03  0.26264243210E+03  0.38838518846E+03  0.00000000000E+00 0. -1.
        -11    1    3    3    0    0 -0.38131490788E+03  0.27571059298E+03  0.51916593590E+03  0.70067871314E+03  0.00000000000E+00 0.  1.
          2    1    6    6  502    0  0.15487248364E+03 -0.17073209499E+03 -0.16893028696E+03  0.28578379293E+03  0.00000000000E+00 0. -1.
          3    1    5    5  503    0  0.32376575842E+03 -0.15650191908E+03  0.53739654928E+03  0.64661593561E+03  0.00000000000E+00 0. -1.
         -2    1    5    5    0  503  0.30669479319E+02 -0.14049508934E+02  0.16805985618E+02  0.37688815524E+02  0.00000000000E+00 0.  1.
         -1    1    6    6    0  502  0.55855718679E+02 -0.15365691440E+03 -0.15139599998E+03  0.22282517242E+03  0.00000000000E+00 0.  1.
<mgrwt>
<rscale>  0 0.20434790E+04</rscale>
<asrwt>0</asrwt>
<pdfrwt beam="1">  1        1 0.97407155E-01 0.20434790E+04</pdfrwt>
<pdfrwt beam="2">  1       -1 0.25366632E+00 0.20434790E+04</pdfrwt>
<totfact> 0.19307147E+00</totfact>
</mgrwt>
</event>
<event>
12    1  0.2048318E-007  0.1410737E+04  0.7818608E-02  0.8946083E-01
         -2   -1    0    0    0  501 -0.00000000000E+00  0.00000000000E+00  0.30244704139E+03  0.30244704139E+03  0.00000000000E+00 0.  1.
          2   -1    0    0  501    0  0.00000000000E+00 -0.00000000000E+00 -0.16450628633E+04  0.16450628633E+04  0.00000000000E+00 0. -1.
         23    2    1    2    0    0  0.70395812601E+02  0.35518423820E+03 -0.66404902207E+03  0.76276997719E+03  0.98719404834E+02 0.  0.
        254    2    1    2    0    0 -0.70395812601E+02 -0.35518423820E+03 -0.67856679988E+03  0.11847399275E+04  0.90113505120E+03 0.  0.
        -24    2    4    4    0    0 -0.96345160728E+02 -0.54122118723E+03 -0.77861897313E+03  0.95655510023E+03  0.80915949956E+02 0.  0.
         24    2    4    4    0    0  0.25949348127E+02  0.18603694903E+03  0.10005217325E+03  0.22818482730E+03  0.82308948282E+02 0.  0.
         13    1    3    3    0    0  0.22700411664E+02  0.10270295519E+03 -0.11084892484E+03  0.15280932508E+03  0.00000000000E+00 0.  1.
        -13    1    3    3    0    0  0.47695400937E+02  0.25248128301E+03 -0.55320009723E+03  0.60996065211E+03  0.00000000000E+00 0. -1.
          4    1    6    6  502    0  0.12611417061E+02  0.10242329425E+03  0.99732265161E+02  0.14351342711E+03  0.00000000000E+00 0. -1.
          3    1    5    5  503    0 -0.16346857903E+02 -0.28069254598E+03 -0.43537222747E+03  0.51827068370E+03  0.00000000000E+00 0. -1.
         -4    1    5    5    0  503 -0.79998302825E+02 -0.26052864125E+03 -0.34324674566E+03  0.43828441653E+03  0.00000000000E+00 0.  1.
         -3    1    6    6    0  502  0.13337931066E+02  0.83613654777E+02  0.31990809144E+00  0.84671400198E+02  0.00000000000E+00 0.  1.
<mgrwt>
<rscale>  0 0.14107365E+04</rscale>
<asrwt>0</asrwt>
<pdfrwt beam="1">  1        2 0.25308659E+00 0.14107365E+04</pdfrwt>
<pdfrwt beam="2">  1       -2 0.46530315E-01 0.14107365E+04</pdfrwt>
<totfact> 0.44807849E+01</totfact>
</mgrwt>
</event>
<event>
12    1  0.2048318E-007  0.3396507E+04  0.7818608E-02  0.8138764E-01
          1   -1    0    0  501    0  0.00000000000E+00  0.00000000000E+00  0.26753601173E+04  0.26753601173E+04  0.00000000000E+00 0. -1.
         -1   -1    0    0    0  501 -0.00000000000E+00 -0.00000000000E+00 -0.10780098569E+04  0.10780098569E+04  0.00000000000E+00 0.  1.
         23    2    1    2    0    0 -0.13896593309E+04 -0.70658070872E+03  0.46615396764E+03  0.16298522159E+04  0.93324007714E+02 0.  0.
        254    2    1    2    0    0  0.13896593309E+04  0.70658070872E+03  0.11311962928E+04  0.21235177583E+04  0.89404321107E+03 0.  0.
        -24    2    4    4    0    0  0.11050625634E+04  0.28191947143E+03  0.11277862171E+04  0.16059253452E+04  0.80328110963E+02 0.  0.
         24    2    4    4    0    0  0.28459676746E+03  0.42466123730E+03  0.34100756158E+01  0.51759241309E+03  0.80980188669E+02 0.  0.
         13    1    3    3    0    0 -0.22037986411E+03 -0.75300659168E+02  0.63991703342E+02  0.24152103816E+03  0.00000000000E+00 0.  1.
        -13    1    3    3    0    0 -0.11692794668E+04 -0.63128004955E+03  0.40216226430E+03  0.13883311778E+04  0.00000000000E+00 0. -1.
          2    1    6    6  502    0  0.16044062073E+03  0.19710464408E+03 -0.31248729171E+02  0.25606232947E+03  0.00000000000E+00 0. -1.
          1    1    5    5  503    0  0.18339002357E+03  0.70974447479E+02  0.16789793275E+03  0.25857105167E+03  0.00000000000E+00 0. -1.
         -2    1    5    5    0  503  0.92167253984E+03  0.21094502395E+03  0.95988828439E+03  0.13473542935E+04  0.00000000000E+00 0.  1.
         -1    1    6    6    0  502  0.12415614673E+03  0.22755659322E+03  0.34658804787E+02  0.26153008362E+03  0.00000000000E+00 0.  1.
<mgrwt>
<rscale>  0 0.33965068E+04</rscale>
<asrwt>0</asrwt>
<pdfrwt beam="1">  1        1 0.41159386E+00 0.33965068E+04</pdfrwt>
<pdfrwt beam="2">  1       -1 0.16584767E+00 0.33965068E+04</pdfrwt>
<totfact> 0.22192416E-01</totfact>
</mgrwt>
</event>
<event>
12    1  0.2048318E-007  0.2363920E+04  0.7818608E-02  0.8453136E-01
         -1   -1    0    0    0  501 -0.00000000000E+00  0.00000000000E+00  0.17442950562E+04  0.17442950562E+04  0.00000000000E+00 0.  1.
          1   -1    0    0  501    0  0.00000000000E+00 -0.00000000000E+00 -0.80091337371E+03  0.80091337371E+03  0.00000000000E+00 0. -1.
         23    2    1    2    0    0  0.17197665860E+03 -0.47656899557E+03 -0.53424918559E+03  0.74205160544E+03  0.92327754149E+02 0.  0.
        254    2    1    2    0    0 -0.17197665860E+03  0.47656899557E+03  0.14776308681E+04  0.18031568245E+04  0.90071503416E+03 0.  0.
        -24    2    4    4    0    0 -0.45657277057E+03  0.29943861650E+03  0.42839910187E+03  0.69881930293E+03  0.81856262928E+02 0.  0.
         24    2    4    4    0    0  0.28459611197E+03  0.17713037907E+03  0.10492317662E+04  0.11043375216E+04  0.79397381300E+02 0.  0.
         13    1    3    3    0    0  0.50501862225E+02 -0.15269341536E+03 -0.23442266672E+03  0.28428806492E+03  0.00000000000E+00 0. -1.
        -13    1    3    3    0    0  0.12147479638E+03 -0.32387558021E+03 -0.29982651886E+03  0.45776354052E+03  0.00000000000E+00 0.  1.
          2    1    6    6  502    0  0.18872834940E+03  0.12092154047E+03  0.81196348615E+03  0.84233313579E+03  0.00000000000E+00 0. -1.
          3    1    5    5  503    0 -0.38500523622E+03  0.28234180625E+03  0.38553165408E+03  0.61366161992E+03  0.00000000000E+00 0. -1.
         -4    1    5    5    0  503 -0.71567534356E+02  0.17096810253E+02  0.42867447793E+02  0.85157683006E+02  0.00000000000E+00 0.  1.
         -1    1    6    6    0  502  0.95867762572E+02  0.56208838599E+02  0.23726828009E+03  0.26200438579E+03  0.00000000000E+00 0.  1.
<mgrwt>
<rscale>  0 0.23639198E+04</rscale>
<asrwt>0</asrwt>
<pdfrwt beam="1">  1        1 0.12321744E+00 0.23639198E+04</pdfrwt>
<pdfrwt beam="2">  1       -1 0.26835309E+00 0.23639198E+04</pdfrwt>
<totfact> 0.10505596E+00</totfact>
</mgrwt>
</event>
<event>
12    1  0.2048318E-007  0.1629573E+04  0.7818608E-02  0.8802583E-01
          2   -1    0    0  501    0  0.00000000000E+00  0.00000000000E+00  0.11411620352E+04  0.11411620352E+04  0.00000000000E+00 0. -1.
         -2   -1    0    0    0  501 -0.00000000000E+00 -0.00000000000E+00 -0.58175551695E+03  0.58175551695E+03  0.00000000000E+00 0.  1.
         23    2    1    2    0    0  0.45326551922E+03  0.39287272168E+02 -0.15460266317E+03  0.48891160173E+03  0.90218901463E+02 0.  0.
        254    2    1    2    0    0 -0.45326551922E+03 -0.39287272168E+02  0.71400918137E+03  0.12340059504E+04  0.89775745824E+03 0.  0.
        -24    2    4    4    0    0 -0.22884490338E+03 -0.45255454760E+03  0.26067579955E+03  0.57568730793E+03  0.79299405343E+02 0.  0.
         24    2    4    4    0    0 -0.22442061584E+03  0.41326727543E+03  0.45333338182E+03  0.65831864245E+03  0.81962346063E+02 0.  0.
         13    1    3    3    0    0  0.33208231713E+03 -0.15334777953E+01 -0.13932501569E+03  0.36012841723E+03  0.00000000000E+00 0. -1.
        -13    1    3    3    0    0  0.12118320209E+03  0.40820749963E+02 -0.15277647480E+02  0.12878318450E+03  0.00000000000E+00 0.  1.
          2    1    6    6  502    0 -0.13490046923E+03  0.18231902685E+03  0.18081238373E+03  0.29005427467E+03  0.00000000000E+00 0. -1.
          3    1    5    5  503    0  0.12958341159E+01  0.11291953123E+01 -0.24158836826E+01  0.29649219343E+01  0.00000000000E+00 0. -1.
         -4    1    5    5    0  503 -0.23014073749E+03 -0.45368374291E+03  0.26309168323E+03  0.57272238599E+03  0.00000000000E+00 0.  1.
         -1    1    6    6    0  502 -0.89520146615E+02  0.23094824858E+03  0.27252099809E+03  0.36826436778E+03  0.00000000000E+00 0.  1.
<mgrwt>
<rscale>  0 0.16295733E+04</rscale>
<asrwt>0</asrwt>
<pdfrwt beam="1">  1        2 0.17556339E+00 0.16295733E+04</pdfrwt>
<pdfrwt beam="2">  1       -2 0.89500849E-01 0.16295733E+04</pdfrwt>
<totfact> 0.21056121E+01</totfact>
</mgrwt>
</event>
<event>
12    1  0.2048318E-007  0.2752311E+04  0.7818608E-02  0.8318229E-01
         -1   -1    0    0    0  501 -0.00000000000E+00  0.00000000000E+00  0.22283570376E+04  0.22283570376E+04  0.00000000000E+00 0.  1.
          1   -1    0    0  501    0  0.00000000000E+00 -0.00000000000E+00 -0.84986576133E+03  0.84986576133E+03  0.00000000000E+00 0. -1.
         23    2    1    2    0    0  0.41291217095E+03  0.10092403667E+04  0.12431756027E+04  0.16563683702E+04  0.94910588722E+02 0.  0.
        254    2    1    2    0    0 -0.41291217095E+03 -0.10092403667E+04  0.13531567351E+03  0.14218544287E+04  0.90238412344E+03 0.  0.
        -24    2    4    4    0    0 -0.43362629825E+03 -0.11324790326E+04 -0.68173233083E+01  0.12152476851E+04  0.78993255829E+02 0.  0.
         24    2    4    4    0    0  0.20714127307E+02  0.12323866584E+03  0.14213299682E+03  0.20660674364E+03  0.82871671293E+02 0.  0.
         11    1    3    3    0    0  0.15476942559E+03  0.47796179825E+03  0.52838348144E+03  0.72910229676E+03  0.00000000000E+00 0. -1.
        -11    1    3    3    0    0  0.25814274535E+03  0.53127856846E+03  0.71479212130E+03  0.92726607344E+03  0.00000000000E+00 0.  1.
          4    1    6    6  502    0  0.43423411206E+02  0.11611646550E+03  0.13090675473E+03  0.18029199826E+03  0.00000000000E+00 0. -1.
          3    1    5    5  503    0 -0.33837832266E+03 -0.81011330719E+03  0.18659543945E+02  0.87814101277E+03  0.00000000000E+00 0. -1.
         -4    1    5    5    0  503 -0.95247975589E+02 -0.32236572537E+03 -0.25476867254E+02  0.33710667230E+03  0.00000000000E+00 0.  1.
         -3    1    6    6    0  502 -0.22709283899E+02  0.71222003372E+01  0.11226242087E+02  0.26314745377E+02  0.00000000000E+00 0.  1.
<mgrwt>
<rscale>  0 0.27523113E+04</rscale>
<asrwt>0</asrwt>
<pdfrwt beam="1">  1        1 0.13074858E+00 0.27523113E+04</pdfrwt>
<pdfrwt beam="2">  1       -1 0.34282416E+00 0.27523113E+04</pdfrwt>
<totfact> 0.30182608E-01</totfact>
</mgrwt>
</event>
<event>
12    1  0.2048318E-007  0.1376916E+04  0.7818608E-02  0.8970700E-01
         -2   -1    0    0    0  501 -0.00000000000E+00  0.00000000000E+00  0.28251072303E+03  0.28251072303E+03  0.00000000000E+00 0.  1.
          2   -1    0    0  501    0  0.00000000000E+00 -0.00000000000E+00 -0.16777208032E+04  0.16777208032E+04  0.00000000000E+00 0. -1.
         23    2    1    2    0    0  0.37987752830E+03  0.40602573152E+02 -0.47141870516E+03  0.61410262714E+03  0.94503627642E+02 0.  0.
        254    2    1    2    0    0 -0.37987752830E+03 -0.40602573152E+02 -0.92379137506E+03  0.13461288991E+04  0.90150818243E+03 0.  0.
        -24    2    4    4    0    0 -0.16670740896E+03 -0.36890202748E+03 -0.84393732548E+03  0.93887504623E+03  0.73321736347E+02 0.  0.
         24    2    4    4    0    0 -0.21317011934E+03  0.32829945432E+03 -0.79854049584E+02  0.40725385290E+03  0.79101200864E+02 0.  0.
         13    1    3    3    0    0  0.16433080631E+03  0.83696769554E-04 -0.27131649626E+03  0.31720223051E+03  0.00000000000E+00 0. -1.
        -13    1    3    3    0    0  0.21554672199E+03  0.40602489455E+02 -0.20010220890E+03  0.29690039663E+03  0.00000000000E+00 0.  1.
          2    1    6    6  502    0 -0.13014335859E+03  0.24704523864E+03 -0.29993761815E+02  0.28083495058E+03  0.00000000000E+00 0. -1.
          3    1    5    5  503    0 -0.92851877200E+02 -0.22112983464E+03 -0.57827819068E+03  0.62603956799E+03  0.00000000000E+00 0. -1.
         -4    1    5    5    0  503 -0.73855531757E+02 -0.14777219283E+03 -0.26565913480E+03  0.31283547824E+03  0.00000000000E+00 0.  1.
         -1    1    6    6    0  502 -0.83026760754E+02  0.81254215683E+02 -0.49860287770E+02  0.12641890232E+03  0.00000000000E+00 0.  1.
<mgrwt>
<rscale>  0 0.13769156E+04</rscale>
<asrwt>0</asrwt>
<pdfrwt beam="1">  1        2 0.25811090E+00 0.13769156E+04</pdfrwt>
<pdfrwt beam="2">  1       -2 0.43463188E-01 0.13769156E+04</pdfrwt>
<totfact> 0.49375295E+01</totfact>
</mgrwt>
</event>
<event>
12    1  0.2048318E-007  0.2598848E+04  0.7818608E-02  0.8368593E-01
         -2   -1    0    0    0  501 -0.00000000000E+00  0.00000000000E+00  0.80323128252E+03  0.80323128252E+03  0.00000000000E+00 0.  1.
          2   -1    0    0  501    0  0.00000000000E+00 -0.00000000000E+00 -0.21021376915E+04  0.21021376915E+04  0.00000000000E+00 0. -1.
         23    2    1    2    0    0  0.75625961320E+03  0.33960275579E+03 -0.14389337571E+04  0.16632604545E+04  0.92985739428E+02 0.  0.
        254    2    1    2    0    0 -0.75625961320E+03 -0.33960275579E+03  0.14002734815E+03  0.12421085195E+04  0.91431246398E+03 0.  0.
        -24    2    4    4    0    0 -0.84078534685E+02 -0.23383616516E+03 -0.32305470438E+03  0.41517893214E+03  0.79124279104E+02 0.  0.
         24    2    4    4    0    0 -0.67218107851E+03 -0.10576659063E+03  0.46308205253E+03  0.82692958740E+03  0.79709354107E+02 0.  0.
         13    1    3    3    0    0  0.62463319553E+03  0.27091518780E+03 -0.11067463646E+04  0.12994033952E+04  0.00000000000E+00 0.  1.
        -13    1    3    3    0    0  0.13162641767E+03  0.68687567992E+02 -0.33218739248E+03  0.36385705922E+03  0.00000000000E+00 0. -1.
          4    1    6    6  502    0 -0.43593393286E+03 -0.31842569565E+02  0.28091014203E+03  0.51957949435E+03  0.00000000000E+00 0. -1.
          3    1    5    5  503    0 -0.69210289599E+02 -0.23425750824E+03 -0.31378490333E+03  0.39765262468E+03  0.00000000000E+00 0. -1.
         -4    1    5    5    0  503 -0.14868245086E+02  0.42134308218E+00 -0.92698010439E+01  0.17526307464E+02  0.00000000000E+00 0.  1.
         -3    1    6    6    0  502 -0.23624714565E+03 -0.73924021067E+02  0.18217191050E+03  0.30735009304E+03  0.00000000000E+00 0.  1.
<mgrwt>
<rscale>  0 0.25988480E+04</rscale>
<asrwt>0</asrwt>
<pdfrwt beam="1">  1        2 0.32340579E+00 0.25988480E+04</pdfrwt>
<pdfrwt beam="2">  1       -2 0.12357405E+00 0.25988480E+04</pdfrwt>
<totfact> 0.25580103E+00</totfact>
</mgrwt>
</event>
<event>
12    1  0.2048318E-007  0.1789655E+04  0.7818608E-02  0.8711820E-01
         -1   -1    0    0    0  501 -0.00000000000E+00  0.00000000000E+00  0.47215196886E+03  0.47215196886E+03  0.00000000000E+00 0.  1.
          1   -1    0    0  501    0  0.00000000000E+00 -0.00000000000E+00 -0.16958876248E+04  0.16958876248E+04  0.00000000000E+00 0. -1.
         23    2    1    2    0    0  0.27758641784E+03  0.16585748599E+03 -0.11594992441E+04  0.12072084521E+04  0.91382846554E+02 0.  0.
        254    2    1    2    0    0 -0.27758641784E+03 -0.16585748599E+03 -0.64236411792E+02  0.96083114155E+03  0.90250054900E+03 0.  0.
        -24    2    4    4    0    0  0.28435391793E+01 -0.81403197975E+02 -0.45328099998E+03  0.46729511583E+03  0.79161189868E+02 0.  0.
         24    2    4    4    0    0 -0.28042995702E+03 -0.84454288015E+02  0.38904458819E+03  0.49353602572E+03  0.80303359374E+02 0.  0.
         13    1    3    3    0    0  0.10425230032E+03  0.20179562674E+02 -0.45459873143E+03  0.46683590639E+03  0.00000000000E+00 0. -1.
        -13    1    3    3    0    0  0.17333411752E+03  0.14567792332E+03 -0.70490051270E+03  0.74037254571E+03  0.00000000000E+00 0.  1.
          4    1    6    6  502    0 -0.12249573511E+03 -0.78125738945E+02  0.17483877734E+03  0.22732671261E+03  0.00000000000E+00 0. -1.
          3    1    5    5  503    0  0.17411514583E+02 -0.27930211171E+02 -0.33567300418E+03  0.33728270526E+03  0.00000000000E+00 0. -1.
         -4    1    5    5    0  503 -0.14567975403E+02 -0.53472986804E+02 -0.11760799580E+03  0.13001241057E+03  0.00000000000E+00 0.  1.
         -3    1    6    6    0  502 -0.15793422191E+03 -0.63285490699E+01  0.21420581085E+03  0.26620931311E+03  0.00000000000E+00 0.  1.
<mgrwt>
<rscale>  0 0.17896555E+04</rscale>
<asrwt>0</asrwt>
<pdfrwt beam="1">  1        1 0.26090578E+00 0.17896555E+04</pdfrwt>
<pdfrwt beam="2">  1       -1 0.72638766E-01 0.17896555E+04</pdfrwt>
<totfact> 0.86583384E+00</totfact>
</mgrwt>
</event>
<event>
12    1  0.2048318E-007  0.1458734E+04  0.7818608E-02  0.8912368E-01
         -2   -1    0    0    0  501 -0.00000000000E+00  0.00000000000E+00  0.42534678410E+03  0.42534678410E+03  0.00000000000E+00 0.  1.
          2   -1    0    0  501    0  0.00000000000E+00 -0.00000000000E+00 -0.12506879995E+04  0.12506879995E+04  0.00000000000E+00 0. -1.
         23    2    1    2    0    0 -0.29103350819E+03 -0.33565764443E+03 -0.28941791984E+03  0.53804520325E+03  0.91451360113E+02 0.  0.
        254    2    1    2    0    0  0.29103350819E+03  0.33565764443E+03 -0.53592329553E+03  0.11379895803E+04  0.90024438297E+03 0.  0.
        -24    2    4    4    0    0  0.18820833271E+03 -0.21200781851E+03 -0.49207956276E+03  0.57339201600E+03  0.79160699305E+02 0.  0.
         24    2    4    4    0    0  0.10282517547E+03  0.54766546294E+03 -0.43843732768E+02  0.56459756431E+03  0.79609426094E+02 0.  0.
         11    1    3    3    0    0 -0.27369165506E+03 -0.30316374179E+03 -0.29048878325E+03  0.50119767515E+03  0.00000000000E+00 0. -1.
        -11    1    3    3    0    0 -0.17341853122E+02 -0.32493902636E+02  0.10708634085E+01  0.36847528094E+02  0.00000000000E+00 0.  1.
          2    1    6    6  502    0  0.17873106688E+01  0.52068074107E+02 -0.26636458177E+02  0.58513073111E+02  0.00000000000E+00 0. -1.
          1    1    5    5  503    0 -0.38548046641E+01 -0.36699231992E+00 -0.28735866389E+02  0.28995589656E+02  0.00000000000E+00 0. -1.
         -2    1    5    5    0  503  0.19206313738E+03 -0.21164082619E+03 -0.46334369637E+03  0.54439642634E+03  0.00000000000E+00 0.  1.
         -1    1    6    6    0  502  0.10103786480E+03  0.49559738883E+03 -0.17207274591E+02  0.50608449120E+03  0.00000000000E+00 0.  1.
<mgrwt>
<rscale>  0 0.14587339E+04</rscale>
<asrwt>0</asrwt>
<pdfrwt beam="1">  1        2 0.19241354E+00 0.14587339E+04</pdfrwt>
<pdfrwt beam="2">  1       -2 0.65437966E-01 0.14587339E+04</pdfrwt>
<totfact> 0.36852597E+01</totfact>
</mgrwt>
</event>
<event>
12    1  0.2048318E-007  0.1492060E+04  0.7818608E-02  0.8889750E-01
          1   -1    0    0  501    0  0.00000000000E+00  0.00000000000E+00  0.15657940018E+04  0.15657940018E+04  0.00000000000E+00 0. -1.
         -1   -1    0    0    0  501 -0.00000000000E+00 -0.00000000000E+00 -0.35544937436E+03  0.35544937436E+03  0.00000000000E+00 0.  1.
         23    2    1    2    0    0 -0.12999658642E+02  0.17520144195E+03 -0.17237336320E+03  0.26194636248E+03  0.89659266617E+02 0.  0.
        254    2    1    2    0    0  0.12999658642E+02 -0.17520144195E+03  0.13827179907E+04  0.16592970137E+04  0.90027384812E+03 0.  0.
        -24    2    4    4    0    0  0.41492471503E+03 -0.23250686365E+03  0.56484689032E+03  0.74274745821E+03  0.79998852342E+02 0.  0.
         24    2    4    4    0    0 -0.40192505639E+03  0.57305421699E+02  0.81787110036E+03  0.91654955552E+03  0.79512820345E+02 0.  0.
         13    1    3    3    0    0  0.15022511942E+02  0.54352965417E+02 -0.94623070768E+01  0.57179156778E+02  0.00000000000E+00 0. -1.
        -13    1    3    3    0    0 -0.28022170583E+02  0.12084847653E+03 -0.16291105612E+03  0.20476720570E+03  0.00000000000E+00 0.  1.
          2    1    6    6  502    0 -0.25082742802E+03  0.74422684077E+02  0.51552677927E+03  0.57811849538E+03  0.00000000000E+00 0. -1.
          1    1    5    5  503    0  0.29082795135E+03 -0.16686409662E+03  0.45108790318E+03  0.56205410810E+03  0.00000000000E+00 0. -1.
         -2    1    5    5    0  503  0.12409676368E+03 -0.65642767024E+02  0.11375898714E+03  0.18069335011E+03  0.00000000000E+00 0.  1.
         -1    1    6    6    0  502 -0.15109762837E+03 -0.17117262378E+02  0.30234432109E+03  0.33843106014E+03  0.00000000000E+00 0.  1.
<mgrwt>
<rscale>  0 0.14920596E+04</rscale>
<asrwt>0</asrwt>
<pdfrwt beam="1">  1        1 0.24089138E+00 0.14920596E+04</pdfrwt>
<pdfrwt beam="2">  1       -1 0.54684520E-01 0.14920596E+04</pdfrwt>
<totfact> 0.19265204E+01</totfact>
</mgrwt>
</event>
<event>
12    1  0.2048318E-007  0.1947030E+04  0.7818608E-02  0.8631794E-01
          1   -1    0    0  501    0  0.00000000000E+00  0.00000000000E+00  0.16733775049E+04  0.16733775049E+04  0.00000000000E+00 0. -1.
         -1   -1    0    0    0  501 -0.00000000000E+00 -0.00000000000E+00 -0.56635857878E+03  0.56635857878E+03  0.00000000000E+00 0.  1.
         23    2    1    2    0    0 -0.16318905783E+03  0.73725589909E+03  0.55635300449E+03  0.94216592278E+03  0.89280631176E+02 0.  0.
        254    2    1    2    0    0  0.16318905783E+03 -0.73725589909E+03  0.55066592160E+03  0.12975701609E+04  0.90015467328E+03 0.  0.
        -24    2    4    4    0    0  0.33048625404E+03 -0.14078817504E+03 -0.11404767663E+03  0.38560771645E+03  0.81510515314E+02 0.  0.
         24    2    4    4    0    0 -0.16729719620E+03 -0.59646772405E+03  0.66471359823E+03  0.91196244441E+03  0.77905292920E+02 0.  0.
         11    1    3    3    0    0 -0.24961695354E+02  0.11482582955E+03  0.48873050188E+02  0.12726599075E+03  0.00000000000E+00 0.  1.
        -11    1    3    3    0    0 -0.13822736248E+03  0.62243006954E+03  0.50747995431E+03  0.81489993203E+03  0.00000000000E+00 0. -1.
          4    1    6    6  502    0 -0.10835795139E+03 -0.46452265417E+03  0.54543347168E+03  0.72458292410E+03  0.00000000000E+00 0. -1.
          1    1    5    5  503    0  0.28294906039E+03 -0.98910968282E+02 -0.68183433592E+02  0.30739637447E+03  0.00000000000E+00 0. -1.
         -2    1    5    5    0  503  0.47537193646E+02 -0.41877206756E+02 -0.45864243033E+02  0.78211341981E+02  0.00000000000E+00 0.  1.
         -3    1    6    6    0  502 -0.58939244812E+02 -0.13194506988E+03  0.11928012654E+03  0.18737952031E+03  0.00000000000E+00 0.  1.
<mgrwt>
<rscale>  0 0.19470303E+04</rscale>
<asrwt>0</asrwt>
<pdfrwt beam="1">  1        1 0.25744269E+00 0.19470303E+04</pdfrwt>
<pdfrwt beam="2">  1       -1 0.87132090E-01 0.19470303E+04</pdfrwt>
<totfact> 0.60067235E+00</totfact>
</mgrwt>
</event>
<event>
12    1  0.2048318E-007  0.1762652E+04  0.7818608E-02  0.8726417E-01
         -2   -1    0    0    0  501 -0.00000000000E+00  0.00000000000E+00  0.11434316315E+04  0.11434316315E+04  0.00000000000E+00 0.  1.
          2   -1    0    0  501    0  0.00000000000E+00 -0.00000000000E+00 -0.67930193922E+03  0.67930193922E+03  0.00000000000E+00 0. -1.
         23    2    1    2    0    0 -0.31491860873E+03  0.48304914744E+03 -0.13201885090E+03  0.59859565542E+03  0.91529081343E+02 0.  0.
        254    2    1    2    0    0  0.31491860873E+03 -0.48304914744E+03  0.59614854318E+03  0.12241379153E+04  0.90033901457E+03 0.  0.
        -24    2    4    4    0    0  0.40017290865E+03  0.14042431648E+03  0.28967662779E+03  0.51972200145E+03  0.79630801967E+02 0.  0.
         24    2    4    4    0    0 -0.85254299921E+02 -0.62347346393E+03  0.30647191539E+03  0.70441591385E+03  0.79305036966E+02 0.  0.
         13    1    3    3    0    0 -0.23575061469E+03  0.41267729044E+03 -0.12969135061E+03  0.49264667338E+03  0.00000000000E+00 0. -1.
        -13    1    3    3    0    0 -0.79167994039E+02  0.70371857001E+02 -0.23275002902E+01  0.10594898204E+03  0.00000000000E+00 0.  1.
          2    1    6    6  502    0 -0.59866217053E+02 -0.18238519852E+03  0.10544711668E+03  0.21901465476E+03  0.00000000000E+00 0. -1.
          1    1    5    5  503    0  0.22560730046E+03  0.39922603750E+02  0.13677123243E+03  0.26683110451E+03  0.00000000000E+00 0. -1.
         -2    1    5    5    0  503  0.17456560819E+03  0.10050171273E+03  0.15290539536E+03  0.25289089694E+03  0.00000000000E+00 0.  1.
         -1    1    6    6    0  502 -0.25388082867E+02 -0.44108826541E+03  0.20102479871E+03  0.48540125909E+03  0.00000000000E+00 0.  1.
<mgrwt>
<rscale>  0 0.17626518E+04</rscale>
<asrwt>0</asrwt>
<pdfrwt beam="1">  1        2 0.10450799E+00 0.17626518E+04</pdfrwt>
<pdfrwt beam="2">  1       -2 0.17591256E+00 0.17626518E+04</pdfrwt>
<totfact> 0.77952615E+00</totfact>
</mgrwt>
</event>
<event>
12    1  0.2048318E-007  0.1902025E+04  0.7818608E-02  0.8653849E-01
         -2   -1    0    0    0  501 -0.00000000000E+00  0.00000000000E+00  0.58368382529E+03  0.58368382529E+03  0.00000000000E+00 0.  1.
          2   -1    0    0  501    0  0.00000000000E+00 -0.00000000000E+00 -0.15495121630E+04  0.15495121630E+04  0.00000000000E+00 0. -1.
         23    2    1    2    0    0 -0.54062094673E+03  0.40675017041E+03 -0.69699445344E+03  0.97562472226E+03  0.91244843132E+02 0.  0.
        254    2    1    2    0    0  0.54062094673E+03 -0.40675017041E+03 -0.26883388428E+03  0.11575712660E+04  0.89999048298E+03 0.  0.
        -24    2    4    4    0    0 -0.10835213440E+03 -0.13921759196E+03 -0.39505126040E+03  0.44021104417E+03  0.81231410958E+02 0.  0.
         24    2    4    4    0    0  0.64897308113E+03 -0.26753257845E+03  0.12621737612E+03  0.71736022187E+03  0.77039738579E+02 0.  0.
         13    1    3    3    0    0 -0.37807770850E+03  0.25392362761E+03 -0.51677839704E+03  0.68882499517E+03  0.00000000000E+00 0. -1.
        -13    1    3    3    0    0 -0.16254323823E+03  0.15282654280E+03 -0.18021605640E+03  0.28679972710E+03  0.00000000000E+00 0.  1.
          4    1    6    6  502    0  0.54158043302E+03 -0.25244801994E+03  0.10073170547E+03  0.60595894637E+03  0.00000000000E+00 0. -1.
          3    1    5    5  503    0 -0.77491118536E+02 -0.94645905089E+02 -0.34642079747E+03  0.36738275643E+03  0.00000000000E+00 0. -1.
         -4    1    5    5    0  503 -0.30861015866E+02 -0.44571686866E+02 -0.48630462930E+02  0.72828287740E+02  0.00000000000E+00 0.  1.
         -3    1    6    6    0  502  0.10739264811E+03 -0.15084558510E+02  0.25485670650E+02  0.11140127550E+03  0.00000000000E+00 0.  1.
<mgrwt>
<rscale>  0 0.19020254E+04</rscale>
<asrwt>0</asrwt>
<pdfrwt beam="1">  1        2 0.23838649E+00 0.19020254E+04</pdfrwt>
<pdfrwt beam="2">  1       -2 0.89797512E-01 0.19020254E+04</pdfrwt>
<totfact> 0.11841773E+01</totfact>
</mgrwt>
</event>
<event>
12    1  0.2048318E-007  0.4226466E+04  0.7818608E-02  0.7960357E-01
         -2   -1    0    0    0  501 -0.00000000000E+00  0.00000000000E+00  0.15460288436E+04  0.15460288436E+04  0.00000000000E+00 0.  1.
          2   -1    0    0  501    0  0.00000000000E+00 -0.00000000000E+00 -0.28885313390E+04  0.28885313390E+04  0.00000000000E+00 0. -1.
         23    2    1    2    0    0 -0.17084201620E+04 -0.11568430265E+03  0.47525077151E+03  0.17794277140E+04  0.91746310767E+02 0.  0.
        254    2    1    2    0    0  0.17084201620E+04  0.11568430265E+03 -0.18177532668E+04  0.26551324686E+04  0.90189754351E+03 0.  0.
        -24    2    4    4    0    0 -0.57657655455E+02  0.12712694546E+03 -0.21854108539E+03  0.27120784272E+03  0.79421800898E+02 0.  0.
         24    2    4    4    0    0  0.17660778175E+04 -0.11442642812E+02 -0.15992121815E+04  0.23839246259E+04  0.80344441230E+02 0.  0.
         13    1    3    3    0    0 -0.72136117872E+02 -0.19208817884E+01  0.16182741501E+01  0.72179831668E+02  0.00000000000E+00 0. -1.
        -13    1    3    3    0    0 -0.16362840442E+04 -0.11376342086E+03  0.47363249736E+03  0.17072478823E+04  0.00000000000E+00 0.  1.
          4    1    6    6  502    0  0.39984171758E+02 -0.12272587824E+02 -0.36029928466E+02  0.55204222197E+02  0.00000000000E+00 0. -1.
          1    1    5    5  503    0  0.12401946234E+02  0.67120027014E+02 -0.88178546932E+02  0.11150947240E+03  0.00000000000E+00 0. -1.
         -2    1    5    5    0  503 -0.70059601689E+02  0.60006918445E+02 -0.13036253846E+03  0.15969837032E+03  0.00000000000E+00 0.  1.
         -3    1    6    6    0  502  0.17260936457E+04  0.82994501206E+00 -0.15631822530E+04  0.23287204037E+04  0.00000000000E+00 0.  1.
<mgrwt>
<rscale>  0 0.42264656E+04</rscale>
<asrwt>0</asrwt>
<pdfrwt beam="1">  1        2 0.44438943E+00 0.42264656E+04</pdfrwt>
<pdfrwt beam="2">  1       -2 0.23785059E+00 0.42264656E+04</pdfrwt>
<totfact> 0.12077539E-01</totfact>
</mgrwt>
</event>
<event>
12    1  0.2048318E-007  0.2394054E+04  0.7818608E-02  0.8441733E-01
          1   -1    0    0  501    0  0.00000000000E+00  0.00000000000E+00  0.80541620688E+03  0.80541620688E+03  0.00000000000E+00 0. -1.
         -1   -1    0    0    0  501 -0.00000000000E+00 -0.00000000000E+00 -0.17790477681E+04  0.17790477681E+04  0.00000000000E+00 0.  1.
         23    2    1    2    0    0 -0.26586531313E+03  0.24409145187E+03  0.61841856533E+03  0.72195215064E+03  0.92240903404E+02 0.  0.
        254    2    1    2    0    0  0.26586531313E+03 -0.24409145187E+03 -0.15920501265E+04  0.18625118243E+04  0.89669486936E+03 0.  0.
        -24    2    4    4    0    0  0.47200344984E+03 -0.29577373924E+03 -0.51793488165E+03  0.76454800296E+03  0.77509649144E+02 0.  0.
         24    2    4    4    0    0 -0.20613813671E+03  0.51682287378E+02 -0.10741152449E+04  0.10979638213E+04  0.81467806510E+02 0.  0.
         11    1    3    3    0    0 -0.26094798199E+03  0.21321677165E+03  0.52887484881E+03  0.62710752405E+03  0.00000000000E+00 0. -1.
        -11    1    3    3    0    0 -0.49173311482E+01  0.30874680219E+02  0.89543716523E+02  0.94844626590E+02  0.00000000000E+00 0.  1.
          4    1    6    6  502    0 -0.53953184812E+02 -0.73503756737E+01 -0.43231671509E+03  0.43573239071E+03  0.00000000000E+00 0. -1.
          3    1    5    5  503    0  0.10065698789E+03 -0.85336365843E+02 -0.16080119040E+03  0.20801718049E+03  0.00000000000E+00 0. -1.
         -4    1    5    5    0  503  0.37134646195E+03 -0.21043737340E+03 -0.35713369125E+03  0.55653082246E+03  0.00000000000E+00 0.  1.
         -3    1    6    6    0  502 -0.15218495189E+03  0.59032663051E+02 -0.64179852978E+03  0.66223143063E+03  0.00000000000E+00 0.  1.
<mgrwt>
<rscale>  0 0.23940542E+04</rscale>
<asrwt>0</asrwt>
<pdfrwt beam="1">  1        1 0.12391019E+00 0.23940542E+04</pdfrwt>
<pdfrwt beam="2">  1       -1 0.27369965E+00 0.23940542E+04</pdfrwt>
<totfact> 0.95872967E-01</totfact>
</mgrwt>
</event>
<event>
12    1  0.2048318E-007  0.1530775E+04  0.7818608E-02  0.8864242E-01
          2   -1    0    0  501    0  0.00000000000E+00  0.00000000000E+00  0.19182143863E+04  0.19182143863E+04  0.00000000000E+00 0.  1.
         -2   -1    0    0    0  501 -0.00000000000E+00 -0.00000000000E+00 -0.30539760440E+03  0.30539760440E+03  0.00000000000E+00 0. -1.
         23    2    1    2    0    0  0.41812563774E+03  0.18984723079E+03  0.26069511816E+03  0.53505663578E+03  0.86328667834E+02 0.  0.
        254    2    1    2    0    0 -0.41812563774E+03 -0.18984723079E+03  0.13521216637E+04  0.16885553549E+04  0.90117433003E+03 0.  0.
        -24    2    4    4    0    0 -0.18795779329E+03 -0.54420637649E+03  0.78744586423E+03  0.97875371534E+03  0.79994586818E+02 0.  0.
         24    2    4    4    0    0 -0.23016784445E+03  0.35435914570E+03  0.56467579946E+03  0.70980163954E+03  0.80074766620E+02 0.  0.
         11    1    3    3    0    0  0.39338412564E+02  0.74709993332E+01 -0.63622258861E+00  0.40046614254E+02  0.00000000000E+00 0. -1.
        -11    1    3    3    0    0  0.37878722517E+03  0.18237623145E+03  0.26133134075E+03  0.49501002153E+03  0.00000000000E+00 0.  1.
          4    1    6    6  502    0 -0.10760367526E+03  0.18986470981E+03  0.35316675127E+03  0.41515528801E+03  0.00000000000E+00 0. -1.
          3    1    5    5  503    0 -0.86440076822E+02 -0.24096135109E+03  0.28418036800E+03  0.38248234097E+03  0.00000000000E+00 0. -1.
         -4    1    5    5    0  503 -0.10151771646E+03 -0.30324502539E+03  0.50326549624E+03  0.59627137436E+03  0.00000000000E+00 0.  1.
         -3    1    6    6    0  502 -0.12256416919E+03  0.16449443588E+03  0.21150904818E+03  0.29464635153E+03  0.00000000000E+00 0.  1.
<mgrwt>
<rscale>  0 0.15307751E+04</rscale>
<asrwt>0</asrwt>
<pdfrwt beam="1">  1        2 0.29510990E+00 0.15307751E+04</pdfrwt>
<pdfrwt beam="2">  1       -2 0.46984248E-01 0.15307751E+04</pdfrwt>
<totfact> 0.30711435E+01</totfact>
</mgrwt>
</event>
<event>
12    1  0.2048318E-007  0.1700360E+04  0.7818608E-02  0.8761159E-01
         -2   -1    0    0    0  501 -0.00000000000E+00  0.00000000000E+00  0.56144510253E+03  0.56144510253E+03  0.00000000000E+00 0.  1.
          2   -1    0    0  501    0  0.00000000000E+00 -0.00000000000E+00 -0.12874024230E+04  0.12874024230E+04  0.00000000000E+00 0. -1.
         23    2    1    2    0    0 -0.54458412389E+03  0.12371827768E+03 -0.13460881538E+01  0.56576243037E+03  0.90593793627E+02 0.  0.
        254    2    1    2    0    0  0.54458412389E+03 -0.12371827768E+03 -0.72461123228E+03  0.12830850951E+04  0.89964873321E+03 0.  0.
        -24    2    4    4    0    0  0.23545393608E+03 -0.74180100146E+02  0.18447856215E+03  0.31827880154E+03  0.79547547690E+02 0.  0.
         24    2    4    4    0    0  0.30913018780E+03 -0.49538177535E+02 -0.90908979443E+03  0.96480629358E+03  0.79946393053E+02 0.  0.
         11    1    3    3    0    0 -0.26139743260E+03  0.54247587957E+02  0.44331924719E+02  0.27062287065E+03  0.00000000000E+00 0.  1.
        -11    1    3    3    0    0 -0.28318669128E+03  0.69470689724E+02 -0.45678012873E+02  0.29513955972E+03  0.00000000000E+00 0. -1.
          4    1    6    6  502    0  0.36143907974E+02 -0.33233751416E+02 -0.11925140622E+03  0.12896418961E+03  0.00000000000E+00 0. -1.
          1    1    5    5  503    0 -0.34362142084E+01 -0.75490444964E+01 -0.13122652909E+01  0.83974806394E+01  0.00000000000E+00 0. -1.
         -2    1    5    5    0  503  0.23889015029E+03 -0.66631055650E+02  0.18579082744E+03  0.30988132090E+03  0.00000000000E+00 0.  1.
         -3    1    6    6    0  502  0.27298627983E+03 -0.16304426119E+02 -0.78983838821E+03  0.83584210397E+03  0.00000000000E+00 0.  1.
<mgrwt>
<rscale>  0 0.17003597E+04</rscale>
<asrwt>0</asrwt>
<pdfrwt beam="1">  1        2 0.19806191E+00 0.17003597E+04</pdfrwt>
<pdfrwt beam="2">  1       -2 0.86376170E-01 0.17003597E+04</pdfrwt>
<totfact> 0.18585321E+01</totfact>
</mgrwt>
</event>
<event>
12    1  0.2048318E-007  0.1433073E+04  0.7818608E-02  0.8930220E-01
         -1   -1    0    0    0  501 -0.00000000000E+00  0.00000000000E+00  0.56472054573E+03  0.56472054573E+03  0.00000000000E+00 0.  1.
          1   -1    0    0  501    0  0.00000000000E+00 -0.00000000000E+00 -0.90916632483E+03  0.90916632483E+03  0.00000000000E+00 0. -1.
         23    2    1    2    0    0 -0.38989826605E+02  0.36308245259E+03  0.13126611811E+03  0.39851458702E+03  0.90741436775E+02 0.  0.
        254    2    1    2    0    0  0.38989826605E+02 -0.36308245259E+03 -0.47571189721E+03  0.10753722835E+04  0.89262235303E+03 0.  0.
        -24    2    4    4    0    0  0.26964187908E+03  0.15879477072E+03 -0.36739449503E+03  0.48926052590E+03  0.80465054927E+02 0.  0.
         24    2    4    4    0    0 -0.23065205248E+03 -0.52187722331E+03 -0.10831740218E+03  0.58611175765E+03  0.78981816387E+02 0.  0.
         11    1    3    3    0    0  0.22838784996E+02  0.13821708951E+03  0.73740951008E+02  0.15831393428E+03  0.00000000000E+00 0.  1.
        -11    1    3    3    0    0 -0.61828611601E+02  0.22486536308E+03  0.57525167099E+02  0.24020065274E+03  0.00000000000E+00 0. -1.
          2    1    6    6  502    0 -0.23198692748E+03 -0.47846992719E+03 -0.10841738466E+03  0.54268382603E+03  0.00000000000E+00 0. -1.
          3    1    5    5  503    0  0.26713694219E+03  0.16385888071E+03 -0.34466271324E+03  0.46583716529E+03  0.00000000000E+00 0. -1.
         -4    1    5    5    0  503  0.25049368929E+01 -0.50641099924E+01 -0.22731781789E+02  0.23423360608E+02  0.00000000000E+00 0.  1.
         -1    1    6    6    0  502  0.13348750015E+01 -0.43407296121E+02  0.99982479485E-01  0.43427931614E+02  0.00000000000E+00 0.  1.
<mgrwt>
<rscale>  0 0.14330735E+04</rscale>
<asrwt>0</asrwt>
<pdfrwt beam="1">  1        1 0.13987174E+00 0.14330735E+04</pdfrwt>
<pdfrwt beam="2">  1       -1 0.86880084E-01 0.14330735E+04</pdfrwt>
<totfact> 0.22711887E+01</totfact>
</mgrwt>
</event>
<event>
12    1  0.2048318E-007  0.3243193E+04  0.7818608E-02  0.8177502E-01
         -2   -1    0    0    0  501 -0.00000000000E+00  0.00000000000E+00  0.16787896994E+04  0.16787896994E+04  0.00000000000E+00 0.  1.
          2   -1    0    0  501    0  0.00000000000E+00 -0.00000000000E+00 -0.15663512988E+04  0.15663512988E+04  0.00000000000E+00 0. -1.
         23    2    1    2    0    0 -0.81604468548E+03  0.12241131618E+04 -0.21431855208E+03  0.14896410567E+04  0.93359919645E+02 0.  0.
        254    2    1    2    0    0  0.81604468548E+03 -0.12241131618E+04  0.32675695270E+03  0.17554999416E+04  0.90034880863E+03 0.  0.
        -24    2    4    4    0    0  0.67979625607E+03 -0.13284040426E+04  0.15739044914E+03  0.15026476028E+04  0.79986338570E+02 0.  0.
         24    2    4    4    0    0  0.13624842942E+03  0.10429088088E+03  0.16936650356E+03  0.25285233880E+03  0.76217257588E+02 0.  0.
         13    1    3    3    0    0 -0.16799311030E+03  0.19187158535E+03 -0.25508506636E+02  0.25629489711E+03  0.00000000000E+00 0.  1.
        -13    1    3    3    0    0 -0.64805157519E+03  0.10322415764E+04 -0.18881004545E+03  0.12333461596E+04  0.00000000000E+00 0. -1.
          4    1    6    6  502    0 -0.27251197524E+01  0.29370610142E+02  0.21106396520E+02  0.36270359687E+02  0.00000000000E+00 0. -1.
          1    1    5    5  503    0  0.25550974716E+00 -0.18254121805E+02 -0.96107656624E+00  0.18281190231E+02  0.00000000000E+00 0. -1.
         -2    1    5    5    0  503  0.67954074632E+03 -0.13101499208E+04  0.15835152570E+03  0.14843664125E+04  0.00000000000E+00 0.  1.
         -3    1    6    6    0  502  0.13897354917E+03  0.74920270740E+02  0.14826010704E+03  0.21658197911E+03  0.00000000000E+00 0.  1.
<mgrwt>
<rscale>  0 0.32431925E+04</rscale>
<asrwt>0</asrwt>
<pdfrwt beam="1">  1        2 0.24097712E+00 0.32431925E+04</pdfrwt>
<pdfrwt beam="2">  1       -2 0.25827534E+00 0.32431925E+04</pdfrwt>
<totfact> 0.55868167E-01</totfact>
</mgrwt>
</event>
<event>
12    1  0.2048318E-007  0.2464642E+04  0.7818608E-02  0.8415691E-01
          1   -1    0    0  501    0  0.00000000000E+00  0.00000000000E+00  0.23635519171E+04  0.23635519171E+04  0.00000000000E+00 0. -1.
         -1   -1    0    0    0  501 -0.00000000000E+00 -0.00000000000E+00 -0.64251398019E+03  0.64251398019E+03  0.00000000000E+00 0.  1.
         23    2    1    2    0    0 -0.20828117059E+01 -0.66401393003E+03 -0.26775887246E+03  0.72231800152E+03  0.95549171450E+02 0.  0.
        254    2    1    2    0    0  0.20828117059E+01  0.66401393003E+03  0.19887968093E+04  0.22837478957E+04  0.90513693169E+03 0.  0.
        -24    2    4    4    0    0 -0.17475938677E+02 -0.13772854026E+03  0.97830980153E+03  0.99128528779E+03  0.79258405218E+02 0.  0.
         24    2    4    4    0    0  0.19558750383E+02  0.80174247028E+03  0.10104870078E+04  0.12924626080E+04  0.78753200768E+02 0.  0.
         11    1    3    3    0    0  0.20631280339E+02 -0.29151266201E+03 -0.72366988833E+02  0.30106853524E+03  0.00000000000E+00 0. -1.
        -11    1    3    3    0    0 -0.22714092045E+02 -0.37250126802E+03 -0.19539188363E+03  0.42124946628E+03  0.00000000000E+00 0.  1.
          4    1    6    6  502    0  0.17197796300E+02  0.76182523928E+03  0.92783744345E+03  0.12006480670E+04  0.00000000000E+00 0. -1.
          1    1    5    5  503    0  0.26199282140E+02 -0.90154468989E+02  0.51373693112E+03  0.52224502397E+03  0.00000000000E+00 0. -1.
         -2    1    5    5    0  503 -0.43675220818E+02 -0.47574071266E+02  0.46457287041E+03  0.46904026383E+03  0.00000000000E+00 0.  1.
         -3    1    6    6    0  502  0.23609540828E+01  0.39917230997E+02  0.82649564365E+02  0.91814540921E+02  0.00000000000E+00 0.  1.
<mgrwt>
<rscale>  0 0.24646421E+04</rscale>
<asrwt>0</asrwt>
<pdfrwt beam="1">  1        1 0.36362337E+00 0.24646421E+04</pdfrwt>
<pdfrwt beam="2">  1       -1 0.98848306E-01 0.24646421E+04</pdfrwt>
<totfact> 0.14675704E+00</totfact>
</mgrwt>
</event>
<event>
12    1  0.2048318E-007  0.2048947E+04  0.7818608E-02  0.8584072E-01
          1   -1    0    0  501    0  0.00000000000E+00  0.00000000000E+00  0.28717905138E+04  0.28717905138E+04  0.00000000000E+00 0. -1.
         -1   -1    0    0    0  501 -0.00000000000E+00 -0.00000000000E+00 -0.36546759252E+03  0.36546759252E+03  0.00000000000E+00 0.  1.
         23    2    1    2    0    0  0.45479712963E+03  0.62477347599E+03  0.14648075649E+04  0.16585230120E+04  0.88628741900E+02 0.  0.
        254    2    1    2    0    0 -0.45479712963E+03 -0.62477347599E+03  0.10415153564E+04  0.15787350943E+04  0.90025992634E+03 0.  0.
        -24    2    4    4    0    0 -0.80602043712E+02 -0.62545803098E+03  0.10089234049E+04  0.11925084481E+04  0.80346274819E+02 0.  0.
         24    2    4    4    0    0 -0.37419508592E+03  0.68455499080E+00  0.32591951587E+02  0.38622664627E+03  0.89924168292E+02 0.  0.
         11    1    3    3    0    0  0.38955052339E+02  0.19863702012E+02  0.77828154246E+02  0.89270848286E+02  0.00000000000E+00 0.  1.
        -11    1    3    3    0    0  0.41584207729E+03  0.60490977397E+03  0.13869794106E+04  0.15692521637E+04  0.00000000000E+00 0. -1.
          2    1    6    6  502    0 -0.24348045169E+03  0.37164133691E+02  0.43370369880E+02  0.25008976823E+03  0.00000000000E+00 0. -1.
          3    1    5    5  503    0 -0.13953594431E+02 -0.29188136028E+02  0.28738748356E+02  0.43273152640E+02  0.00000000000E+00 0. -1.
         -4    1    5    5    0  503 -0.66648449281E+02 -0.59626989495E+03  0.98018465651E+03  0.11492352954E+04  0.00000000000E+00 0.  1.
         -3    1    6    6    0  502 -0.13071463423E+03 -0.36479578700E+02 -0.10778418293E+02  0.13613687805E+03  0.00000000000E+00 0.  1.
<mgrwt>
<rscale>  0 0.20489474E+04</rscale>
<asrwt>0</asrwt>
<pdfrwt beam="1">  1        1 0.44181391E+00 0.20489474E+04</pdfrwt>
<pdfrwt beam="2">  1       -1 0.56225785E-01 0.20489474E+04</pdfrwt>
<totfact> 0.21915220E+00</totfact>
</mgrwt>
</event>
<event>
12    1  0.2048318E-007  0.1342423E+04  0.7818608E-02  0.8996584E-01
          1   -1    0    0  501    0  0.00000000000E+00  0.00000000000E+00  0.14390156614E+04  0.14390156614E+04  0.00000000000E+00 0. -1.
         -1   -1    0    0    0  501 -0.00000000000E+00 -0.00000000000E+00 -0.31307851116E+03  0.31307851116E+03  0.00000000000E+00 0.  1.
         23    2    1    2    0    0  0.20606200096E+03  0.28655248296E+03  0.41092228211E+03  0.54936482663E+03  0.91491622958E+02 0.  0.
        254    2    1    2    0    0 -0.20606200096E+03 -0.28655248296E+03  0.71501486809E+03  0.12027293459E+04  0.90040976458E+03 0.  0.
        -24    2    4    4    0    0 -0.43075427335E+03  0.15540542336E+03  0.34948851362E+03  0.58161456071E+03  0.80207147142E+02 0.  0.
         24    2    4    4    0    0  0.22469227240E+03 -0.44195790632E+03  0.36552635447E+03  0.62111478519E+03  0.79753697925E+02 0.  0.
         11    1    3    3    0    0  0.18188808709E+03  0.25190705588E+03  0.39853223239E+03  0.50533986710E+03  0.00000000000E+00 0. -1.
        -11    1    3    3    0    0  0.24173913864E+02  0.34645427081E+02  0.12390049719E+02  0.44024959525E+02  0.00000000000E+00 0.  1.
          4    1    6    6  502    0  0.18683843974E+03 -0.31745574163E+03  0.30187931797E+03  0.47625400059E+03  0.00000000000E+00 0. -1.
          1    1    5    5  503    0 -0.35385685668E+03  0.12561737657E+03  0.24436547407E+03  0.44800545224E+03  0.00000000000E+00 0. -1.
         -2    1    5    5    0  503 -0.76897416673E+02  0.29788046790E+02  0.10512303954E+03  0.13360910847E+03  0.00000000000E+00 0.  1.
         -3    1    6    6    0  502  0.37853832653E+02 -0.12450216469E+03  0.63647036502E+02  0.14486078460E+03  0.00000000000E+00 0.  1.
<mgrwt>
<rscale>  0 0.13424230E+04</rscale>
<asrwt>0</asrwt>
<pdfrwt beam="1">  1        1 0.22138702E+00 0.13424230E+04</pdfrwt>
<pdfrwt beam="2">  1       -1 0.48165925E-01 0.13424230E+04</pdfrwt>
<totfact> 0.30441262E+01</totfact>
</mgrwt>
</event>
<event>
12    1  0.2048318E-007  0.1589806E+04  0.7818608E-02  0.8826835E-01
         -2   -1    0    0    0  501 -0.00000000000E+00  0.00000000000E+00  0.10205605592E+04  0.10205605592E+04  0.00000000000E+00 0.  1.
          2   -1    0    0  501    0  0.00000000000E+00 -0.00000000000E+00 -0.61914126269E+03  0.61914126269E+03  0.00000000000E+00 0. -1.
         23    2    1    2    0    0  0.28971952229E+03 -0.34183349414E+03  0.43905223018E+03  0.63397901702E+03  0.91514992695E+02 0.  0.
        254    2    1    2    0    0 -0.28971952229E+03  0.34183349414E+03 -0.37632933714E+02  0.10057228048E+04  0.89959690035E+03 0.  0.
        -24    2    4    4    0    0 -0.50730514488E+02 -0.27274353904E+03  0.13659334956E+03  0.31935257874E+03  0.79785357126E+02 0.  0.
         24    2    4    4    0    0 -0.23898900780E+03  0.61457703319E+03 -0.17422628327E+03  0.68637022609E+03  0.76997492855E+02 0.  0.
         11    1    3    3    0    0  0.16801241464E+03 -0.14241510301E+03  0.25210292433E+03  0.33476277794E+03  0.00000000000E+00 0. -1.
        -11    1    3    3    0    0  0.12170710765E+03 -0.19941839113E+03  0.18694930585E+03  0.29921623908E+03  0.00000000000E+00 0.  1.
          2    1    6    6  502    0 -0.22171893281E+03  0.56185384817E+03 -0.13641763542E+03  0.61923243061E+03  0.00000000000E+00 0. -1.
          1    1    5    5  503    0 -0.48095522942E+02 -0.20748871270E+03  0.65541754520E+02  0.22284628517E+03  0.00000000000E+00 0. -1.
         -2    1    5    5    0  503 -0.26349915459E+01 -0.65254826338E+02  0.71051595040E+02  0.96506293570E+02  0.00000000000E+00 0.  1.
         -1    1    6    6    0  502 -0.17270074990E+02  0.52723185020E+02 -0.37808647857E+02  0.67137795477E+02  0.00000000000E+00 0.  1.
<mgrwt>
<rscale>  0 0.15898065E+04</rscale>
<asrwt>0</asrwt>
<pdfrwt beam="1">  1        2 0.95252502E-01 0.15898065E+04</pdfrwt>
<pdfrwt beam="2">  1       -2 0.15700932E+00 0.15898065E+04</pdfrwt>
<totfact> 0.12137066E+01</totfact>
</mgrwt>
</event>
<event>
12    1  0.2048318E-007  0.1903760E+04  0.7818608E-02  0.8652987E-01
          1   -1    0    0  501    0  0.00000000000E+00  0.00000000000E+00  0.89122713913E+03  0.89122713913E+03  0.00000000000E+00 0. -1.
         -1   -1    0    0    0  501 -0.00000000000E+00 -0.00000000000E+00 -0.10166601188E+04  0.10166601188E+04  0.00000000000E+00 0.  1.
         23    2    1    2    0    0  0.41773104995E+03  0.16774270416E+03  0.53509220901E+03  0.70492166314E+03  0.89185391870E+02 0.  0.
        254    2    1    2    0    0 -0.41773104995E+03 -0.16774270416E+03 -0.66052518873E+03  0.12029655948E+04  0.89899713709E+03 0.  0.
        -24    2    4    4    0    0 -0.30474217378E+03 -0.28059807519E+03  0.90620809489E+02  0.43108467089E+03  0.77580861539E+02 0.  0.
         24    2    4    4    0    0 -0.11298887617E+03  0.11285537104E+03 -0.75114599822E+03  0.77188092395E+03  0.77955302552E+02 0.  0.
         11    1    3    3    0    0  0.79611296567E+02  0.51229798083E+02  0.67626820223E+02  0.11634361850E+03  0.00000000000E+00 0.  1.
        -11    1    3    3    0    0  0.33811975339E+03  0.11651290608E+03  0.46746538879E+03  0.58857804464E+03  0.00000000000E+00 0. -1.
          4    1    6    6  502    0 -0.20981701707E+02 -0.10783490601E+02 -0.10005157852E+03  0.10279510611E+03  0.00000000000E+00 0. -1.
          1    1    5    5  503    0 -0.19080658321E+03 -0.18440911527E+03  0.95168495232E+02  0.28190586456E+03  0.00000000000E+00 0. -1.
         -2    1    5    5    0  503 -0.11393559057E+03 -0.96188959928E+02 -0.45476857433E+01  0.14917880632E+03  0.00000000000E+00 0.  1.
         -3    1    6    6    0  502 -0.92007174465E+02  0.12363886164E+03 -0.65109441970E+03  0.66908581783E+03  0.00000000000E+00 0.  1.
<mgrwt>
<rscale>  0 0.19037595E+04</rscale>
<asrwt>0</asrwt>
<pdfrwt beam="1">  1        1 0.13711187E+00 0.19037595E+04</pdfrwt>
<pdfrwt beam="2">  1       -1 0.15640925E+00 0.19037595E+04</pdfrwt>
<totfact> 0.53867402E+00</totfact>
</mgrwt>
</event>
<event>
12    1  0.4705457E-007  0.2400640E+04  0.7818608E-02  0.8439264E-01
          1   -1    0    0  501    0  0.00000000000E+00  0.00000000000E+00  0.19371223109E+04  0.19371223109E+04  0.00000000000E+00 0. -1.
         -1   -1    0    0    0  501 -0.00000000000E+00 -0.00000000000E+00 -0.74376733131E+03  0.74376733131E+03  0.00000000000E+00 0.  1.
         23    2    1    2    0    0 -0.95352651027E+03  0.23288339356E+03  0.16178140800E+03  0.99908059469E+03  0.92419315798E+02 0.  0.
        254    2    1    2    0    0  0.95352651027E+03 -0.23288339356E+03  0.10315735716E+04  0.16818090475E+04  0.89492466608E+03 0.  0.
        -24    2    4    4    0    0  0.47179636479E+03 -0.18084078197E+03  0.10735938152E+04  0.11890715703E+04  0.77410082734E+02 0.  0.
         24    2    4    4    0    0  0.48173014547E+03 -0.52042611596E+02 -0.42020243630E+02  0.49273747725E+03  0.79070564299E+02 0.  0.
         11    1    3    3    0    0 -0.37255273821E+03  0.13604958999E+03  0.53238058358E+02  0.40017411778E+03  0.00000000000E+00 0.  1.
        -11    1    3    3    0    0 -0.58097377206E+03  0.96833803577E+02  0.10854334965E+03  0.59890647691E+03  0.00000000000E+00 0. -1.
          2    1    6    6  502    0  0.44440360472E+03 -0.26240841631E+02 -0.32418363540E+02  0.44635646735E+03  0.00000000000E+00 0. -1.
          3    1    5    5  503    0  0.41656711570E+03 -0.16615343452E+03  0.99943188057E+03  0.10954447542E+04  0.00000000000E+00 0. -1.
         -4    1    5    5    0  503  0.55229249098E+02 -0.14687347452E+02  0.74161934638E+02  0.93626816032E+02  0.00000000000E+00 0.  1.
         -1    1    6    6    0  502  0.37326540755E+02 -0.25801769965E+02 -0.96018800900E+01  0.46381009900E+02  0.00000000000E+00 0.  1.
<mgrwt>
<rscale>  0 0.24006402E+04</rscale>
<asrwt>0</asrwt>
<pdfrwt beam="1">  1        1 0.29801882E+00 0.24006402E+04</pdfrwt>
<pdfrwt beam="2">  1       -1 0.11442574E+00 0.24006402E+04</pdfrwt>
<totfact> 0.20462820E+00</totfact>
</mgrwt>
</event>
<event>
12    1  0.2048318E-007  0.2491858E+04  0.7818608E-02  0.8405892E-01
          1   -1    0    0  501    0  0.00000000000E+00  0.00000000000E+00  0.31651970824E+04  0.31651970824E+04  0.00000000000E+00 0. -1.
         -1   -1    0    0    0  501 -0.00000000000E+00 -0.00000000000E+00 -0.49044007275E+03  0.49044007275E+03  0.00000000000E+00 0.  1.
         23    2    1    2    0    0  0.26647267934E+03  0.10429710816E+04  0.12186051967E+04  0.16285756093E+04  0.91997412282E+02 0.  0.
        254    2    1    2    0    0 -0.26647267934E+03 -0.10429710816E+04  0.14561518129E+04  0.20270615459E+04  0.91093580598E+03 0.  0.
        -24    2    4    4    0    0 -0.33602722185E+03 -0.18123501995E+03  0.79688129741E+02  0.39975464455E+03  0.87710612430E+02 0.  0.
         24    2    4    4    0    0  0.69554542516E+02 -0.86173606160E+03  0.13764636832E+04  0.16273069013E+04  0.77772782343E+02 0.  0.
         13    1    3    3    0    0  0.23568272751E+03  0.98259864145E+03  0.11650216150E+04  0.15421808589E+04  0.00000000000E+00 0. -1.
        -13    1    3    3    0    0  0.30789951824E+02  0.60372440105E+02  0.53583581703E+02  0.86394750337E+02  0.00000000000E+00 0.  1.
          4    1    6    6  502    0  0.49845417140E+02 -0.79592531766E+03  0.12936467273E+04  0.15197050806E+04  0.00000000000E+00 0. -1.
          1    1    5    5  503    0 -0.27015058691E+03 -0.10592824862E+03  0.43822486969E+02  0.29346642709E+03  0.00000000000E+00 0. -1.
         -2    1    5    5    0  503 -0.65876634946E+02 -0.75306771329E+02  0.35865642771E+02  0.10628821746E+03  0.00000000000E+00 0.  1.
         -3    1    6    6    0  502  0.19709125376E+02 -0.65810743938E+02  0.82816955885E+02  0.10760182072E+03  0.00000000000E+00 0.  1.
<mgrwt>
<rscale>  0 0.24918583E+04</rscale>
<asrwt>0</asrwt>
<pdfrwt beam="1">  1        1 0.48695338E+00 0.24918583E+04</pdfrwt>
<pdfrwt beam="2">  1       -1 0.75452321E-01 0.24918583E+04</pdfrwt>
<totfact> 0.70862884E-01</totfact>
</mgrwt>
</event>
<event>
12    1  0.2048318E-007  0.1472998E+04  0.7818608E-02  0.8902610E-01
         -2   -1    0    0    0  501 -0.00000000000E+00  0.00000000000E+00  0.26377093993E+03  0.26377093993E+03  0.00000000000E+00 0.  1.
          2   -1    0    0  501    0  0.00000000000E+00 -0.00000000000E+00 -0.20564471876E+04  0.20564471876E+04  0.00000000000E+00 0. -1.
         23    2    1    2    0    0  0.15191347620E+03 -0.42981360006E+03 -0.60287750312E+03  0.76127122495E+03  0.90857906210E+02 0.  0.
        254    2    1    2    0    0 -0.15191347620E+03  0.42981360006E+03 -0.11897987446E+04  0.15589469026E+04  0.89826330074E+03 0.  0.
        -24    2    4    4    0    0  0.21415682730E+03  0.67121937814E+02 -0.96007469581E+03  0.98926828752E+03  0.80869165604E+02 0.  0.
         24    2    4    4    0    0 -0.36607030350E+03  0.36269166225E+03 -0.22972404876E+03  0.56967861507E+03  0.78790081301E+02 0.  0.
         11    1    3    3    0    0  0.11287125532E+03 -0.18564495395E+03 -0.29566057309E+03  0.36690481557E+03  0.00000000000E+00 0.  1.
        -11    1    3    3    0    0  0.39042220882E+02 -0.24416864611E+03 -0.30721693003E+03  0.39436640939E+03  0.00000000000E+00 0. -1.
          2    1    6    6  502    0 -0.26630802830E+03  0.30878233897E+03 -0.17401727145E+03  0.44333791802E+03  0.00000000000E+00 0. -1.
          3    1    5    5  503    0  0.21951096849E+03  0.60360879084E+02 -0.94357670315E+03  0.97065209820E+03  0.00000000000E+00 0. -1.
         -4    1    5    5    0  503 -0.53541411917E+01  0.67610587295E+01 -0.16497992659E+02  0.18616189321E+02  0.00000000000E+00 0.  1.
         -1    1    6    6    0  502 -0.99762275204E+02  0.53909323283E+02 -0.55706777312E+02  0.12634069704E+03  0.00000000000E+00 0.  1.
<mgrwt>
<rscale>  0 0.14729983E+04</rscale>
<asrwt>0</asrwt>
<pdfrwt beam="1">  1        2 0.31637648E+00 0.14729983E+04</pdfrwt>
<pdfrwt beam="2">  1       -2 0.40580146E-01 0.14729983E+04</pdfrwt>
<totfact> 0.34612190E+01</totfact>
</mgrwt>
</event>
<event>
12    1  0.2048318E-007  0.2241876E+04  0.7818608E-02  0.8501198E-01
          2   -1    0    0  501    0  0.00000000000E+00  0.00000000000E+00  0.26987087142E+04  0.26987087142E+04  0.00000000000E+00 0.  1.
         -2   -1    0    0    0  501 -0.00000000000E+00 -0.00000000000E+00 -0.46559362919E+03  0.46559362919E+03  0.00000000000E+00 0. -1.
         23    2    1    2    0    0  0.40989015612E+03  0.84135678492E+03  0.84382550940E+03  0.12629757574E+04  0.84705925635E+02 0.  0.
        254    2    1    2    0    0 -0.40989015612E+03 -0.84135678492E+03  0.13892895756E+04  0.19013265860E+04  0.89945877174E+03 0.  0.
        -24    2    4    4    0    0  0.77934880531E+02 -0.40199199069E+03  0.11050190438E+04  0.11812045735E+04  0.80658235618E+02 0.  0.
         24    2    4    4    0    0 -0.48782503665E+03 -0.43936479423E+03  0.28427053173E+03  0.72012201248E+03  0.82166226985E+02 0.  0.
         13    1    3    3    0    0  0.28915294126E+03  0.65544341911E+03  0.61186372925E+03  0.94212139466E+03  0.00000000000E+00 0. -1.
        -13    1    3    3    0    0  0.12073721486E+03  0.18591336581E+03  0.23196178015E+03  0.32085436274E+03  0.00000000000E+00 0.  1.
          2    1    6    6  502    0 -0.27140725458E+03 -0.20241217200E+03  0.17494119668E+03  0.38109973433E+03  0.00000000000E+00 0. -1.
          1    1    5    5  503    0  0.76974007408E+02 -0.29099830523E+03  0.71698073037E+03  0.77760297015E+03  0.00000000000E+00 0. -1.
         -2    1    5    5    0  503  0.96087312337E+00 -0.11099368547E+03  0.38803831346E+03  0.40360160332E+03  0.00000000000E+00 0.  1.
         -1    1    6    6    0  502 -0.21641778207E+03 -0.23695262223E+03  0.10932933505E+03  0.33902227815E+03  0.00000000000E+00 0.  1.
<mgrwt>
<rscale>  0 0.22418756E+04</rscale>
<asrwt>0</asrwt>
<pdfrwt beam="1">  1        2 0.41518595E+00 0.22418756E+04</pdfrwt>
<pdfrwt beam="2">  1       -2 0.71629791E-01 0.22418756E+04</pdfrwt>
<totfact> 0.42843380E+00</totfact>
</mgrwt>
</event>
<event>
12    1  0.2048318E-007  0.1646538E+04  0.7818608E-02  0.8792457E-01
         -2   -1    0    0    0  501 -0.00000000000E+00  0.00000000000E+00  0.41321457106E+03  0.41321457106E+03  0.00000000000E+00 0.  1.
          2   -1    0    0  501    0  0.00000000000E+00 -0.00000000000E+00 -0.16402417945E+04  0.16402417945E+04  0.00000000000E+00 0. -1.
         23    2    1    2    0    0  0.44270505175E+03 -0.12478233053E+03 -0.87630444797E+03  0.99373635472E+03  0.89688707822E+02 0.  0.
        254    2    1    2    0    0 -0.44270505175E+03  0.12478233053E+03 -0.35072277550E+03  0.10597200109E+04  0.88794236488E+03 0.  0.
        -24    2    4    4    0    0 -0.51766692005E+03 -0.22191947300E+03 -0.21705578717E+02  0.56935774792E+03  0.80435193474E+02 0.  0.
         24    2    4    4    0    0  0.74961868309E+02  0.34670180353E+03 -0.32901719679E+03  0.49036226297E+03  0.79883733541E+02 0.  0.
         11    1    3    3    0    0  0.60520637903E+02 -0.23567862816E+02 -0.68637869871E+02  0.94495232421E+02  0.00000000000E+00 0.  1.
        -11    1    3    3    0    0  0.38218441384E+03 -0.10121446771E+03 -0.80766657810E+03  0.89924112230E+03  0.00000000000E+00 0. -1.
          4    1    6    6  502    0  0.84351842069E+00  0.10220557576E+03 -0.56381717890E+02  0.11672869978E+03  0.00000000000E+00 0. -1.
          1    1    5    5  503    0 -0.36026860513E+03 -0.16343988002E+03 -0.51094165307E+02  0.39889431677E+03  0.00000000000E+00 0. -1.
         -2    1    5    5    0  503 -0.15739831493E+03 -0.58479592981E+02  0.29388586590E+02  0.17046343115E+03  0.00000000000E+00 0.  1.
         -3    1    6    6    0  502  0.74118349888E+02  0.24449622777E+03 -0.27263547890E+03  0.37363356319E+03  0.00000000000E+00 0.  1.
<mgrwt>
<rscale>  0 0.16465380E+04</rscale>
<asrwt>0</asrwt>
<pdfrwt beam="1">  1        2 0.25234489E+00 0.16465380E+04</pdfrwt>
<pdfrwt beam="2">  1       -2 0.63571473E-01 0.16465380E+04</pdfrwt>
<totfact> 0.23165537E+01</totfact>
</mgrwt>
</event>
<event>
12    1  0.2048318E-007  0.1892146E+04  0.7818608E-02  0.8658776E-01
         -2   -1    0    0    0  501 -0.00000000000E+00  0.00000000000E+00  0.55197971985E+03  0.55197971985E+03  0.00000000000E+00 0.  1.
          2   -1    0    0  501    0  0.00000000000E+00 -0.00000000000E+00 -0.16215337400E+04  0.16215337400E+04  0.00000000000E+00 0. -1.
         23    2    1    2    0    0  0.31933824420E+03 -0.60379844849E+03 -0.12275442463E+03  0.69913603353E+03  0.84693943082E+02 0.  0.
        254    2    1    2    0    0 -0.31933824420E+03  0.60379844849E+03 -0.94679959549E+03  0.14743774263E+04  0.90044979900E+03 0.  0.
        -24    2    4    4    0    0  0.15793085652E+03  0.61391972116E+03 -0.45922249723E+03  0.78708207052E+03  0.82300086924E+02 0.  0.
         24    2    4    4    0    0 -0.47726910072E+03 -0.10121272663E+02 -0.48757709826E+03  0.68729535577E+03  0.82190295336E+02 0.  0.
         11    1    3    3    0    0  0.27068840341E+03 -0.50498911661E+03 -0.70669356719E+02  0.57730440637E+03  0.00000000000E+00 0.  1.
        -11    1    3    3    0    0  0.48649840792E+02 -0.98809331882E+02 -0.52085067907E+02  0.12183162715E+03  0.00000000000E+00 0. -1.
          2    1    6    6  502    0 -0.23155503108E+03  0.36127111064E+02 -0.23861654231E+03  0.33445590865E+03  0.00000000000E+00 0. -1.
          1    1    5    5  503    0  0.12122589802E+03  0.30972466730E+03 -0.22862630509E+03  0.40360262049E+03  0.00000000000E+00 0. -1.
         -2    1    5    5    0  503  0.36704958502E+02  0.30419505386E+03 -0.23059619214E+03  0.38347945004E+03  0.00000000000E+00 0.  1.
         -1    1    6    6    0  502 -0.24571406965E+03 -0.46248383727E+02 -0.24896055595E+03  0.35283944711E+03  0.00000000000E+00 0.  1.
<mgrwt>
<rscale>  0 0.18921456E+04</rscale>
<asrwt>0</asrwt>
<pdfrwt beam="1">  1        2 0.24946673E+00 0.18921456E+04</pdfrwt>
<pdfrwt beam="2">  1       -2 0.84919957E-01 0.18921456E+04</pdfrwt>
<totfact> 0.12274102E+01</totfact>
</mgrwt>
</event>
<event>
12    1  0.2048318E-007  0.1592985E+04  0.7818608E-02  0.8824869E-01
          2   -1    0    0  501    0  0.00000000000E+00  0.00000000000E+00  0.16744497941E+04  0.16744497941E+04  0.00000000000E+00 0. -1.
         -2   -1    0    0    0  501 -0.00000000000E+00 -0.00000000000E+00 -0.37887087871E+03  0.37887087871E+03  0.00000000000E+00 0.  1.
         23    2    1    2    0    0 -0.40597054559E+03 -0.31787374208E+03  0.24740220524E+03  0.57897579424E+03  0.90273580657E+02 0.  0.
        254    2    1    2    0    0  0.40597054559E+03  0.31787374208E+03  0.10481767101E+04  0.14743448786E+04  0.89953466052E+03 0.  0.
        -24    2    4    4    0    0  0.59274818527E+03  0.40261672815E+03  0.48219534991E+03  0.86736802515E+03  0.79776529422E+02 0.  0.
         24    2    4    4    0    0 -0.18677763968E+03 -0.84742986064E+02  0.56598136023E+03  0.60697685342E+03  0.77580539348E+02 0.  0.
         13    1    3    3    0    0 -0.39111949994E+03 -0.27722674784E+03  0.21790544253E+03  0.52660413485E+03  0.00000000000E+00 0. -1.
        -13    1    3    3    0    0 -0.14851045658E+02 -0.40646994238E+02  0.29496762705E+02  0.52371659395E+02  0.00000000000E+00 0.  1.
          4    1    6    6  502    0 -0.12499423593E+03 -0.39388998032E+02  0.25518878618E+03  0.28687343685E+03  0.00000000000E+00 0. -1.
          3    1    5    5  503    0  0.43986784385E+03  0.28929941231E+03  0.39424747359E+03  0.65773014257E+03  0.00000000000E+00 0. -1.
         -4    1    5    5    0  503  0.15288034142E+03  0.11331731583E+03  0.87947876321E+02  0.20963788257E+03  0.00000000000E+00 0.  1.
         -3    1    6    6    0  502 -0.61783403749E+02 -0.45353988032E+02  0.31079257406E+03  0.32010341657E+03  0.00000000000E+00 0.  1.
<mgrwt>
<rscale>  0 0.15929850E+04</rscale>
<asrwt>0</asrwt>
<pdfrwt beam="1">  1        2 0.25760766E+00 0.15929850E+04</pdfrwt>
<pdfrwt beam="2">  1       -2 0.58287829E-01 0.15929850E+04</pdfrwt>
<totfact> 0.26764706E+01</totfact>
</mgrwt>
</event>
<event>
12    1  0.2048318E-007  0.1826837E+04  0.7818608E-02  0.8692157E-01
         -2   -1    0    0    0  501 -0.00000000000E+00  0.00000000000E+00  0.67937669933E+03  0.67937669933E+03  0.00000000000E+00 0.  1.
          2   -1    0    0  501    0  0.00000000000E+00 -0.00000000000E+00 -0.12280862393E+04  0.12280862393E+04  0.00000000000E+00 0. -1.
         23    2    1    2    0    0 -0.48471760623E+03  0.48901940990E+03 -0.20822217618E+03  0.72449292019E+03  0.86269204778E+02 0.  0.
        254    2    1    2    0    0  0.48471760623E+03 -0.48901940990E+03 -0.34048736377E+03  0.11829700184E+04  0.89966398091E+03 0.  0.
        -24    2    4    4    0    0  0.73722302660E+03 -0.27355864992E+03 -0.25277952107E+03  0.83009826142E+03  0.82665055724E+02 0.  0.
         24    2    4    4    0    0 -0.25250542037E+03 -0.21546075998E+03 -0.87707842700E+02  0.35287175700E+03  0.81507575170E+02 0.  0.
         11    1    3    3    0    0 -0.32209558724E+03  0.28795321810E+03 -0.16408475471E+03  0.46215411917E+03  0.00000000000E+00 0. -1.
        -11    1    3    3    0    0 -0.16262201899E+03  0.20106619180E+03 -0.44137421475E+02  0.26233880102E+03  0.00000000000E+00 0.  1.
          2    1    6    6  502    0 -0.22452983744E+03 -0.21405497780E+03 -0.94037451888E+02  0.32415462943E+03  0.00000000000E+00 0. -1.
          3    1    5    5  503    0  0.58304801193E+03 -0.24527645216E+03 -0.18268140308E+03  0.65839047475E+03  0.00000000000E+00 0. -1.
         -4    1    5    5    0  503  0.15417501467E+03 -0.28282197761E+02 -0.70098117993E+02  0.17170778668E+03  0.00000000000E+00 0.  1.
         -1    1    6    6    0  502 -0.27975582930E+02 -0.14057821868E+01  0.63296091877E+01  0.28717127577E+02  0.00000000000E+00 0.  1.
<mgrwt>
<rscale>  0 0.18268368E+04</rscale>
<asrwt>0</asrwt>
<pdfrwt beam="1">  1        2 0.18893634E+00 0.18268368E+04</pdfrwt>
<pdfrwt beam="2">  1       -2 0.10451949E+00 0.18268368E+04</pdfrwt>
<totfact> 0.12762111E+01</totfact>
</mgrwt>
</event>
<event>
12    1  0.2048318E-007  0.1903494E+04  0.7818608E-02  0.8653119E-01
         -2   -1    0    0    0  501 -0.00000000000E+00  0.00000000000E+00  0.37125300655E+03  0.37125300655E+03  0.00000000000E+00 0.  1.
          2   -1    0    0  501    0  0.00000000000E+00 -0.00000000000E+00 -0.24399061506E+04  0.24399061506E+04  0.00000000000E+00 0. -1.
         23    2    1    2    0    0  0.69340993972E+03  0.11967446664E+03 -0.48946322245E+03  0.86196976140E+03  0.90985168919E+02 0.  0.
        254    2    1    2    0    0 -0.69340993972E+03 -0.11967446664E+03 -0.15791899216E+04  0.19491893958E+04  0.90019951652E+03 0.  0.
        -24    2    4    4    0    0 -0.81536657151E+03  0.99753313726E+02 -0.90853208659E+03  0.12274489604E+04  0.80168750145E+02 0.  0.
         24    2    4    4    0    0  0.12195663179E+03 -0.21942778036E+03 -0.67065783502E+03  0.72174043536E+03  0.90029736844E+02 0.  0.
         13    1    3    3    0    0  0.30236529896E+03  0.77124381000E+02 -0.17077663638E+03  0.35572124437E+03  0.00000000000E+00 0.  1.
        -13    1    3    3    0    0  0.39104464076E+03  0.42550085639E+02 -0.31868658607E+03  0.50624851703E+03  0.00000000000E+00 0. -1.
          4    1    6    6  502    0  0.13548055766E+03 -0.18638962782E+03 -0.59578593636E+03  0.63879336004E+03  0.00000000000E+00 0. -1.
          1    1    5    5  503    0 -0.79983032615E+03  0.88740878615E+02 -0.89746234019E+03  0.12054219785E+04  0.00000000000E+00 0. -1.
         -2    1    5    5    0  503 -0.15536245360E+02  0.11012435111E+02 -0.11069746403E+02  0.22026981917E+02  0.00000000000E+00 0.  1.
         -1    1    6    6    0  502 -0.13523925870E+02 -0.33038152546E+02 -0.74871898661E+02  0.82947075318E+02  0.00000000000E+00 0.  1.
<mgrwt>
<rscale>  0 0.19034941E+04</rscale>
<asrwt>0</asrwt>
<pdfrwt beam="1">  1        2 0.37537019E+00 0.19034941E+04</pdfrwt>
<pdfrwt beam="2">  1       -2 0.57115845E-01 0.19034941E+04</pdfrwt>
<totfact> 0.10151098E+01</totfact>
</mgrwt>
</event>
<event>
12    1  0.2048318E-007  0.3852041E+04  0.7818608E-02  0.8035078E-01
          1   -1    0    0  501    0  0.00000000000E+00  0.00000000000E+00  0.44891064939E+04  0.44891064939E+04  0.00000000000E+00 0. -1.
         -1   -1    0    0    0  501 -0.00000000000E+00 -0.00000000000E+00 -0.82634602081E+03  0.82634602081E+03  0.00000000000E+00 0.  1.
         23    2    1    2    0    0  0.13896343099E+04 -0.11624167178E+04  0.14997056314E+04  0.23536738422E+04  0.91473678360E+02 0.  0.
        254    2    1    2    0    0 -0.13896343099E+04  0.11624167178E+04  0.21630548417E+04  0.29617786725E+04  0.90057232666E+03 0.  0.
        -24    2    4    4    0    0 -0.47059676407E+03 -0.67238789378E+02  0.59242669244E+03  0.76417889871E+03  0.83771320619E+02 0.  0.
         24    2    4    4    0    0 -0.91903754581E+03  0.12296555072E+04  0.15706281493E+04  0.21975997738E+04  0.76741810824E+02 0.  0.
         11    1    3    3    0    0  0.76637737848E+03 -0.58233589053E+03  0.78618562984E+03  0.12427941182E+04  0.00000000000E+00 0.  1.
        -11    1    3    3    0    0  0.62325693141E+03 -0.58008082725E+03  0.71352000153E+03  0.11108797240E+04  0.00000000000E+00 0. -1.
          4    1    6    6  502    0 -0.58543416582E+03  0.77057913409E+03  0.10414031685E+04  0.14216349474E+04  0.00000000000E+00 0. -1.
          3    1    5    5  503    0 -0.30973479014E+03 -0.66795937161E+02  0.33913107974E+03  0.46411984087E+03  0.00000000000E+00 0. -1.
         -4    1    5    5    0  503 -0.16086197394E+03 -0.44285221676E+00  0.25329561270E+03  0.30005905784E+03  0.00000000000E+00 0.  1.
         -3    1    6    6    0  502 -0.33360338000E+03  0.45907637306E+03  0.52922498078E+03  0.77596482635E+03  0.00000000000E+00 0.  1.
<mgrwt>
<rscale>  0 0.38520412E+04</rscale>
<asrwt>0</asrwt>
<pdfrwt beam="1">  1        1 0.69063175E+00 0.38520412E+04</pdfrwt>
<pdfrwt beam="2">  1       -1 0.12713016E+00 0.38520412E+04</pdfrwt>
<totfact> 0.13972401E-02</totfact>
</mgrwt>
</event>
<event>
12    1  0.2048318E-007  0.1368033E+04  0.7818608E-02  0.8977289E-01
          2   -1    0    0  501    0  0.00000000000E+00  0.00000000000E+00  0.11136555376E+04  0.11136555376E+04  0.00000000000E+00 0.  1.
         -2   -1    0    0    0  501 -0.00000000000E+00 -0.00000000000E+00 -0.42012841965E+03  0.42012841965E+03  0.00000000000E+00 0. -1.
         23    2    1    2    0    0 -0.13622194215E+03  0.32133392639E+03  0.36963140354E+03  0.51596160245E+03  0.88187816324E+02 0.  0.
        254    2    1    2    0    0  0.13622194215E+03 -0.32133392639E+03  0.32389571443E+03  0.10178223548E+04  0.89957879163E+03 0.  0.
        -24    2    4    4    0    0 -0.96860692803E+02  0.14772694007E+03 -0.19578480197E+03  0.27562816851E+03  0.80211944024E+02 0.  0.
         24    2    4    4    0    0  0.23308263495E+03 -0.46906086646E+03  0.51968051640E+03  0.74219418630E+03  0.80241883705E+02 0.  0.
         13    1    3    3    0    0 -0.53695807045E+02  0.15512821144E+03  0.23518229684E+03  0.28680780050E+03  0.00000000000E+00 0.  1.
        -13    1    3    3    0    0 -0.82526135105E+02  0.16620571495E+03  0.13444910670E+03  0.22915380195E+03  0.00000000000E+00 0. -1.
          2    1    6    6  502    0  0.23143483696E+03 -0.43461772540E+03  0.50299011897E+03  0.70388472832E+03  0.00000000000E+00 0. -1.
          1    1    5    5  503    0 -0.55859436283E+02  0.20545313685E+02 -0.72664001454E+02  0.93927864043E+02  0.00000000000E+00 0. -1.
         -2    1    5    5    0  503 -0.41001256519E+02  0.12718162638E+03 -0.12312080051E+03  0.18170030447E+03  0.00000000000E+00 0.  1.
         -1    1    6    6    0  502  0.16477979958E+01 -0.34443141062E+02  0.16690397429E+02  0.38309457981E+02  0.00000000000E+00 0.  1.
<mgrwt>
<rscale>  0 0.13680327E+04</rscale>
<asrwt>0</asrwt>
<pdfrwt beam="1">  1        2 0.17133162E+00 0.13680327E+04</pdfrwt>
<pdfrwt beam="2">  1       -2 0.64635142E-01 0.13680327E+04</pdfrwt>
<totfact> 0.46067119E+01</totfact>
</mgrwt>
</event>
<event>
12    1  0.2048318E-007  0.4832859E+04  0.7818608E-02  0.7854821E-01
          2   -1    0    0  501    0  0.00000000000E+00  0.00000000000E+00  0.31948047971E+04  0.31948047971E+04  0.00000000000E+00 0. -1.
         -2   -1    0    0    0  501 -0.00000000000E+00 -0.00000000000E+00 -0.18276955938E+04  0.18276955938E+04  0.00000000000E+00 0.  1.
         23    2    1    2    0    0 -0.16988869794E+04  0.11774742806E+04 -0.46224946050E+03  0.21199313996E+04  0.88158522511E+02 0.  0.
        254    2    1    2    0    0  0.16988869794E+04 -0.11774742806E+04  0.18293586638E+04  0.29025689913E+04  0.89760290669E+03 0.  0.
        -24    2    4    4    0    0  0.13802104293E+04 -0.45117413964E+03  0.11169264074E+04  0.18335619570E+04  0.76719731347E+02 0.  0.
         24    2    4    4    0    0  0.31867655010E+03 -0.72630014098E+03  0.71243225642E+03  0.10690070343E+04  0.78419902141E+02 0.  0.
         13    1    3    3    0    0 -0.11309307800E+04  0.73313976274E+03 -0.29565416301E+03  0.13798223527E+04  0.00000000000E+00 0.  1.
        -13    1    3    3    0    0 -0.56795619935E+03  0.44433451788E+03 -0.16659529749E+03  0.74010904690E+03  0.00000000000E+00 0. -1.
          4    1    6    6  502    0  0.18681862123E+03 -0.47150968826E+03  0.41018427348E+03  0.65228346719E+03  0.00000000000E+00 0. -1.
          3    1    5    5  503    0  0.12378012871E+04 -0.38585232277E+03  0.10158145311E+04  0.16470923480E+04  0.00000000000E+00 0. -1.
         -4    1    5    5    0  503  0.14240914217E+03 -0.65321816871E+02  0.10111187629E+03  0.18646960895E+03  0.00000000000E+00 0.  1.
         -3    1    6    6    0  502  0.13185792887E+03 -0.25479045272E+03  0.30224798294E+03  0.41672356712E+03  0.00000000000E+00 0.  1.
<mgrwt>
<rscale>  0 0.48328586E+04</rscale>
<asrwt>0</asrwt>
<pdfrwt beam="1">  1        2 0.49150843E+00 0.48328586E+04</pdfrwt>
<pdfrwt beam="2">  1       -2 0.28118394E+00 0.48328586E+04</pdfrwt>
<totfact> 0.39895999E-02</totfact>
</mgrwt>
</event>
<event>
12    1  0.2048318E-007  0.1143645E+04  0.7818608E-02  0.9163666E-01
         -1   -1    0    0    0  501 -0.00000000000E+00  0.00000000000E+00  0.29806701087E+03  0.29806701087E+03  0.00000000000E+00 0.  1.
          1   -1    0    0  501    0  0.00000000000E+00 -0.00000000000E+00 -0.10970055268E+04  0.10970055268E+04  0.00000000000E+00 0. -1.
         23    2    1    2    0    0 -0.12507848403E+03 -0.13431748005E+03 -0.57998634155E+02  0.21470987203E+03  0.95135035426E+02 0.  0.
        254    2    1    2    0    0  0.12507848403E+03  0.13431748005E+03 -0.74093988180E+03  0.11803626657E+04  0.90032122126E+03 0.  0.
        -24    2    4    4    0    0 -0.91475314856E+02  0.36521811222E+03 -0.14914257101E+02  0.38433601973E+03  0.75761060432E+02 0.  0.
         24    2    4    4    0    0  0.21655379889E+03 -0.23090063217E+03 -0.72602562470E+03  0.79602664594E+03  0.79589971533E+02 0.  0.
         13    1    3    3    0    0 -0.10483475702E+03 -0.98634117866E+02 -0.33525584317E+00  0.14394140434E+03  0.00000000000E+00 0.  1.
        -13    1    3    3    0    0 -0.20243727014E+02 -0.35683362187E+02 -0.57663378312E+02  0.70768467687E+02  0.00000000000E+00 0. -1.
          2    1    6    6  502    0  0.16462861567E+03 -0.17450042742E+03 -0.62310136054E+03  0.66768876415E+03  0.00000000000E+00 0. -1.
          1    1    5    5  503    0 -0.60111382771E+02  0.23538352854E+03  0.26782927897E+02  0.24440971559E+03  0.00000000000E+00 0. -1.
         -2    1    5    5    0  503 -0.31363932085E+02  0.12983458368E+03 -0.41697184998E+02  0.13992630415E+03  0.00000000000E+00 0.  1.
         -1    1    6    6    0  502  0.51925183222E+02 -0.56400204744E+02 -0.10292426416E+03  0.12833788179E+03  0.00000000000E+00 0.  1.
<mgrwt>
<rscale>  0 0.11436453E+04</rscale>
<asrwt>0</asrwt>
<pdfrwt beam="1">  1        1 0.16877008E+00 0.11436453E+04</pdfrwt>
<pdfrwt beam="2">  1       -1 0.45856464E-01 0.11436453E+04</pdfrwt>
<totfact> 0.59836822E+01</totfact>
</mgrwt>
</event>
<event>
12    1  0.2048318E-007  0.2579007E+04  0.7818608E-02  0.8375367E-01
         -2   -1    0    0    0  501 -0.00000000000E+00  0.00000000000E+00  0.63150576871E+03  0.63150576871E+03  0.00000000000E+00 0.  1.
          2   -1    0    0  501    0  0.00000000000E+00 -0.00000000000E+00 -0.26331022367E+04  0.26331022367E+04  0.00000000000E+00 0. -1.
         23    2    1    2    0    0 -0.81153075990E+03 -0.43141644143E+03 -0.17096509300E+04  0.19432148237E+04  0.92061003718E+02 0.  0.
        254    2    1    2    0    0  0.81153075990E+03  0.43141644143E+03 -0.29194553799E+03  0.13213931817E+04  0.90340767282E+03 0.  0.
        -24    2    4    4    0    0  0.81813271514E+03  0.18997530657E+02 -0.23395569518E+02  0.82270950780E+03  0.81249835667E+02 0.  0.
         24    2    4    4    0    0 -0.66019552321E+01  0.41241891077E+03 -0.26854996847E+03  0.49868367391E+03  0.80208336766E+02 0.  0.
         13    1    3    3    0    0 -0.48423724022E+03 -0.23033961263E+03 -0.91389856511E+03  0.10596002214E+04  0.00000000000E+00 0.  1.
        -13    1    3    3    0    0 -0.32729351969E+03 -0.20107682880E+03 -0.79575236493E+03  0.88361460230E+03  0.00000000000E+00 0. -1.
          4    1    6    6  502    0  0.31554921879E+02  0.14844320886E+03 -0.76020063104E+02  0.16973552765E+03  0.00000000000E+00 0. -1.
          3    1    5    5  503    0  0.20232001390E+03 -0.12910726599E+02  0.24534679407E+02  0.20421073767E+03  0.00000000000E+00 0. -1.
         -4    1    5    5    0  503  0.61581270124E+03  0.31908257256E+02 -0.47930248925E+02  0.61849877013E+03  0.00000000000E+00 0.  1.
         -3    1    6    6    0  502 -0.38156877111E+02  0.26397570191E+03 -0.19252990537E+03  0.32894814626E+03  0.00000000000E+00 0.  1.
<mgrwt>
<rscale>  0 0.25790070E+04</rscale>
<asrwt>0</asrwt>
<pdfrwt beam="1">  1        2 0.40509265E+00 0.25790070E+04</pdfrwt>
<pdfrwt beam="2">  1       -2 0.97154735E-01 0.25790070E+04</pdfrwt>
<totfact> 0.22792860E+00</totfact>
</mgrwt>
</event>
<event>
12    1  0.2048318E-007  0.3293353E+04  0.7818608E-02  0.8164589E-01
         -2   -1    0    0    0  501 -0.00000000000E+00  0.00000000000E+00  0.75009522859E+03  0.75009522859E+03  0.00000000000E+00 0.  1.
          2   -1    0    0  501    0  0.00000000000E+00 -0.00000000000E+00 -0.36149317259E+04  0.36149317259E+04  0.00000000000E+00 0. -1.
         23    2    1    2    0    0  0.13060480495E+04  0.47023210695E+03 -0.21398686168E+04  0.25522542534E+04  0.89912928363E+02 0.  0.
        254    2    1    2    0    0 -0.13060480495E+04 -0.47023210695E+03 -0.72496788045E+03  0.18127727011E+04  0.91306445329E+03 0.  0.
        -24    2    4    4    0    0 -0.54916184326E+03 -0.29703362249E+03 -0.81235695274E+03  0.10273503042E+04  0.75611677643E+02 0.  0.
         24    2    4    4    0    0 -0.75688620628E+03 -0.17319848446E+03  0.87389072290E+02  0.78542239689E+03  0.79856416797E+02 0.  0.
         11    1    3    3    0    0  0.37667852582E+03  0.13967938518E+03 -0.54664705774E+03  0.67839520060E+03  0.00000000000E+00 0. -1.
        -11    1    3    3    0    0  0.92936952372E+03  0.33055272177E+03 -0.15932215591E+04  0.18738590528E+04  0.00000000000E+00 0.  1.
          4    1    6    6  502    0 -0.41079507293E+02 -0.29519383813E+01 -0.12163949694E+02  0.42944167611E+02  0.00000000000E+00 0. -1.
          1    1    5    5  503    0 -0.48931130516E+02 -0.53213263138E+02 -0.86885559346E+02  0.11302657798E+03  0.00000000000E+00 0. -1.
         -2    1    5    5    0  503 -0.50023071275E+03 -0.24382035935E+03 -0.72547139340E+03  0.91432372618E+03  0.00000000000E+00 0.  1.
         -3    1    6    6    0  502 -0.71580669899E+03 -0.17024654608E+03  0.99553021984E+02  0.74247822928E+03  0.00000000000E+00 0.  1.
<mgrwt>
<rscale>  0 0.32933527E+04</rscale>
<asrwt>0</asrwt>
<pdfrwt beam="1">  1        2 0.55614336E+00 0.32933527E+04</pdfrwt>
<pdfrwt beam="2">  1       -2 0.11539926E+00 0.32933527E+04</pdfrwt>
<totfact> 0.32854921E-01</totfact>
</mgrwt>
</event>
<event>
12    1  0.2048318E-007  0.1421555E+04  0.7818608E-02  0.8938362E-01
          2   -1    0    0  501    0  0.00000000000E+00  0.00000000000E+00  0.11949769184E+04  0.11949769184E+04  0.00000000000E+00 0. -1.
         -2   -1    0    0    0  501 -0.00000000000E+00 -0.00000000000E+00 -0.42277342107E+03  0.42277342107E+03  0.00000000000E+00 0.  1.
         23    2    1    2    0    0 -0.28231424764E+02 -0.40720417820E+03  0.13920273952E+03  0.44095974823E+03  0.91955645721E+02 0.  0.
        254    2    1    2    0    0  0.28231424764E+02  0.40720417820E+03  0.63300075777E+03  0.11767905912E+04  0.90417580154E+03 0.  0.
        -24    2    4    4    0    0 -0.21359579786E+03  0.49047615717E+03  0.71526307257E+03  0.89650512476E+03  0.77007468000E+02 0.  0.
         24    2    4    4    0    0  0.24182722263E+03 -0.83271978971E+02 -0.82262314798E+02  0.28028546643E+03  0.79863797621E+02 0.  0.
         11    1    3    3    0    0  0.10994719429E+02 -0.59529640854E+02 -0.85947115837E+01  0.61143528380E+02  0.00000000000E+00 0.  1.
        -11    1    3    3    0    0 -0.39226144193E+02 -0.34767453735E+03  0.14779745111E+03  0.37981621985E+03  0.00000000000E+00 0. -1.
          4    1    6    6  502    0  0.54390279360E+02 -0.26938742981E+02  0.13826447974E+02  0.62250855623E+02  0.00000000000E+00 0. -1.
          1    1    5    5  503    0 -0.94023876320E+02  0.19826021581E+03  0.23278524010E+03  0.31990087606E+03  0.00000000000E+00 0. -1.
         -2    1    5    5    0  503 -0.11957192154E+03  0.29221594136E+03  0.48247783246E+03  0.57660424871E+03  0.00000000000E+00 0.  1.
         -3    1    6    6    0  502  0.18743694327E+03 -0.56333235989E+02 -0.96088762772E+02  0.21803461081E+03  0.00000000000E+00 0.  1.
<mgrwt>
<rscale>  0 0.14215548E+04</rscale>
<asrwt>0</asrwt>
<pdfrwt beam="1">  1        2 0.18384260E+00 0.14215548E+04</pdfrwt>
<pdfrwt beam="2">  1       -2 0.65042065E-01 0.14215548E+04</pdfrwt>
<totfact> 0.40409422E+01</totfact>
</mgrwt>
</event>
<event>
12    1  0.2048318E-007  0.1626720E+04  0.7818608E-02  0.8804299E-01
         -1   -1    0    0    0  501 -0.00000000000E+00  0.00000000000E+00  0.27348837278E+03  0.27348837278E+03  0.00000000000E+00 0. -1.
          1   -1    0    0  501    0  0.00000000000E+00 -0.00000000000E+00 -0.24189500541E+04  0.24189500541E+04  0.00000000000E+00 0.  1.
         23    2    1    2    0    0  0.20258194154E+03 -0.24785702631E+02 -0.16121893016E+04  0.16275316841E+04  0.89728839042E+02 0.  0.
        254    2    1    2    0    0 -0.20258194154E+03  0.24785702631E+02 -0.53327237972E+03  0.10649067428E+04  0.89888440064E+03 0.  0.
        -24    2    4    4    0    0 -0.12495880011E+03  0.45328743824E+03 -0.31769740607E+03  0.57242258149E+03  0.75178232101E+02 0.  0.
         24    2    4    4    0    0 -0.77623141425E+02 -0.42850173561E+03 -0.21557497365E+03  0.49248416127E+03  0.80180984865E+02 0.  0.
         13    1    3    3    0    0  0.39739475941E+02  0.27572478180E+02 -0.48988183606E+03  0.49226383252E+03  0.00000000000E+00 0. -1.
        -13    1    3    3    0    0  0.16284246560E+03 -0.52358180811E+02 -0.11223074656E+04  0.11352678516E+04  0.00000000000E+00 0.  1.
          2    1    6    6  502    0 -0.87562487756E+02 -0.33433974451E+03 -0.14701925550E+03  0.37558609600E+03  0.00000000000E+00 0. -1.
          3    1    5    5  503    0  0.65668895867E+01  0.82651517328E+01 -0.15117505563E+02  0.18438431236E+02  0.00000000000E+00 0. -1.
         -4    1    5    5    0  503 -0.13152568970E+03  0.44502228651E+03 -0.30257990051E+03  0.55398415025E+03  0.00000000000E+00 0.  1.
         -1    1    6    6    0  502  0.99393463312E+01 -0.94161991098E+02 -0.68555718142E+02  0.11689806527E+03  0.00000000000E+00 0.  1.
<mgrwt>
<rscale>  0 0.16267203E+04</rscale>
<asrwt>0</asrwt>
<pdfrwt beam="1">  1        1 0.37214616E+00 0.16267203E+04</pdfrwt>
<pdfrwt beam="2">  1       -1 0.42075135E-01 0.16267203E+04</pdfrwt>
<totfact> 0.82033563E+00</totfact>
</mgrwt>
</event>
<event>
12    1  0.2048318E-007  0.2796718E+04  0.7818608E-02  0.8304288E-01
          1   -1    0    0  501    0  0.00000000000E+00  0.00000000000E+00  0.23571792465E+04  0.23571792465E+04  0.00000000000E+00 0. -1.
         -1   -1    0    0    0  501 -0.00000000000E+00 -0.00000000000E+00 -0.82955413461E+03  0.82955413461E+03  0.00000000000E+00 0.  1.
         23    2    1    2    0    0 -0.91279856262E+03  0.24556129464E+03  0.16200447098E+04  0.18778748818E+04  0.91474830426E+02 0.  0.
        254    2    1    2    0    0  0.91279856262E+03 -0.24556129464E+03 -0.92419597966E+02  0.13088584993E+04  0.90059292892E+03 0.  0.
        -24    2    4    4    0    0  0.68866635289E+03  0.26064228761E+03  0.88679903517E+01  0.74076123493E+03  0.80329435637E+02 0.  0.
         24    2    4    4    0    0  0.22413220973E+03 -0.50620358225E+03 -0.10128758832E+03  0.56809726432E+03  0.77446833788E+02 0.  0.
         13    1    3    3    0    0 -0.74189194307E+03  0.22478402714E+03  0.13736419360E+04  0.15772836404E+04  0.00000000000E+00 0.  1.
        -13    1    3    3    0    0 -0.17090661956E+03  0.20777267498E+02  0.24640277388E+03  0.30059124144E+03  0.00000000000E+00 0. -1.
          4    1    6    6  502    0  0.19358535202E+03 -0.42474364386E+03 -0.11313935511E+03  0.48029466497E+03  0.00000000000E+00 0. -1.
          1    1    5    5  503    0  0.37113002314E+03  0.16176995553E+03  0.39518295002E+02  0.40677845104E+03  0.00000000000E+00 0. -1.
         -2    1    5    5    0  503  0.31753632975E+03  0.98872332077E+02 -0.30650304650E+02  0.33398278389E+03  0.00000000000E+00 0.  1.
         -3    1    6    6    0  502  0.30546857714E+02 -0.81459938382E+02  0.11851766796E+02  0.87802599356E+02  0.00000000000E+00 0.  1.
<mgrwt>
<rscale>  0 0.27967179E+04</rscale>
<asrwt>0</asrwt>
<pdfrwt beam="1">  1        1 0.36264296E+00 0.27967179E+04</pdfrwt>
<pdfrwt beam="2">  1       -1 0.12762371E+00 0.27967179E+04</pdfrwt>
<totfact> 0.78199916E-01</totfact>
</mgrwt>
</event>
<event>
12    1  0.2048318E-007  0.3436552E+04  0.7818608E-02  0.8128993E-01
          1   -1    0    0  501    0  0.00000000000E+00  0.00000000000E+00  0.13144526289E+04  0.13144526289E+04  0.00000000000E+00 0. -1.
         -1   -1    0    0    0  501 -0.00000000000E+00 -0.00000000000E+00 -0.22461605515E+04  0.22461605515E+04  0.00000000000E+00 0.  1.
         23    2    1    2    0    0 -0.12365661165E+04 -0.82998201746E+03 -0.10374620208E+04  0.18173224150E+04  0.91473523751E+02 0.  0.
        254    2    1    2    0    0  0.12365661165E+04  0.82998201746E+03  0.10575409827E+03  0.17432907654E+04  0.89995158390E+03 0.  0.
        -24    2    4    4    0    0 -0.10029456349E+03 -0.88174988235E+01 -0.79145767546E+02  0.15227046206E+03  0.82374106032E+02 0.  0.
         24    2    4    4    0    0  0.13368606800E+04  0.83879951629E+03  0.18489986582E+03  0.15910203033E+04  0.79853232749E+02 0.  0.
         11    1    3    3    0    0 -0.57582571135E+03 -0.41812360188E+03 -0.44993899314E+03  0.84193093176E+03  0.00000000000E+00 0. -1.
        -11    1    3    3    0    0 -0.66074040520E+03 -0.41185841558E+03 -0.58752302768E+03  0.97539148325E+03  0.00000000000E+00 0.  1.
          2    1    6    6  502    0  0.11976164383E+04  0.77875757117E+03  0.16326447834E+03  0.14378469243E+04  0.00000000000E+00 0. -1.
          3    1    5    5  503    0 -0.86347415809E+02  0.64758956812E+01 -0.93227233895E+02  0.12723651434E+03  0.00000000000E+00 0. -1.
         -4    1    5    5    0  503 -0.13947147676E+02 -0.15293394505E+02  0.14081466349E+02  0.25033947717E+02  0.00000000000E+00 0.  1.
         -1    1    6    6    0  502  0.13924424176E+03  0.60041945110E+02  0.21635387485E+02  0.15317337898E+03  0.00000000000E+00 0.  1.
<mgrwt>
<rscale>  0 0.34365516E+04</rscale>
<asrwt>0</asrwt>
<pdfrwt beam="1">  1        1 0.20222348E+00 0.34365516E+04</pdfrwt>
<pdfrwt beam="2">  1       -1 0.34556316E+00 0.34365516E+04</pdfrwt>
<totfact> 0.12039732E-01</totfact>
</mgrwt>
</event>
<event>
12    1  0.2048318E-007  0.2182267E+04  0.7818608E-02  0.8525846E-01
         -2   -1    0    0    0  501 -0.00000000000E+00  0.00000000000E+00  0.69799798691E+03  0.69799798691E+03  0.00000000000E+00 0.  1.
          2   -1    0    0  501    0  0.00000000000E+00 -0.00000000000E+00 -0.17056953721E+04  0.17056953721E+04  0.00000000000E+00 0. -1.
         23    2    1    2    0    0 -0.77034586547E+03 -0.46627934564E+03 -0.37528510326E+03  0.97991054595E+03  0.92393661739E+02 0.  0.
        254    2    1    2    0    0  0.77034586547E+03  0.46627934564E+03 -0.63241228193E+03  0.14237828131E+04  0.90352809798E+03 0.  0.
        -24    2    4    4    0    0 -0.11753729553E+03  0.34466887975E+03 -0.23092834811E+03  0.43863198526E+03  0.80364569427E+02 0.  0.
         24    2    4    4    0    0  0.88788316099E+03  0.12161046589E+03 -0.40148393382E+03  0.98515082781E+03  0.78785731117E+02 0.  0.
         13    1    3    3    0    0 -0.34217599974E+03 -0.20587528625E+03 -0.21632880558E+03  0.45416648975E+03  0.00000000000E+00 0. -1.
        -13    1    3    3    0    0 -0.42816986573E+03 -0.26040405939E+03 -0.15895629768E+03  0.52574405620E+03  0.00000000000E+00 0.  1.
          4    1    6    6  502    0  0.53888386493E+03  0.47083858911E+02 -0.27242278600E+03  0.60566235146E+03  0.00000000000E+00 0. -1.
          3    1    5    5  503    0 -0.10685928685E+03  0.34587627011E+03 -0.22196456766E+03  0.42463816445E+03  0.00000000000E+00 0. -1.
         -4    1    5    5    0  503 -0.10678008680E+02 -0.12073903565E+01 -0.89637804464E+01  0.13993820805E+02  0.00000000000E+00 0.  1.
         -3    1    6    6    0  502  0.34899929607E+03  0.74526606977E+02 -0.12906114782E+03  0.37948847635E+03  0.00000000000E+00 0.  1.
<mgrwt>
<rscale>  0 0.21822667E+04</rscale>
<asrwt>0</asrwt>
<pdfrwt beam="1">  1        2 0.26241467E+00 0.21822667E+04</pdfrwt>
<pdfrwt beam="2">  1       -2 0.10738431E+00 0.21822667E+04</pdfrwt>
<totfact> 0.62064683E+00</totfact>
</mgrwt>
</event>
<event>
12    1  0.2048318E-007  0.2473747E+04  0.7818608E-02  0.8412398E-01
          1   -1    0    0  501    0  0.00000000000E+00  0.00000000000E+00  0.12605748737E+04  0.12605748737E+04  0.00000000000E+00 0. -1.
         -1   -1    0    0    0  501 -0.00000000000E+00 -0.00000000000E+00 -0.12136182198E+04  0.12136182198E+04  0.00000000000E+00 0.  1.
         23    2    1    2    0    0 -0.78392107388E+03 -0.70496136867E+03 -0.16721977934E+03  0.10712433906E+04  0.89984253178E+02 0.  0.
        254    2    1    2    0    0  0.78392107388E+03  0.70496136867E+03  0.21417643319E+03  0.14029497029E+04  0.90049627595E+03 0.  0.
        -24    2    4    4    0    0 -0.12622854662E+03  0.10609231433E+03 -0.16384245848E+03  0.24684668683E+03  0.83064495747E+02 0.  0.
         24    2    4    4    0    0  0.91014962050E+03  0.59886905434E+03  0.37801889167E+03  0.11561030161E+04  0.81605302697E+02 0.  0.
         11    1    3    3    0    0 -0.25089424476E+03 -0.18521470862E+03 -0.77789213674E+02  0.32140873060E+03  0.00000000000E+00 0.  1.
        -11    1    3    3    0    0 -0.53302682913E+03 -0.51974666006E+03 -0.89430565663E+02  0.74983465996E+03  0.00000000000E+00 0. -1.
          2    1    6    6  502    0  0.46764242073E+03  0.32655027928E+03  0.15799266459E+03  0.59184981257E+03  0.00000000000E+00 0. -1.
          1    1    5    5  503    0 -0.46851635955E+02  0.25470477586E+02 -0.74872902879E+01  0.53850538864E+02  0.00000000000E+00 0. -1.
         -2    1    5    5    0  503 -0.79376910661E+02  0.80621836748E+02 -0.15635516819E+03  0.19299614796E+03  0.00000000000E+00 0.  1.
         -1    1    6    6    0  502  0.44250719977E+03  0.27231877506E+03  0.22002622708E+03  0.56425320353E+03  0.00000000000E+00 0.  1.
<mgrwt>
<rscale>  0 0.24737475E+04</rscale>
<asrwt>0</asrwt>
<pdfrwt beam="1">  1        1 0.19393460E+00 0.24737475E+04</pdfrwt>
<pdfrwt beam="2">  1       -1 0.18671050E+00 0.24737475E+04</pdfrwt>
<totfact> 0.16025807E+00</totfact>
</mgrwt>
</event>
<event>
12    1  0.2048318E-007  0.1027236E+04  0.7818608E-02  0.9279167E-01
          1   -1    0    0  501    0  0.00000000000E+00  0.00000000000E+00  0.39025045925E+03  0.39025045925E+03  0.00000000000E+00 0. -1.
         -1   -1    0    0    0  501 -0.00000000000E+00 -0.00000000000E+00 -0.67598477631E+03  0.67598477631E+03  0.00000000000E+00 0.  1.
         23    2    1    2    0    0  0.44703508493E+02  0.46488020731E+02 -0.96442735361E+02  0.14802235284E+03  0.91923207042E+02 0.  0.
        254    2    1    2    0    0 -0.44703508493E+02 -0.46488020731E+02 -0.18929158169E+03  0.91821288272E+03  0.89617188940E+03 0.  0.
        -24    2    4    4    0    0 -0.41180625117E+03 -0.34061874099E+02 -0.31041374380E+03  0.52298951572E+03  0.80104565673E+02 0.  0.
         24    2    4    4    0    0  0.36710274268E+03 -0.12426146631E+02  0.12112216211E+03  0.39522336700E+03  0.81314813334E+02 0.  0.
         13    1    3    3    0    0 -0.14730715467E+02  0.50333125923E+02 -0.50467856525E+02  0.72783391550E+02  0.00000000000E+00 0. -1.
        -13    1    3    3    0    0  0.59434223960E+02 -0.38451051923E+01 -0.45974878837E+02  0.75238961288E+02  0.00000000000E+00 0.  1.
          2    1    6    6  502    0  0.31044478719E+03  0.88227772243E+01  0.12455207953E+03  0.33461474535E+03  0.00000000000E+00 0. -1.
          3    1    5    5  503    0 -0.24602216592E+03  0.12581949718E+02 -0.20949734325E+03  0.32337957328E+03  0.00000000000E+00 0. -1.
         -4    1    5    5    0  503 -0.16578408525E+03 -0.46643823817E+02 -0.10091640055E+03  0.19960994244E+03  0.00000000000E+00 0.  1.
         -1    1    6    6    0  502  0.56657955489E+02 -0.21248923856E+02 -0.34299174121E+01  0.60608621653E+02  0.00000000000E+00 0.  1.
<mgrwt>
<rscale>  0 0.10272358E+04</rscale>
<asrwt>0</asrwt>
<pdfrwt beam="1">  1        1 0.60038533E-01 0.10272358E+04</pdfrwt>
<pdfrwt beam="2">  1       -1 0.10399766E+00 0.10272358E+04</pdfrwt>
<totfact> 0.54064596E+01</totfact>
</mgrwt>
</event>
<event>
12    1  0.2048318E-007  0.2240115E+04  0.7818608E-02  0.8501914E-01
          2   -1    0    0  501    0  0.00000000000E+00  0.00000000000E+00  0.56782359812E+03  0.56782359812E+03  0.00000000000E+00 0. -1.
         -2   -1    0    0    0  501 -0.00000000000E+00 -0.00000000000E+00 -0.22093640819E+04  0.22093640819E+04  0.00000000000E+00 0.  1.
         23    2    1    2    0    0  0.77535252684E+03 -0.31078809084E+03 -0.16511175605E+03  0.85661757264E+03  0.93653593022E+02 0.  0.
        254    2    1    2    0    0 -0.77535252684E+03  0.31078809084E+03 -0.14764287277E+04  0.19205701073E+04  0.90054815029E+03 0.  0.
        -24    2    4    4    0    0 -0.91599739229E+03  0.49775061442E+02 -0.11090844877E+04  0.14415507565E+04  0.80445032970E+02 0.  0.
         24    2    4    4    0    0  0.14064486545E+03  0.26101302940E+03 -0.36734423995E+03  0.47901935080E+03  0.81295560284E+02 0.  0.
         13    1    3    3    0    0  0.21534054006E+03 -0.46549939661E+02 -0.61978321841E+02  0.22886624359E+03  0.00000000000E+00 0.  1.
        -13    1    3    3    0    0  0.56001198678E+03 -0.26423815118E+03 -0.10313343421E+03  0.62775132905E+03  0.00000000000E+00 0. -1.
          4    1    6    6  502    0  0.11828385152E+03  0.23353439231E+03 -0.35586311415E+03  0.44177815466E+03  0.00000000000E+00 0. -1.
          3    1    5    5  503    0 -0.62108397947E+03  0.66445602036E+02 -0.72359440749E+03  0.95590229320E+03  0.00000000000E+00 0. -1.
         -4    1    5    5    0  503 -0.29491341283E+03 -0.16670540594E+02 -0.38549008024E+03  0.48564846335E+03  0.00000000000E+00 0.  1.
         -3    1    6    6    0  502  0.22361013932E+02  0.27478637086E+02 -0.11481125800E+02  0.37241196138E+02  0.00000000000E+00 0.  1.
<mgrwt>
<rscale>  0 0.22401152E+04</rscale>
<asrwt>0</asrwt>
<pdfrwt beam="1">  1        2 0.87357476E-01 0.22401152E+04</pdfrwt>
<pdfrwt beam="2">  1       -2 0.33990217E+00 0.22401152E+04</pdfrwt>
<totfact> 0.87040351E-01</totfact>
</mgrwt>
</event>
<event>
12    1  0.2048318E-007  0.2744805E+04  0.7818608E-02  0.8320612E-01
         -1   -1    0    0    0  501 -0.00000000000E+00  0.00000000000E+00  0.10318159447E+04  0.10318159447E+04  0.00000000000E+00 0.  1.
          1   -1    0    0  501    0  0.00000000000E+00 -0.00000000000E+00 -0.18254111816E+04  0.18254111816E+04  0.00000000000E+00 0. -1.
         23    2    1    2    0    0  0.33481123820E+03  0.10934200648E+04 -0.80713221825E+03  0.14021424318E+04  0.82915486995E+02 0.  0.
        254    2    1    2    0    0 -0.33481123820E+03 -0.10934200648E+04  0.13536981377E+02  0.14550846946E+04  0.89967895126E+03 0.  0.
        -24    2    4    4    0    0 -0.14704512030E+03 -0.43205733278E+03 -0.43047189616E+03  0.63279000904E+03  0.82591379327E+02 0.  0.
         24    2    4    4    0    0 -0.18776611790E+03 -0.66136273198E+03  0.44400887754E+03  0.82229468556E+03  0.79799049412E+02 0.  0.
         13    1    3    3    0    0  0.14066265318E+03  0.59430871401E+03 -0.44502683506E+03  0.75567037356E+03  0.00000000000E+00 0. -1.
        -13    1    3    3    0    0  0.19414858502E+03  0.49911135075E+03 -0.36210538319E+03  0.64647205821E+03  0.00000000000E+00 0.  1.
          2    1    6    6  502    0 -0.11655346315E+03 -0.44741004325E+03  0.25460522877E+03  0.52781083647E+03  0.00000000000E+00 0. -1.
          3    1    5    5  503    0 -0.14191858907E+03 -0.40147626967E+03 -0.42439023356E+03  0.60119144320E+03  0.00000000000E+00 0. -1.
         -4    1    5    5    0  503 -0.51265312321E+01 -0.30581063106E+02 -0.60816626059E+01  0.31598565842E+02  0.00000000000E+00 0.  1.
         -1    1    6    6    0  502 -0.71212654750E+02 -0.21395268872E+03  0.18940364877E+03  0.29448384909E+03  0.00000000000E+00 0.  1.
<mgrwt>
<rscale>  0 0.27448048E+04</rscale>
<asrwt>0</asrwt>
<pdfrwt beam="1">  1        1 0.28083249E+00 0.27448048E+04</pdfrwt>
<pdfrwt beam="2">  1       -1 0.15874091E+00 0.27448048E+04</pdfrwt>
<totfact> 0.10173642E+00</totfact>
</mgrwt>
</event>
<event>
12    1  0.2048318E-007  0.1618903E+04  0.7818608E-02  0.8809018E-01
          2   -1    0    0  501    0  0.00000000000E+00  0.00000000000E+00  0.80544687540E+03  0.80544687540E+03  0.00000000000E+00 0.  1.
         -2   -1    0    0    0  501 -0.00000000000E+00 -0.00000000000E+00 -0.81347648996E+03  0.81347648996E+03  0.00000000000E+00 0. -1.
         23    2    1    2    0    0  0.27436382332E+03 -0.45800413229E+03 -0.15530333221E+03  0.56330245147E+03  0.90262030201E+02 0.  0.
        254    2    1    2    0    0 -0.27436382332E+03  0.45800413229E+03  0.14727371765E+03  0.10556209139E+04  0.89866716486E+03 0.  0.
        -24    2    4    4    0    0 -0.33652562733E+02 -0.13631065292E+03 -0.24969520295E+03  0.29737815130E+03  0.79830955263E+02 0.  0.
         24    2    4    4    0    0 -0.24071126058E+03  0.59431478521E+03  0.39696892060E+03  0.75824276259E+03  0.78713329286E+02 0.  0.
         11    1    3    3    0    0  0.61054864371E+02 -0.67888076517E+02  0.29553375902E+01  0.91352183426E+02  0.00000000000E+00 0. -1.
        -11    1    3    3    0    0  0.21330895895E+03 -0.39011605577E+03 -0.15825866980E+03  0.47195026804E+03  0.00000000000E+00 0.  1.
          4    1    6    6  502    0 -0.21635886313E+03  0.57650745513E+03  0.37575880748E+03  0.72136446050E+03  0.00000000000E+00 0. -1.
          1    1    5    5  503    0 -0.50338450716E+02 -0.12323969519E+03 -0.17588292389E+03  0.22058283026E+03  0.00000000000E+00 0. -1.
         -2    1    5    5    0  503  0.16685887984E+02 -0.13070957735E+02 -0.73812279058E+02  0.76795321040E+02  0.00000000000E+00 0.  1.
         -3    1    6    6    0  502 -0.24352397456E+02  0.17807330078E+02  0.21210113113E+02  0.36878302084E+02  0.00000000000E+00 0.  1.
<mgrwt>
<rscale>  0 0.16189035E+04</rscale>
<asrwt>0</asrwt>
<pdfrwt beam="1">  1        2 0.12391490E+00 0.16189035E+04</pdfrwt>
<pdfrwt beam="2">  1       -2 0.12515023E+00 0.16189035E+04</pdfrwt>
<totfact> 0.15623358E+01</totfact>
</mgrwt>
</event>
<event>
12    1  0.2048318E-007  0.1248751E+04  0.7818608E-02  0.9071223E-01
         -2   -1    0    0    0  501 -0.00000000000E+00  0.00000000000E+00  0.20012751521E+03  0.20012751521E+03  0.00000000000E+00 0. -1.
          2   -1    0    0  501    0  0.00000000000E+00 -0.00000000000E+00 -0.19479821599E+04  0.19479821599E+04  0.00000000000E+00 0.  1.
         23    2    1    2    0    0 -0.23126753548E+03  0.55250186404E+02 -0.15402150185E+03  0.29775032978E+03  0.91626305079E+02 0.  0.
        254    2    1    2    0    0  0.23126753548E+03 -0.55250186404E+02 -0.15938331428E+04  0.18503593453E+04  0.90938900566E+03 0.  0.
        -24    2    4    4    0    0  0.23223491066E+03 -0.29768240242E+03 -0.15418523304E+04  0.15893949504E+04  0.79497378514E+02 0.  0.
         24    2    4    4    0    0 -0.96737517213E+00  0.24243221602E+03 -0.51980812416E+02  0.26096439491E+03  0.81400831516E+02 0.  0.
         11    1    3    3    0    0 -0.84228516112E+02 -0.86259974005E+01 -0.94148117312E+02  0.12662037257E+03  0.00000000000E+00 0.  1.
        -11    1    3    3    0    0 -0.14703901937E+03  0.63876183805E+02 -0.59873384540E+02  0.17112995720E+03  0.00000000000E+00 0. -1.
          4    1    6    6  502    0 -0.59622654601E+01  0.95516823136E+02 -0.61328773331E+02  0.11366719206E+03  0.00000000000E+00 0. -1.
          1    1    5    5  503    0  0.23791564376E+03 -0.28282179661E+03 -0.14903184460E+04  0.15354611987E+04  0.00000000000E+00 0. -1.
         -2    1    5    5    0  503 -0.56807331001E+01 -0.14860605819E+02 -0.51533884397E+02  0.53933751723E+02  0.00000000000E+00 0.  1.
         -1    1    6    6    0  502  0.49948902880E+01  0.14691539288E+03  0.93479609149E+01  0.14729720285E+03  0.00000000000E+00 0.  1.
<mgrwt>
<rscale>  0 0.12487511E+04</rscale>
<asrwt>0</asrwt>
<pdfrwt beam="1">  1        2 0.29968955E+00 0.12487511E+04</pdfrwt>
<pdfrwt beam="2">  1       -2 0.30788850E-01 0.12487511E+04</pdfrwt>
<totfact> 0.68668175E+01</totfact>
</mgrwt>
</event>
<event>
12    1  0.2048318E-007  0.1491256E+04  0.7818608E-02  0.8890288E-01
          4   -1    0    0  501    0  0.00000000000E+00  0.00000000000E+00  0.35966338976E+03  0.35966338976E+03  0.00000000000E+00 0. -1.
         -4   -1    0    0    0  501 -0.00000000000E+00 -0.00000000000E+00 -0.15457824409E+04  0.15457824409E+04  0.00000000000E+00 0.  1.
         23    2    1    2    0    0 -0.27211349467E+03 -0.27977659601E+03 -0.45419896650E+02  0.40228867741E+03  0.86327952090E+02 0.  0.
        254    2    1    2    0    0  0.27211349467E+03  0.27977659601E+03 -0.11406991545E+04  0.15031571533E+04  0.89775618554E+03 0.  0.
        -24    2    4    4    0    0  0.84806229629E+01  0.38127904583E+03 -0.73717523336E+02  0.39651418519E+03  0.79646682624E+02 0.  0.
         24    2    4    4    0    0  0.26363287170E+03 -0.10150244983E+03 -0.10669816312E+04  0.11066429681E+04  0.80023866230E+02 0.  0.
         11    1    3    3    0    0 -0.18690505776E+03 -0.17117779465E+03  0.97516771144E+01  0.25363444798E+03  0.00000000000E+00 0. -1.
        -11    1    3    3    0    0 -0.85208436907E+02 -0.10859880136E+03 -0.55171573764E+02  0.14865422943E+03  0.00000000000E+00 0.  1.
          4    1    6    6  502    0  0.20986693538E+03 -0.54912777960E+02 -0.88623393941E+03  0.91239801574E+03  0.00000000000E+00 0. -1.
          1    1    5    5  503    0  0.22215095345E+02  0.21963521499E+03 -0.63246332925E+01  0.22084641521E+03  0.00000000000E+00 0. -1.
         -2    1    5    5    0  503 -0.13734472382E+02  0.16164383084E+03 -0.67392890044E+02  0.17566776998E+03  0.00000000000E+00 0.  1.
         -3    1    6    6    0  502  0.53765936321E+02 -0.46589671870E+02 -0.18074769178E+03  0.19424495236E+03  0.00000000000E+00 0.  1.
<mgrwt>
<rscale>  0 0.14912563E+04</rscale>
<asrwt>0</asrwt>
<pdfrwt beam="1">  1        4 0.55332829E-01 0.14912563E+04</pdfrwt>
<pdfrwt beam="2">  1       -4 0.23781269E+00 0.14912563E+04</pdfrwt>
<totfact> 0.45439812E-01</totfact>
</mgrwt>
</event>
<event>
12    1  0.2048318E-007  0.2468928E+04  0.7818608E-02  0.8414140E-01
         -3   -1    0    0    0  501 -0.00000000000E+00  0.00000000000E+00  0.20509634024E+04  0.20509634024E+04  0.00000000000E+00 0.  1.
          3   -1    0    0  501    0  0.00000000000E+00 -0.00000000000E+00 -0.74301717659E+03  0.74301717659E+03  0.00000000000E+00 0. -1.
         23    2    1    2    0    0 -0.69458976371E+03  0.79515295189E+03  0.38638718524E+03  0.11283320882E+04  0.95472967400E+02 0.  0.
        254    2    1    2    0    0  0.69458976371E+03 -0.79515295189E+03  0.92155904060E+03  0.16656484908E+04  0.90021701438E+03 0.  0.
        -24    2    4    4    0    0  0.51497677695E+03 -0.94549855696E+03  0.53019490097E+03  0.12026746986E+04  0.78429558201E+02 0.  0.
         24    2    4    4    0    0  0.17961298676E+03  0.15034560506E+03  0.39136413964E+03  0.46297379226E+03  0.79462044708E+02 0.  0.
         13    1    3    3    0    0 -0.92102659632E+02  0.15852855684E+03  0.76244311292E+02  0.19856333561E+03  0.00000000000E+00 0. -1.
        -13    1    3    3    0    0 -0.60248710408E+03  0.63662439505E+03  0.31014287394E+03  0.92976875255E+03  0.00000000000E+00 0.  1.
          2    1    6    6  502    0  0.18518623698E+03  0.14389702109E+03  0.38883237582E+03  0.45408249419E+03  0.00000000000E+00 0. -1.
          3    1    5    5  503    0  0.51370108340E+03 -0.93268494577E+03  0.51512974322E+03  0.11828561466E+04  0.00000000000E+00 0. -1.
         -4    1    5    5    0  503  0.12756935525E+01 -0.12813611193E+02  0.15065157748E+02  0.19818552011E+02  0.00000000000E+00 0.  1.
         -1    1    6    6    0  502 -0.55732502204E+01  0.64485839742E+01  0.25317638181E+01  0.88912980674E+01  0.00000000000E+00 0.  1.
<mgrwt>
<rscale>  0 0.24689277E+04</rscale>
<asrwt>0</asrwt>
<pdfrwt beam="1">  1        3 0.11431034E+00 0.24689277E+04</pdfrwt>
<pdfrwt beam="2">  1       -3 0.31553283E+00 0.24689277E+04</pdfrwt>
<totfact> 0.46178531E-02</totfact>
</mgrwt>
</event>
<event>
12    1  0.2048318E-007  0.1304589E+04  0.7818608E-02  0.9025934E-01
         -2   -1    0    0    0  501 -0.00000000000E+00  0.00000000000E+00  0.44257110452E+03  0.44257110452E+03  0.00000000000E+00 0.  1.
          2   -1    0    0  501    0  0.00000000000E+00 -0.00000000000E+00 -0.96140108767E+03  0.96140108767E+03  0.00000000000E+00 0. -1.
         23    2    1    2    0    0 -0.90808531922E+02  0.17848470601E+03  0.17060960709E+03  0.27792714680E+03  0.89626341806E+02 0.  0.
        254    2    1    2    0    0  0.90808531922E+02 -0.17848470601E+03 -0.68943959024E+03  0.11260450454E+04  0.86749496592E+03 0.  0.
        -24    2    4    4    0    0 -0.20594728602E+03  0.23973702286E+03 -0.44723362862E+03  0.55335333099E+03  0.79333886762E+02 0.  0.
         24    2    4    4    0    0  0.29675581795E+03 -0.41822172887E+03 -0.24220596162E+03  0.57269171440E+03  0.79615588402E+02 0.  0.
         11    1    3    3    0    0 -0.12608242933E+02 -0.52477345490E+01 -0.22227077877E+01  0.13836435150E+02  0.00000000000E+00 0. -1.
        -11    1    3    3    0    0 -0.78200288989E+02  0.18373244056E+03  0.17283231488E+03  0.26409071165E+03  0.00000000000E+00 0.  1.
          2    1    6    6  502    0  0.14550736371E+03 -0.16503499315E+03 -0.68604813019E+02  0.23046813711E+03  0.00000000000E+00 0. -1.
          1    1    5    5  503    0 -0.19097768883E+03  0.17462310398E+03 -0.34621345305E+03  0.43223773684E+03  0.00000000000E+00 0. -1.
         -2    1    5    5    0  503 -0.14969597191E+02  0.65113918879E+02 -0.10102017558E+03  0.12111559415E+03  0.00000000000E+00 0.  1.
         -3    1    6    6    0  502  0.15124845424E+03 -0.25318673572E+03 -0.17360114860E+03  0.34222357729E+03  0.00000000000E+00 0.  1.
<mgrwt>
<rscale>  0 0.13045893E+04</rscale>
<asrwt>0</asrwt>
<pdfrwt beam="1">  1        2 0.14790786E+00 0.13045893E+04</pdfrwt>
<pdfrwt beam="2">  1       -2 0.68087863E-01 0.13045893E+04</pdfrwt>
<totfact> 0.51645974E+01</totfact>
</mgrwt>
</event>
<event>
12    1  0.2048318E-007  0.1527529E+04  0.7818608E-02  0.8866350E-01
          1   -1    0    0  501    0  0.00000000000E+00  0.00000000000E+00  0.12265966650E+04  0.12265966650E+04  0.00000000000E+00 0. -1.
         -1   -1    0    0    0  501 -0.00000000000E+00 -0.00000000000E+00 -0.47557277535E+03  0.47557277535E+03  0.00000000000E+00 0.  1.
         23    2    1    2    0    0 -0.37564482276E+03 -0.92788065825E+02  0.58662198524E+03  0.70854953648E+03  0.90545204487E+02 0.  0.
        254    2    1    2    0    0  0.37564482276E+03  0.92788065825E+02  0.16440190437E+03  0.99361990383E+03  0.90029654510E+03 0.  0.
        -24    2    4    4    0    0  0.45845774835E+03 -0.18713018190E+03 -0.18271128959E+03  0.53382766472E+03  0.79920887634E+02 0.  0.
         24    2    4    4    0    0 -0.82812925593E+02  0.27991824772E+03  0.34711319396E+03  0.45979223911E+03  0.75558769677E+02 0.  0.
         13    1    3    3    0    0 -0.12265738616E+03 -0.70714668915E+02  0.17794336184E+03  0.22739665522E+03  0.00000000000E+00 0.  1.
        -13    1    3    3    0    0 -0.25298743659E+03 -0.22073396910E+02  0.40867862340E+03  0.48115288126E+03  0.00000000000E+00 0. -1.
          2    1    6    6  502    0 -0.35691244593E+02  0.19689089485E+03  0.18991668085E+03  0.27587721015E+03  0.00000000000E+00 0. -1.
          1    1    5    5  503    0  0.24413889356E+03 -0.14035817092E+03 -0.89590600380E+02  0.29551766643E+03  0.00000000000E+00 0. -1.
         -2    1    5    5    0  503  0.21431885479E+03 -0.46772010976E+02 -0.93120689206E+02  0.23830999830E+03  0.00000000000E+00 0.  1.
         -1    1    6    6    0  502 -0.47121681000E+02  0.83027352877E+02  0.15719651311E+03  0.18391502896E+03  0.00000000000E+00 0.  1.
<mgrwt>
<rscale>  0 0.15275287E+04</rscale>
<asrwt>0</asrwt>
<pdfrwt beam="1">  1        1 0.18870718E+00 0.15275287E+04</pdfrwt>
<pdfrwt beam="2">  1       -1 0.73165043E-01 0.15275287E+04</pdfrwt>
<totfact> 0.18570987E+01</totfact>
</mgrwt>
</event>
<event>
12    1  0.2048318E-007  0.1439885E+04  0.7818608E-02  0.8925443E-01
          2   -1    0    0  501    0  0.00000000000E+00  0.00000000000E+00  0.13378855385E+04  0.13378855385E+04  0.00000000000E+00 0. -1.
         -2   -1    0    0    0  501 -0.00000000000E+00 -0.00000000000E+00 -0.38741545159E+03  0.38741545159E+03  0.00000000000E+00 0.  1.
         23    2    1    2    0    0 -0.31457252019E+03 -0.29909121636E+03  0.35663778733E+03  0.56881194663E+03  0.89135251788E+02 0.  0.
        254    2    1    2    0    0  0.31457252019E+03  0.29909121636E+03  0.59383229954E+03  0.11564890434E+04  0.89242292745E+03 0.  0.
        -24    2    4    4    0    0  0.31922634216E+03 -0.18443134066E+03  0.54761791943E+03  0.66500495798E+03  0.80161284402E+02 0.  0.
         24    2    4    4    0    0 -0.46538219671E+01  0.48352255702E+03  0.46214380117E+02  0.49148408545E+03  0.74867323428E+02 0.  0.
         13    1    3    3    0    0 -0.23760763850E+03 -0.17452371683E+03  0.26243891613E+03  0.39470254915E+03  0.00000000000E+00 0. -1.
        -13    1    3    3    0    0 -0.76964881693E+02 -0.12456749953E+03  0.94198871201E+02  0.17410939748E+03  0.00000000000E+00 0.  1.
          2    1    6    6  502    0 -0.84721923719E+01  0.82371465844E+02 -0.19235640562E+02  0.85010859875E+02  0.00000000000E+00 0. -1.
          3    1    5    5  503    0  0.12808969368E+03 -0.38558587757E+02  0.15636094395E+03  0.20577288235E+03  0.00000000000E+00 0. -1.
         -4    1    5    5    0  503  0.19113664848E+03 -0.14587275290E+03  0.39125697548E+03  0.45923207563E+03  0.00000000000E+00 0.  1.
         -1    1    6    6    0  502  0.38183704048E+01  0.40115109117E+03  0.65450020679E+02  0.40647322558E+03  0.00000000000E+00 0.  1.
<mgrwt>
<rscale>  0 0.14398855E+04</rscale>
<asrwt>0</asrwt>
<pdfrwt beam="1">  1        2 0.20582854E+00 0.14398855E+04</pdfrwt>
<pdfrwt beam="2">  1       -2 0.59602378E-01 0.14398855E+04</pdfrwt>
<totfact> 0.40052576E+01</totfact>
</mgrwt>
</event>
<event>
12    1  0.2048318E-007  0.4027767E+04  0.7818608E-02  0.7998968E-01
          4   -1    0    0  501    0  0.00000000000E+00  0.00000000000E+00  0.17905008143E+04  0.17905008143E+04  0.00000000000E+00 0. -1.
         -4   -1    0    0    0  501 -0.00000000000E+00 -0.00000000000E+00 -0.22651350323E+04  0.22651350323E+04  0.00000000000E+00 0.  1.
         23    2    1    2    0    0 -0.11804151250E+04 -0.79104744102E+03 -0.15122086651E+04  0.20770275948E+04  0.90181269445E+02 0.  0.
        254    2    1    2    0    0  0.11804151250E+04  0.79104744102E+03  0.10375744472E+04  0.19786082518E+04  0.90509334288E+03 0.  0.
        -24    2    4    4    0    0  0.56124799642E+03  0.85969486513E+03  0.46884190111E+03  0.11313605075E+04  0.78033935675E+02 0.  0.
         24    2    4    4    0    0  0.61916712858E+03 -0.68647424114E+02  0.56873254610E+03  0.84724774428E+03  0.79319791046E+02 0.  0.
         11    1    3    3    0    0 -0.28776929880E+03 -0.24007384931E+03 -0.40686518665E+03  0.55315992494E+03  0.00000000000E+00 0.  1.
        -11    1    3    3    0    0 -0.89264582620E+03 -0.55097359171E+03 -0.11053434785E+04  0.15238676699E+04  0.00000000000E+00 0. -1.
          4    1    6    6  502    0  0.52870383293E+03 -0.82340288794E+02  0.50492598883E+03  0.73570233132E+03  0.00000000000E+00 0. -1.
          1    1    5    5  503    0  0.52245368446E+03  0.77231483340E+03  0.40624143175E+03  0.10170841436E+04  0.00000000000E+00 0. -1.
         -2    1    5    5    0  503  0.38794311963E+02  0.87380031733E+02  0.62600469367E+02  0.11427636392E+03  0.00000000000E+00 0.  1.
         -3    1    6    6    0  502  0.90463295647E+02  0.13692864681E+02  0.63806557271E+02  0.11154541296E+03  0.00000000000E+00 0.  1.
<mgrwt>
<rscale>  0 0.40277667E+04</rscale>
<asrwt>0</asrwt>
<pdfrwt beam="1">  1        4 0.27546166E+00 0.40277667E+04</pdfrwt>
<pdfrwt beam="2">  1       -4 0.34848231E+00 0.40277667E+04</pdfrwt>
<totfact> 0.10249954E-03</totfact>
</mgrwt>
</event>
<event>
12    1  0.2048318E-007  0.2498826E+04  0.7818608E-02  0.8403404E-01
         -2   -1    0    0    0  501 -0.00000000000E+00  0.00000000000E+00  0.11724236911E+04  0.11724236911E+04  0.00000000000E+00 0.  1.
          2   -1    0    0  501    0  0.00000000000E+00 -0.00000000000E+00 -0.13314577055E+04  0.13314577055E+04  0.00000000000E+00 0. -1.
         23    2    1    2    0    0 -0.75851589011E+03  0.60959983642E+03  0.41675844741E+03  0.10626027242E+04  0.92079476170E+02 0.  0.
        254    2    1    2    0    0  0.75851589011E+03 -0.60959983642E+03 -0.57579246180E+03  0.14412786724E+04  0.89374992936E+03 0.  0.
        -24    2    4    4    0    0  0.92366215168E+03 -0.64552825000E+03 -0.45150855267E+03  0.12166045927E+04  0.80051669391E+02 0.  0.
         24    2    4    4    0    0 -0.16514626156E+03  0.35928413580E+02 -0.12428390914E+03  0.22467407970E+03  0.80422716992E+02 0.  0.
         11    1    3    3    0    0 -0.92585719499E+02  0.11661493444E+03  0.65498749833E+02  0.16266912620E+03  0.00000000000E+00 0.  1.
        -11    1    3    3    0    0 -0.66593017062E+03  0.49298490198E+03  0.35125969758E+03  0.89993359803E+03  0.00000000000E+00 0. -1.
          4    1    6    6  502    0 -0.42559656235E+02  0.37900036072E+01  0.57343389984E+01  0.43111148326E+02  0.00000000000E+00 0. -1.
          1    1    5    5  503    0  0.43619907490E+02 -0.48188863310E+02 -0.38941881530E+02  0.75771584474E+02  0.00000000000E+00 0. -1.
         -2    1    5    5    0  503  0.88004224419E+03 -0.59733938669E+03 -0.41256667114E+03  0.11408330082E+04  0.00000000000E+00 0.  1.
         -3    1    6    6    0  502 -0.12258660533E+03  0.32138409973E+02 -0.13001824813E+03  0.18156293137E+03  0.00000000000E+00 0.  1.
<mgrwt>
<rscale>  0 0.24988258E+04</rscale>
<asrwt>0</asrwt>
<pdfrwt beam="1">  1        2 0.20483965E+00 0.24988258E+04</pdfrwt>
<pdfrwt beam="2">  1       -2 0.18037288E+00 0.24988258E+04</pdfrwt>
<totfact> 0.25484247E+00</totfact>
</mgrwt>
</event>
<event>
12    1  0.2048318E-007  0.2132359E+04  0.7818608E-02  0.8547122E-01
         -1   -1    0    0    0  501 -0.00000000000E+00  0.00000000000E+00  0.12370755448E+04  0.12370755448E+04  0.00000000000E+00 0.  1.
          1   -1    0    0  501    0  0.00000000000E+00 -0.00000000000E+00 -0.91889154840E+03  0.91889154840E+03  0.00000000000E+00 0. -1.
         23    2    1    2    0    0 -0.34398837464E+03 -0.40170689568E+03  0.83117365736E+03  0.98925078804E+03  0.89838972824E+02 0.  0.
        254    2    1    2    0    0  0.34398837464E+03  0.40170689568E+03 -0.51298966097E+03  0.11667163052E+04  0.90463921677E+03 0.  0.
        -24    2    4    4    0    0  0.20534771935E+02 -0.16885656148E+03 -0.46824729501E+03  0.50449427969E+03  0.79528194620E+02 0.  0.
         24    2    4    4    0    0  0.32345360271E+03  0.57056345716E+03 -0.44742365954E+02  0.66222202546E+03  0.79820047271E+02 0.  0.
         11    1    3    3    0    0 -0.13968333676E+03 -0.10418722143E+03  0.30317212429E+03  0.34968521362E+03  0.00000000000E+00 0. -1.
        -11    1    3    3    0    0 -0.20430503788E+03 -0.29751967424E+03  0.52800153307E+03  0.63956557443E+03  0.00000000000E+00 0.  1.
          4    1    6    6  502    0  0.31278317630E+03  0.54543881382E+03 -0.58830192125E+02  0.63150439944E+03  0.00000000000E+00 0. -1.
          3    1    5    5  503    0  0.42704430872E+02 -0.13991400814E+03 -0.41443242577E+03  0.43949270030E+03  0.00000000000E+00 0. -1.
         -4    1    5    5    0  503 -0.22169658936E+02 -0.28942553340E+02 -0.53814869245E+02  0.65001579389E+02  0.00000000000E+00 0.  1.
         -3    1    6    6    0  502  0.10670426406E+02  0.25124643336E+02  0.14087826171E+02  0.30717626026E+02  0.00000000000E+00 0.  1.
<mgrwt>
<rscale>  0 0.21323586E+04</rscale>
<asrwt>0</asrwt>
<pdfrwt beam="1">  1        1 0.14136793E+00 0.21323586E+04</pdfrwt>
<pdfrwt beam="2">  1       -1 0.19031932E+00 0.21323586E+04</pdfrwt>
<totfact> 0.28310107E+00</totfact>
</mgrwt>
</event>
<event>
12    1  0.2048318E-007  0.2441887E+04  0.7818608E-02  0.8423986E-01
         -2   -1    0    0    0  501 -0.00000000000E+00  0.00000000000E+00  0.99559430231E+03  0.99559430231E+03  0.00000000000E+00 0.  1.
          2   -1    0    0  501    0  0.00000000000E+00 -0.00000000000E+00 -0.14972993550E+04  0.14972993550E+04  0.00000000000E+00 0. -1.
         23    2    1    2    0    0  0.13111072293E+03  0.10462454496E+04 -0.17241865450E+03  0.10723608074E+04  0.91705759823E+02 0.  0.
        254    2    1    2    0    0 -0.13111072293E+03 -0.10462454496E+04 -0.32928639816E+03  0.14205328499E+04  0.89312064320E+03 0.  0.
        -24    2    4    4    0    0  0.33751419149E+03 -0.18864002923E+03 -0.15956840751E+03  0.42507205002E+03  0.75652369040E+02 0.  0.
         24    2    4    4    0    0 -0.46862491442E+03 -0.85760542032E+03 -0.16971799066E+03  0.99546079991E+03  0.83914482729E+02 0.  0.
         13    1    3    3    0    0  0.50148780046E+02  0.20522967761E+03 -0.62617825299E+02  0.22035224700E+03  0.00000000000E+00 0. -1.
        -13    1    3    3    0    0  0.80961942885E+02  0.84101577195E+03 -0.10980082920E+03  0.85200856038E+03  0.00000000000E+00 0.  1.
          2    1    6    6  502    0 -0.86446646111E+02 -0.10910215665E+03 -0.66326347175E+01  0.13935671872E+03  0.00000000000E+00 0. -1.
          1    1    5    5  503    0  0.77297623904E+02 -0.35996504243E+02 -0.70150313310E+02  0.11041620097E+03  0.00000000000E+00 0. -1.
         -2    1    5    5    0  503  0.26021656759E+03 -0.15264352499E+03 -0.89418094198E+02  0.31465584905E+03  0.00000000000E+00 0.  1.
         -1    1    6    6    0  502 -0.38217826831E+03 -0.74850326367E+03 -0.16308535594E+03  0.85610408119E+03  0.00000000000E+00 0.  1.
<mgrwt>
<rscale>  0 0.24418867E+04</rscale>
<asrwt>0</asrwt>
<pdfrwt beam="1">  1        2 0.23035375E+00 0.24418867E+04</pdfrwt>
<pdfrwt beam="2">  1       -2 0.15316836E+00 0.24418867E+04</pdfrwt>
<totfact> 0.32357101E+00</totfact>
</mgrwt>
</event>
<event>
12    1  0.2048318E-007  0.2602118E+04  0.7818608E-02  0.8367482E-01
         -2   -1    0    0    0  501 -0.00000000000E+00  0.00000000000E+00  0.44602616563E+03  0.44602616563E+03  0.00000000000E+00 0.  1.
          2   -1    0    0  501    0  0.00000000000E+00 -0.00000000000E+00 -0.37951907862E+04  0.37951907862E+04  0.00000000000E+00 0. -1.
         23    2    1    2    0    0 -0.46583533538E+01 -0.11435889042E+04 -0.14686855797E+04  0.18636533942E+04  0.91374830168E+02 0.  0.
        254    2    1    2    0    0  0.46583533538E+01  0.11435889042E+04 -0.18804790409E+04  0.23775635577E+04  0.89932739601E+03 0.  0.
        -24    2    4    4    0    0  0.30528622447E+03  0.68865349779E+03 -0.15748801254E+04  0.17475701294E+04  0.79439466767E+02 0.  0.
         24    2    4    4    0    0 -0.30062787112E+03  0.45493540645E+03 -0.30559891551E+03  0.62999342826E+03  0.78470896229E+02 0.  0.
         11    1    3    3    0    0 -0.39196532991E+02 -0.61755371030E+03 -0.83677367274E+03  0.10407204873E+04  0.00000000000E+00 0. -1.
        -11    1    3    3    0    0  0.34538179637E+02 -0.52603519394E+03 -0.63191190695E+03  0.82293290690E+03  0.00000000000E+00 0.  1.
          4    1    6    6  502    0 -0.23350310177E+03  0.40247184068E+03 -0.26695295092E+03  0.53644306229E+03  0.00000000000E+00 0. -1.
          3    1    5    5  503    0  0.25012702929E+03  0.47538223434E+03 -0.11201382992E+04  0.12422808092E+04  0.00000000000E+00 0. -1.
         -4    1    5    5    0  503  0.55159195177E+02  0.21327126345E+03 -0.45474182619E+03  0.50528932021E+03  0.00000000000E+00 0.  1.
         -3    1    6    6    0  502 -0.67124769350E+02  0.52463565765E+02 -0.38645964590E+02  0.93550365964E+02  0.00000000000E+00 0.  1.
<mgrwt>
<rscale>  0 0.26021179E+04</rscale>
<asrwt>0</asrwt>
<pdfrwt beam="1">  1        2 0.58387549E+00 0.26021179E+04</pdfrwt>
<pdfrwt beam="2">  1       -2 0.68619412E-01 0.26021179E+04</pdfrwt>
<totfact> 0.85177573E-01</totfact>
</mgrwt>
</event>
<event>
12    1  0.2048318E-007  0.1979738E+04  0.7818608E-02  0.8616153E-01
         -2   -1    0    0    0  501 -0.00000000000E+00  0.00000000000E+00  0.86875921753E+03  0.86875921753E+03  0.00000000000E+00 0.  1.
          2   -1    0    0  501    0  0.00000000000E+00 -0.00000000000E+00 -0.11278622401E+04  0.11278622401E+04  0.00000000000E+00 0. -1.
         23    2    1    2    0    0 -0.92102888771E+02 -0.77688941401E+03 -0.12090957812E+03  0.79681757925E+03  0.90879176885E+02 0.  0.
        254    2    1    2    0    0  0.92102888771E+02  0.77688941401E+03 -0.13819344449E+03  0.11998038784E+04  0.89910611991E+03 0.  0.
        -24    2    4    4    0    0 -0.23276701029E+03 -0.27930196341E+01  0.16773891700E+03  0.29789786919E+03  0.80115629869E+02 0.  0.
         24    2    4    4    0    0  0.32486989906E+03  0.77968243365E+03 -0.30593236149E+03  0.90190600924E+03  0.79966812152E+02 0.  0.
         11    1    3    3    0    0 -0.74560766079E+01 -0.43702009697E+03 -0.57035424303E+02  0.44078928963E+03  0.00000000000E+00 0. -1.
        -11    1    3    3    0    0 -0.84646812163E+02 -0.33986931705E+03 -0.63874153818E+02  0.35602828961E+03  0.00000000000E+00 0.  1.
          4    1    6    6  502    0  0.12201603895E+03  0.31237247264E+03 -0.16253978553E+03  0.37267097728E+03  0.00000000000E+00 0. -1.
          3    1    5    5  503    0 -0.18552657447E+02 -0.69823296697E+01  0.49185884858E+02  0.53030230013E+02  0.00000000000E+00 0. -1.
         -4    1    5    5    0  503 -0.21421435284E+03  0.41893100356E+01  0.11855303214E+03  0.24486763917E+03  0.00000000000E+00 0.  1.
         -3    1    6    6    0  502  0.20285386011E+03  0.46730996101E+03 -0.14339257596E+03  0.52923503196E+03  0.00000000000E+00 0.  1.
<mgrwt>
<rscale>  0 0.19797381E+04</rscale>
<asrwt>0</asrwt>
<pdfrwt beam="1">  1        2 0.17351727E+00 0.19797381E+04</pdfrwt>
<pdfrwt beam="2">  1       -2 0.13365527E+00 0.19797381E+04</pdfrwt>
<totfact> 0.78887301E+00</totfact>
</mgrwt>
</event>
<event>
12    1  0.2048318E-007  0.2087402E+04  0.7818608E-02  0.8566813E-01
         -2   -1    0    0    0  501 -0.00000000000E+00  0.00000000000E+00  0.20454420420E+04  0.20454420420E+04  0.00000000000E+00 0.  1.
          2   -1    0    0  501    0  0.00000000000E+00 -0.00000000000E+00 -0.53255579210E+03  0.53255579210E+03  0.00000000000E+00 0. -1.
         23    2    1    2    0    0  0.10605869090E+03  0.18570791189E+03 -0.39413615815E+03  0.45803511677E+03  0.93364782353E+02 0.  0.
        254    2    1    2    0    0 -0.10605869090E+03 -0.18570791189E+03  0.19070224081E+04  0.21199627173E+04  0.90098367557E+03 0.  0.
        -24    2    4    4    0    0 -0.10201954472E+03 -0.46018254459E+03  0.17053101229E+04  0.17711034884E+04  0.80925827931E+02 0.  0.
         24    2    4    4    0    0 -0.40391461743E+01  0.27447463270E+03  0.20171228519E+03  0.34885922894E+03  0.75248102464E+02 0.  0.
         11    1    3    3    0    0  0.92723233743E+02  0.13508641598E+03 -0.36002049817E+03  0.39555113066E+03  0.00000000000E+00 0. -1.
        -11    1    3    3    0    0  0.13335457155E+02  0.50621495909E+02 -0.34115659976E+02  0.62483986118E+02  0.00000000000E+00 0.  1.
          4    1    6    6  502    0  0.10189231854E+02  0.25281476232E+03  0.15878800508E+03  0.29871852144E+03  0.00000000000E+00 0. -1.
          3    1    5    5  503    0 -0.10795800837E+03 -0.34488450018E+03  0.12314558003E+04  0.12833875635E+04  0.00000000000E+00 0. -1.
         -4    1    5    5    0  503  0.59384636454E+01 -0.11529804441E+03  0.47385432253E+03  0.48771592487E+03  0.00000000000E+00 0.  1.
         -1    1    6    6    0  502 -0.14228378029E+02  0.21659870382E+02  0.42924280111E+02  0.50140707507E+02  0.00000000000E+00 0.  1.
<mgrwt>
<rscale>  0 0.20874022E+04</rscale>
<asrwt>0</asrwt>
<pdfrwt beam="1">  1        2 0.81931661E-01 0.20874022E+04</pdfrwt>
<pdfrwt beam="2">  1       -2 0.31468339E+00 0.20874022E+04</pdfrwt>
<totfact> 0.13639732E+00</totfact>
</mgrwt>
</event>
<event>
12    1  0.2048318E-007  0.2707891E+04  0.7818608E-02  0.8332449E-01
         -2   -1    0    0    0  501 -0.00000000000E+00  0.00000000000E+00  0.16702464888E+04  0.16702464888E+04  0.00000000000E+00 0.  1.
          2   -1    0    0  501    0  0.00000000000E+00 -0.00000000000E+00 -0.10975434247E+04  0.10975434247E+04  0.00000000000E+00 0. -1.
         23    2    1    2    0    0 -0.63741559813E+03 -0.10199637560E+04  0.25827972003E+03  0.12333419796E+04  0.88313739384E+02 0.  0.
        254    2    1    2    0    0  0.63741559813E+03  0.10199637560E+04  0.31442334400E+03  0.15344479340E+04  0.89946857340E+03 0.  0.
        -24    2    4    4    0    0 -0.21318426057E+03  0.26273437215E+03 -0.11096849223E+02  0.34756886044E+03  0.78766067700E+02 0.  0.
         24    2    4    4    0    0  0.85059985870E+03  0.75722938382E+03  0.32552019322E+03  0.11868790735E+04  0.76171383117E+02 0.  0.
         11    1    3    3    0    0 -0.34516058733E+03 -0.53431928643E+03  0.18055872769E+03  0.66123701125E+03  0.00000000000E+00 0. -1.
        -11    1    3    3    0    0 -0.29225501080E+03 -0.48564446953E+03  0.77720992339E+02  0.57210496832E+03  0.00000000000E+00 0.  1.
          4    1    6    6  502    0  0.43126893212E+03  0.41073789581E+03  0.13646608559E+03  0.61100041194E+03  0.00000000000E+00 0. -1.
          1    1    5    5  503    0 -0.14055503772E+03  0.15515469506E+03  0.29831391643E+02  0.21146775157E+03  0.00000000000E+00 0. -1.
         -2    1    5    5    0  503 -0.72629222851E+02  0.10757967709E+03 -0.40928240866E+02  0.13610110887E+03  0.00000000000E+00 0.  1.
         -3    1    6    6    0  502  0.41933092658E+03  0.34649148801E+03  0.18905410763E+03  0.57587866158E+03  0.00000000000E+00 0.  1.
<mgrwt>
<rscale>  0 0.27078907E+04</rscale>
<asrwt>0</asrwt>
<pdfrwt beam="1">  1        2 0.16885283E+00 0.27078907E+04</pdfrwt>
<pdfrwt beam="2">  1       -2 0.25696100E+00 0.27078907E+04</pdfrwt>
<totfact> 0.11161944E+00</totfact>
</mgrwt>
</event>
<event>
12    1  0.2048318E-007  0.3778464E+04  0.7818608E-02  0.8050792E-01
          2   -1    0    0  501    0  0.00000000000E+00  0.00000000000E+00  0.41840143694E+04  0.41840143694E+04  0.00000000000E+00 0. -1.
         -2   -1    0    0    0  501 -0.00000000000E+00 -0.00000000000E+00 -0.85305581290E+03  0.85305581290E+03  0.00000000000E+00 0.  1.
         23    2    1    2    0    0  0.16382214430E+04 -0.42166521191E+03  0.83597877059E+03  0.18891001467E+04  0.90927511714E+02 0.  0.
        254    2    1    2    0    0 -0.16382214430E+04  0.42166521191E+03  0.24949797859E+04  0.31479700355E+04  0.90731481064E+03 0.  0.
        -24    2    4    4    0    0 -0.13114950103E+04 -0.78836278075E+02  0.17099938076E+04  0.21579455251E+04  0.80098353925E+02 0.  0.
         24    2    4    4    0    0 -0.32672643268E+03  0.50050148999E+03  0.78498597826E+03  0.99002451048E+03  0.81814680809E+02 0.  0.
         11    1    3    3    0    0  0.84289086769E+03 -0.19683473513E+03  0.47340979002E+03  0.98657273279E+03  0.00000000000E+00 0. -1.
        -11    1    3    3    0    0  0.79533057528E+03 -0.22483047678E+03  0.36256898057E+03  0.90252741395E+03  0.00000000000E+00 0.  1.
          2    1    6    6  502    0 -0.35703840681E+01  0.43518958786E+01  0.30117022306E+02  0.30638565122E+02  0.00000000000E+00 0. -1.
          3    1    5    5  503    0 -0.65391515061E+03 -0.36380555268E+02  0.78690753664E+03  0.10237929675E+04  0.00000000000E+00 0. -1.
         -4    1    5    5    0  503 -0.65757985968E+03 -0.42455722806E+02  0.92308627098E+03  0.11341525576E+04  0.00000000000E+00 0.  1.
         -1    1    6    6    0  502 -0.32315604861E+03  0.49614959411E+03  0.75486895595E+03  0.95938594536E+03  0.00000000000E+00 0.  1.
<mgrwt>
<rscale>  0 0.37784641E+04</rscale>
<asrwt>0</asrwt>
<pdfrwt beam="1">  1        2 0.64369451E+00 0.37784641E+04</pdfrwt>
<pdfrwt beam="2">  1       -2 0.13123936E+00 0.37784641E+04</pdfrwt>
<totfact> 0.81409118E-02</totfact>
</mgrwt>
</event>
<event>
12    1  0.2048318E-007  0.1559354E+04  0.7818608E-02  0.8845915E-01
         -1   -1    0    0    0  501 -0.00000000000E+00  0.00000000000E+00  0.52248679869E+03  0.52248679869E+03  0.00000000000E+00 0.  1.
          1   -1    0    0  501    0  0.00000000000E+00 -0.00000000000E+00 -0.11634667844E+04  0.11634667844E+04  0.00000000000E+00 0. -1.
         23    2    1    2    0    0  0.40005050903E+03 -0.32413963924E+03 -0.26016550810E+03  0.58403360478E+03  0.91116652747E+02 0.  0.
        254    2    1    2    0    0 -0.40005050903E+03  0.32413963924E+03 -0.38081447763E+03  0.11019199783E+04  0.89671682084E+03 0.  0.
        -24    2    4    4    0    0 -0.20299253265E+03 -0.66313796157E+02 -0.57373724357E+03  0.61725484383E+03  0.78902659633E+02 0.  0.
         24    2    4    4    0    0 -0.19705797638E+03  0.39045343539E+03  0.19292276595E+03  0.48466513450E+03  0.79971042996E+02 0.  0.
         11    1    3    3    0    0  0.39040347084E+03 -0.30957393842E+03 -0.22910684421E+03  0.54839843130E+03  0.00000000000E+00 0.  1.
        -11    1    3    3    0    0  0.96470381904E+01 -0.14565700819E+02 -0.31058663889E+02  0.35635173477E+02  0.00000000000E+00 0. -1.
          2    1    6    6  502    0 -0.60426032598E+02  0.60882890376E+02  0.56432268119E+02  0.10267732291E+03  0.00000000000E+00 0. -1.
          1    1    5    5  503    0 -0.11957697678E+02 -0.52279580768E+01 -0.12569019352E+03  0.12636590848E+03  0.00000000000E+00 0. -1.
         -2    1    5    5    0  503 -0.19103483497E+03 -0.61085838080E+02 -0.44804705006E+03  0.49088893535E+03  0.00000000000E+00 0.  1.
         -1    1    6    6    0  502 -0.13663194378E+03  0.32957054502E+03  0.13649049783E+03  0.38198781159E+03  0.00000000000E+00 0.  1.
<mgrwt>
<rscale>  0 0.15593538E+04</rscale>
<asrwt>0</asrwt>
<pdfrwt beam="1">  1        1 0.17899489E+00 0.15593538E+04</pdfrwt>
<pdfrwt beam="2">  1       -1 0.80382585E-01 0.15593538E+04</pdfrwt>
<totfact> 0.16900855E+01</totfact>
</mgrwt>
</event>
<event>
12    1  0.2048318E-007  0.1373575E+04  0.7818608E-02  0.8973172E-01
          1   -1    0    0  501    0  0.00000000000E+00  0.00000000000E+00  0.10759792466E+04  0.10759792466E+04  0.00000000000E+00 0. -1.
         -1   -1    0    0    0  501 -0.00000000000E+00 -0.00000000000E+00 -0.43836977193E+03  0.43836977193E+03  0.00000000000E+00 0.  1.
         23    2    1    2    0    0  0.32897610277E+03 -0.19109362047E+03  0.10744612091E+03  0.40568568607E+03  0.91072273528E+02 0.  0.
        254    2    1    2    0    0 -0.32897610277E+03  0.19109362047E+03  0.53016335372E+03  0.11086633324E+04  0.89628073449E+03 0.  0.
        -24    2    4    4    0    0 -0.12047363028E+03  0.50511015310E+03  0.10740126724E+03  0.53679409200E+03  0.83442810606E+02 0.  0.
         24    2    4    4    0    0 -0.20850247250E+03 -0.31401653263E+03  0.42276208648E+03  0.57186924041E+03  0.78911232143E+02 0.  0.
         13    1    3    3    0    0  0.92945467828E+02 -0.15734381666E+02  0.53401737445E+01  0.94419003447E+02  0.00000000000E+00 0.  1.
        -13    1    3    3    0    0  0.23603063494E+03 -0.17535923881E+03  0.10210594716E+03  0.31126668263E+03  0.00000000000E+00 0. -1.
          4    1    6    6  502    0 -0.17716005773E+02 -0.75251410560E+02  0.62356904794E+02  0.99322783023E+02  0.00000000000E+00 0. -1.
          1    1    5    5  503    0  0.19860846197E+01  0.54100734366E+02  0.33457023977E+02  0.63641232267E+02  0.00000000000E+00 0. -1.
         -2    1    5    5    0  503 -0.12245971490E+03  0.45100941873E+03  0.73944243262E+02  0.47315285973E+03  0.00000000000E+00 0.  1.
         -3    1    6    6    0  502 -0.19078646672E+03 -0.23876512207E+03  0.36040518168E+03  0.47254645738E+03  0.00000000000E+00 0.  1.
<mgrwt>
<rscale>  0 0.13735746E+04</rscale>
<asrwt>0</asrwt>
<pdfrwt beam="1">  1        1 0.16553527E+00 0.13735746E+04</pdfrwt>
<pdfrwt beam="2">  1       -1 0.67441504E-01 0.13735746E+04</pdfrwt>
<totfact> 0.28766648E+01</totfact>
</mgrwt>
</event>
<event>
12    1  0.2048318E-007  0.2854561E+04  0.7818608E-02  0.8286527E-01
          1   -1    0    0  501    0  0.00000000000E+00  0.00000000000E+00  0.87065380390E+03  0.87065380390E+03  0.00000000000E+00 0. -1.
         -1   -1    0    0    0  501 -0.00000000000E+00 -0.00000000000E+00 -0.23397704053E+04  0.23397704053E+04  0.00000000000E+00 0.  1.
         23    2    1    2    0    0  0.77062158277E+03  0.10144130603E+04 -0.48028775837E+03  0.13645441211E+04  0.91721572289E+02 0.  0.
        254    2    1    2    0    0 -0.77062158277E+03 -0.10144130603E+04 -0.98882884308E+03  0.18458800881E+04  0.89810875622E+03 0.  0.
        -24    2    4    4    0    0 -0.87698603680E+03 -0.99429741454E+03 -0.64509720331E+03  0.14766862682E+04  0.81976067661E+02 0.  0.
         24    2    4    4    0    0  0.10636445403E+03 -0.20115645801E+02 -0.34373163977E+03  0.36919381992E+03  0.80215959791E+02 0.  0.
         11    1    3    3    0    0  0.55186197028E+03  0.75731814208E+03 -0.31424986542E+03  0.98834982698E+03  0.00000000000E+00 0. -1.
        -11    1    3    3    0    0  0.21875961250E+03  0.25709491826E+03 -0.16603789295E+03  0.37619429414E+03  0.00000000000E+00 0.  1.
          4    1    6    6  502    0  0.16808790266E+02 -0.27224600582E+02 -0.33960360403E+02  0.46658551046E+02  0.00000000000E+00 0. -1.
          3    1    5    5  503    0 -0.12860402795E+02 -0.29923508886E+02 -0.24550448143E+02  0.40786405188E+02  0.00000000000E+00 0. -1.
         -4    1    5    5    0  503 -0.86412563401E+03 -0.96437390565E+03 -0.62054675517E+03  0.14358998630E+04  0.00000000000E+00 0.  1.
         -1    1    6    6    0  502  0.89555663763E+02  0.71089547812E+01 -0.30977127937E+03  0.32253526888E+03  0.00000000000E+00 0.  1.
<mgrwt>
<rscale>  0 0.28545613E+04</rscale>
<asrwt>0</asrwt>
<pdfrwt beam="1">  1        1 0.13394674E+00 0.28545613E+04</pdfrwt>
<pdfrwt beam="2">  1       -1 0.35996468E+00 0.28545613E+04</pdfrwt>
<totfact> 0.22112738E-01</totfact>
</mgrwt>
</event>
<event>
12    1  0.3112854E-007  0.3350451E+04  0.7818608E-02  0.8150175E-01
         -1   -1    0    0    0  501 -0.00000000000E+00  0.00000000000E+00  0.17509917515E+04  0.17509917515E+04  0.00000000000E+00 0.  1.
          1   -1    0    0  501    0  0.00000000000E+00 -0.00000000000E+00 -0.16027376679E+04  0.16027376679E+04  0.00000000000E+00 0. -1.
         23    2    1    2    0    0  0.10622203094E+04 -0.19349718095E+03  0.11859204632E+04  0.16060750100E+04  0.85536239323E+02 0.  0.
        254    2    1    2    0    0 -0.10622203094E+04  0.19349718095E+03 -0.10376663795E+04  0.17476544094E+04  0.90099460314E+03 0.  0.
        -24    2    4    4    0    0 -0.95942377957E+03  0.42112246682E+03 -0.53152807971E+03  0.11775497599E+04  0.79140486576E+02 0.  0.
         24    2    4    4    0    0 -0.10279652978E+03 -0.22762528587E+03 -0.50613829982E+03  0.57010464952E+03  0.80392384959E+02 0.  0.
         13    1    3    3    0    0  0.43586683473E+03 -0.12227708589E+03  0.49528524107E+03  0.67099854946E+03  0.00000000000E+00 0. -1.
        -13    1    3    3    0    0  0.62635347462E+03 -0.71220095066E+02  0.69063522209E+03  0.93507646056E+03  0.00000000000E+00 0.  1.
          4    1    6    6  502    0 -0.67908728982E-01  0.26112252842E+01 -0.40586913943E+02  0.40670882613E+02  0.00000000000E+00 0. -1.
          3    1    5    5  503    0 -0.72329860894E+02  0.10083874418E+02 -0.34431364914E+02  0.80739161440E+02  0.00000000000E+00 0. -1.
         -2    1    5    5    0  503 -0.88709391868E+03  0.41103859241E+03 -0.49709671479E+03  0.10968105984E+04  0.00000000000E+00 0.  1.
         -3    1    6    6    0  502 -0.10272862105E+03 -0.23023651115E+03 -0.46555138588E+03  0.52943376691E+03  0.00000000000E+00 0.  1.
<mgrwt>
<rscale>  0 0.33504510E+04</rscale>
<asrwt>0</asrwt>
<pdfrwt beam="1">  1        1 0.24657503E+00 0.33504510E+04</pdfrwt>
<pdfrwt beam="2">  1       -1 0.26938335E+00 0.33504510E+04</pdfrwt>
<totfact> 0.23934429E-01</totfact>
</mgrwt>
</event>
<event>
12    1  0.2048318E-007  0.1708309E+04  0.7818608E-02  0.8756640E-01
         -2   -1    0    0    0  501 -0.00000000000E+00  0.00000000000E+00  0.58272583579E+03  0.58272583579E+03  0.00000000000E+00 0.  1.
          2   -1    0    0  501    0  0.00000000000E+00 -0.00000000000E+00 -0.12520120427E+04  0.12520120427E+04  0.00000000000E+00 0. -1.
         23    2    1    2    0    0  0.25669834594E+02 -0.52384479597E+03  0.99075477623E+02  0.54151769638E+03  0.91395593699E+02 0.  0.
        254    2    1    2    0    0 -0.25669834594E+02  0.52384479597E+03 -0.76836168455E+03  0.12932201821E+04  0.89831311383E+03 0.  0.
        -24    2    4    4    0    0  0.26486584457E+03  0.87306544323E+02 -0.70071958555E+03  0.75846097579E+03  0.80490781564E+02 0.  0.
         24    2    4    4    0    0 -0.29053567916E+03  0.43653825165E+03 -0.67642098996E+02  0.53475920633E+03  0.80095750050E+02 0.  0.
         13    1    3    3    0    0 -0.47534313076E+01 -0.41793125927E+03  0.50177351119E+02  0.42095949823E+03  0.00000000000E+00 0. -1.
        -13    1    3    3    0    0  0.30423265901E+02 -0.10591353670E+03  0.48898126504E+02  0.12055819815E+03  0.00000000000E+00 0.  1.
          4    1    6    6  502    0 -0.22397301457E+03  0.27293597617E+03 -0.31474442812E+02  0.35446946115E+03  0.00000000000E+00 0. -1.
          1    1    5    5  503    0  0.16123351422E+03  0.56603903436E+02 -0.32089576825E+03  0.36355789370E+03  0.00000000000E+00 0. -1.
         -2    1    5    5    0  503  0.10363233035E+03  0.30702640887E+02 -0.37982381731E+03  0.39490308209E+03  0.00000000000E+00 0.  1.
         -3    1    6    6    0  502 -0.66562664598E+02  0.16360227548E+03 -0.36167656183E+02  0.18028974518E+03  0.00000000000E+00 0.  1.
<mgrwt>
<rscale>  0 0.17083088E+04</rscale>
<asrwt>0</asrwt>
<pdfrwt beam="1">  1        2 0.19261724E+00 0.17083088E+04</pdfrwt>
<pdfrwt beam="2">  1       -2 0.89650129E-01 0.17083088E+04</pdfrwt>
<totfact> 0.17889369E+01</totfact>
</mgrwt>
</event>
<event>
12    1  0.2048318E-007  0.1225172E+04  0.7818608E-02  0.9091104E-01
          2   -1    0    0  501    0  0.00000000000E+00  0.00000000000E+00  0.55398162900E+03  0.55398162900E+03  0.00000000000E+00 0. -1.
         -2   -1    0    0    0  501 -0.00000000000E+00 -0.00000000000E+00 -0.67739005145E+03  0.67739005145E+03  0.00000000000E+00 0.  1.
         23    2    1    2    0    0 -0.53341767700E+02  0.10721433199E+03  0.21330551232E+03  0.26292028108E+03  0.96372067801E+02 0.  0.
        254    2    1    2    0    0  0.53341767700E+02 -0.10721433199E+03 -0.33671393478E+03  0.96845139936E+03  0.90010087317E+03 0.  0.
        -24    2    4    4    0    0  0.21350722664E+03 -0.25029378787E+03  0.19415513968E+03  0.39036550507E+03  0.80353551293E+02 0.  0.
         24    2    4    4    0    0 -0.16016545894E+03  0.14307945588E+03 -0.53086907446E+03  0.57808589430E+03  0.78972286467E+02 0.  0.
         11    1    3    3    0    0 -0.64194196695E+02  0.91433095343E+02  0.21638388744E+03  0.24352185232E+03  0.00000000000E+00 0. -1.
        -11    1    3    3    0    0  0.10852428994E+02  0.15781236646E+02 -0.30783751173E+01  0.19398428764E+02  0.00000000000E+00 0.  1.
          4    1    6    6  502    0 -0.92203360553E+02  0.12378058417E+03 -0.31188803164E+03  0.34799028291E+03  0.00000000000E+00 0. -1.
          1    1    5    5  503    0  0.16450147767E+03 -0.22210117181E+03  0.13182673188E+03  0.30621553506E+03  0.00000000000E+00 0. -1.
         -2    1    5    5    0  503  0.49005748967E+02 -0.28192616066E+02  0.62328407807E+02  0.84149970007E+02  0.00000000000E+00 0.  1.
         -3    1    6    6    0  502 -0.67962098388E+02  0.19298871714E+02 -0.21898104282E+03  0.23009561139E+03  0.00000000000E+00 0.  1.
<mgrwt>
<rscale>  0 0.12251721E+04</rscale>
<asrwt>0</asrwt>
<pdfrwt beam="1">  1        2 0.85227944E-01 0.12251721E+04</pdfrwt>
<pdfrwt beam="2">  1       -2 0.10421385E+00 0.12251721E+04</pdfrwt>
<totfact> 0.40250849E+01</totfact>
</mgrwt>
</event>
<event>
12    1  0.2048318E-007  0.2046879E+04  0.7818608E-02  0.8585012E-01
          1   -1    0    0  501    0  0.00000000000E+00  0.00000000000E+00  0.85618475238E+03  0.85618475238E+03  0.00000000000E+00 0. -1.
         -1   -1    0    0    0  501 -0.00000000000E+00 -0.00000000000E+00 -0.12233667395E+04  0.12233667395E+04  0.00000000000E+00 0.  1.
         23    2    1    2    0    0  0.70690546357E+03 -0.52068273460E+02  0.27545240076E+03  0.76603223455E+03  0.92222121807E+02 0.  0.
        254    2    1    2    0    0 -0.70690546357E+03  0.52068273460E+02 -0.64263438786E+03  0.13135192573E+04  0.89995968985E+03 0.  0.
        -24    2    4    4    0    0 -0.74277066724E+03  0.21339642518E+03 -0.76638284677E+03  0.10914953079E+04  0.82298487229E+02 0.  0.
         24    2    4    4    0    0  0.35865203665E+02 -0.16132815172E+03  0.12374845891E+03  0.22202394939E+03  0.81657012250E+02 0.  0.
         11    1    3    3    0    0  0.26102506942E+03 -0.55314753000E+02  0.75051287097E+02  0.27717594496E+03  0.00000000000E+00 0. -1.
        -11    1    3    3    0    0  0.44588039415E+03  0.32464795400E+01  0.20040111366E+03  0.48885628959E+03  0.00000000000E+00 0.  1.
          2    1    6    6  502    0  0.36723892217E+02 -0.13411004267E+03  0.13382749606E+03  0.19298690760E+03  0.00000000000E+00 0. -1.
          3    1    5    5  503    0 -0.67084404904E+03  0.21689040068E+03 -0.68921085505E+03  0.98594360222E+03  0.00000000000E+00 0. -1.
         -4    1    5    5    0  503 -0.71926618201E+02 -0.34939755003E+01 -0.77171991729E+02  0.10555170571E+03  0.00000000000E+00 0.  1.
         -1    1    6    6    0  502 -0.85868855196E+00 -0.27218109046E+02 -0.10079037145E+02  0.29037041789E+02  0.00000000000E+00 0.  1.
<mgrwt>
<rscale>  0 0.20468785E+04</rscale>
<asrwt>0</asrwt>
<pdfrwt beam="1">  1        1 0.13172073E+00 0.20468785E+04</pdfrwt>
<pdfrwt beam="2">  1       -1 0.18821027E+00 0.20468785E+04</pdfrwt>
<totfact> 0.33254764E+00</totfact>
</mgrwt>
</event>
<event>
12    1  0.2048318E-007  0.1565290E+04  0.7818608E-02  0.8842160E-01
          1   -1    0    0  501    0  0.00000000000E+00  0.00000000000E+00  0.96562890310E+03  0.96562890310E+03  0.00000000000E+00 0. -1.
         -1   -1    0    0    0  501 -0.00000000000E+00 -0.00000000000E+00 -0.63433610961E+03  0.63433610961E+03  0.00000000000E+00 0.  1.
         23    2    1    2    0    0 -0.38422018821E+03 -0.33880810741E+03  0.28140618287E+02  0.52120718156E+03  0.91918143090E+02 0.  0.
        254    2    1    2    0    0  0.38422018821E+03  0.33880810741E+03  0.30315217520E+03  0.10787578312E+04  0.89966723307E+03 0.  0.
        -24    2    4    4    0    0  0.33451740747E+03  0.56883754961E+03  0.43644069865E+03  0.79540670037E+03  0.81934619122E+02 0.  0.
         24    2    4    4    0    0  0.49702780742E+02 -0.23002944219E+03 -0.13328852345E+03  0.28335113078E+03  0.84487408174E+02 0.  0.
         13    1    3    3    0    0 -0.39518346865E+01 -0.30857082976E+02  0.25882617269E+01  0.31216592799E+02  0.00000000000E+00 0.  1.
        -13    1    3    3    0    0 -0.38026835353E+03 -0.30795102444E+03  0.25552356560E+02  0.48999058876E+03  0.00000000000E+00 0. -1.
          2    1    6    6  502    0  0.33988708234E+02 -0.21692267264E+03 -0.93578423334E+02  0.23867886271E+03  0.00000000000E+00 0. -1.
          1    1    5    5  503    0  0.29226692957E+03  0.53533927216E+03  0.38765149131E+03  0.72269064831E+03  0.00000000000E+00 0. -1.
         -2    1    5    5    0  503  0.42250477898E+02  0.33498277451E+02  0.48789207341E+02  0.72716052064E+02  0.00000000000E+00 0.  1.
         -1    1    6    6    0  502  0.15714072507E+02 -0.13106769559E+02 -0.39710100118E+02  0.44672268069E+02  0.00000000000E+00 0.  1.
<mgrwt>
<rscale>  0 0.15652901E+04</rscale>
<asrwt>0</asrwt>
<pdfrwt beam="1">  1        1 0.14855829E+00 0.15652901E+04</pdfrwt>
<pdfrwt beam="2">  1       -1 0.97590171E-01 0.15652901E+04</pdfrwt>
<totfact> 0.15619919E+01</totfact>
</mgrwt>
</event>
<event>
12    1  0.2048318E-007  0.2001409E+04  0.7818608E-02  0.8605962E-01
          2   -1    0    0  501    0  0.00000000000E+00  0.00000000000E+00  0.37200423174E+04  0.37200423174E+04  0.00000000000E+00 0. -1.
         -2   -1    0    0    0  501 -0.00000000000E+00 -0.00000000000E+00 -0.26919307528E+03  0.26919307528E+03  0.00000000000E+00 0.  1.
         23    2    1    2    0    0 -0.74833898810E+03  0.17829972869E+03  0.17740245954E+04  0.19357636503E+04  0.90640003188E+02 0.  0.
        254    2    1    2    0    0  0.74833898810E+03 -0.17829972869E+03  0.16768246467E+04  0.20534717424E+04  0.90177783669E+03 0.  0.
        -24    2    4    4    0    0  0.90441459005E+03  0.29747721623E+02  0.13658954811E+04  0.16404245139E+04  0.80445279209E+02 0.  0.
         24    2    4    4    0    0 -0.15607560195E+03 -0.20804745031E+03  0.31092916562E+03  0.41304722851E+03  0.79295219528E+02 0.  0.
         13    1    3    3    0    0 -0.12405144884E+03  0.56741607939E+02  0.37202626882E+03  0.39624729239E+03  0.00000000000E+00 0. -1.
        -13    1    3    3    0    0 -0.62428753926E+03  0.12155812075E+03  0.14019983266E+04  0.15395163579E+04  0.00000000000E+00 0.  1.
          4    1    6    6  502    0 -0.13144845619E+03 -0.11202237706E+03  0.19324646938E+03  0.25917543773E+03  0.00000000000E+00 0. -1.
          3    1    5    5  503    0  0.76556536757E+03  0.50999167971E+02  0.11297327300E+04  0.13656453743E+04  0.00000000000E+00 0. -1.
         -4    1    5    5    0  503  0.13884922248E+03 -0.21251446348E+02  0.23616275111E+03  0.27477913961E+03  0.00000000000E+00 0.  1.
         -3    1    6    6    0  502 -0.24627145758E+02 -0.96025073253E+02  0.11768269624E+03  0.15387179078E+03  0.00000000000E+00 0.  1.
<mgrwt>
<rscale>  0 0.20014091E+04</rscale>
<asrwt>0</asrwt>
<pdfrwt beam="1">  1        2 0.57231416E+00 0.20014091E+04</pdfrwt>
<pdfrwt beam="2">  1       -2 0.41414322E-01 0.20014091E+04</pdfrwt>
<totfact> 0.29163240E+00</totfact>
</mgrwt>
</event>
<event>
12    1  0.2048318E-007  0.1742122E+04  0.7818608E-02  0.8737699E-01
         -2   -1    0    0    0  501 -0.00000000000E+00  0.00000000000E+00  0.61488330666E+03  0.61488330666E+03  0.00000000000E+00 0. -1.
          2   -1    0    0  501    0  0.00000000000E+00 -0.00000000000E+00 -0.12339694793E+04  0.12339694793E+04  0.00000000000E+00 0.  1.
         23    2    1    2    0    0  0.57451624697E+03 -0.11965367750E+03 -0.48506699621E+03  0.76687481772E+03  0.91766413611E+02 0.  0.
        254    2    1    2    0    0 -0.57451624697E+03  0.11965367750E+03 -0.13401917639E+03  0.10819779682E+04  0.89907133389E+03 0.  0.
        -24    2    4    4    0    0 -0.31105108051E+03 -0.35573652767E+03 -0.21805969589E+03  0.52634565614E+03  0.78666809747E+02 0.  0.
         24    2    4    4    0    0 -0.26346516646E+03  0.47539020517E+03  0.84040519498E+02  0.55563231205E+03  0.79086763539E+02 0.  0.
         11    1    3    3    0    0  0.13554465269E+03 -0.14222325674E+02 -0.68238977279E+02  0.15241779896E+03  0.00000000000E+00 0. -1.
        -11    1    3    3    0    0  0.43897159428E+03 -0.10543135182E+03 -0.41682801893E+03  0.61445701876E+03  0.00000000000E+00 0.  1.
          4    1    6    6  502    0 -0.24730179333E+03  0.46566233853E+03  0.69507303636E+02  0.53181844249E+03  0.00000000000E+00 0. -1.
          3    1    5    5  503    0 -0.28144274903E+03 -0.33670142716E+03 -0.22038895188E+03  0.49106940665E+03  0.00000000000E+00 0. -1.
         -4    1    5    5    0  503 -0.29608331479E+02 -0.19035100513E+02  0.23292559946E+01  0.35276249489E+02  0.00000000000E+00 0.  1.
         -3    1    6    6    0  502 -0.16163373130E+02  0.97278666400E+01  0.14533215863E+02  0.23813869564E+02  0.00000000000E+00 0.  1.
<mgrwt>
<rscale>  0 0.17421220E+04</rscale>
<asrwt>0</asrwt>
<pdfrwt beam="1">  1        2 0.18984146E+00 0.17421220E+04</pdfrwt>
<pdfrwt beam="2">  1       -2 0.94597433E-01 0.17421220E+04</pdfrwt>
<totfact> 0.16141955E+01</totfact>
</mgrwt>
</event>
<event>
12    1  0.2048318E-007  0.1904528E+04  0.7818608E-02  0.8652606E-01
         -2   -1    0    0    0  501 -0.00000000000E+00  0.00000000000E+00  0.31552629736E+03  0.31552629736E+03  0.00000000000E+00 0.  1.
          2   -1    0    0  501    0  0.00000000000E+00 -0.00000000000E+00 -0.28739497660E+04  0.28739497660E+04  0.00000000000E+00 0. -1.
         23    2    1    2    0    0 -0.51491202806E+03  0.13936007770E+03 -0.14690715366E+03  0.56041525923E+03  0.89038885186E+02 0.  0.
        254    2    1    2    0    0  0.51491202806E+03 -0.13936007770E+03 -0.24115163150E+04  0.26290608042E+04  0.90110717815E+03 0.  0.
        -24    2    4    4    0    0  0.37545724786E+03  0.35480498495E+03 -0.13420938715E+04  0.14400663538E+04  0.75633465495E+02 0.  0.
         24    2    4    4    0    0  0.13945478020E+03 -0.49416506265E+03 -0.10694224435E+04  0.11889944503E+04  0.79979343877E+02 0.  0.
         11    1    3    3    0    0 -0.30142534611E+03  0.40198653414E+02 -0.10225021142E+03  0.32082437057E+03  0.00000000000E+00 0. -1.
        -11    1    3    3    0    0 -0.21348668195E+03  0.99161424290E+02 -0.44656942243E+02  0.23959088866E+03  0.00000000000E+00 0.  1.
          2    1    6    6  502    0  0.15054319524E+01 -0.51626202709E+02 -0.67102408217E+02  0.84677413282E+02  0.00000000000E+00 0. -1.
          1    1    5    5  503    0  0.90050405509E+01  0.64357008155E+00 -0.55267477096E+02  0.55999990735E+02  0.00000000000E+00 0. -1.
         -2    1    5    5    0  503  0.36645220731E+03  0.35416141487E+03 -0.12868263944E+04  0.13840663631E+04  0.00000000000E+00 0.  1.
         -1    1    6    6    0  502  0.13794934825E+03 -0.44253885994E+03 -0.10023200353E+04  0.11043170370E+04  0.00000000000E+00 0.  1.
<mgrwt>
<rscale>  0 0.19045280E+04</rscale>
<asrwt>0</asrwt>
<pdfrwt beam="1">  1        2 0.44214614E+00 0.19045280E+04</pdfrwt>
<pdfrwt beam="2">  1       -2 0.48542505E-01 0.19045280E+04</pdfrwt>
<totfact> 0.78624226E+00</totfact>
</mgrwt>
</event>
<event>
12    1  0.2048318E-007  0.1325845E+04  0.7818608E-02  0.9009317E-01
         -1   -1    0    0    0  501 -0.00000000000E+00  0.00000000000E+00  0.86702385090E+03  0.86702385090E+03  0.00000000000E+00 0.  1.
          1   -1    0    0  501    0  0.00000000000E+00 -0.00000000000E+00 -0.50686754195E+03  0.50686754195E+03  0.00000000000E+00 0. -1.
         23    2    1    2    0    0  0.95006590075E+02 -0.25623024309E+02  0.44457714151E+03  0.46465214563E+03  0.92574241281E+02 0.  0.
        254    2    1    2    0    0 -0.95006590075E+02  0.25623024309E+02 -0.84420832571E+02  0.90923924722E+03  0.89994796526E+03 0.  0.
        -24    2    4    4    0    0 -0.17752858400E+03  0.29827415304E+03  0.27031237594E+03  0.44718880925E+03  0.80157233109E+02 0.  0.
         24    2    4    4    0    0  0.82521993922E+02 -0.27265112873E+03 -0.35473320851E+03  0.46205043797E+03  0.80662510037E+02 0.  0.
         13    1    3    3    0    0  0.41093147400E+02  0.28670645006E+02  0.26102579989E+03  0.26579149884E+03  0.00000000000E+00 0.  1.
        -13    1    3    3    0    0  0.53913442675E+02 -0.54293669315E+02  0.18355134162E+03  0.19886064679E+03  0.00000000000E+00 0. -1.
          4    1    6    6  502    0  0.78008913713E+02 -0.14406022004E+03 -0.16265594113E+03  0.23085859915E+03  0.00000000000E+00 0. -1.
          1    1    5    5  503    0 -0.81703713188E+02  0.67919726951E+02  0.91780200865E+02  0.14040011157E+03  0.00000000000E+00 0. -1.
         -2    1    5    5    0  503 -0.95824870809E+02  0.23035442609E+03  0.17853217508E+03  0.30678869768E+03  0.00000000000E+00 0.  1.
         -3    1    6    6    0  502  0.45130802090E+01 -0.12859090869E+03 -0.19207726738E+03  0.23119183882E+03  0.00000000000E+00 0.  1.
<mgrwt>
<rscale>  0 0.13258450E+04</rscale>
<asrwt>0</asrwt>
<pdfrwt beam="1">  1        1 0.77979622E-01 0.13258450E+04</pdfrwt>
<pdfrwt beam="2">  1       -1 0.13338829E+00 0.13258450E+04</pdfrwt>
<totfact> 0.20264918E+01</totfact>
</mgrwt>
</event>
<event>
12    1  0.2048318E-007  0.2030719E+04  0.7818608E-02  0.8592392E-01
          1   -1    0    0  501    0  0.00000000000E+00  0.00000000000E+00  0.11975781564E+04  0.11975781564E+04  0.00000000000E+00 0. -1.
         -1   -1    0    0    0  501 -0.00000000000E+00 -0.00000000000E+00 -0.86086689516E+03  0.86086689516E+03  0.00000000000E+00 0.  1.
         23    2    1    2    0    0  0.53686870400E+03 -0.45786109634E+03 -0.27613751080E+03  0.76297882335E+03  0.89554291567E+02 0.  0.
        254    2    1    2    0    0 -0.53686870400E+03  0.45786109634E+03  0.61284877210E+03  0.12954662283E+04  0.89709773282E+03 0.  0.
        -24    2    4    4    0    0 -0.15197067630E+02  0.55202305427E+03  0.12788006353E+03  0.57257452820E+03  0.80795274550E+02 0.  0.
         24    2    4    4    0    0 -0.52167163637E+03 -0.94161957934E+02  0.48496870857E+03  0.72289170005E+03  0.79812224650E+02 0.  0.
         11    1    3    3    0    0  0.31833520652E+03 -0.28676584989E+03 -0.12189486876E+03  0.44545517777E+03  0.00000000000E+00 0. -1.
        -11    1    3    3    0    0  0.21853349747E+03 -0.17109524644E+03 -0.15424264205E+03  0.31752364558E+03  0.00000000000E+00 0.  1.
          4    1    6    6  502    0 -0.46025424954E+03 -0.10512646888E+03  0.44515096965E+03  0.64887975347E+03  0.00000000000E+00 0. -1.
          1    1    5    5  503    0 -0.41769184691E+02  0.42695212819E+03  0.11453869744E+03  0.44401790253E+03  0.00000000000E+00 0. -1.
         -2    1    5    5    0  503  0.26572117061E+02  0.12507092608E+03  0.13341366089E+02  0.12855662567E+03  0.00000000000E+00 0.  1.
         -3    1    6    6    0  502 -0.61417386828E+02  0.10964510945E+02  0.39817738917E+02  0.74011946586E+02  0.00000000000E+00 0.  1.
<mgrwt>
<rscale>  0 0.20307195E+04</rscale>
<asrwt>0</asrwt>
<pdfrwt beam="1">  1        1 0.18424279E+00 0.20307195E+04</pdfrwt>
<pdfrwt beam="2">  1       -1 0.13244106E+00 0.20307195E+04</pdfrwt>
<totfact> 0.48025416E+00</totfact>
</mgrwt>
</event>
<event>
12    1  0.2048319E-007  0.3599648E+04  0.7818608E-02  0.8090572E-01
          1   -1    0    0  501    0  0.00000000000E+00  0.00000000000E+00  0.31118725451E+04  0.31118725451E+04  0.00000000000E+00 0. -1.
         -1   -1    0    0    0  501 -0.00000000000E+00 -0.00000000000E+00 -0.10409701817E+04  0.10409701817E+04  0.00000000000E+00 0.  1.
         23    2    1    2    0    0 -0.11215805314E+03  0.16541078803E+04  0.61779641170E+03  0.17716940998E+04  0.92602743985E+02 0.  0.
        254    2    1    2    0    0  0.11215805314E+03 -0.16541078803E+04  0.14531059516E+04  0.23811486270E+04  0.89983307811E+03 0.  0.
        -24    2    4    4    0    0  0.42838779243E+02 -0.74269993554E+03  0.12258433065E+04  0.14360071430E+04  0.77371489296E+02 0.  0.
         24    2    4    4    0    0  0.69319273901E+02 -0.91140794481E+03  0.22726264517E+03  0.94514148404E+03  0.78578059099E+02 0.  0.
         13    1    3    3    0    0  0.10184070307E+01  0.64174328373E+03  0.23058905121E+03  0.68191406343E+03  0.00000000000E+00 0. -1.
        -13    1    3    3    0    0 -0.11317646017E+03  0.10123645966E+04  0.38720736049E+03  0.10897800364E+04  0.00000000000E+00 0.  1.
          2    1    6    6  502    0  0.84484521219E+01 -0.25214261086E+03  0.28551013962E+02  0.25389453116E+03  0.00000000000E+00 0. -1.
          3    1    5    5  503    0 -0.12553173078E+01 -0.22596872835E+03  0.31157879936E+03  0.38489581736E+03  0.00000000000E+00 0. -1.
         -4    1    5    5    0  503  0.44094096551E+02 -0.51673120719E+03  0.91426450711E+03  0.10511113256E+04  0.00000000000E+00 0.  1.
         -1    1    6    6    0  502  0.60870821779E+02 -0.65926533394E+03  0.19871163121E+03  0.69124695288E+03  0.00000000000E+00 0.  1.
<mgrwt>
<rscale>  0 0.35996481E+04</rscale>
<asrwt>0</asrwt>
<pdfrwt beam="1">  1        1 0.47874962E+00 0.35996481E+04</pdfrwt>
<pdfrwt beam="2">  1       -1 0.16014926E+00 0.35996481E+04</pdfrwt>
<totfact> 0.11652436E-01</totfact>
</mgrwt>
</event>
<event>
12    1  0.2048318E-007  0.1362150E+04  0.7818608E-02  0.8981682E-01
         -2   -1    0    0    0  501 -0.00000000000E+00  0.00000000000E+00  0.43795308686E+03  0.43795308686E+03  0.00000000000E+00 0.  1.
          2   -1    0    0  501    0  0.00000000000E+00 -0.00000000000E+00 -0.10591610956E+04  0.10591610956E+04  0.00000000000E+00 0. -1.
         23    2    1    2    0    0  0.20940889471E+02 -0.27087289308E+03  0.10833612590E+03  0.30732678569E+03  0.94352487873E+02 0.  0.
        254    2    1    2    0    0 -0.20940889471E+02  0.27087289308E+03 -0.72954413465E+03  0.11897873968E+04  0.89974927622E+03 0.  0.
        -24    2    4    4    0    0 -0.16433194660E+03  0.55721443378E+03 -0.58788884704E+03  0.83027623996E+03  0.79072272486E+02 0.  0.
         24    2    4    4    0    0  0.14339105712E+03 -0.28634154070E+03 -0.14165528761E+03  0.35951115682E+03  0.81422221643E+02 0.  0.
         11    1    3    3    0    0  0.24285691258E+02 -0.10007650886E+03 -0.36804353719E+01  0.10304682446E+03  0.00000000000E+00 0. -1.
        -11    1    3    3    0    0 -0.33448017871E+01 -0.17079638422E+03  0.11201656127E+03  0.20427996123E+03  0.00000000000E+00 0.  1.
          4    1    6    6  502    0  0.11908445740E+02 -0.30156569901E+02  0.10172055137E+02  0.33980884242E+02  0.00000000000E+00 0. -1.
          3    1    5    5  503    0 -0.66420237052E+02  0.13183742271E+03 -0.18073380705E+03  0.23336122841E+03  0.00000000000E+00 0. -1.
         -4    1    5    5    0  503 -0.97911709543E+02  0.42537701107E+03 -0.40715503999E+03  0.59691501154E+03  0.00000000000E+00 0.  1.
         -3    1    6    6    0  502  0.13148261138E+03 -0.25618497080E+03 -0.15182734275E+03  0.32553027258E+03  0.00000000000E+00 0.  1.
<mgrwt>
<rscale>  0 0.13621496E+04</rscale>
<asrwt>0</asrwt>
<pdfrwt beam="1">  1        2 0.16294786E+00 0.13621496E+04</pdfrwt>
<pdfrwt beam="2">  1       -2 0.67377398E-01 0.13621496E+04</pdfrwt>
<totfact> 0.45549468E+01</totfact>
</mgrwt>
</event>
<event>
12    1  0.2048318E-007  0.2507167E+04  0.7818608E-02  0.8400437E-01
         -2   -1    0    0    0  501 -0.00000000000E+00  0.00000000000E+00  0.78318756715E+03  0.78318756715E+03  0.00000000000E+00 0.  1.
          2   -1    0    0  501    0  0.00000000000E+00 -0.00000000000E+00 -0.20065071325E+04  0.20065071325E+04  0.00000000000E+00 0. -1.
         23    2    1    2    0    0 -0.59499881422E+03 -0.90117008674E+03 -0.35715941099E+03  0.11408264064E+04  0.88266248561E+02 0.  0.
        254    2    1    2    0    0  0.59499881422E+03  0.90117008674E+03 -0.86616015437E+03  0.16488682932E+04  0.89576901105E+03 0.  0.
        -24    2    4    4    0    0 -0.20274017654E+03  0.40457857928E+03 -0.25934014394E+03  0.52757560370E+03  0.79317724193E+02 0.  0.
         24    2    4    4    0    0  0.79773899076E+03  0.49659150746E+03 -0.60682001044E+03  0.11212926895E+04  0.77949649198E+02 0.  0.
         13    1    3    3    0    0 -0.44386597685E+03 -0.61552017416E+03 -0.27722091339E+03  0.80791925650E+03  0.00000000000E+00 0. -1.
        -13    1    3    3    0    0 -0.15113283737E+03 -0.28564991257E+03 -0.79938497594E+02  0.33290714994E+03  0.00000000000E+00 0.  1.
          4    1    6    6  502    0  0.61663366289E+03  0.37176122328E+03 -0.50117023536E+03  0.87727708631E+03  0.00000000000E+00 0. -1.
          3    1    5    5  503    0 -0.94474751802E+02  0.11641615900E+03 -0.64125043370E+02  0.16306508514E+03  0.00000000000E+00 0. -1.
         -4    1    5    5    0  503 -0.10826542474E+03  0.28816242027E+03 -0.19521510057E+03  0.36451051856E+03  0.00000000000E+00 0.  1.
         -3    1    6    6    0  502  0.18110532787E+03  0.12483028418E+03 -0.10564977507E+03  0.24401560320E+03  0.00000000000E+00 0.  1.
<mgrwt>
<rscale>  0 0.25071669E+04</rscale>
<asrwt>0</asrwt>
<pdfrwt beam="1">  1        2 0.30869341E+00 0.25071669E+04</pdfrwt>
<pdfrwt beam="2">  1       -2 0.12049039E+00 0.25071669E+04</pdfrwt>
<totfact> 0.31043539E+00</totfact>
</mgrwt>
</event>
<event>
12    1  0.2048318E-007  0.1206723E+04  0.7818608E-02  0.9106992E-01
         -1   -1    0    0    0  501 -0.00000000000E+00  0.00000000000E+00  0.64161433681E+03  0.64161433681E+03  0.00000000000E+00 0.  1.
          1   -1    0    0  501    0  0.00000000000E+00 -0.00000000000E+00 -0.56738970466E+03  0.56738970466E+03  0.00000000000E+00 0. -1.
         23    2    1    2    0    0 -0.13055784659E+03 -0.22801570323E+01 -0.19882063546E+03  0.25505814054E+03  0.92056827815E+02 0.  0.
        254    2    1    2    0    0  0.13055784659E+03  0.22801570323E+01  0.27304526762E+03  0.95394590093E+03  0.90465933550E+03 0.  0.
        -24    2    4    4    0    0  0.21902825395E+03 -0.34729516673E+03 -0.99014449015E+02  0.42968488815E+03  0.78980587069E+02 0.  0.
         24    2    4    4    0    0 -0.88470407359E+02  0.34957532376E+03  0.37205971663E+03  0.52426101278E+03  0.79945336460E+02 0.  0.
         13    1    3    3    0    0 -0.54758314475E+02 -0.44550023625E+02 -0.11132247853E+03  0.13181757028E+03  0.00000000000E+00 0. -1.
        -13    1    3    3    0    0 -0.75799532114E+02  0.42269866593E+02 -0.87498156930E+02  0.12324057025E+03  0.00000000000E+00 0.  1.
          2    1    6    6  502    0  0.82545500310E+01  0.31193560561E+02  0.59748786716E+02  0.67905031704E+02  0.00000000000E+00 0. -1.
          1    1    5    5  503    0  0.17037353138E+03 -0.19866746400E+03 -0.63739618969E+02  0.26936711097E+03  0.00000000000E+00 0. -1.
         -2    1    5    5    0  503  0.48654722570E+02 -0.14862770272E+03 -0.35274830046E+02  0.16031777718E+03  0.00000000000E+00 0.  1.
         -1    1    6    6    0  502 -0.96724957390E+02  0.31838176320E+03  0.31231092992E+03  0.45635598108E+03  0.00000000000E+00 0.  1.
<mgrwt>
<rscale>  0 0.12067234E+04</rscale>
<asrwt>0</asrwt>
<pdfrwt beam="1">  1        1 0.87290724E-01 0.12067234E+04</pdfrwt>
<pdfrwt beam="2">  1       -1 0.98709898E-01 0.12067234E+04</pdfrwt>
<totfact> 0.36066027E+01</totfact>
</mgrwt>
</event>
<event>
12    1  0.2048318E-007  0.1755744E+04  0.7818608E-02  0.8730195E-01
          1   -1    0    0  501    0  0.00000000000E+00  0.00000000000E+00  0.15042059634E+04  0.15042059634E+04  0.00000000000E+00 0. -1.
         -1   -1    0    0    0  501 -0.00000000000E+00 -0.00000000000E+00 -0.51233601574E+03  0.51233601574E+03  0.00000000000E+00 0.  1.
         23    2    1    2    0    0  0.50802796193E+03  0.39331182105E+03  0.38518054905E+03  0.75484513371E+03  0.92954407353E+02 0.  0.
        254    2    1    2    0    0 -0.50802796193E+03 -0.39331182105E+03  0.60668939859E+03  0.12616968454E+04  0.90056665755E+03 0.  0.
        -24    2    4    4    0    0  0.22020505040E+03 -0.15768074897E+03  0.35162525466E+03  0.45099639455E+03  0.80024654728E+02 0.  0.
         24    2    4    4    0    0 -0.72823301233E+03 -0.23563107208E+03  0.25506414393E+03  0.81070045087E+03  0.79575003247E+02 0.  0.
         13    1    3    3    0    0  0.13976718144E+03  0.13986420066E+03  0.15961715519E+03  0.25411512325E+03  0.00000000000E+00 0. -1.
        -13    1    3    3    0    0  0.36826078049E+03  0.25344762039E+03  0.22556339386E+03  0.50073001046E+03  0.00000000000E+00 0.  1.
          4    1    6    6  502    0 -0.19183757502E+03 -0.38771191210E+02  0.93595281791E+02  0.21694454875E+03  0.00000000000E+00 0. -1.
          1    1    5    5  503    0  0.13179919280E+03 -0.62698897170E+02  0.13689791182E+03  0.20010801381E+03  0.00000000000E+00 0. -1.
         -2    1    5    5    0  503  0.88405857605E+02 -0.94981851797E+02  0.21472734284E+03  0.25088838074E+03  0.00000000000E+00 0.  1.
         -3    1    6    6    0  502 -0.53639543731E+03 -0.19685988087E+03  0.16146886214E+03  0.59375590212E+03  0.00000000000E+00 0.  1.
<mgrwt>
<rscale>  0 0.17557436E+04</rscale>
<asrwt>0</asrwt>
<pdfrwt beam="1">  1        1 0.23141630E+00 0.17557436E+04</pdfrwt>
<pdfrwt beam="2">  1       -1 0.78820926E-01 0.17557436E+04</pdfrwt>
<totfact> 0.99082364E+00</totfact>
</mgrwt>
</event>
<event>
12    1  0.2048318E-007  0.1698748E+04  0.7818608E-02  0.8762078E-01
         -1   -1    0    0    0  501 -0.00000000000E+00  0.00000000000E+00  0.46860431922E+03  0.46860431922E+03  0.00000000000E+00 0.  1.
          1   -1    0    0  501    0  0.00000000000E+00 -0.00000000000E+00 -0.15395432274E+04  0.15395432274E+04  0.00000000000E+00 0. -1.
         23    2    1    2    0    0 -0.29988244132E+03  0.44650927681E+03 -0.56344575141E+02  0.54845408159E+03  0.91253249608E+02 0.  0.
        254    2    1    2    0    0  0.29988244132E+03 -0.44650927681E+03 -0.10145943330E+04  0.14596934650E+04  0.90111227842E+03 0.  0.
        -24    2    4    4    0    0 -0.16006753770E+03 -0.31906076517E+03 -0.88633956810E+03  0.95892332909E+03  0.80713893452E+02 0.  0.
         24    2    4    4    0    0  0.45994997902E+03 -0.12744851165E+03 -0.12825476492E+03  0.50077013593E+03  0.80773374241E+02 0.  0.
         13    1    3    3    0    0 -0.10684719021E+03  0.11190196004E+03 -0.48264359574E+02  0.16207349914E+03  0.00000000000E+00 0. -1.
        -13    1    3    3    0    0 -0.19303525111E+03  0.33460731677E+03 -0.80802155668E+01  0.38638058245E+03  0.00000000000E+00 0.  1.
          4    1    6    6  502    0  0.35196643612E+03 -0.13140650274E+03 -0.10708339560E+03  0.39065956373E+03  0.00000000000E+00 0. -1.
          3    1    5    5  503    0 -0.94926306480E+02 -0.10195670374E+03 -0.33824561664E+03  0.36580906259E+03  0.00000000000E+00 0. -1.
         -4    1    5    5    0  503 -0.65141231222E+02 -0.21710406143E+03 -0.54809395146E+03  0.59311426649E+03  0.00000000000E+00 0.  1.
         -3    1    6    6    0  502  0.10798354290E+03  0.39579910940E+01 -0.21171369327E+02  0.11011057220E+03  0.00000000000E+00 0.  1.
<mgrwt>
<rscale>  0 0.16987485E+04</rscale>
<asrwt>0</asrwt>
<pdfrwt beam="1">  1        1 0.23685280E+00 0.16987485E+04</pdfrwt>
<pdfrwt beam="2">  1       -1 0.72092972E-01 0.16987485E+04</pdfrwt>
<totfact> 0.11347869E+01</totfact>
</mgrwt>
</event>
<event>
12    1  0.2048318E-007  0.1509493E+04  0.7818608E-02  0.8878165E-01
          2   -1    0    0  501    0  0.00000000000E+00  0.00000000000E+00  0.39019019513E+03  0.39019019513E+03  0.00000000000E+00 0. -1.
         -2   -1    0    0    0  501 -0.00000000000E+00 -0.00000000000E+00 -0.14599095037E+04  0.14599095037E+04  0.00000000000E+00 0.  1.
         23    2    1    2    0    0 -0.11345220667E+03 -0.10651531188E+03  0.21042780378E+03  0.27744489442E+03  0.92080909915E+02 0.  0.
        254    2    1    2    0    0  0.11345220667E+03  0.10651531188E+03 -0.12801471123E+04  0.15726548044E+04  0.90013865024E+03 0.  0.
        -24    2    4    4    0    0  0.99773957468E+02  0.48970001641E+03 -0.56742305332E+03  0.75937469341E+03  0.70143103028E+02 0.  0.
         24    2    4    4    0    0  0.13678249202E+02 -0.38318470453E+03 -0.71272405901E+03  0.81328011096E+03  0.80195650165E+02 0.  0.
         11    1    3    3    0    0 -0.26919225083E+02 -0.12507004697E+02 -0.17843038923E+01  0.29736401698E+02  0.00000000000E+00 0.  1.
        -11    1    3    3    0    0 -0.86532981587E+02 -0.94008307185E+02  0.21221210768E+03  0.24770849272E+03  0.00000000000E+00 0. -1.
          4    1    6    6  502    0  0.83834098676E+01 -0.34901316961E+02 -0.12537983271E+03  0.13041658613E+03  0.00000000000E+00 0. -1.
          3    1    5    5  503    0  0.33107719581E+02  0.52434535093E+02 -0.79057753321E+02  0.10047701193E+03  0.00000000000E+00 0. -1.
         -4    1    5    5    0  503  0.66666237886E+02  0.43726548132E+03 -0.48836530000E+03  0.65889768148E+03  0.00000000000E+00 0.  1.
         -3    1    6    6    0  502  0.52948393348E+01 -0.34828338756E+03 -0.58734422630E+03  0.68286352483E+03  0.00000000000E+00 0.  1.
<mgrwt>
<rscale>  0 0.15094931E+04</rscale>
<asrwt>0</asrwt>
<pdfrwt beam="1">  1        2 0.60029260E-01 0.15094931E+04</pdfrwt>
<pdfrwt beam="2">  1       -2 0.22460146E+00 0.15094931E+04</pdfrwt>
<totfact> 0.72952964E+00</totfact>
</mgrwt>
</event>
<event>
12    1  0.2048318E-007  0.1734952E+04  0.7818608E-02  0.8741677E-01
          2   -1    0    0  501    0  0.00000000000E+00  0.00000000000E+00  0.16687418194E+04  0.16687418194E+04  0.00000000000E+00 0. -1.
         -2   -1    0    0    0  501 -0.00000000000E+00 -0.00000000000E+00 -0.45094727952E+03  0.45094727952E+03  0.00000000000E+00 0.  1.
         23    2    1    2    0    0  0.52982261374E+03 -0.28849159743E+03  0.22859277380E+03  0.65220201725E+03  0.95777926769E+02 0.  0.
        254    2    1    2    0    0 -0.52982261374E+03  0.28849159743E+03  0.98920176612E+03  0.14674870817E+04  0.90058802850E+03 0.  0.
        -24    2    4    4    0    0 -0.21524684182E+02  0.56030426836E+02  0.88864379805E+03  0.89393478864E+03  0.76347139894E+02 0.  0.
         24    2    4    4    0    0 -0.50829792956E+03  0.23246117059E+03  0.10055796807E+03  0.57355229307E+03  0.80282917971E+02 0.  0.
         13    1    3    3    0    0  0.18654896849E+03 -0.10072250859E+03  0.13004134505E+03  0.24870925356E+03  0.00000000000E+00 0.  1.
        -13    1    3    3    0    0  0.34327364525E+03 -0.18776908883E+03  0.98551428746E+02  0.40349276369E+03  0.00000000000E+00 0. -1.
          4    1    6    6  502    0 -0.17178940782E+03  0.46777395014E+02  0.55976912476E+02  0.18663638459E+03  0.00000000000E+00 0. -1.
          3    1    5    5  503    0  0.18928418134E+02 -0.77616536901E+01  0.13945840968E+03  0.14095097131E+03  0.00000000000E+00 0. -1.
         -4    1    5    5    0  503 -0.40453102316E+02  0.63792080527E+02  0.74918538837E+03  0.75298381734E+03  0.00000000000E+00 0.  1.
         -3    1    6    6    0  502 -0.33650852174E+03  0.18568377558E+03  0.44581055593E+02  0.38691590848E+03  0.00000000000E+00 0.  1.
<mgrwt>
<rscale>  0 0.17349520E+04</rscale>
<asrwt>0</asrwt>
<pdfrwt beam="1">  1        2 0.25672951E+00 0.17349520E+04</pdfrwt>
<pdfrwt beam="2">  1       -2 0.69376505E-01 0.17349520E+04</pdfrwt>
<totfact> 0.18360805E+01</totfact>
</mgrwt>
</event>
<event>
12    1  0.2048318E-007  0.1574284E+04  0.7818608E-02  0.8836504E-01
         -1   -1    0    0    0  501 -0.00000000000E+00  0.00000000000E+00  0.50046271402E+03  0.50046271402E+03  0.00000000000E+00 0.  1.
          1   -1    0    0  501    0  0.00000000000E+00 -0.00000000000E+00 -0.12380396544E+04  0.12380396544E+04  0.00000000000E+00 0. -1.
         23    2    1    2    0    0 -0.21257684978E+03 -0.35454986551E+03  0.10582047706E+03  0.43744738499E+03  0.96268982923E+02 0.  0.
        254    2    1    2    0    0  0.21257684978E+03  0.35454986551E+03 -0.84339741747E+03  0.13010549835E+04  0.90029458625E+03 0.  0.
        -24    2    4    4    0    0  0.31194236521E+03  0.58697636139E+03 -0.77975032147E+03  0.10275460102E+04  0.77401234957E+02 0.  0.
         24    2    4    4    0    0 -0.99365515439E+02 -0.23242649587E+03 -0.63647096006E+02  0.27350897329E+03  0.82828883850E+02 0.  0.
         13    1    3    3    0    0 -0.66852198471E+02 -0.20391568062E+03  0.61399734268E+02  0.22320561958E+03  0.00000000000E+00 0.  1.
        -13    1    3    3    0    0 -0.14572465130E+03 -0.15063418489E+03  0.44420742789E+02  0.21424176541E+03  0.00000000000E+00 0. -1.
          2    1    6    6  502    0 -0.70686784713E+01  0.91351268647E+00  0.97378272542E+01  0.12067559836E+02  0.00000000000E+00 0. -1.
          3    1    5    5  503    0  0.40782696109E+02  0.98666002550E+02 -0.87346132994E+02  0.13794040492E+03  0.00000000000E+00 0. -1.
         -4    1    5    5    0  503  0.27115966911E+03  0.48831035884E+03 -0.69240418847E+03  0.88960560526E+03  0.00000000000E+00 0.  1.
         -1    1    6    6    0  502 -0.92296836967E+02 -0.23334000856E+03 -0.73384923260E+02  0.26144141346E+03  0.00000000000E+00 0.  1.
<mgrwt>
<rscale>  0 0.15742842E+04</rscale>
<asrwt>0</asrwt>
<pdfrwt beam="1">  1        1 0.19046764E+00 0.15742842E+04</pdfrwt>
<pdfrwt beam="2">  1       -1 0.76994265E-01 0.15742842E+04</pdfrwt>
<totfact> 0.16310091E+01</totfact>
</mgrwt>
</event>
<event>
12    1  0.2048318E-007  0.1815576E+04  0.7818608E-02  0.8698060E-01
          2   -1    0    0  501    0  0.00000000000E+00  0.00000000000E+00  0.39638349493E+03  0.39638349493E+03  0.00000000000E+00 0. -1.
         -2   -1    0    0    0  501 -0.00000000000E+00 -0.00000000000E+00 -0.20789953663E+04  0.20789953663E+04  0.00000000000E+00 0.  1.
         23    2    1    2    0    0  0.37990863833E+03  0.56237970284E+03 -0.55245168933E+03  0.87967600516E+03  0.89585162630E+02 0.  0.
        254    2    1    2    0    0 -0.37990863833E+03 -0.56237970284E+03 -0.11301601820E+04  0.15957028560E+04  0.89911293180E+03 0.  0.
        -24    2    4    4    0    0 -0.18182941850E+03 -0.78859985717E+03 -0.86203170609E+03  0.11850086015E+04  0.78708647335E+02 0.  0.
         24    2    4    4    0    0 -0.19807921983E+03  0.22622015433E+03 -0.26812847590E+03  0.41069425452E+03  0.79786938498E+02 0.  0.
         13    1    3    3    0    0  0.36736152623E+03  0.51982026115E+03 -0.49107991270E+03  0.80394469680E+03  0.00000000000E+00 0. -1.
        -13    1    3    3    0    0  0.12547112103E+02  0.42559441688E+02 -0.61371776630E+02  0.75731308358E+02  0.00000000000E+00 0.  1.
          2    1    6    6  502    0 -0.60477039701E+02  0.12940809253E+03 -0.12360297987E+03  0.18889580031E+03  0.00000000000E+00 0. -1.
          1    1    5    5  503    0 -0.57519566455E+02 -0.15657004729E+03 -0.21367660189E+03  0.27107262943E+03  0.00000000000E+00 0. -1.
         -2    1    5    5    0  503 -0.12430985204E+03 -0.63202980988E+03 -0.64835510420E+03  0.91393597207E+03  0.00000000000E+00 0.  1.
         -1    1    6    6    0  502 -0.13760218013E+03  0.96812061801E+02 -0.14452549603E+03  0.22179845421E+03  0.00000000000E+00 0.  1.
<mgrwt>
<rscale>  0 0.18155764E+04</rscale>
<asrwt>0</asrwt>
<pdfrwt beam="1">  1        2 0.60982076E-01 0.18155764E+04</pdfrwt>
<pdfrwt beam="2">  1       -2 0.31984544E+00 0.18155764E+04</pdfrwt>
<totfact> 0.18222633E+00</totfact>
</mgrwt>
</event>
<event>
12    1  0.2048318E-007  0.1400927E+04  0.7818608E-02  0.8953148E-01
         -2   -1    0    0    0  501 -0.00000000000E+00  0.00000000000E+00  0.42029390832E+03  0.42029390832E+03  0.00000000000E+00 0.  1.
          2   -1    0    0  501    0  0.00000000000E+00 -0.00000000000E+00 -0.11673946613E+04  0.11673946613E+04  0.00000000000E+00 0. -1.
         23    2    1    2    0    0 -0.21649789278E+03 -0.76690806407E+02  0.15233588440E+03  0.29079748097E+03  0.92758481552E+02 0.  0.
        254    2    1    2    0    0  0.21649789278E+03  0.76690806407E+02 -0.89943663740E+03  0.12968910887E+04  0.90564198987E+03 0.  0.
        -24    2    4    4    0    0  0.47546713122E+03 -0.16691126930E+03 -0.74089677925E+03  0.89955460556E+03  0.79637216075E+02 0.  0.
         24    2    4    4    0    0 -0.25896923844E+03  0.24360207570E+03 -0.15853985815E+03  0.39733648312E+03  0.79588670372E+02 0.  0.
         11    1    3    3    0    0 -0.13884192119E+03 -0.33307126099E+02  0.14178724767E+03  0.20122143855E+03  0.00000000000E+00 0.  1.
        -11    1    3    3    0    0 -0.77655971584E+02 -0.43383680309E+02  0.10548636730E+02  0.89576042425E+02  0.00000000000E+00 0. -1.
          4    1    6    6  502    0 -0.11709800969E+03  0.60774785832E+02 -0.43595561345E+02  0.13894636172E+03  0.00000000000E+00 0. -1.
          3    1    5    5  503    0  0.14356200595E+03 -0.60392867751E+02 -0.29485989650E+03  0.33346620008E+03  0.00000000000E+00 0. -1.
         -4    1    5    5    0  503  0.33190512526E+03 -0.10651840154E+03 -0.44603688275E+03  0.56608840548E+03  0.00000000000E+00 0.  1.
         -3    1    6    6    0  502 -0.14187122874E+03  0.18282728987E+03 -0.11494429680E+03  0.25839012139E+03  0.00000000000E+00 0.  1.
<mgrwt>
<rscale>  0 0.14009266E+04</rscale>
<asrwt>0</asrwt>
<pdfrwt beam="1">  1        2 0.17959917E+00 0.14009266E+04</pdfrwt>
<pdfrwt beam="2">  1       -2 0.64660603E-01 0.14009266E+04</pdfrwt>
<totfact> 0.42582587E+01</totfact>
</mgrwt>
</event>
<event>
12    1  0.2048318E-007  0.1948848E+04  0.7818608E-02  0.8630916E-01
          1   -1    0    0  501    0  0.00000000000E+00  0.00000000000E+00  0.11909455647E+04  0.11909455647E+04  0.00000000000E+00 0. -1.
         -1   -1    0    0    0  501 -0.00000000000E+00 -0.00000000000E+00 -0.79726744162E+03  0.79726744162E+03  0.00000000000E+00 0.  1.
         23    2    1    2    0    0 -0.17550339275E+03  0.74001645273E+03  0.21908196273E+03  0.79662014547E+03  0.90448651777E+02 0.  0.
        254    2    1    2    0    0  0.17550339275E+03 -0.74001645273E+03  0.17459616035E+03  0.11915928608E+04  0.90054646501E+03 0.  0.
        -24    2    4    4    0    0 -0.13896873452E+03  0.15562597149E+03  0.65553981184E+02  0.23251153519E+03  0.78946420875E+02 0.  0.
         24    2    4    4    0    0  0.31447212727E+03 -0.89564242422E+03  0.10904217917E+03  0.95908132566E+03  0.82938058266E+02 0.  0.
         11    1    3    3    0    0 -0.11021628240E+03  0.46706380712E+03  0.92422103994E+02  0.48871062413E+03  0.00000000000E+00 0.  1.
        -11    1    3    3    0    0 -0.65287110345E+02  0.27295264561E+03  0.12665985873E+03  0.30790952135E+03  0.00000000000E+00 0. -1.
          2    1    6    6  502    0  0.17157761265E+03 -0.36525770321E+03  0.48966268799E+02  0.40650924023E+03  0.00000000000E+00 0. -1.
          3    1    5    5  503    0 -0.40411851121E+02  0.53453775008E+02 -0.15861447305E+02  0.68862248615E+02  0.00000000000E+00 0. -1.
         -4    1    5    5    0  503 -0.98556883397E+02  0.10217219648E+03  0.81415428489E+02  0.16364928657E+03  0.00000000000E+00 0.  1.
         -1    1    6    6    0  502  0.14289451462E+03 -0.53038472101E+03  0.60075910370E+02  0.55257208543E+03  0.00000000000E+00 0.  1.
<mgrwt>
<rscale>  0 0.19488480E+04</rscale>
<asrwt>0</asrwt>
<pdfrwt beam="1">  1        1 0.18322240E+00 0.19488480E+04</pdfrwt>
<pdfrwt beam="2">  1       -1 0.12265653E+00 0.19488480E+04</pdfrwt>
<totfact> 0.59304103E+00</totfact>
</mgrwt>
</event>
<event>
12    1  0.2048318E-007  0.3035589E+04  0.7818608E-02  0.8233641E-01
          2   -1    0    0  501    0  0.00000000000E+00  0.00000000000E+00  0.34907061653E+04  0.34907061653E+04  0.00000000000E+00 0. -1.
         -2   -1    0    0    0  501 -0.00000000000E+00 -0.00000000000E+00 -0.65995249265E+03  0.65995249265E+03  0.00000000000E+00 0.  1.
         23    2    1    2    0    0  0.73660238423E+03  0.10595493366E+04  0.19682798094E+04  0.23561446583E+04  0.10983794257E+03 0.  0.
        254    2    1    2    0    0 -0.73660238423E+03 -0.10595493366E+04  0.86247386320E+03  0.17945139996E+04  0.90066167951E+03 0.  0.
        -24    2    4    4    0    0 -0.92378342375E+03 -0.86947095400E+03  0.57874357767E+03  0.13968516554E+04  0.83035322175E+02 0.  0.
         24    2    4    4    0    0  0.18718103952E+03 -0.19007838259E+03  0.28373028553E+03  0.39766234417E+03  0.80411018914E+02 0.  0.
         11    1    3    3    0    0  0.39037257389E+03  0.63511568744E+03  0.11967107642E+04  0.14099217482E+04  0.00000000000E+00 0. -1.
        -11    1    3    3    0    0  0.34622981034E+03  0.42443364915E+03  0.77156904517E+03  0.94622291008E+03  0.00000000000E+00 0.  1.
          2    1    6    6  502    0  0.92687930765E+02 -0.61537942912E+02  0.16408398530E+03  0.19824612268E+03  0.00000000000E+00 0. -1.
          3    1    5    5  503    0 -0.85649056203E+03 -0.81444496117E+03  0.56030977578E+03  0.13079922486E+04  0.00000000000E+00 0. -1.
         -4    1    5    5    0  503 -0.67292861722E+02 -0.55025992833E+02  0.18433801889E+02  0.88859406807E+02  0.00000000000E+00 0.  1.
         -1    1    6    6    0  502  0.94493108758E+02 -0.12854043968E+03  0.11964630023E+03  0.19941622149E+03  0.00000000000E+00 0.  1.
<mgrwt>
<rscale>  0 0.30355891E+04</rscale>
<asrwt>0</asrwt>
<pdfrwt beam="1">  1        2 0.53703170E+00 0.30355891E+04</pdfrwt>
<pdfrwt beam="2">  1       -2 0.10153116E+00 0.30355891E+04</pdfrwt>
<totfact> 0.56063652E-01</totfact>
</mgrwt>
</event>
<event>
12    1  0.2048318E-007  0.2676193E+04  0.7818608E-02  0.8342771E-01
         -2   -1    0    0    0  501 -0.00000000000E+00  0.00000000000E+00  0.12106364078E+04  0.12106364078E+04  0.00000000000E+00 0.  1.
          2   -1    0    0  501    0  0.00000000000E+00 -0.00000000000E+00 -0.14789763169E+04  0.14789763169E+04  0.00000000000E+00 0. -1.
         23    2    1    2    0    0  0.93702285400E+03 -0.31773930504E+03 -0.77404151483E+03  0.12597421399E+04  0.94020728509E+02 0.  0.
        254    2    1    2    0    0 -0.93702285400E+03  0.31773930504E+03  0.50570160567E+03  0.14298705848E+04  0.89990315057E+03 0.  0.
        -24    2    4    4    0    0 -0.99533219405E+03  0.20271650315E+03  0.13439679676E+03  0.10285338968E+04  0.89662259066E+02 0.  0.
         24    2    4    4    0    0  0.58309340049E+02  0.11502280189E+03  0.37130480891E+03  0.40133668801E+03  0.81078060721E+02 0.  0.
         11    1    3    3    0    0  0.49068764261E+03 -0.12020856241E+03 -0.37184989223E+03  0.62729323561E+03  0.00000000000E+00 0. -1.
        -11    1    3    3    0    0  0.44633521139E+03 -0.19753074262E+03 -0.40219162260E+03  0.63244890426E+03  0.00000000000E+00 0.  1.
          2    1    6    6  502    0  0.56051380979E+01  0.88036628351E+02  0.17029021812E+03  0.19178275181E+03  0.00000000000E+00 0. -1.
          3    1    5    5  503    0 -0.83853399061E+03  0.15258399020E+03  0.84299838099E+02  0.85646225263E+03  0.00000000000E+00 0. -1.
         -4    1    5    5    0  503 -0.15679820344E+03  0.50132512948E+02  0.50096958663E+02  0.17207164416E+03  0.00000000000E+00 0.  1.
         -1    1    6    6    0  502  0.52704201951E+02  0.26986173535E+02  0.20101459079E+03  0.20955393619E+03  0.00000000000E+00 0.  1.
<mgrwt>
<rscale>  0 0.26761932E+04</rscale>
<asrwt>0</asrwt>
<pdfrwt beam="1">  1        2 0.22753482E+00 0.26761932E+04</pdfrwt>
<pdfrwt beam="2">  1       -2 0.18625176E+00 0.26761932E+04</pdfrwt>
<totfact> 0.18844296E+00</totfact>
</mgrwt>
</event>
<event>
12    1  0.2048318E-007  0.4199047E+04  0.7818608E-02  0.7965554E-01
         -2   -1    0    0    0  501 -0.00000000000E+00  0.00000000000E+00  0.97149125278E+03  0.97149125278E+03  0.00000000000E+00 0.  1.
          2   -1    0    0  501    0  0.00000000000E+00 -0.00000000000E+00 -0.45373536221E+04  0.45373536221E+04  0.00000000000E+00 0. -1.
         23    2    1    2    0    0 -0.10133453894E+04 -0.16267473390E+04 -0.94372496585E+03  0.21384514633E+04  0.95823101352E+02 0.  0.
        254    2    1    2    0    0  0.10133453894E+04  0.16267473390E+04 -0.26221374034E+04  0.33703934115E+04  0.90042845507E+03 0.  0.
        -24    2    4    4    0    0  0.22351390997E+03  0.21058123144E+02 -0.71713751688E+03  0.75549956664E+03  0.78047835135E+02 0.  0.
         24    2    4    4    0    0  0.78983147947E+03  0.16056892158E+04 -0.19049998866E+04  0.26148938449E+04  0.81077915586E+02 0.  0.
         13    1    3    3    0    0 -0.29002042330E+03 -0.47194600505E+03 -0.22498002951E+03  0.59788033192E+03  0.00000000000E+00 0.  1.
        -13    1    3    3    0    0 -0.72332496614E+03 -0.11548013339E+04 -0.71874493635E+03  0.15405711314E+04  0.00000000000E+00 0. -1.
          2    1    6    6  502    0  0.21406013054E+03  0.51404799382E+03 -0.57194127143E+03  0.79823799547E+03  0.00000000000E+00 0. -1.
          1    1    5    5  503    0  0.15139407251E+03  0.48474084890E+02 -0.44056608145E+03  0.46836777667E+03  0.00000000000E+00 0. -1.
         -2    1    5    5    0  503  0.72119837456E+02 -0.27415961746E+02 -0.27657143543E+03  0.28713178997E+03  0.00000000000E+00 0.  1.
         -1    1    6    6    0  502  0.57577134893E+03  0.10916412220E+04 -0.13330586151E+04  0.18166558494E+04  0.00000000000E+00 0.  1.
<mgrwt>
<rscale>  0 0.41990472E+04</rscale>
<asrwt>0</asrwt>
<pdfrwt beam="1">  1        2 0.69805440E+00 0.41990472E+04</pdfrwt>
<pdfrwt beam="2">  1       -2 0.14946019E+00 0.41990472E+04</pdfrwt>
<totfact> 0.26333918E-02</totfact>
</mgrwt>
</event>
<event>
12    1  0.2048318E-007  0.2617705E+04  0.7818608E-02  0.8362212E-01
         -2   -1    0    0    0  501 -0.00000000000E+00  0.00000000000E+00  0.11942155110E+04  0.11942155110E+04  0.00000000000E+00 0. -1.
          2   -1    0    0  501    0  0.00000000000E+00 -0.00000000000E+00 -0.14344935369E+04  0.14344935369E+04  0.00000000000E+00 0.  1.
         23    2    1    2    0    0 -0.58882567945E+03  0.94129673787E+03 -0.41777082428E+03  0.11898506456E+04  0.91961229366E+02 0.  0.
        254    2    1    2    0    0  0.58882567945E+03 -0.94129673787E+03  0.17749279839E+03  0.14388584022E+04  0.89780542362E+03 0.  0.
        -24    2    4    4    0    0 -0.68522729390E+02 -0.72270870259E+03  0.93291497243E+02  0.73632850752E+03  0.80455790863E+02 0.  0.
         24    2    4    4    0    0  0.65734840884E+03 -0.21858803528E+03  0.84201301147E+02  0.70252989471E+03  0.81060064607E+02 0.  0.
         13    1    3    3    0    0 -0.49197882555E+03  0.83664929001E+03 -0.34771674917E+03  0.10309860023E+04  0.00000000000E+00 0.  1.
        -13    1    3    3    0    0 -0.96846853900E+02  0.10464744786E+03 -0.70054075112E+02  0.15886464331E+03  0.00000000000E+00 0. -1.
          4    1    6    6  502    0  0.53571150962E+03 -0.20568734683E+03  0.85674727462E+02  0.58020191754E+03  0.00000000000E+00 0. -1.
          1    1    5    5  503    0 -0.46627258652E+02 -0.57752593935E+03  0.42479652880E+02  0.58096026781E+03  0.00000000000E+00 0. -1.
         -2    1    5    5    0  503 -0.21895470738E+02 -0.14518276325E+03  0.50811844362E+02  0.15536823971E+03  0.00000000000E+00 0.  1.
         -3    1    6    6    0  502  0.12163689921E+03 -0.12900688443E+02 -0.14734263150E+01  0.12232797717E+03  0.00000000000E+00 0.  1.
<mgrwt>
<rscale>  0 0.26177047E+04</rscale>
<asrwt>0</asrwt>
<pdfrwt beam="1">  1        2 0.22069131E+00 0.26177047E+04</pdfrwt>
<pdfrwt beam="2">  1       -2 0.18372546E+00 0.26177047E+04</pdfrwt>
<totfact> 0.20881678E+00</totfact>
</mgrwt>
</event>
<event>
12    1  0.2048318E-007  0.2516603E+04  0.7818608E-02  0.8397094E-01
         -2   -1    0    0    0  501 -0.00000000000E+00  0.00000000000E+00  0.45245923130E+03  0.45245923130E+03  0.00000000000E+00 0. -1.
          2   -1    0    0  501    0  0.00000000000E+00 -0.00000000000E+00 -0.34993720586E+04  0.34993720586E+04  0.00000000000E+00 0.  1.
         23    2    1    2    0    0  0.25735637924E+03 -0.39692843615E+03  0.22093737961E+03  0.52991566719E+03  0.90624495955E+02 0.  0.
        254    2    1    2    0    0 -0.25735637924E+03  0.39692843615E+03 -0.32678502069E+04  0.34219156227E+04  0.89826336045E+03 0.  0.
        -24    2    4    4    0    0 -0.58525590370E+02  0.32749421274E+03 -0.33021771268E+03  0.47558408605E+03  0.80366541701E+02 0.  0.
         24    2    4    4    0    0 -0.19883078887E+03  0.69434223401E+02 -0.29376324942E+04  0.29463315366E+04  0.82644169451E+02 0.  0.
         13    1    3    3    0    0  0.15523628374E+03 -0.17414568323E+03  0.76848672478E+02  0.24562316918E+03  0.00000000000E+00 0. -1.
        -13    1    3    3    0    0  0.10212009551E+03 -0.22278275292E+03  0.14408870713E+03  0.28429249801E+03  0.00000000000E+00 0.  1.
          2    1    6    6  502    0 -0.59568114474E+02  0.17048509975E+02 -0.14384124381E+04  0.14397462812E+04  0.00000000000E+00 0. -1.
          1    1    5    5  503    0 -0.10573532408E+01 -0.97465652221E+00 -0.20278828274E+02  0.20329752271E+02  0.00000000000E+00 0. -1.
         -2    1    5    5    0  503 -0.57468237129E+02  0.32846886927E+03 -0.30993888440E+03  0.45525433377E+03  0.00000000000E+00 0.  1.
         -1    1    6    6    0  502 -0.13926267440E+03  0.52385713426E+02 -0.14992200560E+04  0.15065852554E+04  0.00000000000E+00 0.  1.
<mgrwt>
<rscale>  0 0.25166034E+04</rscale>
<asrwt>0</asrwt>
<pdfrwt beam="1">  1        2 0.53836492E+00 0.25166034E+04</pdfrwt>
<pdfrwt beam="2">  1       -2 0.69609114E-01 0.25166034E+04</pdfrwt>
<totfact> 0.13656131E+00</totfact>
</mgrwt>
</event>
<event>
12    1  0.2048318E-007  0.2751714E+04  0.7818608E-02  0.8318418E-01
          1   -1    0    0  501    0  0.00000000000E+00  0.00000000000E+00  0.12867902377E+04  0.12867902377E+04  0.00000000000E+00 0. -1.
         -1   -1    0    0    0  501 -0.00000000000E+00 -0.00000000000E+00 -0.14710890311E+04  0.14710890311E+04  0.00000000000E+00 0.  1.
         23    2    1    2    0    0  0.13352480399E+03  0.18189588548E+03 -0.12918230599E+04  0.13146638738E+04  0.92840166768E+02 0.  0.
        254    2    1    2    0    0 -0.13352480399E+03 -0.18189588548E+03  0.11075242664E+04  0.14432153950E+04  0.89741054659E+03 0.  0.
        -24    2    4    4    0    0 -0.45962864982E+03 -0.29367327087E+03  0.81738670671E+03  0.98592010825E+03  0.80093356624E+02 0.  0.
         24    2    4    4    0    0  0.32610384583E+03  0.11177738540E+03  0.29013755972E+03  0.45729528673E+03  0.78110649451E+02 0.  0.
         13    1    3    3    0    0  0.11620704797E+03  0.16567957143E+03 -0.12524588037E+04  0.12687028231E+04  0.00000000000E+00 0.  1.
        -13    1    3    3    0    0  0.17317756024E+02  0.16216314045E+02 -0.39364256161E+02  0.45961050663E+02  0.00000000000E+00 0. -1.
          4    1    6    6  502    0  0.32479163761E+03  0.11544844906E+03  0.29304621291E+03  0.45243124909E+03  0.00000000000E+00 0. -1.
          3    1    5    5  503    0 -0.36079713941E+03 -0.25197117772E+03  0.70058012158E+03  0.82733098393E+03  0.00000000000E+00 0. -1.
         -4    1    5    5    0  503 -0.98831510408E+02 -0.41702093150E+02  0.11680658513E+03  0.15858912432E+03  0.00000000000E+00 0.  1.
         -3    1    6    6    0  502  0.13122082141E+01 -0.36710636637E+01 -0.29086531871E+01  0.48640376421E+01  0.00000000000E+00 0.  1.
<mgrwt>
<rscale>  0 0.27517144E+04</rscale>
<asrwt>0</asrwt>
<pdfrwt beam="1">  1        1 0.19796773E+00 0.27517144E+04</pdfrwt>
<pdfrwt beam="2">  1       -1 0.22632139E+00 0.27517144E+04</pdfrwt>
<totfact> 0.80252076E-01</totfact>
</mgrwt>
</event>
<event>
12    1  0.2048318E-007  0.2634372E+04  0.7818608E-02  0.8356619E-01
          1   -1    0    0  501    0  0.00000000000E+00  0.00000000000E+00  0.53732461287E+03  0.53732461287E+03  0.00000000000E+00 0. -1.
         -1   -1    0    0    0  501 -0.00000000000E+00 -0.00000000000E+00 -0.32289218810E+04  0.32289218810E+04  0.00000000000E+00 0.  1.
         23    2    1    2    0    0 -0.10668386447E+04  0.41221466837E+03 -0.90300623048E+03  0.14600615422E+04  0.91070457384E+02 0.  0.
        254    2    1    2    0    0  0.10668386447E+04 -0.41221466837E+03 -0.17885910377E+04  0.23061849517E+04  0.90075829424E+03 0.  0.
        -24    2    4    4    0    0 -0.14048224694E+03  0.30240201164E+02 -0.25160910872E+03  0.30066117666E+03  0.80251280901E+02 0.  0.
         24    2    4    4    0    0  0.12073208916E+04 -0.44245486954E+03 -0.15369819290E+04  0.20055237750E+04  0.80138101376E+02 0.  0.
         11    1    3    3    0    0 -0.29712422828E+03  0.14546427230E+03 -0.29929974474E+03  0.44611993763E+03  0.00000000000E+00 0.  1.
        -11    1    3    3    0    0 -0.76971441640E+03  0.26675039607E+03 -0.60370648573E+03  0.10139416046E+04  0.00000000000E+00 0. -1.
          2    1    6    6  502    0  0.45698106338E+03 -0.15663963153E+03 -0.51973497176E+03  0.70957177743E+03  0.00000000000E+00 0. -1.
          3    1    5    5  503    0  0.12901351137E+01  0.21101023464E+02 -0.20957374662E+02  0.29767922208E+02  0.00000000000E+00 0. -1.
         -4    1    5    5    0  503 -0.14177238205E+03  0.91391776996E+01 -0.23065173406E+03  0.27089325445E+03  0.00000000000E+00 0.  1.
         -1    1    6    6    0  502  0.75033982824E+03 -0.28581523800E+03 -0.10172469572E+04  0.12959519976E+04  0.00000000000E+00 0.  1.
<mgrwt>
<rscale>  0 0.26343722E+04</rscale>
<asrwt>0</asrwt>
<pdfrwt beam="1">  1        1 0.82665323E-01 0.26343722E+04</pdfrwt>
<pdfrwt beam="2">  1       -1 0.49675722E+00 0.26343722E+04</pdfrwt>
<totfact> 0.54867553E-02</totfact>
</mgrwt>
</event>
<event>
12    1  0.2048318E-007  0.3921626E+04  0.7818608E-02  0.8020546E-01
         -2   -1    0    0    0  501 -0.00000000000E+00  0.00000000000E+00  0.11870588246E+04  0.11870588246E+04  0.00000000000E+00 0. -1.
          2   -1    0    0  501    0  0.00000000000E+00 -0.00000000000E+00 -0.32389188685E+04  0.32389188685E+04  0.00000000000E+00 0.  1.
         23    2    1    2    0    0  0.17406081949E+04 -0.21556163752E+03 -0.28567485476E+03  0.17792288590E+04  0.88665113610E+02 0.  0.
        254    2    1    2    0    0 -0.17406081949E+04  0.21556163752E+03 -0.17661851892E+04  0.26467488341E+04  0.89982529459E+03 0.  0.
        -24    2    4    4    0    0 -0.22306941658E+03  0.67061660339E+02  0.72955929795E+02  0.25643496928E+03  0.78607218982E+02 0.  0.
         24    2    4    4    0    0 -0.15175387783E+04  0.14849997718E+03 -0.18391411190E+04  0.23903138648E+04  0.78639240073E+02 0.  0.
         11    1    3    3    0    0  0.61129521517E+03 -0.11764827036E+03 -0.10949393974E+03  0.63206952027E+03  0.00000000000E+00 0. -1.
        -11    1    3    3    0    0  0.11293129797E+04 -0.97913367159E+02 -0.17618091502E+03  0.11471593387E+04  0.00000000000E+00 0.  1.
          2    1    6    6  502    0 -0.24220777395E+02 -0.67652128063E+01 -0.24617878057E+02  0.35191676317E+02  0.00000000000E+00 0. -1.
          3    1    5    5  503    0 -0.17438985722E+03  0.49027736295E+02  0.19955822125E+02  0.18224647065E+03  0.00000000000E+00 0. -1.
         -4    1    5    5    0  503 -0.48679559360E+02  0.18033924044E+02  0.53000107670E+02  0.74188498629E+02  0.00000000000E+00 0.  1.
         -1    1    6    6    0  502 -0.14933180009E+04  0.15526518998E+03 -0.18145232409E+04  0.23551221885E+04  0.00000000000E+00 0.  1.
<mgrwt>
<rscale>  0 0.39216258E+04</rscale>
<asrwt>0</asrwt>
<pdfrwt beam="1">  1        2 0.49829520E+00 0.39216258E+04</pdfrwt>
<pdfrwt beam="2">  1       -2 0.18262444E+00 0.39216258E+04</pdfrwt>
<totfact> 0.16865260E-01</totfact>
</mgrwt>
</event>
<event>
12    1  0.2048318E-007  0.1605208E+04  0.7818608E-02  0.8817355E-01
         -1   -1    0    0    0  501 -0.00000000000E+00  0.00000000000E+00  0.43999669685E+03  0.43999669685E+03  0.00000000000E+00 0.  1.
          1   -1    0    0  501    0  0.00000000000E+00 -0.00000000000E+00 -0.14640400530E+04  0.14640400530E+04  0.00000000000E+00 0. -1.
         23    2    1    2    0    0 -0.22834138736E+03 -0.43622763109E+03 -0.74811251653E+02  0.50644933753E+03  0.91977566806E+02 0.  0.
        254    2    1    2    0    0  0.22834138736E+03  0.43622763109E+03 -0.94923210451E+03  0.13975874123E+04  0.89987479774E+03 0.  0.
        -24    2    4    4    0    0 -0.25075661757E+03  0.44211559668E+03 -0.64320692462E+03  0.82351227224E+03  0.78180768574E+02 0.  0.
         24    2    4    4    0    0  0.47909800493E+03 -0.58879655830E+01 -0.30602517989E+03  0.57407514010E+03  0.79632212642E+02 0.  0.
         11    1    3    3    0    0 -0.97165056785E+02 -0.12699862269E+03  0.93051028973E+01  0.16017578894E+03  0.00000000000E+00 0.  1.
        -11    1    3    3    0    0 -0.13117633057E+03 -0.30922900841E+03 -0.84116354550E+02  0.34627354858E+03  0.00000000000E+00 0. -1.
          2    1    6    6  502    0  0.26768199199E+02 -0.59245854647E+01  0.92267881507E+00  0.27431524520E+02  0.00000000000E+00 0. -1.
          1    1    5    5  503    0 -0.20116857933E+02  0.66958906687E+02 -0.56350895258E+02  0.89797586572E+02  0.00000000000E+00 0. -1.
         -2    1    5    5    0  503 -0.23063975964E+03  0.37515668999E+03 -0.58685602936E+03  0.73371468567E+03  0.00000000000E+00 0.  1.
         -1    1    6    6    0  502  0.45232980573E+03  0.36619881714E-01 -0.30694785870E+03  0.54664361558E+03  0.00000000000E+00 0.  1.
<mgrwt>
<rscale>  0 0.16052075E+04</rscale>
<asrwt>0</asrwt>
<pdfrwt beam="1">  1        1 0.22523693E+00 0.16052075E+04</pdfrwt>
<pdfrwt beam="2">  1       -1 0.67691800E-01 0.16052075E+04</pdfrwt>
<totfact> 0.14686995E+01</totfact>
</mgrwt>
</event>
<event>
12    1  0.2048318E-007  0.1748351E+04  0.7818608E-02  0.8734258E-01
          2   -1    0    0  501    0  0.00000000000E+00  0.00000000000E+00  0.14414846602E+04  0.14414846602E+04  0.00000000000E+00 0. -1.
         -2   -1    0    0    0  501 -0.00000000000E+00 -0.00000000000E+00 -0.53013600767E+03  0.53013600767E+03  0.00000000000E+00 0.  1.
         23    2    1    2    0    0  0.27782437684E+03  0.29794561971E+03 -0.21714150810E+03  0.47116724611E+03  0.94287658781E+02 0.  0.
        254    2    1    2    0    0 -0.27782437684E+03 -0.29794561971E+03  0.11284901606E+04  0.15004534217E+04  0.90106184667E+03 0.  0.
        -24    2    4    4    0    0 -0.24869206441E+03 -0.27934687943E+02 -0.67487230160E+02  0.27136207804E+03  0.80341530198E+02 0.  0.
         24    2    4    4    0    0 -0.29132312436E+02 -0.27001093177E+03  0.11959773907E+04  0.12290913437E+04  0.80925997181E+02 0.  0.
         11    1    3    3    0    0  0.14029442425E+03  0.20226273550E+03 -0.16244149293E+03  0.29492368212E+03  0.00000000000E+00 0.  1.
        -11    1    3    3    0    0  0.13752995259E+03  0.95682884211E+02 -0.54700015168E+02  0.17624356400E+03  0.00000000000E+00 0. -1.
          2    1    6    6  502    0  0.32489353402E+01 -0.20400883952E+03  0.97779193964E+03  0.99885296186E+03  0.00000000000E+00 0. -1.
          1    1    5    5  503    0 -0.21881592283E+03 -0.32100038639E+02 -0.84475358257E+02  0.23674227910E+03  0.00000000000E+00 0. -1.
         -2    1    5    5    0  503 -0.29876141579E+02  0.41653506968E+01  0.16988128096E+02  0.34619798935E+02  0.00000000000E+00 0.  1.
         -1    1    6    6    0  502 -0.32381247776E+02 -0.66002092243E+02  0.21818545110E+03  0.23023838181E+03  0.00000000000E+00 0.  1.
<mgrwt>
<rscale>  0 0.17483511E+04</rscale>
<asrwt>0</asrwt>
<pdfrwt beam="1">  1        2 0.22176687E+00 0.17483511E+04</pdfrwt>
<pdfrwt beam="2">  1       -2 0.81559386E-01 0.17483511E+04</pdfrwt>
<totfact> 0.17189731E+01</totfact>
</mgrwt>
</event>
<event>
12    1  0.2048318E-007  0.1446934E+04  0.7818608E-02  0.8920529E-01
         -1   -1    0    0    0  501 -0.00000000000E+00  0.00000000000E+00  0.16630876938E+03  0.16630876938E+03  0.00000000000E+00 0.  1.
          1   -1    0    0  501    0  0.00000000000E+00 -0.00000000000E+00 -0.31471868927E+04  0.31471868927E+04  0.00000000000E+00 0. -1.
         23    2    1    2    0    0  0.10601257970E+03 -0.37598868011E+03 -0.47174364458E+03  0.61906831458E+03  0.89985317066E+02 0.  0.
        254    2    1    2    0    0 -0.10601257970E+03  0.37598868011E+03 -0.25091344787E+04  0.26944273475E+04  0.90087554295E+03 0.  0.
        -24    2    4    4    0    0 -0.48179430198E+02  0.54868612052E+03 -0.24070237534E+04  0.24705437747E+04  0.80283727486E+02 0.  0.
         24    2    4    4    0    0 -0.57833149497E+02 -0.17269744040E+03 -0.10211072533E+03  0.22388357279E+03  0.80797121456E+02 0.  0.
         11    1    3    3    0    0  0.76624535953E+02 -0.14306973587E+03 -0.23554325292E+03  0.28604351562E+03  0.00000000000E+00 0. -1.
        -11    1    3    3    0    0  0.29388043742E+02 -0.23291894424E+03 -0.23620039167E+03  0.33302479897E+03  0.00000000000E+00 0.  1.
          4    1    6    6  502    0 -0.50025406593E+02 -0.16851295130E+03 -0.67727785146E+02  0.18837783559E+03  0.00000000000E+00 0. -1.
          3    1    5    5  503    0 -0.39904462992E+00  0.39485994199E+03 -0.17638373030E+04  0.18074945544E+04  0.00000000000E+00 0. -1.
         -4    1    5    5    0  503 -0.47780385568E+02  0.15382617853E+03 -0.64318645045E+03  0.66304922026E+03  0.00000000000E+00 0.  1.
         -3    1    6    6    0  502 -0.78077429038E+01 -0.41844891023E+01 -0.34382940187E+02  0.35505737202E+02  0.00000000000E+00 0.  1.
<mgrwt>
<rscale>  0 0.14469344E+04</rscale>
<asrwt>0</asrwt>
<pdfrwt beam="1">  1        1 0.48418258E+00 0.14469344E+04</pdfrwt>
<pdfrwt beam="2">  1       -1 0.25585965E-01 0.14469344E+04</pdfrwt>
<totfact> 0.61402112E+00</totfact>
</mgrwt>
</event>
<event>
12    1  0.2048318E-007  0.1253714E+04  0.7818608E-02  0.9067098E-01
          1   -1    0    0  501    0  0.00000000000E+00  0.00000000000E+00  0.55746223073E+03  0.55746223073E+03  0.00000000000E+00 0. -1.
         -1   -1    0    0    0  501 -0.00000000000E+00 -0.00000000000E+00 -0.70488994037E+03  0.70488994037E+03  0.00000000000E+00 0.  1.
         23    2    1    2    0    0 -0.27021417848E+03  0.46661256271E+02  0.70941875684E+02  0.29708630003E+03  0.89635622670E+02 0.  0.
        254    2    1    2    0    0  0.27021417848E+03 -0.46661256271E+02 -0.21836958532E+03  0.96526587107E+03  0.89936641641E+03 0.  0.
        -24    2    4    4    0    0 -0.11917898920E+03  0.26227505852E+03  0.15682252247E+03  0.33735239536E+03  0.78876468700E+02 0.  0.
         24    2    4    4    0    0  0.38939316768E+03 -0.30893631479E+03 -0.37519210780E+03  0.62791347571E+03  0.80234217090E+02 0.  0.
         11    1    3    3    0    0 -0.21753090820E+03  0.41627759196E+00  0.63393561875E+02  0.22658025730E+03  0.00000000000E+00 0. -1.
        -11    1    3    3    0    0 -0.52683270274E+02  0.46244978679E+02  0.75483138093E+01  0.70506042728E+02  0.00000000000E+00 0.  1.
          2    1    6    6  502    0  0.11014647887E+03 -0.60781580073E+02 -0.13089767616E+03  0.18155122943E+03  0.00000000000E+00 0. -1.
          3    1    5    5  503    0 -0.13427099783E+02 -0.85127227424E+00  0.15442860673E+02  0.20481543370E+02  0.00000000000E+00 0. -1.
         -4    1    5    5    0  503 -0.10575188942E+03  0.26312633079E+03  0.14137966180E+03  0.31687085199E+03  0.00000000000E+00 0.  1.
         -1    1    6    6    0  502  0.27924668880E+03 -0.24815473471E+03 -0.24429443163E+03  0.44636224627E+03  0.00000000000E+00 0.  1.
<mgrwt>
<rscale>  0 0.12537137E+04</rscale>
<asrwt>0</asrwt>
<pdfrwt beam="1">  1        1 0.85763421E-01 0.12537137E+04</pdfrwt>
<pdfrwt beam="2">  1       -1 0.10844461E+00 0.12537137E+04</pdfrwt>
<totfact> 0.29629113E+01</totfact>
</mgrwt>
</event>
<event>
12    1  0.2048318E-007  0.5109776E+04  0.7818608E-02  0.7811793E-01
          1   -1    0    0  501    0  0.00000000000E+00  0.00000000000E+00  0.36859384609E+04  0.36859384609E+04  0.00000000000E+00 0. -1.
         -1   -1    0    0    0  501 -0.00000000000E+00 -0.00000000000E+00 -0.17709069126E+04  0.17709069126E+04  0.00000000000E+00 0.  1.
         23    2    1    2    0    0  0.15324473865E+03  0.12942038722E+04 -0.13214165606E+04  0.18582388827E+04  0.91991335821E+02 0.  0.
        254    2    1    2    0    0 -0.15324473865E+03 -0.12942038722E+04  0.32364481089E+04  0.35986064908E+04  0.88143332224E+03 0.  0.
        -24    2    4    4    0    0 -0.42434221794E+03 -0.29105331034E+03  0.12790315854E+04  0.13810037686E+04  0.80444174096E+02 0.  0.
         24    2    4    4    0    0  0.27109747929E+03 -0.10031505618E+04  0.19574165235E+04  0.22176027222E+04  0.80482880339E+02 0.  0.
         11    1    3    3    0    0  0.16742498071E+02  0.14847663845E+03 -0.11220348355E+03  0.18685621512E+03  0.00000000000E+00 0.  1.
        -11    1    3    3    0    0  0.13650224058E+03  0.11457272337E+04 -0.12092130770E+04  0.16713826676E+04  0.00000000000E+00 0. -1.
          4    1    6    6  502    0  0.20034065648E+03 -0.84160354462E+03  0.16568871057E+04  0.18691462720E+04  0.00000000000E+00 0. -1.
          1    1    5    5  503    0 -0.18548118141E+03 -0.85254603650E+02  0.45413777040E+03  0.49790835563E+03  0.00000000000E+00 0. -1.
         -2    1    5    5    0  503 -0.23886103653E+03 -0.20579870669E+03  0.82489381498E+03  0.88309541299E+03  0.00000000000E+00 0.  1.
         -3    1    6    6    0  502  0.70756822807E+02 -0.16154701722E+03  0.30052941778E+03  0.34845645022E+03  0.00000000000E+00 0.  1.
<mgrwt>
<rscale>  0 0.51097765E+04</rscale>
<asrwt>0</asrwt>
<pdfrwt beam="1">  1        1 0.56706745E+00 0.51097765E+04</pdfrwt>
<pdfrwt beam="2">  1       -1 0.27244722E+00 0.51097765E+04</pdfrwt>
<totfact> 0.63053451E-03</totfact>
</mgrwt>
</event>
<event>
12    1  0.2048318E-007  0.2492192E+04  0.7818608E-02  0.8405772E-01
          2   -1    0    0  501    0  0.00000000000E+00  0.00000000000E+00  0.74328109763E+03  0.74328109763E+03  0.00000000000E+00 0. -1.
         -2   -1    0    0    0  501 -0.00000000000E+00 -0.00000000000E+00 -0.20890555865E+04  0.20890555865E+04  0.00000000000E+00 0.  1.
         23    2    1    2    0    0 -0.52116523818E+03  0.17307088636E+03  0.47196943857E+03  0.73003285543E+03  0.92876702574E+02 0.  0.
        254    2    1    2    0    0  0.52116523818E+03 -0.17307088636E+03 -0.18177439274E+04  0.21023038287E+04  0.90217607218E+03 0.  0.
        -24    2    4    4    0    0  0.12782514837E+02  0.32764125753E+03 -0.62618270180E+03  0.71111892873E+03  0.77930536026E+02 0.  0.
         24    2    4    4    0    0  0.50838272334E+03 -0.50071214389E+03 -0.11915612256E+04  0.13911849000E+04  0.80072635848E+02 0.  0.
         11    1    3    3    0    0 -0.12107371822E+03  0.75220512598E+02  0.15278828273E+03  0.20895269824E+03  0.00000000000E+00 0.  1.
        -11    1    3    3    0    0 -0.40009151995E+03  0.97850373760E+02  0.31918115584E+03  0.52108015720E+03  0.00000000000E+00 0. -1.
          4    1    6    6  502    0  0.28979254509E+03 -0.23765806129E+03 -0.66362998695E+03  0.76214554572E+03  0.00000000000E+00 0. -1.
          1    1    5    5  503    0 -0.16738636714E+02  0.11296327474E+03 -0.15529575167E+03  0.19276320677E+03  0.00000000000E+00 0. -1.
         -2    1    5    5    0  503  0.29521151551E+02  0.21467798279E+03 -0.47088695013E+03  0.51835572196E+03  0.00000000000E+00 0.  1.
         -3    1    6    6    0  502  0.21859017825E+03 -0.26305408260E+03 -0.52793123868E+03  0.62903935423E+03  0.00000000000E+00 0.  1.
<mgrwt>
<rscale>  0 0.24921922E+04</rscale>
<asrwt>0</asrwt>
<pdfrwt beam="1">  1        2 0.11435094E+00 0.24921922E+04</pdfrwt>
<pdfrwt beam="2">  1       -2 0.32139316E+00 0.24921922E+04</pdfrwt>
<totfact> 0.79510634E-01</totfact>
</mgrwt>
</event>
<event>
12    1  0.2048318E-007  0.2060558E+04  0.7818608E-02  0.8578820E-01
          1   -1    0    0  501    0  0.00000000000E+00  0.00000000000E+00  0.22134405004E+04  0.22134405004E+04  0.00000000000E+00 0. -1.
         -1   -1    0    0    0  501 -0.00000000000E+00 -0.00000000000E+00 -0.47955890778E+03  0.47955890778E+03  0.00000000000E+00 0.  1.
         23    2    1    2    0    0 -0.77399107823E+03  0.30463639443E+03  0.72642576722E+03  0.11074442179E+04  0.82902222050E+02 0.  0.
        254    2    1    2    0    0  0.77399107823E+03 -0.30463639443E+03  0.10074558254E+04  0.15855551903E+04  0.89841666243E+03 0.  0.
        -24    2    4    4    0    0  0.63523959431E+03  0.10297249841E+03  0.22024897303E+03  0.68484194869E+03  0.79788513870E+02 0.  0.
         24    2    4    4    0    0  0.13875148392E+03 -0.40760889284E+03  0.78720685234E+03  0.90071324159E+03  0.78693909490E+02 0.  0.
         11    1    3    3    0    0 -0.54756848521E+03  0.19103651007E+03  0.46414997062E+03  0.74280642795E+03  0.00000000000E+00 0.  1.
        -11    1    3    3    0    0 -0.22642259302E+03  0.11359988436E+03  0.26227579660E+03  0.36463778992E+03  0.00000000000E+00 0. -1.
          2    1    6    6  502    0  0.37640989109E+02 -0.21087390645E+03  0.43351154163E+03  0.48354617691E+03  0.00000000000E+00 0. -1.
          3    1    5    5  503    0  0.60696226912E+03  0.98733235255E+02  0.19095453284E+03  0.64390611233E+03  0.00000000000E+00 0. -1.
         -4    1    5    5    0  503  0.28277325193E+02  0.42392631583E+01  0.29294440195E+02  0.40935836360E+02  0.00000000000E+00 0.  1.
         -1    1    6    6    0  502  0.10111049481E+03 -0.19673498639E+03  0.35369531072E+03  0.41716706468E+03  0.00000000000E+00 0.  1.
<mgrwt>
<rscale>  0 0.20605583E+04</rscale>
<asrwt>0</asrwt>
<pdfrwt beam="1">  1        1 0.34052930E+00 0.20605583E+04</pdfrwt>
<pdfrwt beam="2">  1       -1 0.73778295E-01 0.20605583E+04</pdfrwt>
<totfact> 0.36422032E+00</totfact>
</mgrwt>
</event>
<event>
12    1  0.2048318E-007  0.1791754E+04  0.7818608E-02  0.8710697E-01
          2   -1    0    0  501    0  0.00000000000E+00  0.00000000000E+00  0.69953111334E+03  0.69953111334E+03  0.00000000000E+00 0. -1.
         -2   -1    0    0    0  501 -0.00000000000E+00 -0.00000000000E+00 -0.11473342191E+04  0.11473342191E+04  0.00000000000E+00 0.  1.
         23    2    1    2    0    0  0.44028099465E+03  0.42958911420E+03  0.95190639796E+02  0.62912991319E+03  0.91373018304E+02 0.  0.
        254    2    1    2    0    0 -0.44028099465E+03 -0.42958911420E+03 -0.54299374552E+03  0.12177354192E+04  0.89980174606E+03 0.  0.
        -24    2    4    4    0    0 -0.13567914958E+03  0.21461746222E+03 -0.40871097444E+03  0.48790059622E+03  0.80826013395E+02 0.  0.
         24    2    4    4    0    0 -0.30460184507E+03 -0.64420657643E+03 -0.13428277108E+03  0.72983482298E+03  0.82720064650E+02 0.  0.
         11    1    3    3    0    0  0.12964583812E+03  0.17578973034E+03  0.76791681943E+01  0.21856130091E+03  0.00000000000E+00 0. -1.
        -11    1    3    3    0    0  0.31063515653E+03  0.25379938387E+03  0.87511471602E+02  0.41056861228E+03  0.00000000000E+00 0.  1.
          4    1    6    6  502    0 -0.30088377786E+02 -0.11133535400E+03 -0.45000736195E+02  0.12379797165E+03  0.00000000000E+00 0. -1.
          1    1    5    5  503    0 -0.45433161668E+02  0.51340594049E+02 -0.18086519751E+03  0.19342246107E+03  0.00000000000E+00 0. -1.
         -2    1    5    5    0  503 -0.90245987913E+02  0.16327686817E+03 -0.22784577692E+03  0.29447813514E+03  0.00000000000E+00 0.  1.
         -3    1    6    6    0  502 -0.27451346729E+03 -0.53287122243E+03 -0.89282034888E+02  0.60603685133E+03  0.00000000000E+00 0.  1.
<mgrwt>
<rscale>  0 0.17917544E+04</rscale>
<asrwt>0</asrwt>
<pdfrwt beam="1">  1        2 0.10762017E+00 0.17917544E+04</pdfrwt>
<pdfrwt beam="2">  1       -2 0.17651296E+00 0.17917544E+04</pdfrwt>
<totfact> 0.74226039E+00</totfact>
</mgrwt>
</event>
<event>
12    1  0.2048318E-007  0.4102444E+04  0.7818608E-02  0.7984193E-01
          2   -1    0    0  501    0  0.00000000000E+00  0.00000000000E+00  0.22782994429E+04  0.22782994429E+04  0.00000000000E+00 0. -1.
         -2   -1    0    0    0  501 -0.00000000000E+00 -0.00000000000E+00 -0.18467776295E+04  0.18467776295E+04  0.00000000000E+00 0.  1.
         23    2    1    2    0    0 -0.18281059789E+04 -0.66713366051E+03  0.34309539468E+03  0.19785177584E+04  0.98890238541E+02 0.  0.
        254    2    1    2    0    0  0.18281059789E+04  0.66713366051E+03  0.88426418704E+02  0.21465593140E+04  0.90158685976E+03 0.  0.
        -24    2    4    4    0    0  0.65541742515E+03  0.27104969155E+03 -0.39453311791E+03  0.81548104695E+03  0.79454517381E+02 0.  0.
         24    2    4    4    0    0  0.11726885538E+04  0.39608396896E+03  0.48295953661E+03  0.13310782670E+04  0.80240166427E+02 0.  0.
         11    1    3    3    0    0 -0.93503582998E+03 -0.37731572011E+03  0.21415153556E+03  0.10307861253E+04  0.00000000000E+00 0. -1.
        -11    1    3    3    0    0 -0.89307014893E+03 -0.28981794040E+03  0.12894385912E+03  0.94773163305E+03  0.00000000000E+00 0.  1.
          2    1    6    6  502    0  0.10343895013E+04  0.32532798185E+03  0.40764591683E+03  0.11584365022E+04  0.00000000000E+00 0. -1.
          3    1    5    5  503    0  0.13232288088E+03  0.81651378765E+02 -0.11120526063E+03  0.19116197961E+03  0.00000000000E+00 0. -1.
         -4    1    5    5    0  503  0.52309454427E+03  0.18939831278E+03 -0.28332785728E+03  0.62431906734E+03  0.00000000000E+00 0.  1.
         -1    1    6    6    0  502  0.13829905246E+03  0.70755987114E+02  0.75313619776E+02  0.17264176478E+03  0.00000000000E+00 0.  1.
<mgrwt>
<rscale>  0 0.41024444E+04</rscale>
<asrwt>0</asrwt>
<pdfrwt beam="1">  1        2 0.35050761E+00 0.41024444E+04</pdfrwt>
<pdfrwt beam="2">  1       -2 0.28411963E+00 0.41024444E+04</pdfrwt>
<totfact> 0.14503767E-01</totfact>
</mgrwt>
</event>
<event>
12    1  0.2048318E-007  0.2436391E+04  0.7818608E-02  0.8426004E-01
          2   -1    0    0  501    0  0.00000000000E+00  0.00000000000E+00  0.95737791638E+03  0.95737791638E+03  0.00000000000E+00 0. -1.
         -2   -1    0    0    0  501 -0.00000000000E+00 -0.00000000000E+00 -0.15500677419E+04  0.15500677419E+04  0.00000000000E+00 0.  1.
         23    2    1    2    0    0  0.79859034698E+03  0.66611715701E+03 -0.11406023813E+03  0.10500975873E+04  0.90755692334E+02 0.  0.
        254    2    1    2    0    0 -0.79859034698E+03 -0.66611715701E+03 -0.47862958737E+03  0.14573480710E+04  0.90184173170E+03 0.  0.
        -24    2    4    4    0    0 -0.63472502798E+03 -0.67700714527E+03  0.14703560965E+02  0.93148335985E+03  0.78933637242E+02 0.  0.
         24    2    4    4    0    0 -0.16386531899E+03  0.10889988260E+02 -0.49333314833E+03  0.52586471116E+03  0.78648996071E+02 0.  0.
         11    1    3    3    0    0  0.37259590551E+03  0.36344638017E+03 -0.77629667282E+02  0.52625786959E+03  0.00000000000E+00 0.  1.
        -11    1    3    3    0    0  0.42599444147E+03  0.30267077684E+03 -0.36430570848E+02  0.52383971766E+03  0.00000000000E+00 0. -1.
          2    1    6    6  502    0 -0.31811203965E+02 -0.26148816071E+02 -0.16451079780E+03  0.16958630803E+03  0.00000000000E+00 0. -1.
          1    1    5    5  503    0 -0.68919494043E+02 -0.41908196275E+02  0.55891181249E+01  0.80854386495E+02  0.00000000000E+00 0. -1.
         -2    1    5    5    0  503 -0.56580553394E+03 -0.63509894899E+03  0.91144428401E+01  0.85062897336E+03  0.00000000000E+00 0.  1.
         -1    1    6    6    0  502 -0.13205411503E+03  0.37038804331E+02 -0.32882235053E+03  0.35627840313E+03  0.00000000000E+00 0.  1.
<mgrwt>
<rscale>  0 0.24363913E+04</rscale>
<asrwt>0</asrwt>
<pdfrwt beam="1">  1        2 0.14728891E+00 0.24363913E+04</pdfrwt>
<pdfrwt beam="2">  1       -2 0.23847196E+00 0.24363913E+04</pdfrwt>
<totfact> 0.18220544E+00</totfact>
</mgrwt>
</event>
<event>
12    1  0.2048318E-007  0.1322152E+04  0.7818608E-02  0.9012180E-01
          1   -1    0    0  501    0  0.00000000000E+00  0.00000000000E+00  0.83171645884E+03  0.83171645884E+03  0.00000000000E+00 0. -1.
         -1   -1    0    0    0  501 -0.00000000000E+00 -0.00000000000E+00 -0.52544545063E+03  0.52544545063E+03  0.00000000000E+00 0.  1.
         23    2    1    2    0    0  0.28630162745E+03 -0.74334027715E+01 -0.11235508192E+03  0.32593997502E+03  0.10765372973E+03 0.  0.
        254    2    1    2    0    0 -0.28630162745E+03  0.74334027715E+01  0.41862609013E+03  0.10312219345E+04  0.89785689138E+03 0.  0.
        -24    2    4    4    0    0 -0.36985499551E+02  0.81199055236E+02  0.65812353409E+03  0.66872567745E+03  0.78142381620E+02 0.  0.
         24    2    4    4    0    0 -0.24931612790E+03 -0.73765652465E+02 -0.23949744397E+03  0.36249625700E+03  0.80278313133E+02 0.  0.
         11    1    3    3    0    0  0.27487854100E+03  0.19475035136E+02 -0.10965301288E+03  0.29658265716E+03  0.00000000000E+00 0.  1.
        -11    1    3    3    0    0  0.11423086449E+02 -0.26908437907E+02 -0.27020690409E+01  0.29357317856E+02  0.00000000000E+00 0. -1.
          4    1    6    6  502    0 -0.12373717808E+03 -0.59619486810E+02 -0.16904645172E+03  0.21781201823E+03  0.00000000000E+00 0. -1.
          3    1    5    5  503    0 -0.33641641465E+02  0.41196365224E+02  0.56262418695E+03  0.56513261832E+03  0.00000000000E+00 0. -1.
         -4    1    5    5    0  503 -0.33438580859E+01  0.40002690013E+02  0.95499347146E+02  0.10359305913E+03  0.00000000000E+00 0.  1.
         -3    1    6    6    0  502 -0.12557894982E+03 -0.14146165654E+02 -0.70450992250E+02  0.14468423877E+03  0.00000000000E+00 0.  1.
<mgrwt>
<rscale>  0 0.13221522E+04</rscale>
<asrwt>0</asrwt>
<pdfrwt beam="1">  1        1 0.12795638E+00 0.13221522E+04</pdfrwt>
<pdfrwt beam="2">  1       -1 0.80837762E-01 0.13221522E+04</pdfrwt>
<totfact> 0.31073844E+01</totfact>
</mgrwt>
</event>
<event>
12    1  0.2048318E-007  0.2434922E+04  0.7818608E-02  0.8426544E-01
         -2   -1    0    0    0  501 -0.00000000000E+00  0.00000000000E+00  0.10375590178E+04  0.10375590178E+04  0.00000000000E+00 0.  1.
          2   -1    0    0  501    0  0.00000000000E+00 -0.00000000000E+00 -0.14285564749E+04  0.14285564749E+04  0.00000000000E+00 0. -1.
         23    2    1    2    0    0 -0.15645846377E+03 -0.10265504487E+04 -0.22285814982E+02  0.10437886552E+04  0.10350374111E+03 0.  0.
        254    2    1    2    0    0  0.15645846377E+03  0.10265504487E+04 -0.36871164215E+03  0.14223268375E+04  0.89932212408E+03 0.  0.
        -24    2    4    4    0    0 -0.34095921741E+03  0.66555936105E+03 -0.24494021878E+03  0.79019784670E+03  0.72072707273E+02 0.  0.
         24    2    4    4    0    0  0.49741768118E+03  0.36099108769E+03 -0.12377142336E+03  0.63212899078E+03  0.80800871317E+02 0.  0.
         13    1    3    3    0    0 -0.21734136375E+02 -0.47827888516E+03 -0.20324854421E+02  0.47920367735E+03  0.00000000000E+00 0.  1.
        -13    1    3    3    0    0 -0.13472432739E+03 -0.54827156358E+03 -0.19609605606E+01  0.56458497782E+03  0.00000000000E+00 0. -1.
          4    1    6    6  502    0  0.10771001621E+03  0.10136596599E+03 -0.51265957750E+00  0.14790797637E+03  0.00000000000E+00 0. -1.
          3    1    5    5  503    0 -0.10316978316E+03  0.13601382264E+03 -0.60415579859E+02  0.18109060273E+03  0.00000000000E+00 0. -1.
         -4    1    5    5    0  503 -0.23778943425E+03  0.52954553840E+03 -0.18452463892E+03  0.60910724397E+03  0.00000000000E+00 0.  1.
         -3    1    6    6    0  502  0.38970766496E+03  0.25962512171E+03 -0.12325876379E+03  0.48422101442E+03  0.00000000000E+00 0.  1.
<mgrwt>
<rscale>  0 0.24349223E+04</rscale>
<asrwt>0</asrwt>
<pdfrwt beam="1">  1        2 0.21977792E+00 0.24349223E+04</pdfrwt>
<pdfrwt beam="2">  1       -2 0.15962446E+00 0.24349223E+04</pdfrwt>
<totfact> 0.31684471E+00</totfact>
</mgrwt>
</event>
<event>
12    1  0.2048318E-007  0.6111060E+04  0.7818608E-02  0.7676782E-01
         -2   -1    0    0    0  501 -0.00000000000E+00  0.00000000000E+00  0.49451350804E+04  0.49451350804E+04  0.00000000000E+00 0. -1.
          2   -1    0    0  501    0  0.00000000000E+00 -0.00000000000E+00 -0.18879691763E+04  0.18879691763E+04  0.00000000000E+00 0.  1.
         23    2    1    2    0    0 -0.27166584400E+04  0.19003848227E+03  0.28719268872E+04  0.39588521854E+04  0.90547644899E+02 0.  0.
        254    2    1    2    0    0  0.27166584400E+04 -0.19003848227E+03  0.18523901686E+03  0.28742520714E+04  0.90036868664E+03 0.  0.
        -24    2    4    4    0    0  0.48875334732E+03  0.18794089080E+03 -0.22659919325E+03  0.57585954738E+03  0.77880748449E+02 0.  0.
         24    2    4    4    0    0  0.22279050927E+04 -0.37797937307E+03  0.41183821011E+03  0.22983925240E+04  0.81043040571E+02 0.  0.
         11    1    3    3    0    0 -0.22837032098E+04  0.17494584951E+03  0.23714688688E+04  0.32969335748E+04  0.00000000000E+00 0. -1.
        -11    1    3    3    0    0 -0.43295523024E+03  0.15092632759E+02  0.50045801834E+03  0.66191861061E+03  0.00000000000E+00 0.  1.
          2    1    6    6  502    0  0.11569498183E+04 -0.17267085052E+03  0.17945745938E+03  0.11834496543E+04  0.00000000000E+00 0. -1.
          1    1    5    5  503    0  0.19274798948E+03  0.70454090617E+02 -0.13053383886E+03  0.24321728849E+03  0.00000000000E+00 0. -1.
         -2    1    5    5    0  503  0.29600535784E+03  0.11748680019E+03 -0.96065354392E+02  0.33264225889E+03  0.00000000000E+00 0.  1.
         -1    1    6    6    0  502  0.10709552744E+04 -0.20530852255E+03  0.23238075073E+03  0.11149428696E+04  0.00000000000E+00 0.  1.
<mgrwt>
<rscale>  0 0.61110597E+04</rscale>
<asrwt>0</asrwt>
<pdfrwt beam="1">  1        2 0.29045680E+00 0.61110597E+04</pdfrwt>
<pdfrwt beam="2">  1       -2 0.76079001E+00 0.61110597E+04</pdfrwt>
<totfact> 0.66491735E-04</totfact>
</mgrwt>
</event>
<event>
12    1  0.2048318E-007  0.1165847E+04  0.7818608E-02  0.9143287E-01
         -1   -1    0    0    0  501 -0.00000000000E+00  0.00000000000E+00  0.38058950827E+03  0.38058950827E+03  0.00000000000E+00 0.  1.
          1   -1    0    0  501    0  0.00000000000E+00 -0.00000000000E+00 -0.89282506425E+03  0.89282506425E+03  0.00000000000E+00 0. -1.
         23    2    1    2    0    0 -0.13629488584E+03 -0.17499025233E+03 -0.88465575262E+02  0.25583704979E+03  0.91807155082E+02 0.  0.
        254    2    1    2    0    0  0.13629488584E+03  0.17499025233E+03 -0.42376998072E+03  0.10175775227E+04  0.89815651972E+03 0.  0.
        -24    2    4    4    0    0  0.27360140019E+03 -0.82393563711E+02 -0.59862140885E+03  0.66826001550E+03  0.81101366525E+02 0.  0.
         24    2    4    4    0    0 -0.13730651436E+03  0.25738381604E+03  0.17485142813E+03  0.34931750724E+03  0.79688087576E+02 0.  0.
         13    1    3    3    0    0 -0.79746213077E+02 -0.16279597224E+03 -0.76524877796E+02  0.19676901179E+03  0.00000000000E+00 0. -1.
        -13    1    3    3    0    0 -0.56548672759E+02 -0.12194280087E+02 -0.11940697466E+02  0.59068038003E+02  0.00000000000E+00 0.  1.
          2    1    6    6  502    0 -0.12070591471E+03  0.22046945322E+03  0.11342996254E+03  0.27575905071E+03  0.00000000000E+00 0. -1.
          1    1    5    5  503    0  0.12565117906E+03 -0.47981926660E+02 -0.19399004277E+03  0.23605639322E+03  0.00000000000E+00 0. -1.
         -2    1    5    5    0  503  0.14795022114E+03 -0.34411637051E+02 -0.40463136607E+03  0.43220362228E+03  0.00000000000E+00 0.  1.
         -1    1    6    6    0  502 -0.16600599646E+02  0.36914362818E+02  0.61421465593E+02  0.73558456526E+02  0.00000000000E+00 0.  1.
<mgrwt>
<rscale>  0 0.11658471E+04</rscale>
<asrwt>0</asrwt>
<pdfrwt beam="1">  1        1 0.13735770E+00 0.11658471E+04</pdfrwt>
<pdfrwt beam="2">  1       -1 0.58552232E-01 0.11658471E+04</pdfrwt>
<totfact> 0.54092018E+01</totfact>
</mgrwt>
</event>
<event>
12    1  0.2048318E-007  0.3122888E+04  0.7818608E-02  0.8209485E-01
         -1   -1    0    0    0  501 -0.00000000000E+00  0.00000000000E+00  0.65017564737E+03  0.65017564737E+03  0.00000000000E+00 0.  1.
          1   -1    0    0  501    0  0.00000000000E+00 -0.00000000000E+00 -0.37499199907E+04  0.37499199907E+04  0.00000000000E+00 0. -1.
         23    2    1    2    0    0 -0.13736772558E+04 -0.26203045841E+03 -0.18506408355E+04  0.23213180338E+04  0.89424537858E+02 0.  0.
        254    2    1    2    0    0  0.13736772558E+04  0.26203045841E+03 -0.12491035079E+04  0.20787776043E+04  0.89744503479E+03 0.  0.
        -24    2    4    4    0    0 -0.65755970798E+02 -0.46951705780E+02  0.39911835764E+02  0.12023633217E+03  0.79595920552E+02 0.  0.
         24    2    4    4    0    0  0.14394332266E+04  0.30898216419E+03 -0.12890153436E+04  0.19585412721E+04  0.82978110598E+02 0.  0.
         13    1    3    3    0    0 -0.10289580771E+04 -0.17539361959E+03 -0.13243668094E+04  0.16862577182E+04  0.00000000000E+00 0.  1.
        -13    1    3    3    0    0 -0.34471917872E+03 -0.86636838825E+02 -0.52627402607E+03  0.63506031567E+03  0.00000000000E+00 0. -1.
          2    1    6    6  502    0  0.32333390320E+03  0.34358737186E+02 -0.28057706939E+03  0.42947506057E+03  0.00000000000E+00 0. -1.
          1    1    5    5  503    0 -0.35136285190E+02  0.83446189495E+01  0.43968472210E+02  0.56898310615E+02  0.00000000000E+00 0. -1.
         -2    1    5    5    0  503 -0.30619685608E+02 -0.55296324729E+02 -0.40566364458E+01  0.63338021555E+02  0.00000000000E+00 0.  1.
         -1    1    6    6    0  502  0.11160993234E+04  0.27462342701E+03 -0.10084382742E+04  0.15290662115E+04  0.00000000000E+00 0.  1.
<mgrwt>
<rscale>  0 0.31228875E+04</rscale>
<asrwt>0</asrwt>
<pdfrwt beam="1">  1        1 0.57691078E+00 0.31228875E+04</pdfrwt>
<pdfrwt beam="2">  1       -1 0.10002702E+00 0.31228875E+04</pdfrwt>
<totfact> 0.12572649E-01</totfact>
</mgrwt>
</event>
<event>
12    1  0.2048318E-007  0.2151128E+04  0.7818608E-02  0.8539050E-01
          2   -1    0    0  501    0  0.00000000000E+00  0.00000000000E+00  0.15545067161E+04  0.15545067161E+04  0.00000000000E+00 0. -1.
         -2   -1    0    0    0  501 -0.00000000000E+00 -0.00000000000E+00 -0.74418337800E+03  0.74418337800E+03  0.00000000000E+00 0.  1.
         23    2    1    2    0    0  0.71360070564E+03  0.52248083519E+03  0.40353103931E+03  0.97385271369E+03  0.57789428307E+02 0.  0.
        254    2    1    2    0    0 -0.71360070564E+03 -0.52248083519E+03  0.40679229883E+03  0.13248373805E+04  0.89861110611E+03 0.  0.
        -24    2    4    4    0    0 -0.73418902574E+03 -0.52543358102E+03 -0.35670370695E+01  0.90606364126E+03  0.76319228768E+02 0.  0.
         24    2    4    4    0    0  0.20588320095E+02  0.29527458237E+01  0.41035933590E+03  0.41877373920E+03  0.80895379643E+02 0.  0.
         13    1    3    3    0    0  0.26347603248E+03  0.22735506337E+03  0.15308782285E+03  0.38019182795E+03  0.00000000000E+00 0. -1.
        -13    1    3    3    0    0  0.45012467316E+03  0.29512577182E+03  0.25044321647E+03  0.59366088574E+03  0.00000000000E+00 0.  1.
          4    1    6    6  502    0 -0.24019989908E+02  0.21586130210E+02  0.11354704930E+03  0.11805021532E+03  0.00000000000E+00 0. -1.
          1    1    5    5  503    0 -0.61282427668E+03 -0.43821690966E+03 -0.31413307636E+02  0.75403875888E+03  0.00000000000E+00 0. -1.
         -2    1    5    5    0  503 -0.12136474905E+03 -0.87216671362E+02  0.27846270566E+02  0.15202488237E+03  0.00000000000E+00 0.  1.
         -3    1    6    6    0  502  0.44608310003E+02 -0.18633384386E+02  0.29681228660E+03  0.30072352388E+03  0.00000000000E+00 0.  1.
<mgrwt>
<rscale>  0 0.21511281E+04</rscale>
<asrwt>0</asrwt>
<pdfrwt beam="1">  1        2 0.23915488E+00 0.21511281E+04</pdfrwt>
<pdfrwt beam="2">  1       -2 0.11448975E+00 0.21511281E+04</pdfrwt>
<totfact> 0.64706658E+00</totfact>
</mgrwt>
</event>
<event>
12    1  0.2048318E-007  0.2194008E+04  0.7818608E-02  0.8520926E-01
          1   -1    0    0  501    0  0.00000000000E+00  0.00000000000E+00  0.26477250262E+04  0.26477250262E+04  0.00000000000E+00 0. -1.
         -1   -1    0    0    0  501 -0.00000000000E+00 -0.00000000000E+00 -0.45450992864E+03  0.45450992864E+03  0.00000000000E+00 0.  1.
         23    2    1    2    0    0 -0.74992215619E+03 -0.48309631565E+03  0.11710588277E+04  0.14749507637E+04  0.91299982769E+02 0.  0.
        254    2    1    2    0    0  0.74992215619E+03  0.48309631565E+03  0.10221562699E+04  0.16272841911E+04  0.89860175170E+03 0.  0.
        -24    2    4    4    0    0 -0.10796284319E+03  0.19175137731E+03  0.56043097773E+03  0.60730426179E+03  0.79441924604E+02 0.  0.
         24    2    4    4    0    0  0.85788499939E+03  0.29134493835E+03  0.46172529213E+03  0.10199799293E+04  0.79500098111E+02 0.  0.
         11    1    3    3    0    0 -0.17689193873E+03 -0.70802926495E+02  0.23504435061E+03  0.30257174214E+03  0.00000000000E+00 0.  1.
        -11    1    3    3    0    0 -0.57303021747E+03 -0.41229338916E+03  0.93601447712E+03  0.11723790216E+04  0.00000000000E+00 0. -1.
          4    1    6    6  502    0  0.26659947525E+03  0.76146301274E+02  0.17996856298E+03  0.33054836721E+03  0.00000000000E+00 0. -1.
          1    1    5    5  503    0 -0.58628978531E+02  0.81311052274E+02  0.15825695546E+03  0.18733421550E+03  0.00000000000E+00 0. -1.
         -2    1    5    5    0  503 -0.49333864661E+02  0.11044032503E+03  0.40217402226E+03  0.41997004629E+03  0.00000000000E+00 0.  1.
         -3    1    6    6    0  502  0.59128552414E+03  0.21519863707E+03  0.28175672915E+03  0.68943156214E+03  0.00000000000E+00 0.  1.
<mgrwt>
<rscale>  0 0.21940076E+04</rscale>
<asrwt>0</asrwt>
<pdfrwt beam="1">  1        1 0.40734230E+00 0.21940076E+04</pdfrwt>
<pdfrwt beam="2">  1       -1 0.69924606E-01 0.21940076E+04</pdfrwt>
<totfact> 0.20154453E+00</totfact>
</mgrwt>
</event>
<event>
12    1  0.2048318E-007  0.2469025E+04  0.7818608E-02  0.8414104E-01
          2   -1    0    0  501    0  0.00000000000E+00  0.00000000000E+00  0.29608739250E+04  0.29608739250E+04  0.00000000000E+00 0. -1.
         -2   -1    0    0    0  501 -0.00000000000E+00 -0.00000000000E+00 -0.51472003016E+03  0.51472003016E+03  0.00000000000E+00 0.  1.
         23    2    1    2    0    0 -0.68218605716E+03  0.67853252926E+03  0.40945305932E+03  0.10495581047E+04  0.90200873124E+02 0.  0.
        254    2    1    2    0    0  0.68218605716E+03 -0.67853252926E+03  0.20367008355E+04  0.24260358505E+04  0.90095252065E+03 0.  0.
        -24    2    4    4    0    0 -0.17783453909E+03  0.19142785410E+02  0.43396576485E+03  0.47619617158E+03  0.80280378960E+02 0.  0.
         24    2    4    4    0    0  0.86002059625E+03 -0.69767531467E+03  0.16027350707E+04  0.19498396789E+04  0.82029238072E+02 0.  0.
         11    1    3    3    0    0 -0.40467357495E+03  0.45672000023E+03  0.23658365952E+03  0.65446595696E+03  0.00000000000E+00 0.  1.
        -11    1    3    3    0    0 -0.27751248222E+03  0.22181252903E+03  0.17286939980E+03  0.39509214775E+03  0.00000000000E+00 0. -1.
          2    1    6    6  502    0  0.14372007600E+03 -0.98715449767E+02  0.30105984031E+03  0.34790404958E+03  0.00000000000E+00 0. -1.
          1    1    5    5  503    0  0.60275533679E+01  0.42461790734E+00  0.20151828934E+01  0.63696673433E+01  0.00000000000E+00 0. -1.
         -2    1    5    5    0  503 -0.18386209245E+03  0.18718167503E+02  0.43195058195E+03  0.46982650424E+03  0.00000000000E+00 0.  1.
         -1    1    6    6    0  502  0.71630052025E+03 -0.59895986490E+03  0.13016752304E+04  0.16019356293E+04  0.00000000000E+00 0.  1.
<mgrwt>
<rscale>  0 0.24690250E+04</rscale>
<asrwt>0</asrwt>
<pdfrwt beam="1">  1        2 0.45551906E+00 0.24690250E+04</pdfrwt>
<pdfrwt beam="2">  1       -2 0.79187699E-01 0.24690250E+04</pdfrwt>
<totfact> 0.23300046E+00</totfact>
</mgrwt>
</event>
<event>
12    1  0.2048318E-007  0.4387308E+04  0.7818608E-02  0.7930668E-01
         -1   -1    0    0    0  501 -0.00000000000E+00  0.00000000000E+00  0.15039288674E+04  0.15039288674E+04  0.00000000000E+00 0.  1.
          1   -1    0    0  501    0  0.00000000000E+00 -0.00000000000E+00 -0.31996975149E+04  0.31996975149E+04  0.00000000000E+00 0. -1.
         23    2    1    2    0    0 -0.12925203740E+04 -0.14786066187E+04 -0.15234349703E+02  0.19663215868E+04  0.96447120708E+02 0.  0.
        254    2    1    2    0    0  0.12925203740E+04  0.14786066187E+04 -0.16805342978E+04  0.27373047955E+04  0.90097478723E+03 0.  0.
        -24    2    4    4    0    0  0.88735568792E+03  0.56466180324E+03 -0.12769301777E+04  0.16562340586E+04  0.79482760539E+02 0.  0.
         24    2    4    4    0    0  0.40516468612E+03  0.91394481548E+03 -0.40360412005E+03  0.10810707369E+04  0.79775333290E+02 0.  0.
         13    1    3    3    0    0 -0.16745345971E+03 -0.24191911310E+03 -0.11388353660E+02  0.29444050851E+03  0.00000000000E+00 0. -1.
        -13    1    3    3    0    0 -0.11250669143E+04 -0.12366875056E+04 -0.38459960424E+01  0.16718810783E+04  0.00000000000E+00 0.  1.
          2    1    6    6  502    0  0.38850464870E+03  0.84102423619E+03 -0.38940838039E+03  0.10049360749E+04  0.00000000000E+00 0. -1.
          3    1    5    5  503    0  0.63974213316E+03  0.39775291204E+03 -0.96787873449E+03  0.12264854751E+04  0.00000000000E+00 0. -1.
         -4    1    5    5    0  503  0.24761355475E+03  0.16690889120E+03 -0.30905144322E+03  0.42974858349E+03  0.00000000000E+00 0.  1.
         -1    1    6    6    0  502  0.16660037422E+02  0.72920579283E+02 -0.14195739664E+02  0.76134661978E+02  0.00000000000E+00 0.  1.
<mgrwt>
<rscale>  0 0.43873078E+04</rscale>
<asrwt>0</asrwt>
<pdfrwt beam="1">  1        1 0.49226116E+00 0.43873078E+04</pdfrwt>
<pdfrwt beam="2">  1       -1 0.23137367E+00 0.43873078E+04</pdfrwt>
<totfact> 0.29791934E-02</totfact>
</mgrwt>
</event>
<event>
12    1  0.2048318E-007  0.1538112E+04  0.7818608E-02  0.8859497E-01
         -2   -1    0    0    0  501 -0.00000000000E+00  0.00000000000E+00  0.23784810666E+03  0.23784810666E+03  0.00000000000E+00 0.  1.
          2   -1    0    0  501    0  0.00000000000E+00 -0.00000000000E+00 -0.24866599375E+04  0.24866599375E+04  0.00000000000E+00 0. -1.
         23    2    1    2    0    0 -0.47555287494E+03 -0.12229716808E+03 -0.57978752699E+03  0.76511343466E+03  0.90210072962E+02 0.  0.
        254    2    1    2    0    0  0.47555287494E+03  0.12229716808E+03 -0.16690243039E+04  0.19593946095E+04  0.90137560137E+03 0.  0.
        -24    2    4    4    0    0  0.57778208623E+03  0.30100511846E+03 -0.67433753651E+03  0.94054639459E+03  0.73893076279E+02 0.  0.
         24    2    4    4    0    0 -0.10222921130E+03 -0.17870795038E+03 -0.99468676737E+03  0.10188482149E+04  0.79136443831E+02 0.  0.
         11    1    3    3    0    0 -0.31438274414E+03 -0.11543260868E+03 -0.35066487575E+03  0.48489901221E+03  0.00000000000E+00 0.  1.
        -11    1    3    3    0    0 -0.16117013080E+03 -0.68645594008E+01 -0.22912265124E+03  0.28021442245E+03  0.00000000000E+00 0. -1.
          4    1    6    6  502    0 -0.47798396237E+02 -0.12943006608E+03 -0.49784909512E+03  0.51661450831E+03  0.00000000000E+00 0. -1.
          1    1    5    5  503    0  0.48508376898E+03  0.23171995137E+03 -0.58376391071E+03  0.79358723669E+03  0.00000000000E+00 0. -1.
         -2    1    5    5    0  503  0.92698317254E+02  0.69285167094E+02 -0.90573625801E+02  0.14695915790E+03  0.00000000000E+00 0.  1.
         -3    1    6    6    0  502 -0.54430815058E+02 -0.49277884301E+02 -0.49683767225E+03  0.50223370663E+03  0.00000000000E+00 0.  1.
<mgrwt>
<rscale>  0 0.15381123E+04</rscale>
<asrwt>0</asrwt>
<pdfrwt beam="1">  1        2 0.38256307E+00 0.15381123E+04</pdfrwt>
<pdfrwt beam="2">  1       -2 0.36592016E-01 0.15381123E+04</pdfrwt>
<totfact> 0.24068930E+01</totfact>
</mgrwt>
</event>
<event>
12    1  0.2048318E-007  0.2428404E+04  0.7818608E-02  0.8428946E-01
          1   -1    0    0  501    0  0.00000000000E+00  0.00000000000E+00  0.67036568124E+03  0.67036568124E+03  0.00000000000E+00 0. -1.
         -1   -1    0    0    0  501 -0.00000000000E+00 -0.00000000000E+00 -0.21992269767E+04  0.21992269767E+04  0.00000000000E+00 0.  1.
         23    2    1    2    0    0  0.99354185859E+03  0.20517790711E+03 -0.33694060899E+03  0.10728691221E+04  0.91081177228E+02 0.  0.
        254    2    1    2    0    0 -0.99354185859E+03 -0.20517790711E+03 -0.11919206865E+04  0.17967235359E+04  0.88222284208E+03 0.  0.
        -24    2    4    4    0    0 -0.80110865925E+03 -0.50008040240E+03 -0.10341788720E+04  0.14029818721E+04  0.83526649746E+02 0.  0.
         24    2    4    4    0    0 -0.19243319934E+03  0.29490249529E+03 -0.15774181450E+03  0.39374166382E+03  0.78434685226E+02 0.  0.
         11    1    3    3    0    0  0.61273351753E+03  0.11291476826E+03 -0.16202367952E+03  0.64377308201E+03  0.00000000000E+00 0. -1.
        -11    1    3    3    0    0  0.38080834106E+03  0.92263138845E+02 -0.17491692947E+03  0.42909604010E+03  0.00000000000E+00 0.  1.
          2    1    6    6  502    0 -0.57490763950E+02  0.82201717924E+02 -0.78382420986E+01  0.10061683959E+03  0.00000000000E+00 0. -1.
          3    1    5    5  503    0 -0.14004860457E+02 -0.86281331265E+00 -0.28699987203E+02  0.31946358614E+02  0.00000000000E+00 0. -1.
         -4    1    5    5    0  503 -0.78710379879E+03 -0.49921758909E+03 -0.10054788848E+04  0.13710355134E+04  0.00000000000E+00 0.  1.
         -1    1    6    6    0  502 -0.13494243539E+03  0.21270077737E+03 -0.14990357240E+03  0.29312482423E+03  0.00000000000E+00 0.  1.
<mgrwt>
<rscale>  0 0.24284038E+04</rscale>
<asrwt>0</asrwt>
<pdfrwt beam="1">  1        1 0.10313318E+00 0.24284038E+04</pdfrwt>
<pdfrwt beam="2">  1       -1 0.33834261E+00 0.24284038E+04</pdfrwt>
<totfact> 0.48260756E-01</totfact>
</mgrwt>
</event>
<event>
12    1  0.2048318E-007  0.3487042E+04  0.7818608E-02  0.8116868E-01
          1   -1    0    0  501    0  0.00000000000E+00  0.00000000000E+00  0.16651125537E+04  0.16651125537E+04  0.00000000000E+00 0. -1.
         -1   -1    0    0    0  501 -0.00000000000E+00 -0.00000000000E+00 -0.18256215301E+04  0.18256215301E+04  0.00000000000E+00 0.  1.
         23    2    1    2    0    0  0.82099556502E+03  0.90645485309E+03 -0.11478352008E+04  0.16796858929E+04  0.90138405138E+02 0.  0.
        254    2    1    2    0    0 -0.82099556502E+03 -0.90645485309E+03  0.98732622440E+03  0.18110481909E+04  0.89966013475E+03 0.  0.
        -24    2    4    4    0    0 -0.97215977121E+03 -0.54331260613E+03  0.70061355504E+03  0.13180312050E+04  0.77869732079E+02 0.  0.
         24    2    4    4    0    0  0.15116420619E+03 -0.36314224696E+03  0.28671266936E+03  0.49301698592E+03  0.78349759859E+02 0.  0.
         13    1    3    3    0    0  0.16925222590E+03  0.17134359984E+03 -0.27475165426E+03  0.36536750909E+03  0.00000000000E+00 0.  1.
        -13    1    3    3    0    0  0.65174333912E+03  0.73511125325E+03 -0.87308354652E+03  0.13143183838E+04  0.00000000000E+00 0. -1.
          2    1    6    6  502    0  0.98296060479E+02 -0.31211386107E+03  0.22575406680E+03  0.39754506217E+03  0.00000000000E+00 0. -1.
          1    1    5    5  503    0 -0.70628707431E+03 -0.35424707477E+03  0.49836290198E+03  0.93418306739E+03  0.00000000000E+00 0. -1.
         -2    1    5    5    0  503 -0.26587269690E+03 -0.18906553136E+03  0.20225065305E+03  0.38384813763E+03  0.00000000000E+00 0.  1.
         -1    1    6    6    0  502  0.52868145715E+02 -0.51028385883E+02  0.60958602566E+02  0.95471923748E+02  0.00000000000E+00 0.  1.
<mgrwt>
<rscale>  0 0.34870419E+04</rscale>
<asrwt>0</asrwt>
<pdfrwt beam="1">  1        1 0.25617116E+00 0.34870419E+04</pdfrwt>
<pdfrwt beam="2">  1       -1 0.28086485E+00 0.34870419E+04</pdfrwt>
<totfact> 0.18066916E-01</totfact>
</mgrwt>
</event>
<event>
12    1  0.2048318E-007  0.3458509E+04  0.7818608E-02  0.8123694E-01
         -2   -1    0    0    0  501 -0.00000000000E+00  0.00000000000E+00  0.16500728305E+04  0.16500728305E+04  0.00000000000E+00 0.  1.
          2   -1    0    0  501    0  0.00000000000E+00 -0.00000000000E+00 -0.18122356561E+04  0.18122356561E+04  0.00000000000E+00 0. -1.
         23    2    1    2    0    0  0.97233889602E+03  0.79489517822E+03  0.93331853455E+03  0.15674677667E+04  0.92576668750E+02 0.  0.
        254    2    1    2    0    0 -0.97233889602E+03 -0.79489517822E+03 -0.10954813601E+04  0.18948407198E+04  0.90168767879E+03 0.  0.
        -24    2    4    4    0    0 -0.50153041466E+03 -0.32787003848E+03  0.84896109630E+01  0.60458724229E+03  0.80138262313E+02 0.  0.
         24    2    4    4    0    0 -0.47080848136E+03 -0.46702513974E+03 -0.11039709711E+04  0.12902534776E+04  0.78924166255E+02 0.  0.
         13    1    3    3    0    0  0.82688138341E+03  0.71347482819E+03  0.82406583867E+03  0.13681606847E+04  0.00000000000E+00 0. -1.
        -13    1    3    3    0    0  0.14545751261E+03  0.81420350034E+02  0.10925269587E+03  0.19930708199E+03  0.00000000000E+00 0.  1.
          2    1    6    6  502    0 -0.44613017142E+03 -0.41897010603E+03 -0.10379058419E+04  0.12049135306E+04  0.00000000000E+00 0. -1.
          3    1    5    5  503    0 -0.28778153036E+03 -0.20575794441E+03 -0.31573159383E+02  0.35517799101E+03  0.00000000000E+00 0. -1.
         -4    1    5    5    0  503 -0.21374888429E+03 -0.12211209407E+03  0.40062770346E+02  0.24940925128E+03  0.00000000000E+00 0.  1.
         -1    1    6    6    0  502 -0.24678309940E+02 -0.48055033710E+02 -0.66065129171E+02  0.85339946911E+02  0.00000000000E+00 0.  1.
<mgrwt>
<rscale>  0 0.34585088E+04</rscale>
<asrwt>0</asrwt>
<pdfrwt beam="1">  1        2 0.27880548E+00 0.34585088E+04</pdfrwt>
<pdfrwt beam="2">  1       -2 0.25385736E+00 0.34585088E+04</pdfrwt>
<totfact> 0.42618990E-01</totfact>
</mgrwt>
</event>
<event>
12    1  0.2048318E-007  0.1105860E+04  0.7818608E-02  0.9199499E-01
          2   -1    0    0  501    0  0.00000000000E+00  0.00000000000E+00  0.71713821655E+03  0.71713821655E+03  0.00000000000E+00 0.  1.
         -2   -1    0    0    0  501 -0.00000000000E+00 -0.00000000000E+00 -0.42632180314E+03  0.42632180314E+03  0.00000000000E+00 0. -1.
         23    2    1    2    0    0 -0.16618891357E+03  0.31922211054E+01  0.68810010068E+02  0.20264032806E+03  0.93270251422E+02 0.  0.
        254    2    1    2    0    0  0.16618891357E+03 -0.31922211054E+01  0.22200640334E+03  0.94081969162E+03  0.89901385070E+03 0.  0.
        -24    2    4    4    0    0 -0.17952654957E+03  0.30373834444E+03 -0.95700287510E+02  0.37422596869E+03  0.79998542063E+02 0.  0.
         24    2    4    4    0    0  0.34571546315E+03 -0.30693056554E+03  0.31770669085E+03  0.56659372293E+03  0.79783155674E+02 0.  0.
         11    1    3    3    0    0 -0.15508959261E+03  0.18621210425E+02  0.29483445766E+02  0.15896164565E+03  0.00000000000E+00 0. -1.
        -11    1    3    3    0    0 -0.11099320963E+02 -0.15428989319E+02  0.39326564301E+02  0.43678682409E+02  0.00000000000E+00 0.  1.
          4    1    6    6  502    0  0.28418040865E+03 -0.20684854444E+03  0.24453244393E+03  0.42818330319E+03  0.00000000000E+00 0. -1.
          3    1    5    5  503    0 -0.14574277414E+03  0.20080462599E+03 -0.95571798548E+02  0.26588986951E+03  0.00000000000E+00 0. -1.
         -4    1    5    5    0  503 -0.33783775436E+02  0.10293371845E+03 -0.12848896176E+00  0.10833609918E+03  0.00000000000E+00 0.  1.
         -3    1    6    6    0  502  0.61535054493E+02 -0.10008202110E+03  0.73174246928E+02  0.13841041974E+03  0.00000000000E+00 0.  1.
<mgrwt>
<rscale>  0 0.11058601E+04</rscale>
<asrwt>0</asrwt>
<pdfrwt beam="1">  1        2 0.11032896E+00 0.11058601E+04</pdfrwt>
<pdfrwt beam="2">  1       -2 0.65587970E-01 0.11058601E+04</pdfrwt>
<totfact> 0.84478147E+01</totfact>
</mgrwt>
</event>
<event>
12    1  0.2048318E-007  0.1696722E+04  0.7818608E-02  0.8763236E-01
          2   -1    0    0  501    0  0.00000000000E+00  0.00000000000E+00  0.10490545188E+04  0.10490545188E+04  0.00000000000E+00 0. -1.
         -2   -1    0    0    0  501 -0.00000000000E+00 -0.00000000000E+00 -0.68606213682E+03  0.68606213682E+03  0.00000000000E+00 0.  1.
         23    2    1    2    0    0  0.35931352687E+03  0.23736992347E+03  0.56673550717E+03  0.71753324434E+03  0.90631840371E+02 0.  0.
        254    2    1    2    0    0 -0.35931352687E+03 -0.23736992347E+03 -0.20374312517E+03  0.10175834113E+04  0.89917409146E+03 0.  0.
        -24    2    4    4    0    0  0.76376715281E+01 -0.13332881073E+03 -0.50341043584E+03  0.52634329436E+03  0.76028223783E+02 0.  0.
         24    2    4    4    0    0 -0.36695119840E+03 -0.10404111274E+03  0.29966731067E+03  0.49124011694E+03  0.77708559767E+02 0.  0.
         13    1    3    3    0    0  0.83144766392E+02  0.97069888143E+02  0.13210532019E+03  0.18381357671E+03  0.00000000000E+00 0.  1.
        -13    1    3    3    0    0  0.27616876048E+03  0.14030003532E+03  0.43463018698E+03  0.53371966763E+03  0.00000000000E+00 0. -1.
          2    1    6    6  502    0 -0.30852535181E+03 -0.69595770116E+02  0.27485965578E+03  0.41902183034E+03  0.00000000000E+00 0. -1.
          1    1    5    5  503    0  0.29122682954E+02 -0.12351063260E+03 -0.37812122446E+03  0.39884667156E+03  0.00000000000E+00 0. -1.
         -2    1    5    5    0  503 -0.21485011425E+02 -0.98181781262E+01 -0.12528921138E+03  0.12749662280E+03  0.00000000000E+00 0.  1.
         -1    1    6    6    0  502 -0.58425846589E+02 -0.34445342623E+02  0.24807654889E+02  0.72218286598E+02  0.00000000000E+00 0.  1.
<mgrwt>
<rscale>  0 0.16967222E+04</rscale>
<asrwt>0</asrwt>
<pdfrwt beam="1">  1        2 0.16139300E+00 0.16967222E+04</pdfrwt>
<pdfrwt beam="2">  1       -2 0.10554802E+00 0.16967222E+04</pdfrwt>
<totfact> 0.16198838E+01</totfact>
</mgrwt>
</event>
<event>
12    1  0.2048318E-007  0.3219733E+04  0.7818608E-02  0.8183625E-01
         -2   -1    0    0    0  501 -0.00000000000E+00  0.00000000000E+00  0.29482504154E+04  0.29482504154E+04  0.00000000000E+00 0. -1.
          2   -1    0    0  501    0  0.00000000000E+00 -0.00000000000E+00 -0.87905352873E+03  0.87905352873E+03  0.00000000000E+00 0.  1.
         23    2    1    2    0    0  0.16014485808E+03  0.10172837566E+04 -0.31253892829E+03  0.10798101277E+04  0.88298998277E+02 0.  0.
        254    2    1    2    0    0 -0.16014485808E+03 -0.10172837566E+04  0.23817358150E+04  0.27474938165E+04  0.90307483748E+03 0.  0.
        -24    2    4    4    0    0  0.21486272906E+03 -0.28198033602E+02  0.14888438531E+03  0.27549691491E+03  0.82285287249E+02 0.  0.
         24    2    4    4    0    0 -0.37500758714E+03 -0.98908572303E+03  0.22328514297E+04  0.24719969016E+04  0.78879125329E+02 0.  0.
         13    1    3    3    0    0  0.68830048682E+02  0.32915429292E+03 -0.62780932791E+02  0.34208415583E+03  0.00000000000E+00 0. -1.
        -13    1    3    3    0    0  0.91314809395E+02  0.68812946372E+03 -0.24975799550E+03  0.73772597187E+03  0.00000000000E+00 0.  1.
          2    1    6    6  502    0 -0.36465003663E+03 -0.90417355143E+03  0.20669373554E+04  0.22853291866E+04  0.00000000000E+00 0. -1.
          3    1    5    5  503    0  0.17848445567E+03 -0.53727193751E+02  0.10992053193E+03  0.21639278085E+03  0.00000000000E+00 0. -1.
         -4    1    5    5    0  503  0.36378273393E+02  0.25529160149E+02  0.38963853384E+02  0.59104134064E+02  0.00000000000E+00 0.  1.
         -1    1    6    6    0  502 -0.10357550503E+02 -0.84912171600E+02  0.16591407432E+03  0.18666771493E+03  0.00000000000E+00 0.  1.
<mgrwt>
<rscale>  0 0.32197329E+04</rscale>
<asrwt>0</asrwt>
<pdfrwt beam="1">  1        2 0.13523901E+00 0.32197329E+04</pdfrwt>
<pdfrwt beam="2">  1       -2 0.45357698E+00 0.32197329E+04</pdfrwt>
<totfact> 0.83608766E-02</totfact>
</mgrwt>
</event>
<event>
12    1  0.2048318E-007  0.1501167E+04  0.7818608E-02  0.8883678E-01
          2   -1    0    0  501    0  0.00000000000E+00  0.00000000000E+00  0.10169634245E+04  0.10169634245E+04  0.00000000000E+00 0. -1.
         -2   -1    0    0    0  501 -0.00000000000E+00 -0.00000000000E+00 -0.55397789988E+03  0.55397789988E+03  0.00000000000E+00 0.  1.
         23    2    1    2    0    0  0.42503564288E+03  0.20664584135E+01 -0.74245125075E+02  0.44076897978E+03  0.90029922643E+02 0.  0.
        254    2    1    2    0    0 -0.42503564288E+03 -0.20664584135E+01  0.53723064969E+03  0.11301723446E+04  0.89889553874E+03 0.  0.
        -24    2    4    4    0    0 -0.19146502804E+03 -0.43760030366E+03  0.34255670836E+03  0.59321904757E+03  0.80067828983E+02 0.  0.
         24    2    4    4    0    0 -0.23357061484E+03  0.43553384524E+03  0.19467394133E+03  0.53695329703E+03  0.78587131817E+02 0.  0.
         11    1    3    3    0    0  0.29885713373E+03 -0.30564779391E+02 -0.25031339987E+02  0.30145706179E+03  0.00000000000E+00 0.  1.
        -11    1    3    3    0    0  0.12617850914E+03  0.32631237805E+02 -0.49213785088E+02  0.13931191799E+03  0.00000000000E+00 0. -1.
          4    1    6    6  502    0 -0.17405346410E+03  0.27470321002E+03  0.95881420255E+02  0.33904234059E+03  0.00000000000E+00 0. -1.
          1    1    5    5  503    0 -0.46786417840E+02 -0.41794746565E+02  0.39300592744E+02  0.74029091070E+02  0.00000000000E+00 0. -1.
         -2    1    5    5    0  503 -0.14467861020E+03 -0.39580555709E+03  0.30325611562E+03  0.51918995650E+03  0.00000000000E+00 0.  1.
         -3    1    6    6    0  502 -0.59517150734E+02  0.16083063522E+03  0.98792521078E+02  0.19791095644E+03  0.00000000000E+00 0.  1.
<mgrwt>
<rscale>  0 0.15011666E+04</rscale>
<asrwt>0</asrwt>
<pdfrwt beam="1">  1        2 0.15645591E+00 0.15011666E+04</pdfrwt>
<pdfrwt beam="2">  1       -2 0.85227369E-01 0.15011666E+04</pdfrwt>
<totfact> 0.28429145E+01</totfact>
</mgrwt>
</event>
<event>
12    1  0.2048318E-007  0.1595387E+04  0.7818608E-02  0.8823387E-01
          2   -1    0    0  501    0  0.00000000000E+00  0.00000000000E+00  0.16793494448E+04  0.16793494448E+04  0.00000000000E+00 0. -1.
         -2   -1    0    0    0  501 -0.00000000000E+00 -0.00000000000E+00 -0.37890584184E+03  0.37890584184E+03  0.00000000000E+00 0.  1.
         23    2    1    2    0    0  0.52702985634E+03  0.10297996700E+02  0.58908279880E+03  0.79537116224E+03  0.87921690567E+02 0.  0.
        254    2    1    2    0    0 -0.52702985634E+03 -0.10297996700E+02  0.71136080416E+03  0.12628841244E+04  0.90054183676E+03 0.  0.
        -24    2    4    4    0    0 -0.54956773452E+03 -0.35466659792E+03  0.60020145317E+03  0.89147042421E+03  0.81637260791E+02 0.  0.
         24    2    4    4    0    0  0.22537878179E+02  0.34436860122E+03  0.11115935099E+03  0.37141370019E+03  0.80585643367E+02 0.  0.
         11    1    3    3    0    0  0.29809212665E+03 -0.27890203888E+02  0.29025892491E+03  0.41699762941E+03  0.00000000000E+00 0. -1.
        -11    1    3    3    0    0  0.22893772968E+03  0.38188200589E+02  0.29882387389E+03  0.37837353283E+03  0.00000000000E+00 0.  1.
          2    1    6    6  502    0  0.27577935128E+01  0.16277556999E+01  0.14365817008E+02  0.14718414044E+02  0.00000000000E+00 0. -1.
          3    1    5    5  503    0 -0.23923865225E+02 -0.38873306815E+02  0.48577928863E+02  0.66658086401E+02  0.00000000000E+00 0. -1.
         -4    1    5    5    0  503 -0.52564386929E+03 -0.31579329111E+03  0.55162352431E+03  0.82481233781E+03  0.00000000000E+00 0.  1.
         -1    1    6    6    0  502  0.19780084666E+02  0.34274084552E+03  0.96793533982E+02  0.35669528615E+03  0.00000000000E+00 0.  1.
<mgrwt>
<rscale>  0 0.15953875E+04</rscale>
<asrwt>0</asrwt>
<pdfrwt beam="1">  1        2 0.25836145E+00 0.15953875E+04</pdfrwt>
<pdfrwt beam="2">  1       -2 0.58293208E-01 0.15953875E+04</pdfrwt>
<totfact> 0.26586960E+01</totfact>
</mgrwt>
</event>
<event>
12    1  0.2048318E-007  0.1340436E+04  0.7818608E-02  0.8998100E-01
          2   -1    0    0  501    0  0.00000000000E+00  0.00000000000E+00  0.14847458211E+04  0.14847458211E+04  0.00000000000E+00 0. -1.
         -2   -1    0    0    0  501 -0.00000000000E+00 -0.00000000000E+00 -0.30253798723E+03  0.30253798723E+03  0.00000000000E+00 0.  1.
         23    2    1    2    0    0 -0.69240465609E+02  0.27136962484E+03  0.62355762498E+03  0.69048730330E+03  0.97534040077E+02 0.  0.
        254    2    1    2    0    0  0.69240465609E+02 -0.27136962484E+03  0.55865020884E+03  0.10967965050E+04  0.90135276232E+03 0.  0.
        -24    2    4    4    0    0  0.53449306430E+02  0.10849999630E+03  0.67598445162E+03  0.69120299862E+03  0.78597257617E+02 0.  0.
         24    2    4    4    0    0  0.15791159180E+02 -0.37986962114E+03 -0.11733424278E+03  0.40559350636E+03  0.78666880573E+02 0.  0.
         13    1    3    3    0    0 -0.35406314147E+02  0.20220853788E+03  0.34472295702E+03  0.40121791706E+03  0.00000000000E+00 0.  1.
        -13    1    3    3    0    0 -0.33834151463E+02  0.69161086958E+02  0.27883466796E+03  0.28926938623E+03  0.00000000000E+00 0. -1.
          4    1    6    6  502    0  0.40385818166E+02 -0.11499994051E+03 -0.28840117832E+02  0.12525076056E+03  0.00000000000E+00 0. -1.
          3    1    5    5  503    0  0.20482548164E+01  0.70305631244E+02  0.22620612633E+03  0.23688876867E+03  0.00000000000E+00 0. -1.
         -4    1    5    5    0  503  0.51401051613E+02  0.38194365058E+02  0.44977832529E+03  0.45431422995E+03  0.00000000000E+00 0.  1.
         -3    1    6    6    0  502 -0.24594658986E+02 -0.26486968064E+03 -0.88494124952E+02  0.28034274580E+03  0.00000000000E+00 0.  1.
<mgrwt>
<rscale>  0 0.13404358E+04</rscale>
<asrwt>0</asrwt>
<pdfrwt beam="1">  1        2 0.22842243E+00 0.13404358E+04</pdfrwt>
<pdfrwt beam="2">  1       -2 0.46544307E-01 0.13404358E+04</pdfrwt>
<totfact> 0.55369991E+01</totfact>
</mgrwt>
</event>
<event>
12    1  0.2048318E-007  0.1348922E+04  0.7818608E-02  0.8991645E-01
          1   -1    0    0  501    0  0.00000000000E+00  0.00000000000E+00  0.10971333723E+04  0.10971333723E+04  0.00000000000E+00 0. -1.
         -1   -1    0    0    0  501 -0.00000000000E+00 -0.00000000000E+00 -0.41462352892E+03  0.41462352892E+03  0.00000000000E+00 0.  1.
         23    2    1    2    0    0 -0.52867934187E+02  0.35261724736E+03  0.10370288506E+03  0.38283579181E+03  0.93139752630E+02 0.  0.
        254    2    1    2    0    0  0.52867934187E+02 -0.35261724736E+03  0.57880695837E+03  0.11289211095E+04  0.90128321559E+03 0.  0.
        -24    2    4    4    0    0 -0.14911077378E+03  0.38930129920E+02  0.65224760549E+03  0.67517871716E+03  0.81791095865E+02 0.  0.
         24    2    4    4    0    0  0.20197870796E+03 -0.39154737728E+03 -0.73440647128E+02  0.45374239229E+03  0.79899203916E+02 0.  0.
         13    1    3    3    0    0 -0.61050496556E+02  0.22225017100E+03  0.10239821169E+03  0.25220566091E+03  0.00000000000E+00 0. -1.
        -13    1    3    3    0    0  0.81825623693E+01  0.13036707636E+03  0.13046733697E+01  0.13063013090E+03  0.00000000000E+00 0.  1.
          4    1    6    6  502    0  0.33699729862E+02 -0.30676901799E+02 -0.26735815963E+02  0.52835101514E+02  0.00000000000E+00 0. -1.
          1    1    5    5  503    0 -0.10152231769E+01  0.25287335852E+02  0.79104850348E+02  0.83054544615E+02  0.00000000000E+00 0. -1.
         -2    1    5    5    0  503 -0.14809555060E+03  0.13642794068E+02  0.57314275515E+03  0.59212417255E+03  0.00000000000E+00 0.  1.
         -3    1    6    6    0  502  0.16827897810E+03 -0.36087047548E+03 -0.46704831165E+02  0.40090729078E+03  0.00000000000E+00 0.  1.
<mgrwt>
<rscale>  0 0.13489215E+04</rscale>
<asrwt>0</asrwt>
<pdfrwt beam="1">  1        1 0.16878975E+00 0.13489215E+04</pdfrwt>
<pdfrwt beam="2">  1       -1 0.63788236E-01 0.13489215E+04</pdfrwt>
<totfact> 0.31090241E+01</totfact>
</mgrwt>
</event>
<event>
12    1  0.2048318E-007  0.2072510E+04  0.7818608E-02  0.8573451E-01
         -2   -1    0    0    0  501 -0.00000000000E+00  0.00000000000E+00  0.66139244603E+03  0.66139244603E+03  0.00000000000E+00 0.  1.
          2   -1    0    0  501    0  0.00000000000E+00 -0.00000000000E+00 -0.16235807115E+04  0.16235807115E+04  0.00000000000E+00 0. -1.
         23    2    1    2    0    0  0.67241505640E+03 -0.48296299114E+03 -0.52636504061E+03  0.98530819512E+03  0.91524994002E+02 0.  0.
        254    2    1    2    0    0 -0.67241505640E+03  0.48296299114E+03 -0.43582322482E+03  0.12996649624E+04  0.90210413602E+03 0.  0.
        -24    2    4    4    0    0 -0.56299790551E+02  0.56762933909E+03 -0.33187593638E+03  0.66472903242E+03  0.79688872409E+02 0.  0.
         24    2    4    4    0    0 -0.61611526584E+03 -0.84666347950E+02 -0.10394728844E+03  0.63493592994E+03  0.74647070137E+02 0.  0.
         13    1    3    3    0    0  0.46420825856E+03 -0.37000339505E+03 -0.40954689881E+03  0.72119378949E+03  0.00000000000E+00 0.  1.
        -13    1    3    3    0    0  0.20820679783E+03 -0.11295959608E+03 -0.11681814179E+03  0.26411440563E+03  0.00000000000E+00 0. -1.
          2    1    6    6  502    0 -0.61819142246E+03 -0.85578793136E+02 -0.10383053064E+03  0.63266511183E+03  0.00000000000E+00 0. -1.
          3    1    5    5  503    0 -0.14668083535E+02  0.43832658112E+03 -0.23224497348E+03  0.49626915288E+03  0.00000000000E+00 0. -1.
         -4    1    5    5    0  503 -0.41631707016E+02  0.12930275797E+03 -0.99630962906E+02  0.16845987954E+03  0.00000000000E+00 0.  1.
         -1    1    6    6    0  502  0.20761566161E+01  0.91244518614E+00 -0.11675779697E+00  0.22708181115E+01  0.00000000000E+00 0.  1.
<mgrwt>
<rscale>  0 0.20725096E+04</rscale>
<asrwt>0</asrwt>
<pdfrwt beam="1">  1        2 0.24978164E+00 0.20725096E+04</pdfrwt>
<pdfrwt beam="2">  1       -2 0.10175269E+00 0.20725096E+04</pdfrwt>
<totfact> 0.79194085E+00</totfact>
</mgrwt>
</event>
<event>
12    1  0.2048318E-007  0.2008054E+04  0.7818608E-02  0.8602865E-01
          1   -1    0    0  501    0  0.00000000000E+00  0.00000000000E+00  0.11792252274E+04  0.11792252274E+04  0.00000000000E+00 0. -1.
         -1   -1    0    0    0  501 -0.00000000000E+00 -0.00000000000E+00 -0.85485785803E+03  0.85485785803E+03  0.00000000000E+00 0.  1.
         23    2    1    2    0    0 -0.33905318685E+03 -0.70805840066E+03  0.28096307782E+03  0.83892725000E+03  0.92492796660E+02 0.  0.
        254    2    1    2    0    0  0.33905318685E+03  0.70805840066E+03  0.43404291508E+02  0.11951558354E+04  0.90011653471E+03 0.  0.
        -24    2    4    4    0    0  0.46221511850E+03  0.69949756580E+03  0.30428865195E+03  0.89570967008E+03  0.82247000104E+02 0.  0.
         24    2    4    4    0    0 -0.12316193165E+03  0.85608348558E+01 -0.26088436044E+03  0.29944616530E+03  0.79782247970E+02 0.  0.
         13    1    3    3    0    0 -0.16188918010E+03 -0.23585412180E+03  0.96472259379E+02  0.30189761548E+03  0.00000000000E+00 0.  1.
        -13    1    3    3    0    0 -0.17716400675E+03 -0.47220427887E+03  0.18449081844E+03  0.53702963452E+03  0.00000000000E+00 0. -1.
          4    1    6    6  502    0 -0.13108904568E+03 -0.49783664955E+01 -0.23661499787E+03  0.27054718488E+03  0.00000000000E+00 0. -1.
          3    1    5    5  503    0  0.22489275490E+03  0.35530464183E+03  0.19541419388E+03  0.46368615127E+03  0.00000000000E+00 0. -1.
         -4    1    5    5    0  503  0.23732236361E+03  0.34419292398E+03  0.10887445807E+03  0.43202351881E+03  0.00000000000E+00 0.  1.
         -3    1    6    6    0  502  0.79271140242E+01  0.13539201351E+02 -0.24269362566E+02  0.28898980421E+02  0.00000000000E+00 0.  1.
<mgrwt>
<rscale>  0 0.20080537E+04</rscale>
<asrwt>0</asrwt>
<pdfrwt beam="1">  1        1 0.18141926E+00 0.20080537E+04</pdfrwt>
<pdfrwt beam="2">  1       -1 0.13151659E+00 0.20080537E+04</pdfrwt>
<totfact> 0.50529199E+00</totfact>
</mgrwt>
</event>
<event>
12    1  0.2048318E-007  0.3442883E+04  0.7818608E-02  0.8127461E-01
          2   -1    0    0  501    0  0.00000000000E+00  0.00000000000E+00  0.23641308534E+04  0.23641308534E+04  0.00000000000E+00 0.  1.
         -2   -1    0    0    0  501 -0.00000000000E+00 -0.00000000000E+00 -0.12534670964E+04  0.12534670964E+04  0.00000000000E+00 0. -1.
         23    2    1    2    0    0  0.11773913337E+04 -0.54314546449E+03  0.15054664579E+04  0.19889019161E+04  0.89689620522E+02 0.  0.
        254    2    1    2    0    0 -0.11773913337E+04  0.54314546449E+03 -0.39480270082E+03  0.16286960337E+04  0.90306381250E+03 0.  0.
        -24    2    4    4    0    0 -0.56894257104E+03 -0.20699993071E+03 -0.16189606600E+03  0.63186166958E+03  0.80586679057E+02 0.  0.
         24    2    4    4    0    0 -0.60844876264E+03  0.75014539520E+03 -0.23290663482E+03  0.99683436413E+03  0.80655057399E+02 0.  0.
         11    1    3    3    0    0  0.92167304186E+03 -0.44509739491E+03  0.11373753846E+04  0.15301031509E+04  0.00000000000E+00 0. -1.
        -11    1    3    3    0    0  0.25571829182E+03 -0.98048069581E+02  0.36809107327E+03  0.45879876520E+03  0.00000000000E+00 0.  1.
          2    1    6    6  502    0 -0.10569517973E+03  0.91313092394E+02 -0.48150409617E+02  0.14774306687E+03  0.00000000000E+00 0. -1.
          1    1    5    5  503    0 -0.17718950316E+03 -0.10322049011E+03 -0.65767350371E+02  0.21535072320E+03  0.00000000000E+00 0. -1.
         -2    1    5    5    0  503 -0.39175306788E+03 -0.10377944060E+03 -0.96128715632E+02  0.41651094638E+03  0.00000000000E+00 0.  1.
         -1    1    6    6    0  502 -0.50275358290E+03  0.65883230281E+03 -0.18475622520E+03  0.84909129727E+03  0.00000000000E+00 0.  1.
<mgrwt>
<rscale>  0 0.34428827E+04</rscale>
<asrwt>0</asrwt>
<pdfrwt beam="1">  1        2 0.36371244E+00 0.34428827E+04</pdfrwt>
<pdfrwt beam="2">  1       -2 0.19284109E+00 0.34428827E+04</pdfrwt>
<totfact> 0.51044533E-01</totfact>
</mgrwt>
</event>
<event>
12    1  0.2048318E-007  0.1655207E+04  0.7818608E-02  0.8787332E-01
         -2   -1    0    0    0  501 -0.00000000000E+00  0.00000000000E+00  0.28690303277E+03  0.28690303277E+03  0.00000000000E+00 0.  1.
          2   -1    0    0  501    0  0.00000000000E+00 -0.00000000000E+00 -0.23873127736E+04  0.23873127736E+04  0.00000000000E+00 0. -1.
         23    2    1    2    0    0 -0.25091556979E+03 -0.48905634128E+03 -0.10120027043E+04  0.11553404373E+04  0.92343512844E+02 0.  0.
        254    2    1    2    0    0  0.25091556979E+03  0.48905634128E+03 -0.10884070366E+04  0.15188753691E+04  0.90565875562E+03 0.  0.
        -24    2    4    4    0    0 -0.16801902558E+02  0.70245157760E+03 -0.74101389980E+03  0.10243711856E+04  0.80710614962E+02 0.  0.
         24    2    4    4    0    0  0.26771747235E+03 -0.21339523632E+03 -0.34739313677E+03  0.49450418355E+03  0.81499841664E+02 0.  0.
         11    1    3    3    0    0 -0.19506063621E+03 -0.34819919634E+03 -0.80824010964E+03  0.90141189640E+03  0.00000000000E+00 0. -1.
        -11    1    3    3    0    0 -0.55854933584E+02 -0.14085714495E+03 -0.20376259464E+03  0.25392854086E+03  0.00000000000E+00 0.  1.
          4    1    6    6  502    0  0.89640505901E+02 -0.84820642330E+02 -0.18047011240E+03  0.21863079183E+03  0.00000000000E+00 0. -1.
          1    1    5    5  503    0  0.22071503082E+02  0.26979263700E+03 -0.24594711584E+03  0.36573925414E+03  0.00000000000E+00 0. -1.
         -2    1    5    5    0  503 -0.38873405640E+02  0.43265894060E+03 -0.49506678396E+03  0.65863193145E+03  0.00000000000E+00 0.  1.
         -3    1    6    6    0  502  0.17807696645E+03 -0.12857459399E+03 -0.16692302437E+03  0.27587339173E+03  0.00000000000E+00 0.  1.
<mgrwt>
<rscale>  0 0.16552067E+04</rscale>
<asrwt>0</asrwt>
<pdfrwt beam="1">  1        2 0.36727890E+00 0.16552067E+04</pdfrwt>
<pdfrwt beam="2">  1       -2 0.44138926E-01 0.16552067E+04</pdfrwt>
<totfact> 0.18814685E+01</totfact>
</mgrwt>
</event>
<event>
12    1  0.2048318E-007  0.1177916E+04  0.7818608E-02  0.9132409E-01
         -1   -1    0    0    0  501 -0.00000000000E+00  0.00000000000E+00  0.24372629411E+03  0.24372629411E+03  0.00000000000E+00 0.  1.
          1   -1    0    0  501    0  0.00000000000E+00 -0.00000000000E+00 -0.14232008249E+04  0.14232008249E+04  0.00000000000E+00 0. -1.
         23    2    1    2    0    0  0.13578673190E+03  0.92730214032E+02 -0.47940792092E+03  0.51502816174E+03  0.91570320433E+02 0.  0.
        254    2    1    2    0    0 -0.13578673190E+03 -0.92730214032E+02 -0.70006660985E+03  0.11518989572E+04  0.89985611090E+03 0.  0.
        -24    2    4    4    0    0 -0.41291649664E+03  0.23100506415E+03 -0.40545921457E+03  0.62821580802E+03  0.79965954672E+02 0.  0.
         24    2    4    4    0    0  0.27712976473E+03 -0.32373527818E+03 -0.29460739528E+03  0.52368314922E+03  0.76453165981E+02 0.  0.
         11    1    3    3    0    0  0.12794518250E+03  0.10022694013E+03 -0.47698166774E+03  0.50391161984E+03  0.00000000000E+00 0. -1.
        -11    1    3    3    0    0  0.78415494042E+01 -0.74967260994E+01 -0.24262531874E+01  0.11116541899E+02  0.00000000000E+00 0.  1.
          4    1    6    6  502    0  0.31301432778E+02 -0.60652693749E+02 -0.77333160372E+02  0.10314526963E+03  0.00000000000E+00 0. -1.
          1    1    5    5  503    0 -0.16468267242E+02 -0.33733664531E+01 -0.40595676681E+01  0.17293453005E+02  0.00000000000E+00 0. -1.
         -2    1    5    5    0  503 -0.39644822939E+03  0.23437843061E+03 -0.40139964690E+03  0.61092235501E+03  0.00000000000E+00 0.  1.
         -3    1    6    6    0  502  0.24582833195E+03 -0.26308258444E+03 -0.21727423491E+03  0.42053787960E+03  0.00000000000E+00 0.  1.
<mgrwt>
<rscale>  0 0.11779159E+04</rscale>
<asrwt>0</asrwt>
<pdfrwt beam="1">  1        1 0.21895397E+00 0.11779159E+04</pdfrwt>
<pdfrwt beam="2">  1       -1 0.37496353E-01 0.11779159E+04</pdfrwt>
<totfact> 0.50248399E+01</totfact>
</mgrwt>
</event>
<event>
12    1  0.2048318E-007  0.4358991E+04  0.7818608E-02  0.7935799E-01
          2   -1    0    0  501    0  0.00000000000E+00  0.00000000000E+00  0.21032064207E+04  0.21032064207E+04  0.00000000000E+00 0.  1.
         -2   -1    0    0    0  501 -0.00000000000E+00 -0.00000000000E+00 -0.22585523039E+04  0.22585523039E+04  0.00000000000E+00 0. -1.
         23    2    1    2    0    0  0.75249753451E+03  0.19305595675E+04  0.16194553814E+03  0.20803247571E+04  0.90619833743E+02 0.  0.
        254    2    1    2    0    0 -0.75249753451E+03 -0.19305595675E+04 -0.31729142133E+03  0.22814339675E+04  0.90053002114E+03 0.  0.
        -24    2    4    4    0    0 -0.41948932994E+03 -0.18039617730E+04 -0.10045774406E+03  0.18566490342E+04  0.82489403919E+02 0.  0.
         24    2    4    4    0    0 -0.33300820457E+03 -0.12659779457E+03 -0.21683367727E+03  0.42478493330E+03  0.80646946999E+02 0.  0.
         13    1    3    3    0    0  0.28069663680E+03  0.60366237824E+03  0.52157956205E+02  0.66777190807E+03  0.00000000000E+00 0. -1.
        -13    1    3    3    0    0  0.47180089771E+03  0.13268971893E+04  0.10978758193E+03  0.14125528490E+04  0.00000000000E+00 0.  1.
          2    1    6    6  502    0 -0.18008204359E+03 -0.41643610794E+02 -0.14801850902E+03  0.23679782886E+03  0.00000000000E+00 0. -1.
          3    1    5    5  503    0 -0.32100081088E+03 -0.14631288300E+04 -0.54626531842E+02  0.14989234643E+04  0.00000000000E+00 0. -1.
         -4    1    5    5    0  503 -0.98488519065E+02 -0.34083294292E+03 -0.45831212213E+02  0.35772556992E+03  0.00000000000E+00 0.  1.
         -1    1    6    6    0  502 -0.15292616098E+03 -0.84954183772E+02 -0.68815168258E+02  0.18798710444E+03  0.00000000000E+00 0.  1.
<mgrwt>
<rscale>  0 0.43589915E+04</rscale>
<asrwt>0</asrwt>
<pdfrwt beam="1">  1        2 0.32357022E+00 0.43589915E+04</pdfrwt>
<pdfrwt beam="2">  1       -2 0.34746959E+00 0.43589915E+04</pdfrwt>
<totfact> 0.72376076E-02</totfact>
</mgrwt>
</event>
<event>
12    1  0.2048318E-007  0.2280083E+04  0.7818608E-02  0.8485816E-01
         -1   -1    0    0    0  501 -0.00000000000E+00  0.00000000000E+00  0.42678287632E+03  0.42678287632E+03  0.00000000000E+00 0.  1.
          1   -1    0    0  501    0  0.00000000000E+00 -0.00000000000E+00 -0.30453287229E+04  0.30453287229E+04  0.00000000000E+00 0. -1.
         23    2    1    2    0    0  0.38019917664E+03  0.86996474340E+03 -0.88148195648E+03  0.12985684913E+04  0.88767214243E+02 0.  0.
        254    2    1    2    0    0 -0.38019917664E+03 -0.86996474340E+03 -0.17370638901E+04  0.21735431080E+04  0.89750131758E+03 0.  0.
        -24    2    4    4    0    0 -0.23327012589E+03 -0.53917597139E+03 -0.25392475090E+03  0.64479078454E+03  0.78432754306E+02 0.  0.
         24    2    4    4    0    0 -0.14692905075E+03 -0.33078877202E+03 -0.14831391392E+04  0.15287523234E+04  0.79828581393E+02 0.  0.
         13    1    3    3    0    0  0.26263190718E+03  0.59132093021E+03 -0.65543970053E+03  0.92099791651E+03  0.00000000000E+00 0. -1.
        -13    1    3    3    0    0  0.11756726946E+03  0.27864381319E+03 -0.22604225594E+03  0.37757057480E+03  0.00000000000E+00 0.  1.
          2    1    6    6  502    0 -0.14690142448E+03 -0.25079412129E+03 -0.11664716145E+04  0.12021371583E+04  0.00000000000E+00 0. -1.
          3    1    5    5  503    0 -0.13333457515E+03 -0.39485844353E+03 -0.18918243492E+03  0.45769126388E+03  0.00000000000E+00 0. -1.
         -4    1    5    5    0  503 -0.99935550735E+02 -0.14431752786E+03 -0.64742315990E+02  0.18709952065E+03  0.00000000000E+00 0.  1.
         -1    1    6    6    0  502 -0.27626267440E-01 -0.79994650727E+02 -0.31666752469E+03  0.32661516514E+03  0.00000000000E+00 0.  1.
<mgrwt>
<rscale>  0 0.22800826E+04</rscale>
<asrwt>0</asrwt>
<pdfrwt beam="1">  1        1 0.46851211E+00 0.22800826E+04</pdfrwt>
<pdfrwt beam="2">  1       -1 0.65658904E-01 0.22800826E+04</pdfrwt>
<totfact> 0.11797269E+00</totfact>
</mgrwt>
</event>
<event>
12    1  0.2048318E-007  0.2025176E+04  0.7818608E-02  0.8594940E-01
          1   -1    0    0  501    0  0.00000000000E+00  0.00000000000E+00  0.14438926228E+04  0.14438926228E+04  0.00000000000E+00 0. -1.
         -1   -1    0    0    0  501 -0.00000000000E+00 -0.00000000000E+00 -0.71011801783E+03  0.71011801783E+03  0.00000000000E+00 0.  1.
         23    2    1    2    0    0  0.16451893086E+03 -0.73892633762E+03  0.12874773802E+01  0.76237057766E+03  0.90158909990E+02 0.  0.
        254    2    1    2    0    0 -0.16451893086E+03  0.73892633762E+03  0.73248712761E+03  0.13916400630E+04  0.90942072867E+03 0.  0.
        -24    2    4    4    0    0  0.13265632615E+03 -0.15944707610E+03  0.68192554428E+02  0.23253391491E+03  0.80004538365E+02 0.  0.
         24    2    4    4    0    0 -0.29717525702E+03  0.89837341372E+03  0.66429457318E+03  0.11591061481E+04  0.82775954596E+02 0.  0.
         13    1    3    3    0    0  0.98866316934E+02 -0.46723425116E+03  0.44048529517E+02  0.47960678376E+03  0.00000000000E+00 0. -1.
        -13    1    3    3    0    0  0.65652613930E+02 -0.27169208646E+03 -0.42761052137E+02  0.28276379390E+03  0.00000000000E+00 0.  1.
          4    1    6    6  502    0 -0.13901622358E+03  0.29693692005E+03  0.22091274049E+03  0.39534729520E+03  0.00000000000E+00 0. -1.
          3    1    5    5  503    0  0.60087491734E+02 -0.34916604848E+02  0.53403959009E+02  0.87645072850E+02  0.00000000000E+00 0. -1.
         -4    1    5    5    0  503  0.72568834421E+02 -0.12453047125E+03  0.14788595419E+02  0.14488884206E+03  0.00000000000E+00 0.  1.
         -3    1    6    6    0  502 -0.15815903344E+03  0.60143649367E+03  0.44338183269E+03  0.76375885287E+03  0.00000000000E+00 0.  1.
<mgrwt>
<rscale>  0 0.20251757E+04</rscale>
<asrwt>0</asrwt>
<pdfrwt beam="1">  1        1 0.22213733E+00 0.20251757E+04</pdfrwt>
<pdfrwt beam="2">  1       -1 0.10924893E+00 0.20251757E+04</pdfrwt>
<totfact> 0.51388125E+00</totfact>
</mgrwt>
</event>
<event>
12    1  0.2048318E-007  0.1167518E+04  0.7818608E-02  0.9141773E-01
          1   -1    0    0  501    0  0.00000000000E+00  0.00000000000E+00  0.13762706260E+04  0.13762706260E+04  0.00000000000E+00 0. -1.
         -1   -1    0    0    0  501 -0.00000000000E+00 -0.00000000000E+00 -0.24760729479E+03  0.24760729479E+03  0.00000000000E+00 0.  1.
         23    2    1    2    0    0 -0.49483714391E+02  0.16606527749E+03  0.47348309215E+02  0.20214985225E+03  0.92716697529E+02 0.  0.
        254    2    1    2    0    0  0.49483714391E+02 -0.16606527749E+03  0.10813150220E+04  0.14217280685E+04  0.90666543428E+03 0.  0.
        -24    2    4    4    0    0  0.25928713558E+03 -0.42394627107E+03  0.90846883925E+03  0.10386160992E+04  0.80296389328E+02 0.  0.
         24    2    4    4    0    0 -0.20980342119E+03  0.25788099359E+03  0.17284618275E+03  0.38311196938E+03  0.79867989779E+02 0.  0.
         11    1    3    3    0    0 -0.60006076377E+02  0.86986418999E+02  0.59777836068E+02  0.12141151501E+03  0.00000000000E+00 0. -1.
        -11    1    3    3    0    0  0.10522361986E+02  0.79078858487E+02 -0.12429526853E+02  0.80738337234E+02  0.00000000000E+00 0.  1.
          4    1    6    6  502    0 -0.75763572995E+02  0.12531577243E+03  0.11412422732E+03  0.18565694459E+03  0.00000000000E+00 0. -1.
          3    1    5    5  503    0  0.53342811479E+02 -0.40281419766E+02  0.98905946985E+02  0.11937518446E+03  0.00000000000E+00 0. -1.
         -4    1    5    5    0  503  0.20594432410E+03 -0.38366485131E+03  0.80956289226E+03  0.91924091471E+03  0.00000000000E+00 0.  1.
         -3    1    6    6    0  502 -0.13403984819E+03  0.13256522116E+03  0.58721955435E+02  0.19745502479E+03  0.00000000000E+00 0.  1.
<mgrwt>
<rscale>  0 0.11675181E+04</rscale>
<asrwt>0</asrwt>
<pdfrwt beam="1">  1        1 0.21173394E+00 0.11675181E+04</pdfrwt>
<pdfrwt beam="2">  1       -1 0.38093431E-01 0.11675181E+04</pdfrwt>
<totfact> 0.52716764E+01</totfact>
</mgrwt>
</event>
<event>
12    1  0.2048318E-007  0.1501381E+04  0.7818608E-02  0.8883535E-01
          1   -1    0    0  501    0  0.00000000000E+00  0.00000000000E+00  0.14716218217E+04  0.14716218217E+04  0.00000000000E+00 0. -1.
         -1   -1    0    0    0  501 -0.00000000000E+00 -0.00000000000E+00 -0.38293559506E+03  0.38293559506E+03  0.00000000000E+00 0.  1.
         23    2    1    2    0    0 -0.96627266902E+02 -0.33511794298E+03  0.74906178615E+03  0.83130047337E+03  0.91247208916E+02 0.  0.
        254    2    1    2    0    0  0.96627266902E+02  0.33511794298E+03  0.33962444046E+03  0.10232569434E+04  0.90003841426E+03 0.  0.
        -24    2    4    4    0    0 -0.26395220523E+03  0.45264462001E+03  0.35119992676E+03  0.63569179108E+03  0.78770210174E+02 0.  0.
         24    2    4    4    0    0  0.36057947213E+03 -0.11752667703E+03 -0.11575486300E+02  0.38756515228E+03  0.79010631163E+02 0.  0.
         13    1    3    3    0    0 -0.11710377986E+02  0.73178103762E+00  0.46738975528E+02  0.48189213414E+02  0.00000000000E+00 0.  1.
        -13    1    3    3    0    0 -0.84916888916E+02 -0.33584972402E+03  0.70232281063E+03  0.78311125996E+03  0.00000000000E+00 0. -1.
          4    1    6    6  502    0  0.61757489296E+02 -0.51887962584E+02 -0.12454510922E+02  0.81617785975E+02  0.00000000000E+00 0. -1.
          1    1    5    5  503    0 -0.12304408139E+03  0.28200999075E+03  0.22236800721E+03  0.37962746407E+03  0.00000000000E+00 0. -1.
         -2    1    5    5    0  503 -0.14090812384E+03  0.17063462926E+03  0.12883191955E+03  0.25606432700E+03  0.00000000000E+00 0.  1.
         -3    1    6    6    0  502  0.29882198284E+03 -0.65638714448E+02  0.87902462138E+00  0.30594736630E+03  0.00000000000E+00 0.  1.
<mgrwt>
<rscale>  0 0.15013812E+04</rscale>
<asrwt>0</asrwt>
<pdfrwt beam="1">  1        1 0.22640335E+00 0.15013812E+04</pdfrwt>
<pdfrwt beam="2">  1       -1 0.58913169E-01 0.15013812E+04</pdfrwt>
<totfact> 0.19334994E+01</totfact>
</mgrwt>
</event>
<event>
12    1  0.2048318E-007  0.1551151E+04  0.7818608E-02  0.8851133E-01
         -1   -1    0    0    0  501 -0.00000000000E+00  0.00000000000E+00  0.52099285042E+03  0.52099285042E+03  0.00000000000E+00 0.  1.
          1   -1    0    0  501    0  0.00000000000E+00 -0.00000000000E+00 -0.11545599331E+04  0.11545599331E+04  0.00000000000E+00 0. -1.
         23    2    1    2    0    0  0.22320372976E+03  0.88494622406E+02 -0.69424174909E+03  0.74027402058E+03  0.91557720523E+02 0.  0.
        254    2    1    2    0    0 -0.22320372976E+03 -0.88494622406E+02  0.60674666382E+02  0.93527876297E+03  0.90189453161E+03 0.  0.
        -24    2    4    4    0    0  0.29653914585E+03  0.13510473771E+03 -0.85085565167E+02  0.34546439677E+03  0.76924254051E+02 0.  0.
         24    2    4    4    0    0 -0.51974287561E+03 -0.22359936012E+03  0.14576023155E+03  0.58981436620E+03  0.80657367190E+02 0.  0.
         11    1    3    3    0    0  0.83291403871E+02  0.35452983435E+02 -0.40068066084E+03  0.41077897215E+03  0.00000000000E+00 0. -1.
        -11    1    3    3    0    0  0.13991232589E+03  0.53041638971E+02 -0.29356108826E+03  0.32949504843E+03  0.00000000000E+00 0.  1.
          2    1    6    6  502    0 -0.45450462024E+03 -0.22255218248E+03  0.13411320479E+03  0.52353631721E+03  0.00000000000E+00 0. -1.
          1    1    5    5  503    0  0.22237719078E+03  0.11498471627E+03 -0.32719530367E+02  0.25247508317E+03  0.00000000000E+00 0. -1.
         -4    1    5    5    0  503  0.74161955067E+02  0.20120021441E+02 -0.52366034799E+02  0.92989313595E+02  0.00000000000E+00 0.  1.
         -1    1    6    6    0  502 -0.65238255373E+02 -0.10471776395E+01  0.11647026760E+02  0.66278048986E+02  0.00000000000E+00 0.  1.
<mgrwt>
<rscale>  0 0.15511511E+04</rscale>
<asrwt>0</asrwt>
<pdfrwt beam="1">  1        1 0.17762460E+00 0.15511511E+04</pdfrwt>
<pdfrwt beam="2">  1       -1 0.80152747E-01 0.15511511E+04</pdfrwt>
<totfact> 0.17276303E+01</totfact>
</mgrwt>
</event>
<event>
12    1  0.2048318E-007  0.2837327E+04  0.7818608E-02  0.8291773E-01
          1   -1    0    0  501    0  0.00000000000E+00  0.00000000000E+00  0.17131196685E+04  0.17131196685E+04  0.00000000000E+00 0. -1.
         -1   -1    0    0    0  501 -0.00000000000E+00 -0.00000000000E+00 -0.11748189452E+04  0.11748189452E+04  0.00000000000E+00 0.  1.
         23    2    1    2    0    0 -0.11370277660E+04 -0.12382218510E+03  0.81447867109E+03  0.14070288297E+04  0.90501645278E+02 0.  0.
        254    2    1    2    0    0  0.11370277660E+04  0.12382218510E+03 -0.27617794780E+03  0.14809097839E+04  0.89925272024E+03 0.  0.
        -24    2    4    4    0    0  0.83698786405E+03 -0.23725659510E+03  0.93717918285E+02  0.87789372621E+03  0.71238822429E+02 0.  0.
         24    2    4    4    0    0  0.30003990199E+03  0.36107878020E+03 -0.36989586608E+03  0.60301605767E+03  0.80022407884E+02 0.  0.
         13    1    3    3    0    0 -0.97775527154E+03 -0.11389867720E+03  0.73662503309E+03  0.12294692835E+04  0.00000000000E+00 0. -1.
        -13    1    3    3    0    0 -0.15927249449E+03 -0.99235079051E+01  0.77853638008E+02  0.17755954624E+03  0.00000000000E+00 0.  1.
          4    1    6    6  502    0  0.14649758939E+03  0.23330721990E+03 -0.19501104991E+03  0.33752498002E+03  0.00000000000E+00 0. -1.
          3    1    5    5  503    0  0.24983849897E+03 -0.49948703912E+02  0.19025574164E+01  0.25478965504E+03  0.00000000000E+00 0. -1.
         -4    1    5    5    0  503  0.58714936508E+03 -0.18730789119E+03  0.91815360868E+02  0.62310407117E+03  0.00000000000E+00 0.  1.
         -3    1    6    6    0  502  0.15354231260E+03  0.12777156031E+03 -0.17488481617E+03  0.26549107765E+03  0.00000000000E+00 0.  1.
<mgrwt>
<rscale>  0 0.28373265E+04</rscale>
<asrwt>0</asrwt>
<pdfrwt beam="1">  1        1 0.26355687E+00 0.28373265E+04</pdfrwt>
<pdfrwt beam="2">  1       -1 0.18074138E+00 0.28373265E+04</pdfrwt>
<totfact> 0.82828246E-01</totfact>
</mgrwt>
</event>
<event>
12    1  0.2048318E-007  0.1567950E+04  0.7818608E-02  0.8840483E-01
         -1   -1    0    0    0  501 -0.00000000000E+00  0.00000000000E+00  0.44753236087E+03  0.44753236087E+03  0.00000000000E+00 0.  1.
          1   -1    0    0  501    0  0.00000000000E+00 -0.00000000000E+00 -0.13733457756E+04  0.13733457756E+04  0.00000000000E+00 0. -1.
         23    2    1    2    0    0 -0.26873170855E+02 -0.28557740016E+03  0.19371237440E+03  0.35728580312E+03  0.88611750444E+02 0.  0.
        254    2    1    2    0    0  0.26873170855E+02  0.28557740016E+03 -0.11195257892E+04  0.14635923334E+04  0.89804671756E+03 0.  0.
        -24    2    4    4    0    0  0.37831785103E+03  0.30688244115E+03 -0.32315708226E+03  0.58924671505E+03  0.74026767345E+02 0.  0.
         24    2    4    4    0    0 -0.35144468018E+03 -0.21305040987E+02 -0.79636870690E+03  0.87434561833E+03  0.79434721382E+02 0.  0.
         13    1    3    3    0    0 -0.57003482412E+02 -0.17602008828E+03  0.10205171107E+03  0.21129841509E+03  0.00000000000E+00 0. -1.
        -13    1    3    3    0    0  0.30130311557E+02 -0.10955731188E+03  0.91660663338E+02  0.14598738803E+03  0.00000000000E+00 0.  1.
          2    1    6    6  502    0 -0.29965100776E+02 -0.43868399946E+01 -0.27924243950E+02  0.41193628510E+02  0.00000000000E+00 0. -1.
          3    1    5    5  503    0  0.89788655385E+02  0.40448873353E+02 -0.83934852825E+02  0.12939541534E+03  0.00000000000E+00 0. -1.
         -2    1    5    5    0  503  0.28852919565E+03  0.26643356780E+03 -0.23922222943E+03  0.45985129971E+03  0.00000000000E+00 0.  1.
         -1    1    6    6    0  502 -0.32147957940E+03 -0.16918200993E+02 -0.76844446295E+03  0.83315198982E+03  0.00000000000E+00 0.  1.
<mgrwt>
<rscale>  0 0.15679498E+04</rscale>
<asrwt>0</asrwt>
<pdfrwt beam="1">  1        1 0.21128396E+00 0.15679498E+04</pdfrwt>
<pdfrwt beam="2">  1       -1 0.68851134E-01 0.15679498E+04</pdfrwt>
<totfact> 0.16473827E+01</totfact>
</mgrwt>
</event>
<event>
12    1  0.2048318E-007  0.2761197E+04  0.7818608E-02  0.8315417E-01
         -2   -1    0    0    0  501 -0.00000000000E+00  0.00000000000E+00  0.94532718976E+03  0.94532718976E+03  0.00000000000E+00 0.  1.
          2   -1    0    0  501    0  0.00000000000E+00 -0.00000000000E+00 -0.20162888788E+04  0.20162888788E+04  0.00000000000E+00 0. -1.
         23    2    1    2    0    0  0.15776694879E+03  0.76931980533E+03 -0.14767098018E+04  0.16750240606E+04  0.91051588763E+02 0.  0.
        254    2    1    2    0    0 -0.15776694879E+03 -0.76931980533E+03  0.40574811273E+03  0.12865920080E+04  0.93484976924E+03 0.  0.
        -24    2    4    4    0    0 -0.18397485987E+03 -0.97248502225E+03  0.38773679942E+03  0.10659402013E+04  0.79465838326E+02 0.  0.
         24    2    4    4    0    0  0.26207911083E+02  0.20316521692E+03  0.18011313310E+02  0.22065180674E+03  0.79999077740E+02 0.  0.
         11    1    3    3    0    0  0.68520398915E+02  0.47411443932E+03 -0.97000767588E+03  0.10818476963E+04  0.00000000000E+00 0. -1.
        -11    1    3    3    0    0  0.89246549875E+02  0.29520536601E+03 -0.50670212593E+03  0.59317636434E+03  0.00000000000E+00 0.  1.
          2    1    6    6  502    0  0.18136960370E+02  0.42664363609E+01  0.10633184275E+02  0.21452655279E+02  0.00000000000E+00 0. -1.
          1    1    5    5  503    0 -0.39699255841E+02 -0.86324987383E+02  0.33267103499E+02  0.10067141867E+03  0.00000000000E+00 0. -1.
         -2    1    5    5    0  503 -0.14427560403E+03 -0.88616003487E+03  0.35446969593E+03  0.96526878259E+03  0.00000000000E+00 0.  1.
         -1    1    6    6    0  502  0.80709507137E+01  0.19889878056E+03  0.73781290346E+01  0.19919915146E+03  0.00000000000E+00 0.  1.
<mgrwt>
<rscale>  0 0.27611973E+04</rscale>
<asrwt>0</asrwt>
<pdfrwt beam="1">  1        2 0.31019829E+00 0.27611973E+04</pdfrwt>
<pdfrwt beam="2">  1       -2 0.14543495E+00 0.27611973E+04</pdfrwt>
<totfact> 0.18570037E+00</totfact>
</mgrwt>
</event>
<event>
12    1  0.2048318E-007  0.2144641E+04  0.7818608E-02  0.8541830E-01
          1   -1    0    0  501    0  0.00000000000E+00  0.00000000000E+00  0.90205375907E+03  0.90205375907E+03  0.00000000000E+00 0. -1.
         -1   -1    0    0    0  501 -0.00000000000E+00 -0.00000000000E+00 -0.12747255157E+04  0.12747255157E+04  0.00000000000E+00 0.  1.
         23    2    1    2    0    0 -0.64547162513E+02  0.86195471061E+03 -0.32720068573E+03  0.92856128579E+03  0.89629868869E+02 0.  0.
        254    2    1    2    0    0  0.64547162513E+02 -0.86195471061E+03 -0.45471070892E+02  0.12482179890E+04  0.89935992259E+03 0.  0.
        -24    2    4    4    0    0 -0.22753705112E+03 -0.40601425662E+02  0.22444663298E+03  0.33211783165E+03  0.80649721919E+02 0.  0.
         24    2    4    4    0    0  0.29208421363E+03 -0.82135328495E+03 -0.26991770387E+03  0.91610015732E+03  0.80308933701E+02 0.  0.
         11    1    3    3    0    0 -0.11829625476E+02  0.58974209002E+03 -0.25073943400E+03  0.64094144549E+03  0.00000000000E+00 0.  1.
        -11    1    3    3    0    0 -0.52717537038E+02  0.27221262059E+03 -0.76461251734E+02  0.28761984030E+03  0.00000000000E+00 0. -1.
          4    1    6    6  502    0  0.64104814545E+02 -0.18291319335E+03 -0.95641108509E+02  0.21613395195E+03  0.00000000000E+00 0. -1.
          1    1    5    5  503    0 -0.33908908416E+02 -0.29810950688E+02  0.73950689652E+02  0.86644165129E+02  0.00000000000E+00 0. -1.
         -2    1    5    5    0  503 -0.19362814270E+03 -0.10790474974E+02  0.15049594333E+03  0.24547366652E+03  0.00000000000E+00 0.  1.
         -3    1    6    6    0  502  0.22797939908E+03 -0.63844009160E+03 -0.17427659536E+03  0.69996620537E+03  0.00000000000E+00 0.  1.
<mgrwt>
<rscale>  0 0.21446407E+04</rscale>
<asrwt>0</asrwt>
<pdfrwt beam="1">  1        1 0.13877750E+00 0.21446407E+04</pdfrwt>
<pdfrwt beam="2">  1       -1 0.19611162E+00 0.21446407E+04</pdfrwt>
<totfact> 0.26590684E+00</totfact>
</mgrwt>
</event>
<event>
12    1  0.2048318E-007  0.3184674E+04  0.7818608E-02  0.8192876E-01
          2   -1    0    0  501    0  0.00000000000E+00  0.00000000000E+00  0.26762399441E+04  0.26762399441E+04  0.00000000000E+00 0. -1.
         -2   -1    0    0    0  501 -0.00000000000E+00 -0.00000000000E+00 -0.94742546450E+03  0.94742546450E+03  0.00000000000E+00 0.  1.
         23    2    1    2    0    0 -0.71135925247E+03 -0.22014920284E+03  0.22289004510E+04  0.23517455702E+04  0.90622011219E+02 0.  0.
        254    2    1    2    0    0  0.71135925247E+03  0.22014920284E+03 -0.50008597148E+03  0.12719198383E+04  0.90177405077E+03 0.  0.
        -24    2    4    4    0    0  0.29217250597E+03 -0.12963112842E+03  0.19635371800E+03  0.38357932088E+03  0.80058167207E+02 0.  0.
         24    2    4    4    0    0  0.41918674651E+03  0.34978033126E+03 -0.69643968948E+03  0.88834051744E+03  0.77825608014E+02 0.  0.
         13    1    3    3    0    0 -0.48699879688E+03 -0.16260437272E+03  0.16570043107E+04  0.17347251355E+04  0.00000000000E+00 0. -1.
        -13    1    3    3    0    0 -0.22436045559E+03 -0.57544830128E+02  0.57189614037E+03  0.61702043474E+03  0.00000000000E+00 0.  1.
          2    1    6    6  502    0  0.32541357214E+03  0.29824233946E+03 -0.59535484687E+03  0.74114093105E+03  0.00000000000E+00 0. -1.
          1    1    5    5  503    0  0.17716697119E+03 -0.84192699139E+02  0.16420499882E+03  0.25581209491E+03  0.00000000000E+00 0. -1.
         -2    1    5    5    0  503  0.11500553478E+03 -0.45438429278E+02  0.32148719176E+02  0.12776722596E+03  0.00000000000E+00 0.  1.
         -1    1    6    6    0  502  0.93773174368E+02  0.51537991800E+02 -0.10108484261E+03  0.14719958639E+03  0.00000000000E+00 0.  1.
<mgrwt>
<rscale>  0 0.31846745E+04</rscale>
<asrwt>0</asrwt>
<pdfrwt beam="1">  1        2 0.41172922E+00 0.31846745E+04</pdfrwt>
<pdfrwt beam="2">  1       -2 0.14575776E+00 0.31846745E+04</pdfrwt>
<totfact> 0.74734107E-01</totfact>
</mgrwt>
</event>
<event>
12    1  0.2048318E-007  0.1246007E+04  0.7818608E-02  0.9073513E-01
          1   -1    0    0  501    0  0.00000000000E+00  0.00000000000E+00  0.21387463646E+03  0.21387463646E+03  0.00000000000E+00 0. -1.
         -1   -1    0    0    0  501 -0.00000000000E+00 -0.00000000000E+00 -0.18147705679E+04  0.18147705679E+04  0.00000000000E+00 0.  1.
         23    2    1    2    0    0  0.33167762141E+02  0.71941192076E+01 -0.85416034973E+03  0.85965373284E+03  0.90899843440E+02 0.  0.
        254    2    1    2    0    0 -0.33167762141E+02 -0.71941192076E+01 -0.74673558176E+03  0.11689914716E+04  0.89876313662E+03 0.  0.
        -24    2    4    4    0    0  0.32812723536E+03 -0.38981298587E+01 -0.72294542051E+03  0.79803692681E+03  0.80809513742E+02 0.  0.
         24    2    4    4    0    0 -0.36129499750E+03 -0.32959893488E+01 -0.23790161251E+02  0.37095454476E+03  0.80600023214E+02 0.  0.
         13    1    3    3    0    0  0.34949121704E+02 -0.37916035038E+02 -0.42057650171E+03  0.42372592629E+03  0.00000000000E+00 0. -1.
        -13    1    3    3    0    0 -0.17813595634E+01  0.45110154246E+02 -0.43358384802E+03  0.43592780655E+03  0.00000000000E+00 0.  1.
          4    1    6    6  502    0 -0.20749489721E+03 -0.40724046586E+02 -0.22635505779E+02  0.21266157730E+03  0.00000000000E+00 0. -1.
          3    1    5    5  503    0  0.12748731477E+03  0.28744343263E+02 -0.22505221587E+03  0.26024556205E+03  0.00000000000E+00 0. -1.
         -4    1    5    5    0  503  0.20063992059E+03 -0.32642473122E+02 -0.49789320463E+03  0.53779136476E+03  0.00000000000E+00 0.  1.
         -3    1    6    6    0  502 -0.15380010030E+03  0.37428057237E+02 -0.11546554711E+01  0.15829296747E+03  0.00000000000E+00 0.  1.
<mgrwt>
<rscale>  0 0.12460071E+04</rscale>
<asrwt>0</asrwt>
<pdfrwt beam="1">  1        1 0.32903790E-01 0.12460071E+04</pdfrwt>
<pdfrwt beam="2">  1       -1 0.27919547E+00 0.12460071E+04</pdfrwt>
<totfact> 0.60803462E+00</totfact>
</mgrwt>
</event>
<event>
12    1  0.2048318E-007  0.3341356E+04  0.7818608E-02  0.8152451E-01
         -2   -1    0    0    0  501 -0.00000000000E+00  0.00000000000E+00  0.18049138509E+04  0.18049138509E+04  0.00000000000E+00 0.  1.
          2   -1    0    0  501    0  0.00000000000E+00 -0.00000000000E+00 -0.15464258168E+04  0.15464258168E+04  0.00000000000E+00 0. -1.
         23    2    1    2    0    0  0.10918211862E+04 -0.33961378117E+02 -0.97820383741E+03  0.14690148580E+04  0.88853967809E+02 0.  0.
        254    2    1    2    0    0 -0.10918211862E+04  0.33961378117E+02  0.12366918715E+04  0.18823248097E+04  0.90582174091E+03 0.  0.
        -24    2    4    4    0    0 -0.33149670512E+03  0.41218183378E+03  0.29197820509E+03  0.60952386684E+03  0.80524172770E+02 0.  0.
         24    2    4    4    0    0 -0.76032448113E+03 -0.37822045566E+03  0.94471366644E+03  0.12728009429E+04  0.79964360860E+02 0.  0.
         13    1    3    3    0    0  0.33392244060E+03  0.30410585722E+02 -0.30388347835E+03  0.45251979899E+03  0.00000000000E+00 0. -1.
        -13    1    3    3    0    0  0.75789874565E+03 -0.64371963839E+02 -0.67432035906E+03  0.10164950590E+04  0.00000000000E+00 0.  1.
          2    1    6    6  502    0 -0.17823177957E+03 -0.11891665272E+03  0.20618632806E+03  0.29735591372E+03  0.00000000000E+00 0. -1.
          1    1    5    5  503    0 -0.13748602793E+03  0.11114236963E+03  0.10228856713E+03  0.20424981070E+03  0.00000000000E+00 0. -1.
         -2    1    5    5    0  503 -0.19401067719E+03  0.30103946414E+03  0.18968963797E+03  0.40527405615E+03  0.00000000000E+00 0.  1.
         -1    1    6    6    0  502 -0.58209270155E+03 -0.25930380294E+03  0.73852733838E+03  0.97544502918E+03  0.00000000000E+00 0.  1.
<mgrwt>
<rscale>  0 0.33413562E+04</rscale>
<asrwt>0</asrwt>
<pdfrwt beam="1">  1        2 0.23791166E+00 0.33413562E+04</pdfrwt>
<pdfrwt beam="2">  1       -2 0.27767905E+00 0.33413562E+04</pdfrwt>
<totfact> 0.43281815E-01</totfact>
</mgrwt>
</event>
<event>
12    1  0.2048318E-007  0.2629166E+04  0.7818608E-02  0.8358361E-01
          2   -1    0    0  501    0  0.00000000000E+00  0.00000000000E+00  0.26492203455E+04  0.26492203455E+04  0.00000000000E+00 0. -1.
         -2   -1    0    0    0  501 -0.00000000000E+00 -0.00000000000E+00 -0.65231568508E+03  0.65231568508E+03  0.00000000000E+00 0.  1.
         23    2    1    2    0    0 -0.10484202928E+04  0.34534946880E+03  0.43492860175E+03  0.11900391211E+04  0.92622108680E+02 0.  0.
        254    2    1    2    0    0  0.10484202928E+04 -0.34534946880E+03  0.15619760586E+04  0.21114969095E+04  0.89453821883E+03 0.  0.
        -24    2    4    4    0    0  0.51745489512E+03 -0.58452275933E+03  0.11550384416E+04  0.13964332605E+04  0.80533377047E+02 0.  0.
         24    2    4    4    0    0  0.53096539772E+03  0.23917329053E+03  0.40693761700E+03  0.71506364894E+03  0.81176852775E+02 0.  0.
         13    1    3    3    0    0 -0.27162750973E+03  0.98370031726E+02  0.15733114659E+03  0.32895479458E+03  0.00000000000E+00 0. -1.
        -13    1    3    3    0    0 -0.77679278311E+03  0.24697943707E+03  0.27759745515E+03  0.86108432650E+03  0.00000000000E+00 0.  1.
          2    1    6    6  502    0  0.26107142198E+03  0.11352571015E+03  0.14986355099E+03  0.32172264166E+03  0.00000000000E+00 0. -1.
          1    1    5    5  503    0  0.19343437084E+03 -0.20743561244E+03  0.48887160584E+03  0.56519185780E+03  0.00000000000E+00 0. -1.
         -4    1    5    5    0  503  0.32402052429E+03 -0.37708714689E+03  0.66616683579E+03  0.83124140273E+03  0.00000000000E+00 0.  1.
         -1    1    6    6    0  502  0.26989397574E+03  0.12564758038E+03  0.25707406600E+03  0.39334100728E+03  0.00000000000E+00 0.  1.
<mgrwt>
<rscale>  0 0.26291656E+04</rscale>
<asrwt>0</asrwt>
<pdfrwt beam="1">  1        2 0.40757236E+00 0.26291656E+04</pdfrwt>
<pdfrwt beam="2">  1       -2 0.10035626E+00 0.26291656E+04</pdfrwt>
<totfact> 0.20568347E+00</totfact>
</mgrwt>
</event>
<event>
12    1  0.2048318E-007  0.1780391E+04  0.7818608E-02  0.8716798E-01
         -2   -1    0    0    0  501 -0.00000000000E+00  0.00000000000E+00  0.43087179345E+03  0.43087179345E+03  0.00000000000E+00 0.  1.
          2   -1    0    0  501    0  0.00000000000E+00 -0.00000000000E+00 -0.18391725848E+04  0.18391725848E+04  0.00000000000E+00 0. -1.
         23    2    1    2    0    0  0.43084292064E+03  0.19158766584E+03  0.60660530336E+02  0.48396191180E+03  0.90597881686E+02 0.  0.
        254    2    1    2    0    0 -0.43084292064E+03 -0.19158766584E+03 -0.14689613217E+04  0.17860824665E+04  0.89995097445E+03 0.  0.
        -24    2    4    4    0    0  0.20276248310E+03  0.26464792138E+02 -0.66492302194E+02  0.22972735341E+03  0.80872868614E+02 0.  0.
         24    2    4    4    0    0 -0.63360540374E+03 -0.21805245797E+03 -0.14024690195E+04  0.15563551131E+04  0.79493428558E+02 0.  0.
         11    1    3    3    0    0  0.20535439671E+03  0.13176042365E+03  0.57389120347E+02  0.25064865574E+03  0.00000000000E+00 0.  1.
        -11    1    3    3    0    0  0.22548852393E+03  0.59827242189E+02  0.32714099889E+01  0.23331325606E+03  0.00000000000E+00 0. -1.
          2    1    6    6  502    0 -0.96130071907E+02 -0.36778742178E+02 -0.28806934716E+03  0.30590458541E+03  0.00000000000E+00 0. -1.
          3    1    5    5  503    0  0.62636400698E+02  0.34793167373E+01  0.17007679576E+02  0.64997580739E+02  0.00000000000E+00 0. -1.
         -4    1    5    5    0  503  0.14012608240E+03  0.22985475400E+02 -0.83499981769E+02  0.16472977267E+03  0.00000000000E+00 0.  1.
         -1    1    6    6    0  502 -0.53747533183E+03 -0.18127371580E+03 -0.11143996724E+04  0.12504505277E+04  0.00000000000E+00 0.  1.
<mgrwt>
<rscale>  0 0.17803905E+04</rscale>
<asrwt>0</asrwt>
<pdfrwt beam="1">  1        2 0.28294964E+00 0.17803905E+04</pdfrwt>
<pdfrwt beam="2">  1       -2 0.66287967E-01 0.17803905E+04</pdfrwt>
<totfact> 0.16238569E+01</totfact>
</mgrwt>
</event>
<event>
12    1  0.2048318E-007  0.2606012E+04  0.7818608E-02  0.8366162E-01
          2   -1    0    0  501    0  0.00000000000E+00  0.00000000000E+00  0.15399461891E+04  0.15399461891E+04  0.00000000000E+00 0. -1.
         -2   -1    0    0    0  501 -0.00000000000E+00 -0.00000000000E+00 -0.11025218929E+04  0.11025218929E+04  0.00000000000E+00 0.  1.
         23    2    1    2    0    0 -0.79478456686E+03 -0.82433506339E+03  0.18078883398E+03  0.11636518563E+04  0.10094669780E+03 0.  0.
        254    2    1    2    0    0  0.79478456686E+03  0.82433506339E+03  0.25663546223E+03  0.14788162258E+04  0.89990269731E+03 0.  0.
        -24    2    4    4    0    0  0.84114830077E+03  0.50547567225E+03  0.46359854744E+03  0.10881178839E+04  0.77722564610E+02 0.  0.
         24    2    4    4    0    0 -0.46363733911E+02  0.31885939114E+03 -0.20696308521E+03  0.39069834181E+03  0.77398763015E+02 0.  0.
         13    1    3    3    0    0 -0.28933052067E+03 -0.26797338863E+03  0.10537859906E+03  0.40819913810E+03  0.00000000000E+00 0. -1.
        -13    1    3    3    0    0 -0.50545404619E+03 -0.55636167476E+03  0.75410234916E+02  0.75545271823E+03  0.00000000000E+00 0.  1.
          4    1    6    6  502    0 -0.41797826081E+02  0.17280771545E+03 -0.15418796997E+03  0.23533698151E+03  0.00000000000E+00 0. -1.
          1    1    5    5  503    0  0.65933388837E+03  0.41100743887E+03  0.39816438635E+03  0.87303102449E+03  0.00000000000E+00 0. -1.
         -2    1    5    5    0  503  0.18181441240E+03  0.94468233379E+02  0.65434161088E+02  0.21508685946E+03  0.00000000000E+00 0.  1.
         -3    1    6    6    0  502 -0.45659078302E+01  0.14605167568E+03 -0.52775115238E+02  0.15536136030E+03  0.00000000000E+00 0.  1.
<mgrwt>
<rscale>  0 0.26060118E+04</rscale>
<asrwt>0</asrwt>
<pdfrwt beam="1">  1        2 0.23691480E+00 0.26060118E+04</pdfrwt>
<pdfrwt beam="2">  1       -2 0.16961875E+00 0.26060118E+04</pdfrwt>
<totfact> 0.22856530E+00</totfact>
</mgrwt>
</event>
<event>
12    1  0.2048318E-007  0.2672859E+04  0.7818608E-02  0.8343865E-01
         -2   -1    0    0    0  501 -0.00000000000E+00  0.00000000000E+00  0.96543998190E+03  0.96543998190E+03  0.00000000000E+00 0. -1.
          2   -1    0    0  501    0  0.00000000000E+00 -0.00000000000E+00 -0.18499792595E+04  0.18499792595E+04  0.00000000000E+00 0.  1.
         23    2    1    2    0    0  0.87164760138E+03  0.79321358973E+03 -0.51011096685E+03  0.12856139113E+04  0.60270976519E+02 0.  0.
        254    2    1    2    0    0 -0.87164760138E+03 -0.79321358973E+03 -0.37442831078E+03  0.15298053301E+04  0.90063891106E+03 0.  0.
        -24    2    4    4    0    0 -0.24072688121E+03  0.12170507059E+02 -0.43332563838E+03  0.50197265246E+03  0.78152942079E+02 0.  0.
         24    2    4    4    0    0 -0.63092072017E+03 -0.80538409679E+03  0.58897327603E+02  0.10278326776E+04  0.79161982702E+02 0.  0.
         11    1    3    3    0    0  0.50139817131E+03  0.43273055847E+03 -0.26000522488E+03  0.71151850250E+03  0.00000000000E+00 0. -1.
        -11    1    3    3    0    0  0.37024943007E+03  0.36048303125E+03 -0.25010574197E+03  0.57409540884E+03  0.00000000000E+00 0.  1.
          2    1    6    6  502    0 -0.21304697509E+03 -0.29948676645E+03 -0.12846861716E+02  0.36775858757E+03  0.00000000000E+00 0. -1.
          3    1    5    5  503    0 -0.20272434298E+02  0.24752301770E+02 -0.44260132256E+02  0.54613252445E+02  0.00000000000E+00 0. -1.
         -4    1    5    5    0  503 -0.22045444691E+03 -0.12581794711E+02 -0.38906550613E+03  0.44735940001E+03  0.00000000000E+00 0.  1.
         -1    1    6    6    0  502 -0.41787374508E+03 -0.50589733033E+03  0.71744189319E+02  0.66007409006E+03  0.00000000000E+00 0.  1.
<mgrwt>
<rscale>  0 0.26728591E+04</rscale>
<asrwt>0</asrwt>
<pdfrwt beam="1">  1        2 0.28461219E+00 0.26728591E+04</pdfrwt>
<pdfrwt beam="2">  1       -2 0.14852923E+00 0.26728591E+04</pdfrwt>
<totfact> 0.21891819E+00</totfact>
</mgrwt>
</event>
<event>
12    1  0.2048318E-007  0.3404994E+04  0.7818608E-02  0.8136682E-01
         -2   -1    0    0    0  501 -0.00000000000E+00  0.00000000000E+00  0.92387327097E+03  0.92387327097E+03  0.00000000000E+00 0. -1.
          2   -1    0    0  501    0  0.00000000000E+00 -0.00000000000E+00 -0.31373313979E+04  0.31373313979E+04  0.00000000000E+00 0.  1.
         23    2    1    2    0    0  0.13432311948E+03 -0.15413548342E+04 -0.63811299519E+03  0.16761975163E+04  0.92911214723E+02 0.  0.
        254    2    1    2    0    0 -0.13432311948E+03  0.15413548342E+04 -0.15753451317E+04  0.23850071526E+04  0.90151506283E+03 0.  0.
        -24    2    4    4    0    0  0.28301675073E+03  0.24945333902E+03 -0.14680673945E+03  0.41260563170E+03  0.79785581521E+02 0.  0.
         24    2    4    4    0    0 -0.41733987021E+03  0.12919014951E+04 -0.14285383923E+04  0.19724015209E+04  0.80397642287E+02 0.  0.
         11    1    3    3    0    0  0.57061667212E+02 -0.39228314112E+03 -0.20006714843E+03  0.44403711619E+03  0.00000000000E+00 0. -1.
        -11    1    3    3    0    0  0.77261452271E+02 -0.11490716930E+04 -0.43804584676E+03  0.12321604001E+04  0.00000000000E+00 0.  1.
          4    1    6    6  502    0 -0.31602687212E+03  0.10494667366E+04 -0.11181196793E+04  0.15657091149E+04  0.00000000000E+00 0. -1.
          1    1    5    5  503    0  0.14462807389E+03  0.87215872882E+02 -0.37596945155E+02  0.17302432928E+03  0.00000000000E+00 0. -1.
         -2    1    5    5    0  503  0.13838867685E+03  0.16223746614E+03 -0.10920979429E+03  0.23958130242E+03  0.00000000000E+00 0.  1.
         -3    1    6    6    0  502 -0.10131299809E+03  0.24243475851E+03 -0.31041871297E+03  0.40669240598E+03  0.00000000000E+00 0.  1.
<mgrwt>
<rscale>  0 0.34049943E+04</rscale>
<asrwt>0</asrwt>
<pdfrwt beam="1">  1        2 0.48266636E+00 0.34049943E+04</pdfrwt>
<pdfrwt beam="2">  1       -2 0.14213435E+00 0.34049943E+04</pdfrwt>
<totfact> 0.40678065E-01</totfact>
</mgrwt>
</event>
<event>
12    1  0.2048318E-007  0.2412452E+04  0.7818608E-02  0.8434856E-01
         -1   -1    0    0    0  501 -0.00000000000E+00  0.00000000000E+00  0.16061451445E+04  0.16061451445E+04  0.00000000000E+00 0.  1.
          1   -1    0    0  501    0  0.00000000000E+00 -0.00000000000E+00 -0.90588378464E+03  0.90588378464E+03  0.00000000000E+00 0. -1.
         23    2    1    2    0    0  0.57952117053E+03  0.80307882371E+03 -0.11230810551E+02  0.99468788221E+03  0.92181710370E+02 0.  0.
        254    2    1    2    0    0 -0.57952117053E+03 -0.80307882371E+03  0.71149217039E+03  0.15173410469E+04  0.90295202525E+03 0.  0.
        -24    2    4    4    0    0  0.67387553216E+02 -0.11051555449E+02  0.44600890569E+03  0.45776926142E+03  0.77236866472E+02 0.  0.
         24    2    4    4    0    0 -0.64690872375E+03 -0.79202726826E+03  0.26548326470E+03  0.10595717855E+04  0.80080673235E+02 0.  0.
         13    1    3    3    0    0  0.47402815943E+03  0.61559958500E+03  0.20553805870E+02  0.77723098492E+03  0.00000000000E+00 0. -1.
        -13    1    3    3    0    0  0.10549301110E+03  0.18747923871E+03 -0.31784616421E+02  0.21745689729E+03  0.00000000000E+00 0.  1.
          4    1    6    6  502    0 -0.16032941273E+03 -0.14697135654E+03  0.66439141963E+02  0.22742088694E+03  0.00000000000E+00 0. -1.
          3    1    5    5  503    0  0.19926431676E+02  0.11444139224E+02  0.26884521143E+02  0.35366770831E+02  0.00000000000E+00 0. -1.
         -4    1    5    5    0  503  0.47461121540E+02 -0.22495694672E+02  0.41912438454E+03  0.42240249059E+03  0.00000000000E+00 0.  1.
         -3    1    6    6    0  502 -0.48657931101E+03 -0.64505591172E+03  0.19904412274E+03  0.83215089855E+03  0.00000000000E+00 0.  1.
<mgrwt>
<rscale>  0 0.24124517E+04</rscale>
<asrwt>0</asrwt>
<pdfrwt beam="1">  1        1 0.13936674E+00 0.24124517E+04</pdfrwt>
<pdfrwt beam="2">  1       -1 0.24709925E+00 0.24124517E+04</pdfrwt>
<totfact> 0.11732013E+00</totfact>
</mgrwt>
</event>
<event>
12    1  0.2048318E-007  0.3059981E+04  0.7818608E-02  0.8226807E-01
         -2   -1    0    0    0  501 -0.00000000000E+00  0.00000000000E+00  0.10175069943E+04  0.10175069943E+04  0.00000000000E+00 0.  1.
          2   -1    0    0  501    0  0.00000000000E+00 -0.00000000000E+00 -0.23005937655E+04  0.23005937655E+04  0.00000000000E+00 0. -1.
         23    2    1    2    0    0 -0.63538873526E+03  0.86535887107E+03 -0.15580237653E+04  0.18942536401E+04  0.90520599432E+02 0.  0.
        254    2    1    2    0    0  0.63538873526E+03 -0.86535887107E+03  0.27493699420E+03  0.14238471198E+04  0.89397172722E+03 0.  0.
        -24    2    4    4    0    0  0.30411837684E+03 -0.93002728153E+03  0.39415750645E+03  0.10578660604E+04  0.79257367386E+02 0.  0.
         24    2    4    4    0    0  0.33127035842E+03  0.64668410464E+02 -0.11922051225E+03  0.36598105939E+03  0.76200732375E+02 0.  0.
         13    1    3    3    0    0 -0.21818317073E+03  0.27842082877E+03 -0.58721738825E+03  0.68552630507E+03  0.00000000000E+00 0. -1.
        -13    1    3    3    0    0 -0.41720556453E+03  0.58693804230E+03 -0.97080637710E+03  0.12087273350E+04  0.00000000000E+00 0.  1.
          2    1    6    6  502    0  0.17758065087E+03  0.73231947905E+02 -0.65550827080E+02  0.20296481638E+03  0.00000000000E+00 0. -1.
          1    1    5    5  503    0  0.30204044589E+03 -0.86575633220E+03  0.36016778057E+03  0.98513110187E+03  0.00000000000E+00 0. -1.
         -2    1    5    5    0  503  0.20779309545E+01 -0.64270949331E+02  0.33989725877E+02  0.72734958515E+02  0.00000000000E+00 0.  1.
         -1    1    6    6    0  502  0.15368970754E+03 -0.85635374412E+01 -0.53669685170E+02  0.16301624301E+03  0.00000000000E+00 0.  1.
<mgrwt>
<rscale>  0 0.30599806E+04</rscale>
<asrwt>0</asrwt>
<pdfrwt beam="1">  1        2 0.35393750E+00 0.30599806E+04</pdfrwt>
<pdfrwt beam="2">  1       -2 0.15653954E+00 0.30599806E+04</pdfrwt>
<totfact> 0.10313767E+00</totfact>
</mgrwt>
</event>
<event>
12    1  0.2048318E-007  0.1627392E+04  0.7818608E-02  0.8803894E-01
         -2   -1    0    0    0  501 -0.00000000000E+00  0.00000000000E+00  0.40613654394E+03  0.40613654394E+03  0.00000000000E+00 0.  1.
          2   -1    0    0  501    0  0.00000000000E+00 -0.00000000000E+00 -0.16302433536E+04  0.16302433536E+04  0.00000000000E+00 0. -1.
         23    2    1    2    0    0 -0.44854383986E+03 -0.14417695290E+03 -0.49422604510E+02  0.48213590017E+03  0.89631815607E+02 0.  0.
        254    2    1    2    0    0  0.44854383986E+03  0.14417695290E+03 -0.11746842051E+04  0.15542439973E+04  0.90211576389E+03 0.  0.
        -24    2    4    4    0    0  0.66726755983E+03  0.83911513537E+02 -0.11177597429E+04  0.13068520527E+04  0.78665788053E+02 0.  0.
         24    2    4    4    0    0 -0.21872371997E+03  0.60265439361E+02 -0.56924462164E+02  0.24739194462E+03  0.80562963034E+02 0.  0.
         11    1    3    3    0    0 -0.11334958873E+03  0.25335261097E+01 -0.19232072117E+02  0.11499748091E+03  0.00000000000E+00 0.  1.
        -11    1    3    3    0    0 -0.33519425113E+03 -0.14671047901E+03 -0.30190532393E+02  0.36713841925E+03  0.00000000000E+00 0. -1.
          4    1    6    6  502    0 -0.17556494468E+03  0.79177093071E+02 -0.54738908440E+02  0.20022090292E+03  0.00000000000E+00 0. -1.
          3    1    5    5  503    0  0.65272900658E+03  0.85588987147E+02 -0.10644749993E+04  0.12515940456E+04  0.00000000000E+00 0. -1.
         -4    1    5    5    0  503  0.14538553246E+02 -0.16774736101E+01 -0.53284743635E+02  0.55258007134E+02  0.00000000000E+00 0.  1.
         -3    1    6    6    0  502 -0.43158775287E+02 -0.18911653710E+02 -0.21855537237E+01  0.47171041704E+02  0.00000000000E+00 0.  1.
<mgrwt>
<rscale>  0 0.16273923E+04</rscale>
<asrwt>0</asrwt>
<pdfrwt beam="1">  1        2 0.25080666E+00 0.16273923E+04</pdfrwt>
<pdfrwt beam="2">  1       -2 0.62482546E-01 0.16273923E+04</pdfrwt>
<totfact> 0.24384512E+01</totfact>
</mgrwt>
</event>
<event>
12    1  0.2048318E-007  0.2164403E+04  0.7818608E-02  0.8533392E-01
          1   -1    0    0  501    0  0.00000000000E+00  0.00000000000E+00  0.70469605775E+03  0.70469605775E+03  0.00000000000E+00 0. -1.
         -1   -1    0    0    0  501 -0.00000000000E+00 -0.00000000000E+00 -0.16619357362E+04  0.16619357362E+04  0.00000000000E+00 0.  1.
         23    2    1    2    0    0 -0.17583019843E+03  0.86316855116E+03 -0.55183079705E+03  0.10440536029E+04  0.97747075162E+02 0.  0.
        254    2    1    2    0    0  0.17583019843E+03 -0.86316855116E+03 -0.40540888138E+03  0.13225781911E+04  0.89937784272E+03 0.  0.
        -24    2    4    4    0    0  0.10124017920E+03 -0.14437977825E+01  0.21924310734E+03  0.25275585961E+03  0.74607814701E+02 0.  0.
         24    2    4    4    0    0  0.74590019234E+02 -0.86172475337E+03 -0.62465198872E+03  0.10698223315E+04  0.78717801774E+02 0.  0.
         13    1    3    3    0    0 -0.33785363995E+02  0.15930101577E+03 -0.14897406923E+03  0.22070690462E+03  0.00000000000E+00 0.  1.
        -13    1    3    3    0    0 -0.14204483444E+03  0.70386753539E+03 -0.40285672783E+03  0.82334669825E+03  0.00000000000E+00 0. -1.
          2    1    6    6  502    0  0.31071455307E+02 -0.10242099797E+03 -0.61171605682E+02  0.12327798466E+03  0.00000000000E+00 0. -1.
          3    1    5    5  503    0  0.57147445081E+00  0.10284485637E+02  0.79307406043E+02  0.79973507370E+02  0.00000000000E+00 0. -1.
         -4    1    5    5    0  503  0.10066870475E+03 -0.11728283419E+02  0.13993570129E+03  0.17278235224E+03  0.00000000000E+00 0.  1.
         -1    1    6    6    0  502  0.43518563927E+02 -0.75930375540E+03 -0.56348038303E+03  0.94654434679E+03  0.00000000000E+00 0.  1.
<mgrwt>
<rscale>  0 0.21644025E+04</rscale>
<asrwt>0</asrwt>
<pdfrwt beam="1">  1        1 0.10841478E+00 0.21644025E+04</pdfrwt>
<pdfrwt beam="2">  1       -1 0.25568242E+00 0.21644025E+04</pdfrwt>
<totfact> 0.15787451E+00</totfact>
</mgrwt>
</event>
<event>
12    1  0.2048318E-007  0.2931177E+04  0.7818608E-02  0.8263662E-01
          1   -1    0    0  501    0  0.00000000000E+00  0.00000000000E+00  0.61405153689E+03  0.61405153689E+03  0.00000000000E+00 0. -1.
         -1   -1    0    0    0  501 -0.00000000000E+00 -0.00000000000E+00 -0.34979947403E+04  0.34979947403E+04  0.00000000000E+00 0.  1.
         23    2    1    2    0    0 -0.61890291007E+02  0.12651662614E+04 -0.75947131263E+03  0.14797064554E+04  0.90875972091E+02 0.  0.
        254    2    1    2    0    0  0.61890291007E+02 -0.12651662614E+04 -0.21244718908E+04  0.26323398218E+04  0.90075304354E+03 0.  0.
        -24    2    4    4    0    0  0.28844600452E+03 -0.78531616565E+03 -0.18445965407E+04  0.20269669612E+04  0.78333176227E+02 0.  0.
         24    2    4    4    0    0 -0.22655571351E+03 -0.47985009578E+03 -0.27987535015E+03  0.60537286059E+03  0.81009153632E+02 0.  0.
         13    1    3    3    0    0 -0.80973575177E+02  0.81578360663E+03 -0.50707159109E+03  0.96394046041E+03  0.00000000000E+00 0.  1.
        -13    1    3    3    0    0  0.19083284170E+02  0.44938265480E+03 -0.25239972154E+03  0.51576599500E+03  0.00000000000E+00 0. -1.
          2    1    6    6  502    0 -0.17157829130E+03 -0.31009065123E+03 -0.15080602196E+03  0.38514643746E+03  0.00000000000E+00 0. -1.
          3    1    5    5  503    0  0.17282708724E+03 -0.56240023493E+03 -0.12515944724E+04  0.13829866050E+04  0.00000000000E+00 0. -1.
         -4    1    5    5    0  503  0.11561891728E+03 -0.22291593072E+03 -0.59300206829E+03  0.64398035622E+03  0.00000000000E+00 0.  1.
         -1    1    6    6    0  502 -0.54977422210E+02 -0.16975944455E+03 -0.12906932819E+03  0.22022642313E+03  0.00000000000E+00 0.  1.
<mgrwt>
<rscale>  0 0.29311766E+04</rscale>
<asrwt>0</asrwt>
<pdfrwt beam="1">  1        1 0.94469468E-01 0.29311766E+04</pdfrwt>
<pdfrwt beam="2">  1       -1 0.53815303E+00 0.29311766E+04</pdfrwt>
<totfact> 0.24582392E-02</totfact>
</mgrwt>
</event>
<event>
12    1  0.2048318E-007  0.3249803E+04  0.7818608E-02  0.8175787E-01
         -2   -1    0    0    0  501 -0.00000000000E+00  0.00000000000E+00  0.11504278464E+04  0.11504278464E+04  0.00000000000E+00 0.  1.
          2   -1    0    0  501    0  0.00000000000E+00 -0.00000000000E+00 -0.22950639531E+04  0.22950639531E+04  0.00000000000E+00 0. -1.
         23    2    1    2    0    0  0.94830264903E+03 -0.10809209554E+04 -0.80335633918E+02  0.14431723344E+04  0.92868437721E+02 0.  0.
        254    2    1    2    0    0 -0.94830264903E+03  0.10809209554E+04 -0.10643004728E+04  0.20023194651E+04  0.89937740574E+03 0.  0.
        -24    2    4    4    0    0 -0.80220883794E+03  0.35481904573E+03 -0.85740761700E+03  0.12291989938E+04  0.79666616383E+02 0.  0.
         24    2    4    4    0    0 -0.14609381109E+03  0.72610190962E+03 -0.20689285583E+03  0.77312047130E+03  0.79644362946E+02 0.  0.
         13    1    3    3    0    0  0.85596130786E+03 -0.10006107112E+04 -0.93492147388E+02  0.13200880037E+04  0.00000000000E+00 0. -1.
        -13    1    3    3    0    0  0.92341341171E+02 -0.80310244119E+02  0.13156513470E+02  0.12308433063E+03  0.00000000000E+00 0.  1.
          4    1    6    6  502    0 -0.23153601900E+02  0.12741975546E+03 -0.68363775994E+02  0.14644278484E+03  0.00000000000E+00 0. -1.
          3    1    5    5  503    0 -0.24388488727E+03  0.88917043828E+02 -0.29923148692E+03  0.39613831131E+03  0.00000000000E+00 0. -1.
         -4    1    5    5    0  503 -0.55832395068E+03  0.26590200190E+03 -0.55817613008E+03  0.83306068249E+03  0.00000000000E+00 0.  1.
         -3    1    6    6    0  502 -0.12294020919E+03  0.59868215416E+03 -0.13852907983E+03  0.62667768646E+03  0.00000000000E+00 0.  1.
<mgrwt>
<rscale>  0 0.32498034E+04</rscale>
<asrwt>0</asrwt>
<pdfrwt beam="1">  1        2 0.35308676E+00 0.32498034E+04</pdfrwt>
<pdfrwt beam="2">  1       -2 0.17698890E+00 0.32498034E+04</pdfrwt>
<totfact> 0.72808404E-01</totfact>
</mgrwt>
</event>
<event>
12    1  0.2048318E-007  0.1643826E+04  0.7818608E-02  0.8794068E-01
          2   -1    0    0  501    0  0.00000000000E+00  0.00000000000E+00  0.18228509820E+04  0.18228509820E+04  0.00000000000E+00 0. -1.
         -2   -1    0    0    0  501 -0.00000000000E+00 -0.00000000000E+00 -0.37059562459E+03  0.37059562459E+03  0.00000000000E+00 0.  1.
         23    2    1    2    0    0  0.50360771595E+03 -0.56489032660E+02  0.86169967721E+03  0.10045559081E+04  0.98967148481E+02 0.  0.
        254    2    1    2    0    0 -0.50360771595E+03  0.56489032660E+02  0.59055568018E+03  0.11888906984E+04  0.89882887086E+03 0.  0.
        -24    2    4    4    0    0  0.10901964669E+03  0.31548964725E+03  0.96568931336E+02  0.35655824277E+03  0.79932603484E+02 0.  0.
         24    2    4    4    0    0 -0.61262736264E+03 -0.25900061459E+03  0.49398674885E+03  0.83233245568E+03  0.79754654545E+02 0.  0.
         11    1    3    3    0    0  0.46963654210E+03 -0.45950867188E+02  0.83828422444E+03  0.96197214347E+03  0.00000000000E+00 0. -1.
        -11    1    3    3    0    0  0.33971173845E+02 -0.10538165472E+02  0.23415452776E+02  0.42583764660E+02  0.00000000000E+00 0.  1.
          4    1    6    6  502    0 -0.41226735034E+03 -0.21386339927E+03  0.34815546530E+03  0.58044306329E+03  0.00000000000E+00 0. -1.
          1    1    5    5  503    0  0.83236751296E+02  0.19844821994E+03  0.24196166085E+02  0.21655370516E+03  0.00000000000E+00 0. -1.
         -4    1    5    5    0  503  0.25782895395E+02  0.11704142731E+03  0.72372765252E+02  0.14000453761E+03  0.00000000000E+00 0.  1.
         -3    1    6    6    0  502 -0.20036001230E+03 -0.45137215325E+02  0.14583128355E+03  0.25188939239E+03  0.00000000000E+00 0.  1.
<mgrwt>
<rscale>  0 0.16438255E+04</rscale>
<asrwt>0</asrwt>
<pdfrwt beam="1">  1        2 0.28043861E+00 0.16438255E+04</pdfrwt>
<pdfrwt beam="2">  1       -2 0.57014712E-01 0.16438255E+04</pdfrwt>
<totfact> 0.23096351E+01</totfact>
</mgrwt>
</event>
<event>
12    1  0.2048318E-007  0.4924124E+04  0.7818608E-02  0.7840320E-01
          2   -1    0    0  501    0  0.00000000000E+00  0.00000000000E+00  0.20763182709E+04  0.20763182709E+04  0.00000000000E+00 0. -1.
         -2   -1    0    0    0  501 -0.00000000000E+00 -0.00000000000E+00 -0.29194697788E+04  0.29194697788E+04  0.00000000000E+00 0.  1.
         23    2    1    2    0    0  0.76413797508E+03 -0.20471579390E+04  0.54767121293E+03  0.22536205672E+04  0.64026801470E+02 0.  0.
        254    2    1    2    0    0 -0.76413797508E+03  0.20471579390E+04 -0.13908227208E+04  0.27421674825E+04  0.90018453068E+03 0.  0.
        -24    2    4    4    0    0 -0.84121662063E+03  0.99805059379E+03 -0.79628210860E+03  0.15310636791E+04  0.79626644171E+02 0.  0.
         24    2    4    4    0    0  0.77078645552E+02  0.10491073452E+04 -0.59454061224E+03  0.12111038034E+04  0.82015508592E+02 0.  0.
         11    1    3    3    0    0  0.11384816481E+03 -0.28882205216E+03  0.10026818506E+03  0.32624115525E+03  0.00000000000E+00 0. -1.
        -11    1    3    3    0    0  0.65028981026E+03 -0.17583358869E+04  0.44740302787E+03  0.19273794120E+04  0.00000000000E+00 0.  1.
          4    1    6    6  502    0 -0.19336401982E+01  0.19912729439E+03 -0.14493685751E+03  0.24629679454E+03  0.00000000000E+00 0. -1.
          1    1    5    5  503    0 -0.16069460263E+01  0.14109597703E+02 -0.76618324875E+01  0.16135882373E+02  0.00000000000E+00 0. -1.
         -2    1    5    5    0  503 -0.83960967460E+03  0.98394099609E+03 -0.78862027612E+03  0.15149277968E+04  0.00000000000E+00 0.  1.
         -3    1    6    6    0  502  0.79012285751E+02  0.84998005084E+03 -0.44960375473E+03  0.96480700888E+03  0.00000000000E+00 0.  1.
<mgrwt>
<rscale>  0 0.49241237E+04</rscale>
<asrwt>0</asrwt>
<pdfrwt beam="1">  1        2 0.31943358E+00 0.49241237E+04</pdfrwt>
<pdfrwt beam="2">  1       -2 0.44914920E+00 0.49241237E+04</pdfrwt>
<totfact> 0.15639256E-02</totfact>
</mgrwt>
</event>
<event>
12    1  0.2048318E-007  0.3863831E+04  0.7818608E-02  0.8032594E-01
          1   -1    0    0  501    0  0.00000000000E+00  0.00000000000E+00  0.25195458857E+04  0.25195458857E+04  0.00000000000E+00 0. -1.
         -1   -1    0    0    0  501 -0.00000000000E+00 -0.00000000000E+00 -0.14813376234E+04  0.14813376234E+04  0.00000000000E+00 0.  1.
         23    2    1    2    0    0 -0.72337751373E+03  0.38060420472E+02  0.22263138232E+04  0.23432677656E+04  0.98523900889E+02 0.  0.
        254    2    1    2    0    0  0.72337751373E+03 -0.38060420472E+02 -0.11881055609E+04  0.16576157435E+04  0.90076162566E+03 0.  0.
        -24    2    4    4    0    0  0.34289911243E+03  0.40334069187E+03 -0.76192152148E+03  0.93124783967E+03  0.80216076762E+02 0.  0.
         24    2    4    4    0    0  0.38047840130E+03 -0.44140111235E+03 -0.42618403942E+03  0.72636790382E+03  0.79867017045E+02 0.  0.
         13    1    3    3    0    0 -0.28913064686E+03  0.55839523081E+02  0.98456766326E+03  0.10276614554E+04  0.00000000000E+00 0. -1.
        -13    1    3    3    0    0 -0.43424686687E+03 -0.17779102609E+02  0.12417461600E+04  0.13156063103E+04  0.00000000000E+00 0.  1.
          2    1    6    6  502    0  0.38001845401E+03 -0.42375709077E+03 -0.40389293985E+03  0.69793524358E+03  0.00000000000E+00 0. -1.
          1    1    5    5  503    0  0.33993681198E+03  0.40616590791E+03 -0.74660910964E+03  0.91539769690E+03  0.00000000000E+00 0. -1.
         -2    1    5    5    0  503  0.29623004471E+01 -0.28252160364E+01 -0.15312411832E+02  0.15850142766E+02  0.00000000000E+00 0.  1.
         -1    1    6    6    0  502  0.45994729631E+00 -0.17644021581E+02 -0.22291099563E+02  0.28432660248E+02  0.00000000000E+00 0.  1.
<mgrwt>
<rscale>  0 0.38638313E+04</rscale>
<asrwt>0</asrwt>
<pdfrwt beam="1">  1        1 0.38762244E+00 0.38638313E+04</pdfrwt>
<pdfrwt beam="2">  1       -1 0.22789810E+00 0.38638313E+04</pdfrwt>
<totfact> 0.10129355E-01</totfact>
</mgrwt>
</event>
<event>
12    1  0.2048318E-007  0.3875749E+04  0.7818608E-02  0.8030092E-01
          2   -1    0    0  501    0  0.00000000000E+00  0.00000000000E+00  0.11650128445E+04  0.11650128445E+04  0.00000000000E+00 0. -1.
         -2   -1    0    0    0  501 -0.00000000000E+00 -0.00000000000E+00 -0.32234481832E+04  0.32234481832E+04  0.00000000000E+00 0.  1.
         23    2    1    2    0    0 -0.13251926202E+04  0.10325491662E+04 -0.18115604308E+04  0.24722925850E+04  0.90477456222E+02 0.  0.
        254    2    1    2    0    0  0.13251926202E+04 -0.10325491662E+04 -0.24687490795E+03  0.19161684427E+04  0.88795327534E+03 0.  0.
        -24    2    4    4    0    0  0.53527776082E+03 -0.29840902878E+02  0.17488822050E+03  0.56947567775E+03  0.79397085342E+02 0.  0.
         24    2    4    4    0    0  0.78991485939E+03 -0.10027082633E+04 -0.42176312845E+03  0.13466927649E+04  0.79422415717E+02 0.  0.
         13    1    3    3    0    0 -0.10543190572E+04  0.77877777467E+03 -0.13872848036E+04  0.19085708326E+04  0.00000000000E+00 0.  1.
        -13    1    3    3    0    0 -0.27087356298E+03  0.25377139155E+03 -0.42427562721E+03  0.56372175241E+03  0.00000000000E+00 0. -1.
          2    1    6    6  502    0  0.31679323515E+03 -0.42512844569E+03 -0.13686224151E+03  0.54756134115E+03  0.00000000000E+00 0. -1.
          1    1    5    5  503    0  0.47020238468E+03 -0.19869080720E+02  0.12518976400E+03  0.48698823388E+03  0.00000000000E+00 0. -1.
         -2    1    5    5    0  503  0.65075376149E+02 -0.99718221585E+01  0.49698456504E+02  0.82487443875E+02  0.00000000000E+00 0.  1.
         -1    1    6    6    0  502  0.47312162425E+03 -0.57757981766E+03 -0.28490088694E+03  0.79913142378E+03  0.00000000000E+00 0.  1.
<mgrwt>
<rscale>  0 0.38757495E+04</rscale>
<asrwt>0</asrwt>
<pdfrwt beam="1">  1        2 0.17923275E+00 0.38757495E+04</pdfrwt>
<pdfrwt beam="2">  1       -2 0.49591510E+00 0.38757495E+04</pdfrwt>
<totfact> 0.27724094E-02</totfact>
</mgrwt>
</event>
<event>
12    1  0.2048318E-007  0.2416015E+04  0.7818608E-02  0.8433532E-01
         -2   -1    0    0    0  501 -0.00000000000E+00  0.00000000000E+00  0.98246775968E+03  0.98246775968E+03  0.00000000000E+00 0.  1.
          2   -1    0    0  501    0  0.00000000000E+00 -0.00000000000E+00 -0.14853235511E+04  0.14853235511E+04  0.00000000000E+00 0. -1.
         23    2    1    2    0    0 -0.52754160624E+03  0.39297586297E+03  0.60568728663E+03  0.89699803249E+03  0.70839296499E+02 0.  0.
        254    2    1    2    0    0  0.52754160624E+03 -0.39297586297E+03 -0.11085430781E+04  0.15707932783E+04  0.89766006488E+03 0.  0.
        -24    2    4    4    0    0  0.57083135063E+03  0.10740018753E+02 -0.98109517312E+03  0.11377018346E+04  0.76511089474E+02 0.  0.
         24    2    4    4    0    0 -0.43289744396E+02 -0.40371588172E+03 -0.12744790496E+03  0.43309144375E+03  0.80403451697E+02 0.  0.
         13    1    3    3    0    0 -0.16534068134E+03  0.83982851735E+02  0.16341703460E+03  0.24717562074E+03  0.00000000000E+00 0. -1.
        -13    1    3    3    0    0 -0.36220092490E+03  0.30899301123E+03  0.44227025203E+03  0.64982241175E+03  0.00000000000E+00 0.  1.
          2    1    6    6  502    0 -0.37731277476E+01 -0.39306651018E+02  0.11446221618E+02  0.41112836153E+02  0.00000000000E+00 0. -1.
          3    1    5    5  503    0  0.46223504991E+01  0.76691308752E+01 -0.24587853105E+02  0.26167617638E+02  0.00000000000E+00 0. -1.
         -4    1    5    5    0  503  0.56620900013E+03  0.30708878776E+01 -0.95650732002E+03  0.11115342169E+04  0.00000000000E+00 0.  1.
         -1    1    6    6    0  502 -0.39516616649E+02 -0.36440923070E+03 -0.13889412658E+03  0.39197860759E+03  0.00000000000E+00 0.  1.
<mgrwt>
<rscale>  0 0.24160153E+04</rscale>
<asrwt>0</asrwt>
<pdfrwt beam="1">  1        2 0.22851131E+00 0.24160153E+04</pdfrwt>
<pdfrwt beam="2">  1       -2 0.15114889E+00 0.24160153E+04</pdfrwt>
<totfact> 0.34121867E+00</totfact>
</mgrwt>
</event>
<event>
12    1  0.2048318E-007  0.1461877E+04  0.7818608E-02  0.8910208E-01
         -2   -1    0    0    0  501 -0.00000000000E+00  0.00000000000E+00  0.51240503073E+03  0.51240503073E+03  0.00000000000E+00 0.  1.
          2   -1    0    0  501    0  0.00000000000E+00 -0.00000000000E+00 -0.10426733826E+04  0.10426733826E+04  0.00000000000E+00 0. -1.
         23    2    1    2    0    0  0.25220408160E+03 -0.28546239633E+03 -0.41458405498E+03  0.57063826701E+03  0.93018356422E+02 0.  0.
        254    2    1    2    0    0 -0.25220408160E+03  0.28546239633E+03 -0.11568429693E+03  0.98444014638E+03  0.90035763269E+03 0.  0.
        -24    2    4    4    0    0 -0.17281798238E+03  0.33833721846E+03 -0.46970124732E+03  0.60928531139E+03  0.79190911721E+02 0.  0.
         24    2    4    4    0    0 -0.79386099221E+02 -0.52874822133E+02  0.35401695039E+03  0.37515483499E+03  0.79468544009E+02 0.  0.
         13    1    3    3    0    0  0.19734991727E+03 -0.19497570478E+03 -0.24169987474E+03  0.36794203994E+03  0.00000000000E+00 0.  1.
        -13    1    3    3    0    0  0.54854164336E+02 -0.90486691547E+02 -0.17288418024E+03  0.20269622707E+03  0.00000000000E+00 0. -1.
          2    1    6    6  502    0 -0.61626664020E+02  0.37684404483E+01  0.13903079631E+03  0.15212366412E+03  0.00000000000E+00 0. -1.
          1    1    5    5  503    0 -0.34055534773E+02  0.34433011805E+02 -0.29654192268E+02  0.56787171700E+02  0.00000000000E+00 0. -1.
         -2    1    5    5    0  503 -0.13876244761E+03  0.30390420666E+03 -0.44004705506E+03  0.55249813968E+03  0.00000000000E+00 0.  1.
         -1    1    6    6    0  502 -0.17759435201E+02 -0.56643262582E+02  0.21498615408E+03  0.22303117087E+03  0.00000000000E+00 0.  1.
<mgrwt>
<rscale>  0 0.14618770E+04</rscale>
<asrwt>0</asrwt>
<pdfrwt beam="1">  1        2 0.16041129E+00 0.14618770E+04</pdfrwt>
<pdfrwt beam="2">  1       -2 0.78831544E-01 0.14618770E+04</pdfrwt>
<totfact> 0.32760255E+01</totfact>
</mgrwt>
</event>
<event>
12    1  0.3331125E-007  0.2475845E+04  0.7818608E-02  0.8411642E-01
         -1   -1    0    0    0  501 -0.00000000000E+00  0.00000000000E+00  0.89118790169E+03  0.89118790169E+03  0.00000000000E+00 0.  1.
          1   -1    0    0  501    0  0.00000000000E+00 -0.00000000000E+00 -0.17195609494E+04  0.17195609494E+04  0.00000000000E+00 0. -1.
         23    2    1    2    0    0  0.97107105836E+03 -0.39803964262E+03 -0.13426009432E+03  0.10621503294E+04  0.93396958104E+02 0.  0.
        254    2    1    2    0    0 -0.97107105836E+03  0.39803964262E+03 -0.69411295343E+03  0.15485985218E+04  0.90274582913E+03 0.  0.
        -24    2    4    4    0    0 -0.87632426010E+03  0.39421817909E+02 -0.16203598838E+03  0.89507407019E+03  0.73509462132E+02 0.  0.
         24    2    4    4    0    0 -0.94746798259E+02  0.35861782471E+03 -0.53207696505E+03  0.65352445158E+03  0.80028820413E+02 0.  0.
         11    1    3    3    0    0  0.49513549750E+03 -0.23953324293E+03 -0.10257048868E+03  0.55951411108E+03  0.00000000000E+00 0.  1.
        -11    1    3    3    0    0  0.47593556086E+03 -0.15850639969E+03 -0.31689605647E+02  0.50263621829E+03  0.00000000000E+00 0. -1.
          2    1    6    6  502    0 -0.59891954107E+02  0.93516323636E+02 -0.13487266998E+03  0.17470828847E+03  0.00000000000E+00 0. -1.
          3    1    5    5  503    0 -0.50330448816E+02 -0.11291703243E+02  0.11244127452E+01  0.51593807226E+02  0.00000000000E+00 0. -1.
         -4    1    5    5    0  503 -0.82599381129E+03  0.50713521152E+02 -0.16316040113E+03  0.84348026296E+03  0.00000000000E+00 0.  1.
         -1    1    6    6    0  502 -0.34854844152E+02  0.26510150107E+03 -0.39720429507E+03  0.47881616310E+03  0.00000000000E+00 0.  1.
<mgrwt>
<rscale>  0 0.24758448E+04</rscale>
<asrwt>0</asrwt>
<pdfrwt beam="1">  1        1 0.26454784E+00 0.24758448E+04</pdfrwt>
<pdfrwt beam="2">  1       -1 0.13710583E+00 0.24758448E+04</pdfrwt>
<totfact> 0.18211314E+00</totfact>
</mgrwt>
</event>
<event>
12    1  0.2048318E-007  0.1931150E+04  0.7818608E-02  0.8639504E-01
         -3   -1    0    0    0  501 -0.00000000000E+00  0.00000000000E+00  0.14268362015E+04  0.14268362015E+04  0.00000000000E+00 0.  1.
          3   -1    0    0  501    0  0.00000000000E+00 -0.00000000000E+00 -0.65342831629E+03  0.65342831629E+03  0.00000000000E+00 0. -1.
         23    2    1    2    0    0 -0.27012490206E+03  0.64305507444E+03  0.88420033963E-01  0.70449293924E+03  0.99111059650E+02 0.  0.
        254    2    1    2    0    0  0.27012490206E+03 -0.64305507444E+03  0.77331946513E+03  0.13757715785E+04  0.89902010523E+03 0.  0.
        -24    2    4    4    0    0 -0.11170881886E+03 -0.68428995188E+03  0.29675458199E+03  0.75832574548E+03  0.79139470994E+02 0.  0.
         24    2    4    4    0    0  0.38183372092E+03  0.41234877433E+02  0.47656488314E+03  0.61744583303E+03  0.81412304598E+02 0.  0.
         13    1    3    3    0    0 -0.30992557152E+02  0.32350232752E+02  0.18280562340E+02  0.48386517930E+02  0.00000000000E+00 0.  1.
        -13    1    3    3    0    0 -0.23913234490E+03  0.61070484169E+03 -0.18192142306E+02  0.65610642131E+03  0.00000000000E+00 0. -1.
          4    1    6    6  502    0  0.35613270373E+03  0.16129653131E+02  0.42765016861E+03  0.55675428610E+03  0.00000000000E+00 0. -1.
          1    1    5    5  503    0 -0.12126956399E+03 -0.57062879978E+03  0.25777818237E+03  0.63778768066E+03  0.00000000000E+00 0. -1.
         -2    1    5    5    0  503  0.95607451319E+01 -0.11366115210E+03  0.38976399617E+02  0.12053806482E+03  0.00000000000E+00 0.  1.
         -3    1    6    6    0  502  0.25701017187E+02  0.25105224302E+02  0.48914714528E+02  0.60691546933E+02  0.00000000000E+00 0.  1.
<mgrwt>
<rscale>  0 0.19311501E+04</rscale>
<asrwt>0</asrwt>
<pdfrwt beam="1">  1        3 0.10052743E+00 0.19311501E+04</pdfrwt>
<pdfrwt beam="2">  1       -3 0.21951326E+00 0.19311501E+04</pdfrwt>
<totfact> 0.23391978E-01</totfact>
</mgrwt>
</event>
<event>
12    1  0.3606217E-007  0.2412922E+04  0.7818608E-02  0.8434682E-01
         -1   -1    0    0    0  501 -0.00000000000E+00  0.00000000000E+00  0.81469245805E+03  0.81469245805E+03  0.00000000000E+00 0.  1.
          1   -1    0    0  501    0  0.00000000000E+00 -0.00000000000E+00 -0.17866226426E+04  0.17866226426E+04  0.00000000000E+00 0. -1.
         23    2    1    2    0    0  0.91205200409E+03 -0.28455188576E+03 -0.85183696685E+03  0.12831423068E+04  0.89550698610E+02 0.  0.
        254    2    1    2    0    0 -0.91205200409E+03  0.28455188576E+03 -0.12009321766E+03  0.13181727938E+04  0.90019359001E+03 0.  0.
        -24    2    4    4    0    0  0.14449557306E+03  0.35854017821E+02  0.11540858126E+03  0.20460489929E+03  0.79872041154E+02 0.  0.
         24    2    4    4    0    0 -0.10565475771E+04  0.24869786794E+03 -0.23550179893E+03  0.11135678945E+04  0.80180708809E+02 0.  0.
         11    1    3    3    0    0  0.40653989839E+03 -0.88104056813E+02 -0.40273398806E+03  0.57899195068E+03  0.00000000000E+00 0. -1.
        -11    1    3    3    0    0  0.50551210570E+03 -0.19644782895E+03 -0.44910297879E+03  0.70415035615E+03  0.00000000000E+00 0.  1.
          2    1    6    6  502    0 -0.52171149395E+03  0.89593014821E+02 -0.90419682081E+02  0.53701537234E+03  0.00000000000E+00 0. -1.
          1    1    5    5  503    0  0.58502510549E+02  0.37480985304E+02  0.12683143594E+02  0.70627403544E+02  0.00000000000E+00 0. -1.
         -2    1    5    5    0  503  0.85993062506E+02 -0.16269674835E+01  0.10272543767E+03  0.13397749575E+03  0.00000000000E+00 0.  1.
         -1    1    6    6    0  502 -0.53483608320E+03  0.15910485312E+03 -0.14508211684E+03  0.57655252216E+03  0.00000000000E+00 0.  1.
<mgrwt>
<rscale>  0 0.24129219E+04</rscale>
<asrwt>0</asrwt>
<pdfrwt beam="1">  1        1 0.27486502E+00 0.24129219E+04</pdfrwt>
<pdfrwt beam="2">  1       -1 0.12533730E+00 0.24129219E+04</pdfrwt>
<totfact> 0.20698944E+00</totfact>
</mgrwt>
</event>
<event>
12    1  0.2048318E-007  0.2221637E+04  0.7818608E-02  0.8509476E-01
          2   -1    0    0  501    0  0.00000000000E+00  0.00000000000E+00  0.23514577423E+04  0.23514577423E+04  0.00000000000E+00 0.  1.
         -2   -1    0    0    0  501 -0.00000000000E+00 -0.00000000000E+00 -0.52474564195E+03  0.52474564195E+03  0.00000000000E+00 0. -1.
         23    2    1    2    0    0  0.60609787914E+03 -0.59716796523E+03  0.12369543460E+04  0.15040004124E+04  0.89425771387E+02 0.  0.
        254    2    1    2    0    0 -0.60609787914E+03  0.59716796523E+03  0.58975775435E+03  0.13722029719E+04  0.90064564030E+03 0.  0.
        -24    2    4    4    0    0  0.25765889991E+02  0.20189960184E+03 -0.19250226116E+03  0.28885703958E+03  0.70384220220E+02 0.  0.
         24    2    4    4    0    0 -0.63186376913E+03  0.39526836339E+03  0.78226001550E+03  0.10833459323E+04  0.78859211965E+02 0.  0.
         13    1    3    3    0    0  0.25355170438E+03 -0.22696959490E+03  0.42400382777E+03  0.54367537168E+03  0.00000000000E+00 0. -1.
        -13    1    3    3    0    0  0.35254617476E+03 -0.37019837033E+03  0.81295051826E+03  0.96032504074E+03  0.00000000000E+00 0.  1.
          2    1    6    6  502    0 -0.11252843773E+02 -0.33345803410E+01  0.15031012603E+02  0.19070324037E+02  0.00000000000E+00 0. -1.
          1    1    5    5  503    0  0.29248846749E+02  0.28068646117E+02 -0.26236610737E+02  0.48287717630E+02  0.00000000000E+00 0. -1.
         -2    1    5    5    0  503 -0.34829567573E+01  0.17383095572E+03 -0.16626565042E+03  0.24056932195E+03  0.00000000000E+00 0.  1.
         -1    1    6    6    0  502 -0.62061092536E+03  0.39860294374E+03  0.76722900290E+03  0.10642756082E+04  0.00000000000E+00 0.  1.
<mgrwt>
<rscale>  0 0.22216365E+04</rscale>
<asrwt>0</asrwt>
<pdfrwt beam="1">  1        2 0.36176272E+00 0.22216365E+04</pdfrwt>
<pdfrwt beam="2">  1       -2 0.80730100E-01 0.22216365E+04</pdfrwt>
<totfact> 0.52363799E+00</totfact>
</mgrwt>
</event>
<event>
12    1  0.2048318E-007  0.3282805E+04  0.7818608E-02  0.8167284E-01
          2   -1    0    0  501    0  0.00000000000E+00  0.00000000000E+00  0.20428605963E+04  0.20428605963E+04  0.00000000000E+00 0. -1.
         -2   -1    0    0    0  501 -0.00000000000E+00 -0.00000000000E+00 -0.13188380424E+04  0.13188380424E+04  0.00000000000E+00 0.  1.
         23    2    1    2    0    0  0.14260175810E+04 -0.50373847838E+03  0.22010994919E+03  0.15310984445E+04  0.92387559577E+02 0.  0.
        254    2    1    2    0    0 -0.14260175810E+04  0.50373847838E+03  0.50391260474E+03  0.18306001941E+04  0.89993919879E+03 0.  0.
        -24    2    4    4    0    0 -0.16998553268E+03 -0.23431333637E+03  0.69597985244E+02  0.30829500277E+03  0.80025672514E+02 0.  0.
         24    2    4    4    0    0 -0.12560320484E+04  0.73805181475E+03  0.43431461950E+03  0.15223051914E+04  0.80292709429E+02 0.  0.
         11    1    3    3    0    0  0.22208366416E+03 -0.66899023556E+02  0.21693888367E+01  0.23195115755E+03  0.00000000000E+00 0.  1.
        -11    1    3    3    0    0  0.12039339169E+04 -0.43683945482E+03  0.21794056035E+03  0.12991472870E+04  0.00000000000E+00 0. -1.
          4    1    6    6  502    0 -0.11291390231E+04  0.65501592554E+03  0.41311259151E+03  0.13691832636E+04  0.00000000000E+00 0. -1.
          3    1    5    5  503    0 -0.87416790087E+02 -0.97451003475E+02 -0.68933749187E+01  0.13109504905E+03  0.00000000000E+00 0. -1.
         -4    1    5    5    0  503 -0.82568742588E+02 -0.13686233290E+03  0.76491360163E+02  0.17719995372E+03  0.00000000000E+00 0.  1.
         -3    1    6    6    0  502 -0.12689302526E+03  0.83035889209E+02  0.21202027991E+02  0.15312192771E+03  0.00000000000E+00 0.  1.
<mgrwt>
<rscale>  0 0.32828051E+04</rscale>
<asrwt>0</asrwt>
<pdfrwt beam="1">  1        2 0.31428625E+00 0.32828051E+04</pdfrwt>
<pdfrwt beam="2">  1       -2 0.20289816E+00 0.32828051E+04</pdfrwt>
<totfact> 0.67340268E-01</totfact>
</mgrwt>
</event>
<event>
12    1  0.2048318E-007  0.1302121E+04  0.7818608E-02  0.9027885E-01
          2   -1    0    0  501    0  0.00000000000E+00  0.00000000000E+00  0.19022800992E+04  0.19022800992E+04  0.00000000000E+00 0. -1.
         -2   -1    0    0    0  501 -0.00000000000E+00 -0.00000000000E+00 -0.22282734051E+03  0.22282734051E+03  0.00000000000E+00 0.  1.
         23    2    1    2    0    0  0.17427946859E+03 -0.15213271291E+03  0.82638355844E+03  0.86316318019E+03  0.92861156970E+02 0.  0.
        254    2    1    2    0    0 -0.17427946859E+03  0.15213271291E+03  0.85306920025E+03  0.12619442595E+04  0.90069892760E+03 0.  0.
        -24    2    4    4    0    0 -0.53294001352E+03  0.21523699811E+02  0.52400208827E+03  0.75181806521E+03  0.78510426071E+02 0.  0.
         24    2    4    4    0    0  0.35866054492E+03  0.13060901310E+03  0.32906711198E+03  0.51012619430E+03  0.79040933307E+02 0.  0.
         11    1    3    3    0    0  0.81367504204E+02 -0.10673578603E+03  0.59130191116E+03  0.60634243535E+03  0.00000000000E+00 0.  1.
        -11    1    3    3    0    0  0.92911964389E+02 -0.45396926882E+02  0.23508164728E+03  0.25682074485E+03  0.00000000000E+00 0. -1.
          4    1    6    6  502    0  0.27727247288E+03  0.71221946807E+02  0.21556853950E+03  0.35836069141E+03  0.00000000000E+00 0. -1.
          1    1    5    5  503    0 -0.38287486737E+03  0.14047357672E+02  0.42330352353E+03  0.57094339943E+03  0.00000000000E+00 0. -1.
         -2    1    5    5    0  503 -0.15006514615E+03  0.74763421391E+01  0.10069856475E+03  0.18087466578E+03  0.00000000000E+00 0.  1.
         -3    1    6    6    0  502  0.81388072042E+02  0.59387066295E+02  0.11349857247E+03  0.15176550289E+03  0.00000000000E+00 0.  1.
<mgrwt>
<rscale>  0 0.13021214E+04</rscale>
<asrwt>0</asrwt>
<pdfrwt beam="1">  1        2 0.29265847E+00 0.13021214E+04</pdfrwt>
<pdfrwt beam="2">  1       -2 0.34281131E-01 0.13021214E+04</pdfrwt>
<totfact> 0.59172251E+01</totfact>
</mgrwt>
</event>
<event>
12    1  0.2048318E-007  0.2526807E+04  0.7818608E-02  0.8393497E-01
          2   -1    0    0  501    0  0.00000000000E+00  0.00000000000E+00  0.16982888110E+04  0.16982888110E+04  0.00000000000E+00 0. -1.
         -2   -1    0    0    0  501 -0.00000000000E+00 -0.00000000000E+00 -0.93988029875E+03  0.93988029875E+03  0.00000000000E+00 0.  1.
         23    2    1    2    0    0 -0.80984206891E+03  0.54565051911E+03  0.86512944818E+03  0.13081050612E+04  0.95452728536E+02 0.  0.
        254    2    1    2    0    0  0.80984206891E+03 -0.54565051911E+03 -0.10672093592E+03  0.13300640486E+04  0.89671754169E+03 0.  0.
        -24    2    4    4    0    0  0.47518803753E+03  0.15326271835E+03  0.11656489633E+03  0.51921290119E+03  0.81862872283E+02 0.  0.
         24    2    4    4    0    0  0.33465403138E+03 -0.69891323746E+03 -0.22328583225E+03  0.81085114739E+03  0.84557590602E+02 0.  0.
         13    1    3    3    0    0 -0.12760701718E+03  0.11958587562E+03  0.12410152910E+03  0.21444235124E+03  0.00000000000E+00 0.  1.
        -13    1    3    3    0    0 -0.68223505173E+03  0.42606464348E+03  0.74102791908E+03  0.10936627099E+04  0.00000000000E+00 0. -1.
          4    1    6    6  502    0  0.33745411512E+03 -0.66870911212E+03 -0.21750558914E+03  0.77997169035E+03  0.00000000000E+00 0. -1.
          1    1    5    5  503    0  0.18949600407E+03  0.10331578066E+03  0.44550350987E+02  0.22038062497E+03  0.00000000000E+00 0. -1.
         -2    1    5    5    0  503  0.28569203346E+03  0.49946937694E+02  0.72014545338E+02  0.29883227622E+03  0.00000000000E+00 0.  1.
         -3    1    6    6    0  502 -0.28000837463E+01 -0.30204125337E+02 -0.57802431089E+01  0.30879457035E+02  0.00000000000E+00 0.  1.
<mgrwt>
<rscale>  0 0.25268068E+04</rscale>
<asrwt>0</asrwt>
<pdfrwt beam="1">  1        2 0.26127520E+00 0.25268068E+04</pdfrwt>
<pdfrwt beam="2">  1       -2 0.14459697E+00 0.25268068E+04</pdfrwt>
<totfact> 0.28874951E+00</totfact>
</mgrwt>
</event>
<event>
12    1  0.2048318E-007  0.2372754E+04  0.7818608E-02  0.8449775E-01
          2   -1    0    0  501    0  0.00000000000E+00  0.00000000000E+00  0.14003262813E+04  0.14003262813E+04  0.00000000000E+00 0. -1.
         -2   -1    0    0    0  501 -0.00000000000E+00 -0.00000000000E+00 -0.10051162809E+04  0.10051162809E+04  0.00000000000E+00 0.  1.
         23    2    1    2    0    0 -0.54348241810E+03 -0.70158980211E+03 -0.32432005771E+03  0.94991193467E+03  0.97712816956E+02 0.  0.
        254    2    1    2    0    0  0.54348241810E+03  0.70158980211E+03  0.71953005811E+03  0.14555306276E+04  0.90180070643E+03 0.  0.
        -24    2    4    4    0    0  0.35824970906E+03 -0.16090379038E+02 -0.64227376279E+02  0.37397525593E+03  0.84442772614E+02 0.  0.
         24    2    4    4    0    0  0.18523270904E+03  0.71768018115E+03  0.78375743439E+03  0.10815553717E+04  0.78168453307E+02 0.  0.
         11    1    3    3    0    0 -0.27006714355E+03 -0.29171143754E+03 -0.10893160978E+03  0.41218675431E+03  0.00000000000E+00 0. -1.
        -11    1    3    3    0    0 -0.27341527454E+03 -0.40987836457E+03 -0.21538844793E+03  0.53772518037E+03  0.00000000000E+00 0.  1.
          2    1    6    6  502    0  0.11700756502E+03  0.53116577503E+03  0.61431290088E+03  0.82049265141E+03  0.00000000000E+00 0. -1.
          3    1    5    5  503    0  0.28282058331E+03 -0.47367259666E+02 -0.50551982219E+02  0.29118145981E+03  0.00000000000E+00 0. -1.
         -4    1    5    5    0  503  0.75429125746E+02  0.31276880628E+02 -0.13675394060E+02  0.82793796116E+02  0.00000000000E+00 0.  1.
         -3    1    6    6    0  502  0.68225144020E+02  0.18651440612E+03  0.16944453352E+03  0.26106272025E+03  0.00000000000E+00 0.  1.
<mgrwt>
<rscale>  0 0.23727543E+04</rscale>
<asrwt>0</asrwt>
<pdfrwt beam="1">  1        2 0.21543481E+00 0.23727543E+04</pdfrwt>
<pdfrwt beam="2">  1       -2 0.15463327E+00 0.23727543E+04</pdfrwt>
<totfact> 0.36020127E+00</totfact>
</mgrwt>
</event>
<event>
12    1  0.2048318E-007  0.1675601E+04  0.7818608E-02  0.8775404E-01
         -2   -1    0    0    0  501 -0.00000000000E+00  0.00000000000E+00  0.66885696183E+03  0.66885696183E+03  0.00000000000E+00 0.  1.
          2   -1    0    0  501    0  0.00000000000E+00 -0.00000000000E+00 -0.10494161271E+04  0.10494161271E+04  0.00000000000E+00 0. -1.
         23    2    1    2    0    0  0.51054355546E+03  0.28828743683E+03 -0.23052135087E+03  0.63740555959E+03  0.96857554844E+02 0.  0.
        254    2    1    2    0    0 -0.51054355546E+03 -0.28828743683E+03 -0.15003781439E+03  0.10808675293E+04  0.89554391404E+03 0.  0.
        -24    2    4    4    0    0 -0.21742016747E+03  0.15621457048E+03  0.27705576583E+03  0.39373618117E+03  0.81201981109E+02 0.  0.
         24    2    4    4    0    0 -0.29312338800E+03 -0.44450200730E+03 -0.42709358022E+03  0.68713134817E+03  0.78975998161E+02 0.  0.
         13    1    3    3    0    0  0.41288206599E+03  0.22764375740E+03 -0.14226530944E+03  0.49247608975E+03  0.00000000000E+00 0.  1.
        -13    1    3    3    0    0  0.97661489469E+02  0.60643679428E+02 -0.88256041428E+02  0.14492946984E+03  0.00000000000E+00 0. -1.
          4    1    6    6  502    0 -0.22751550581E+03 -0.28346908486E+03 -0.30732710628E+03  0.47599157315E+03  0.00000000000E+00 0. -1.
          1    1    5    5  503    0 -0.16844458530E+03  0.12168554957E+03  0.25709912281E+03  0.33057663293E+03  0.00000000000E+00 0. -1.
         -2    1    5    5    0  503 -0.48975582171E+02  0.34529020911E+02  0.19956643019E+02  0.63159548246E+02  0.00000000000E+00 0.  1.
         -3    1    6    6    0  502 -0.65607882188E+02 -0.16103292244E+03 -0.11976647394E+03  0.21113977502E+03  0.00000000000E+00 0.  1.
<mgrwt>
<rscale>  0 0.16756005E+04</rscale>
<asrwt>0</asrwt>
<pdfrwt beam="1">  1        2 0.16144863E+00 0.16756005E+04</pdfrwt>
<pdfrwt beam="2">  1       -2 0.10290107E+00 0.16756005E+04</pdfrwt>
<totfact> 0.17236023E+01</totfact>
</mgrwt>
</event>
<event>
12    1  0.2048318E-007  0.1351036E+04  0.7818608E-02  0.8990044E-01
         -2   -1    0    0    0  501 -0.00000000000E+00  0.00000000000E+00  0.71264451140E+03  0.71264451140E+03  0.00000000000E+00 0.  1.
          2   -1    0    0  501    0  0.00000000000E+00 -0.00000000000E+00 -0.64032560774E+03  0.64032560774E+03  0.00000000000E+00 0. -1.
         23    2    1    2    0    0 -0.27074577095E+03  0.21153717431E+03  0.15308665056E+03  0.38724725318E+03  0.92052506288E+02 0.  0.
        254    2    1    2    0    0  0.27074577095E+03 -0.21153717431E+03 -0.80767746906E+02  0.96572286596E+03  0.89891377578E+03 0.  0.
        -24    2    4    4    0    0  0.24562293217E+03 -0.36148018060E+03 -0.40353470346E+03  0.60008146959E+03  0.79113636478E+02 0.  0.
         24    2    4    4    0    0  0.25122838781E+02  0.14994300629E+03  0.32276695655E+03  0.36564139637E+03  0.80006626834E+02 0.  0.
         11    1    3    3    0    0 -0.10130944179E+02  0.39403011943E+01  0.30233588000E+02  0.32128365144E+02  0.00000000000E+00 0.  1.
        -11    1    3    3    0    0 -0.26061482677E+03  0.20759687312E+03  0.12285306256E+03  0.35511888804E+03  0.00000000000E+00 0. -1.
          2    1    6    6  502    0  0.18793501952E+02  0.59281263253E+02  0.55528193563E+02  0.83371722837E+02  0.00000000000E+00 0. -1.
          3    1    5    5  503    0  0.22131536081E+03 -0.31261812589E+03 -0.31426924184E+03  0.49545508164E+03  0.00000000000E+00 0. -1.
         -4    1    5    5    0  503  0.24307571360E+02 -0.48862054715E+02 -0.89265461619E+02  0.10462638795E+03  0.00000000000E+00 0.  1.
         -1    1    6    6    0  502  0.63293368286E+01  0.90661743035E+02  0.26723876299E+03  0.28226967353E+03  0.00000000000E+00 0.  1.
<mgrwt>
<rscale>  0 0.13510359E+04</rscale>
<asrwt>0</asrwt>
<pdfrwt beam="1">  1        2 0.98511632E-01 0.13510359E+04</pdfrwt>
<pdfrwt beam="2">  1       -2 0.10963762E+00 0.13510359E+04</pdfrwt>
<totfact> 0.29630563E+01</totfact>
</mgrwt>
</event>
<event>
12    1  0.2048318E-007  0.1419477E+04  0.7818608E-02  0.8939840E-01
         -2   -1    0    0    0  501 -0.00000000000E+00  0.00000000000E+00  0.10114565831E+04  0.10114565831E+04  0.00000000000E+00 0.  1.
          2   -1    0    0  501    0  0.00000000000E+00 -0.00000000000E+00 -0.49802290604E+03  0.49802290604E+03  0.00000000000E+00 0. -1.
         23    2    1    2    0    0 -0.41390249091E+03 -0.26700541780E+02  0.18490719602E+03  0.46432777554E+03  0.96857736324E+02 0.  0.
        254    2    1    2    0    0  0.41390249091E+03  0.26700541780E+02  0.32852648107E+03  0.10451517136E+04  0.90132361826E+03 0.  0.
        -24    2    4    4    0    0 -0.27796996136E+02 -0.14866551273E+03  0.50396363325E+03  0.53190989710E+03  0.77940280521E+02 0.  0.
         24    2    4    4    0    0  0.44169948705E+03  0.17536605451E+03 -0.17543715217E+03  0.51324181654E+03  0.82384937613E+02 0.  0.
         13    1    3    3    0    0 -0.21957316519E+03  0.39205038420E+01  0.48398573069E+02  0.22487811609E+03  0.00000000000E+00 0. -1.
        -13    1    3    3    0    0 -0.19432932572E+03 -0.30621045622E+02  0.13650862295E+03  0.23944965945E+03  0.00000000000E+00 0.  1.
          2    1    6    6  502    0  0.38277918088E+03  0.16259325933E+03 -0.12394733309E+03  0.43395784436E+03  0.00000000000E+00 0. -1.
          1    1    5    5  503    0 -0.31737349783E+02 -0.97566612681E+02  0.21246786104E+03  0.23594299154E+03  0.00000000000E+00 0. -1.
         -2    1    5    5    0  503  0.39403536471E+01 -0.51098900053E+02  0.29149577221E+03  0.29596690556E+03  0.00000000000E+00 0.  1.
         -1    1    6    6    0  502  0.58920306162E+02  0.12772795180E+02 -0.51489819087E+02  0.79283972180E+02  0.00000000000E+00 0.  1.
<mgrwt>
<rscale>  0 0.14194767E+04</rscale>
<asrwt>0</asrwt>
<pdfrwt beam="1">  1        2 0.76618909E-01 0.14194767E+04</pdfrwt>
<pdfrwt beam="2">  1       -2 0.15560870E+00 0.14194767E+04</pdfrwt>
<totfact> 0.16317540E+01</totfact>
</mgrwt>
</event>
<event>
12    1  0.2048318E-007  0.4606634E+04  0.7818608E-02  0.7892230E-01
          1   -1    0    0  501    0  0.00000000000E+00  0.00000000000E+00  0.32080491934E+04  0.32080491934E+04  0.00000000000E+00 0. -1.
         -1   -1    0    0    0  501 -0.00000000000E+00 -0.00000000000E+00 -0.16537366548E+04  0.16537366548E+04  0.00000000000E+00 0.  1.
         23    2    1    2    0    0  0.12794830147E+03 -0.21017051735E+04  0.25446569896E+02  0.21074595311E+04  0.84868976305E+02 0.  0.
        254    2    1    2    0    0 -0.12794830147E+03  0.21017051735E+04  0.15288659687E+04  0.27543263171E+04  0.90296561773E+03 0.  0.
        -24    2    4    4    0    0  0.19610552680E+01  0.60357512144E+03  0.71279896164E+00  0.60891428855E+03  0.80432143842E+02 0.  0.
         24    2    4    4    0    0 -0.12990935674E+03  0.14981300521E+04  0.15281531697E+04  0.21454120286E+04  0.79186920251E+02 0.  0.
         11    1    3    3    0    0  0.46773980649E+02 -0.37862116910E+03 -0.17912355714E+02  0.38191968717E+03  0.00000000000E+00 0. -1.
        -11    1    3    3    0    0  0.81174320824E+02 -0.17230840044E+04  0.43358925610E+02  0.17255398440E+04  0.00000000000E+00 0.  1.
          4    1    6    6  502    0 -0.83429288608E+02  0.61555991830E+03  0.59532686071E+03  0.86040021519E+03  0.00000000000E+00 0. -1.
          1    1    5    5  503    0 -0.15708236874E+02  0.55181659566E+03  0.15504889983E+02  0.55225782526E+03  0.00000000000E+00 0. -1.
         -2    1    5    5    0  503  0.17669292142E+02  0.51758525781E+02 -0.14792091021E+02  0.56656463291E+02  0.00000000000E+00 0.  1.
         -3    1    6    6    0  502 -0.46480068134E+02  0.88257013378E+03  0.93282630899E+03  0.12850118134E+04  0.00000000000E+00 0.  1.
<mgrwt>
<rscale>  0 0.46066337E+04</rscale>
<asrwt>0</asrwt>
<pdfrwt beam="1">  1        1 0.49354603E+00 0.46066337E+04</pdfrwt>
<pdfrwt beam="2">  1       -1 0.25442102E+00 0.46066337E+04</pdfrwt>
<totfact> 0.20360841E-02</totfact>
</mgrwt>
</event>
<event>
12    1  0.2048318E-007  0.2652562E+04  0.7818608E-02  0.8350563E-01
          2   -1    0    0  501    0  0.00000000000E+00  0.00000000000E+00  0.10152183404E+04  0.10152183404E+04  0.00000000000E+00 0. -1.
         -2   -1    0    0    0  501 -0.00000000000E+00 -0.00000000000E+00 -0.17326531197E+04  0.17326531197E+04  0.00000000000E+00 0.  1.
         23    2    1    2    0    0  0.65914482550E+03  0.96830246040E+03 -0.36175071996E+03  0.12292435509E+04  0.89969818340E+02 0.  0.
        254    2    1    2    0    0 -0.65914482550E+03 -0.96830246040E+03 -0.35568405939E+03  0.15186279092E+04  0.89868683129E+03 0.  0.
        -24    2    4    4    0    0  0.10091356593E+03 -0.14567587063E+03  0.18935471297E+03  0.27046385197E+03  0.76749467945E+02 0.  0.
         24    2    4    4    0    0 -0.76005839143E+03 -0.82262658977E+03 -0.54503877235E+03  0.12481640572E+04  0.80268211810E+02 0.  0.
         13    1    3    3    0    0  0.22744857656E+03  0.31266845322E+03 -0.77271804630E+02  0.39429094386E+03  0.00000000000E+00 0. -1.
        -13    1    3    3    0    0  0.43169624893E+03  0.65563400717E+03 -0.28447891533E+03  0.83495260702E+03  0.00000000000E+00 0.  1.
          4    1    6    6  502    0 -0.71249804509E+03 -0.77749666569E+03 -0.53253556369E+03  0.11814180700E+04  0.00000000000E+00 0. -1.
          3    1    5    5  503    0  0.37581965808E+02 -0.11035638709E+03  0.89086943970E+02  0.14672225432E+03  0.00000000000E+00 0. -1.
         -4    1    5    5    0  503  0.63331600126E+02 -0.35319483539E+02  0.10026776900E+03  0.12374159766E+03  0.00000000000E+00 0.  1.
         -3    1    6    6    0  502 -0.47560346337E+02 -0.45129924079E+02 -0.12503208660E+02  0.66745987279E+02  0.00000000000E+00 0.  1.
<mgrwt>
<rscale>  0 0.26525620E+04</rscale>
<asrwt>0</asrwt>
<pdfrwt beam="1">  1        2 0.15618744E+00 0.26525620E+04</pdfrwt>
<pdfrwt beam="2">  1       -2 0.26656202E+00 0.26525620E+04</pdfrwt>
<totfact> 0.11033576E+00</totfact>
</mgrwt>
</event>
<event>
12    1  0.2048318E-007  0.1598029E+04  0.7818608E-02  0.8821760E-01
         -1   -1    0    0    0  501 -0.00000000000E+00  0.00000000000E+00  0.85429994562E+03  0.85429994562E+03  0.00000000000E+00 0.  1.
          1   -1    0    0  501    0  0.00000000000E+00 -0.00000000000E+00 -0.74730710514E+03  0.74730710514E+03  0.00000000000E+00 0. -1.
         23    2    1    2    0    0 -0.31675045039E+02  0.52336878035E+03  0.16442812090E+03  0.55702921908E+03  0.91251056071E+02 0.  0.
        254    2    1    2    0    0  0.31675045039E+02 -0.52336878035E+03 -0.57435280428E+02  0.10445778317E+04  0.90162400494E+03 0.  0.
        -24    2    4    4    0    0  0.35264459832E+03 -0.27626051785E+03 -0.31861635548E+03  0.55599909952E+03  0.83309844801E+02 0.  0.
         24    2    4    4    0    0 -0.32096955328E+03 -0.24710826250E+03  0.26118107505E+03  0.48857873216E+03  0.80060452305E+02 0.  0.
         11    1    3    3    0    0  0.82473396798E+01  0.31568325273E+03  0.61093554593E+02  0.32164632297E+03  0.00000000000E+00 0. -1.
        -11    1    3    3    0    0 -0.39922384719E+02  0.20768552762E+03  0.10333456631E+03  0.23538289610E+03  0.00000000000E+00 0.  1.
          2    1    6    6  502    0 -0.28756293245E+02 -0.23003780923E+01  0.34863853301E+02  0.45251568012E+02  0.00000000000E+00 0. -1.
          1    1    5    5  503    0  0.26422545909E+02 -0.28750559322E+02 -0.60305733436E+02  0.71843768546E+02  0.00000000000E+00 0. -1.
         -4    1    5    5    0  503  0.32622205241E+03 -0.24750995853E+03 -0.25831062204E+03  0.48415533098E+03  0.00000000000E+00 0.  1.
         -1    1    6    6    0  502 -0.29221326004E+03 -0.24480788441E+03  0.22631722175E+03  0.44332716415E+03  0.00000000000E+00 0.  1.
<mgrwt>
<rscale>  0 0.15980293E+04</rscale>
<asrwt>0</asrwt>
<pdfrwt beam="1">  1        1 0.11497032E+00 0.15980293E+04</pdfrwt>
<pdfrwt beam="2">  1       -1 0.13143076E+00 0.15980293E+04</pdfrwt>
<totfact> 0.11662112E+01</totfact>
</mgrwt>
</event>
<event>
12    1  0.2048318E-007  0.1384602E+04  0.7818608E-02  0.8965041E-01
         -2   -1    0    0    0  501 -0.00000000000E+00  0.00000000000E+00  0.25810936887E+03  0.25810936887E+03  0.00000000000E+00 0. -1.
          2   -1    0    0  501    0  0.00000000000E+00 -0.00000000000E+00 -0.18568889123E+04  0.18568889123E+04  0.00000000000E+00 0.  1.
         23    2    1    2    0    0  0.61996491790E+02 -0.36684125241E+03 -0.65088462615E+03  0.75550882367E+03  0.93416896872E+02 0.  0.
        254    2    1    2    0    0 -0.61996491790E+02  0.36684125241E+03 -0.94789491729E+03  0.13594894575E+04  0.90071679310E+03 0.  0.
        -24    2    4    4    0    0  0.39302898700E+03  0.31385016713E+03 -0.50513826297E+03  0.71744856650E+03  0.81203871945E+02 0.  0.
         24    2    4    4    0    0 -0.45502547879E+03  0.52991085278E+02 -0.44275665432E+03  0.64204089101E+03  0.79541242872E+02 0.  0.
         11    1    3    3    0    0  0.64342299694E+02 -0.19263474777E+03 -0.41738472591E+03  0.46417462986E+03  0.00000000000E+00 0.  1.
        -11    1    3    3    0    0 -0.23458079046E+01 -0.17420650464E+03 -0.23349990024E+03  0.29133419382E+03  0.00000000000E+00 0. -1.
          2    1    6    6  502    0 -0.15016935635E+03 -0.11410456580E+02 -0.17800150778E+03  0.23316425729E+03  0.00000000000E+00 0. -1.
          1    1    5    5  503    0  0.38917690273E+02  0.58062173473E+02 -0.97455731528E+02  0.11993090599E+03  0.00000000000E+00 0. -1.
         -2    1    5    5    0  503  0.35411129673E+03  0.25578799366E+03 -0.40768253144E+03  0.59751766050E+03  0.00000000000E+00 0.  1.
         -1    1    6    6    0  502 -0.30485612243E+03  0.64401541858E+02 -0.26475514654E+03  0.40887663372E+03  0.00000000000E+00 0.  1.
<mgrwt>
<rscale>  0 0.13846016E+04</rscale>
<asrwt>0</asrwt>
<pdfrwt beam="1">  1        2 0.28567521E+00 0.13846016E+04</pdfrwt>
<pdfrwt beam="2">  1       -2 0.39709134E-01 0.13846016E+04</pdfrwt>
<totfact> 0.46912609E+01</totfact>
</mgrwt>
</event>
<event>
12    1  0.2048318E-007  0.2808924E+04  0.7818608E-02  0.8300503E-01
         -2   -1    0    0    0  501 -0.00000000000E+00  0.00000000000E+00  0.56265028682E+03  0.56265028682E+03  0.00000000000E+00 0.  1.
          2   -1    0    0  501    0  0.00000000000E+00 -0.00000000000E+00 -0.35057529945E+04  0.35057529945E+04  0.00000000000E+00 0. -1.
         23    2    1    2    0    0  0.23428579287E+03 -0.72028279758E+03 -0.27698896036E+04  0.28729577715E+04  0.88886439914E+02 0.  0.
        254    2    1    2    0    0 -0.23428579287E+03  0.72028279758E+03 -0.17321310407E+03  0.11954455099E+04  0.90850979434E+03 0.  0.
        -24    2    4    4    0    0  0.12144517533E+03 -0.13952867455E+02 -0.32912497643E+03  0.36086355672E+03  0.83400499592E+02 0.  0.
         24    2    4    4    0    0 -0.35573096820E+03  0.73423566504E+03  0.15591187236E+03  0.83458195315E+03  0.81067817497E+02 0.  0.
         11    1    3    3    0    0  0.58372511255E+02 -0.91866335553E+02 -0.34239166432E+03  0.35927541729E+03  0.00000000000E+00 0.  1.
        -11    1    3    3    0    0  0.17591328162E+03 -0.62841646203E+03 -0.24274979393E+04  0.25136823542E+04  0.00000000000E+00 0. -1.
          2    1    6    6  502    0 -0.66596219117E+02  0.21502789202E+03  0.29877727405E+02  0.22707868536E+03  0.00000000000E+00 0. -1.
          3    1    5    5  503    0  0.62612197113E+02 -0.24146003829E+02 -0.26448731597E+03  0.27286783804E+03  0.00000000000E+00 0. -1.
         -4    1    5    5    0  503  0.58832978217E+02  0.10193136374E+02 -0.64637660467E+02  0.87995718678E+02  0.00000000000E+00 0.  1.
         -1    1    6    6    0  502 -0.28913474909E+03  0.51920777301E+03  0.12603414495E+03  0.60750326779E+03  0.00000000000E+00 0.  1.
<mgrwt>
<rscale>  0 0.28089236E+04</rscale>
<asrwt>0</asrwt>
<pdfrwt beam="1">  1        2 0.53934661E+00 0.28089236E+04</pdfrwt>
<pdfrwt beam="2">  1       -2 0.86561584E-01 0.28089236E+04</pdfrwt>
<totfact> 0.80934903E-01</totfact>
</mgrwt>
</event>
<event>
12    1  0.2048318E-007  0.1912138E+04  0.7818608E-02  0.8648838E-01
          2   -1    0    0  501    0  0.00000000000E+00  0.00000000000E+00  0.55128013611E+03  0.55128013611E+03  0.00000000000E+00 0. -1.
         -2   -1    0    0    0  501 -0.00000000000E+00 -0.00000000000E+00 -0.16580822897E+04  0.16580822897E+04  0.00000000000E+00 0.  1.
         23    2    1    2    0    0  0.15407912024E+02  0.56333028837E+03  0.12415725627E+03  0.58327817305E+03  0.84970496790E+02 0.  0.
        254    2    1    2    0    0 -0.15407912024E+02 -0.56333028837E+03 -0.12309594099E+04  0.16260842528E+04  0.90072776733E+03 0.  0.
        -24    2    4    4    0    0 -0.27987772811E+02 -0.14074809856E+03  0.12455304775E+03  0.20437803724E+03  0.75256745390E+02 0.  0.
         24    2    4    4    0    0  0.12579860787E+02 -0.42258218981E+03 -0.13555124577E+04  0.14217062156E+04  0.71418348160E+02 0.  0.
         13    1    3    3    0    0  0.37374853110E+02  0.32135403502E+03  0.39220898941E+02  0.32588889883E+03  0.00000000000E+00 0.  1.
        -13    1    3    3    0    0 -0.21966941086E+02  0.24197625336E+03  0.84936357333E+02  0.25738927422E+03  0.00000000000E+00 0. -1.
          2    1    6    6  502    0 -0.32604183106E+01 -0.12789088171E+03 -0.31052612042E+03  0.33584695832E+03  0.00000000000E+00 0. -1.
          3    1    5    5  503    0  0.44366200968E+01 -0.63775187542E+01 -0.91941104812E+01  0.12036943586E+02  0.00000000000E+00 0. -1.
         -4    1    5    5    0  503 -0.32424392908E+02 -0.13437057981E+03  0.13374715823E+03  0.19234109366E+03  0.00000000000E+00 0.  1.
         -1    1    6    6    0  502  0.15840279098E+02 -0.29469130810E+03 -0.10449863372E+04  0.10858592572E+04  0.00000000000E+00 0.  1.
<mgrwt>
<rscale>  0 0.19121379E+04</rscale>
<asrwt>0</asrwt>
<pdfrwt beam="1">  1        2 0.84812329E-01 0.19121379E+04</pdfrwt>
<pdfrwt beam="2">  1       -2 0.25508958E+00 0.19121379E+04</pdfrwt>
<totfact> 0.30714421E+00</totfact>
</mgrwt>
</event>
<event>
12    1  0.2048318E-007  0.2246721E+04  0.7818608E-02  0.8499230E-01
         -2   -1    0    0    0  501 -0.00000000000E+00  0.00000000000E+00  0.64759014239E+03  0.64759014239E+03  0.00000000000E+00 0.  1.
          2   -1    0    0  501    0  0.00000000000E+00 -0.00000000000E+00 -0.19486681068E+04  0.19486681068E+04  0.00000000000E+00 0. -1.
         23    2    1    2    0    0 -0.43813774897E+03 -0.75796060745E+03 -0.94509906229E+03  0.12915959235E+04  0.92405748775E+02 0.  0.
        254    2    1    2    0    0  0.43813774897E+03  0.75796060745E+03 -0.35597890208E+03  0.13046623257E+04  0.89941860991E+03 0.  0.
        -24    2    4    4    0    0  0.41607910785E+03  0.90553748289E+03 -0.10942875738E+03  0.10056685407E+04  0.79212396853E+02 0.  0.
         24    2    4    4    0    0  0.22058641119E+02 -0.14757687544E+03 -0.24655014470E+03  0.29899378505E+03  0.79654201597E+02 0.  0.
         13    1    3    3    0    0 -0.68812125546E+02 -0.87742639545E+02 -0.16213377626E+03  0.19677713491E+03  0.00000000000E+00 0. -1.
        -13    1    3    3    0    0 -0.36932562342E+03 -0.67021796791E+03 -0.78296528603E+03  0.10948187885E+04  0.00000000000E+00 0.  1.
          4    1    6    6  502    0  0.61733508010E+01 -0.47274549653E+02 -0.21917550535E+02  0.52472586428E+02  0.00000000000E+00 0. -1.
          1    1    5    5  503    0  0.10136844483E+03  0.27559506199E+03 -0.60319336076E+02  0.29977762108E+03  0.00000000000E+00 0. -1.
         -2    1    5    5    0  503  0.31471066302E+03  0.62994242091E+03 -0.49109421306E+02  0.70589091957E+03  0.00000000000E+00 0.  1.
         -3    1    6    6    0  502  0.15885290318E+02 -0.10030232579E+03 -0.22463259417E+03  0.24652119862E+03  0.00000000000E+00 0.  1.
<mgrwt>
<rscale>  0 0.22467205E+04</rscale>
<asrwt>0</asrwt>
<pdfrwt beam="1">  1        2 0.29979509E+00 0.22467205E+04</pdfrwt>
<pdfrwt beam="2">  1       -2 0.99629253E-01 0.22467205E+04</pdfrwt>
<totfact> 0.54137554E+00</totfact>
</mgrwt>
</event>
<event>
12    1  0.2048318E-007  0.1300134E+04  0.7818608E-02  0.9029459E-01
          2   -1    0    0  501    0  0.00000000000E+00  0.00000000000E+00  0.18542237193E+04  0.18542237193E+04  0.00000000000E+00 0.  1.
         -2   -1    0    0    0  501 -0.00000000000E+00 -0.00000000000E+00 -0.22790528221E+03  0.22790528221E+03  0.00000000000E+00 0. -1.
         23    2    1    2    0    0 -0.19065417115E+03 -0.21241018988E+03  0.68350855093E+03  0.74627678724E+03  0.90983527290E+02 0.  0.
        254    2    1    2    0    0  0.19065417115E+03  0.21241018988E+03  0.94280988618E+03  0.13358522143E+04  0.90229903867E+03 0.  0.
        -24    2    4    4    0    0  0.10304956999E+03  0.16835876202E+03  0.11080887391E+04  0.11279666313E+04  0.74055255654E+02 0.  0.
         24    2    4    4    0    0  0.87604601163E+02  0.44051427858E+02 -0.16527885296E+03  0.20788558298E+03  0.79273084551E+02 0.  0.
         13    1    3    3    0    0 -0.18799244916E+03 -0.16064105119E+03  0.58001574020E+03  0.63052753084E+03  0.00000000000E+00 0. -1.
        -13    1    3    3    0    0 -0.26617219983E+01 -0.51769138692E+02  0.10349281073E+03  0.11574925640E+03  0.00000000000E+00 0.  1.
          4    1    6    6  502    0  0.65023753024E+02  0.10735313587E+02 -0.15172011216E+03  0.16541562154E+03  0.00000000000E+00 0. -1.
          3    1    5    5  503    0  0.76369599986E+02  0.15642861908E+03  0.81259997867E+03  0.83103607262E+03  0.00000000000E+00 0. -1.
         -4    1    5    5    0  503  0.26679970006E+02  0.11930142938E+02  0.29548876047E+03  0.29693055867E+03  0.00000000000E+00 0.  1.
         -3    1    6    6    0  502  0.22580848139E+02  0.33316114271E+02 -0.13558740799E+02  0.42469961442E+02  0.00000000000E+00 0.  1.
<mgrwt>
<rscale>  0 0.13001344E+04</rscale>
<asrwt>0</asrwt>
<pdfrwt beam="1">  1        2 0.28526518E+00 0.13001344E+04</pdfrwt>
<pdfrwt beam="2">  1       -2 0.35062352E-01 0.13001344E+04</pdfrwt>
<totfact> 0.60264273E+01</totfact>
</mgrwt>
</event>
<event>
12    1  0.2048318E-007  0.1221081E+04  0.7818608E-02  0.9094602E-01
          2   -1    0    0  501    0  0.00000000000E+00  0.00000000000E+00  0.78946999851E+03  0.78946999851E+03  0.00000000000E+00 0. -1.
         -2   -1    0    0    0  501 -0.00000000000E+00 -0.00000000000E+00 -0.47216472853E+03  0.47216472853E+03  0.00000000000E+00 0.  1.
         23    2    1    2    0    0 -0.66201894747E+02  0.24772634569E+03 -0.10811572180E+01  0.27214018779E+03  0.91148668072E+02 0.  0.
        254    2    1    2    0    0  0.66201894747E+02 -0.24772634569E+03  0.31838642719E+03  0.98949453926E+03  0.90109849238E+03 0.  0.
        -24    2    4    4    0    0  0.24091551995E+03  0.23246115760E+03 -0.58833810890E+02  0.34945959010E+03  0.81130205639E+02 0.  0.
         24    2    4    4    0    0 -0.17471362520E+03 -0.48018750329E+03  0.37722023808E+03  0.64003494915E+03  0.79023660827E+02 0.  0.
         11    1    3    3    0    0 -0.32850479613E+02  0.20954272884E+02  0.16373801344E+02  0.42265079360E+02  0.00000000000E+00 0. -1.
        -11    1    3    3    0    0 -0.33351415135E+02  0.22677207281E+03 -0.17454958562E+02  0.22987510843E+03  0.00000000000E+00 0.  1.
          4    1    6    6  502    0 -0.66941638651E+02 -0.29386151668E+03  0.23271925298E+03  0.38078080923E+03  0.00000000000E+00 0. -1.
          1    1    5    5  503    0  0.39789680984E+02  0.82126114655E+02  0.12629266053E+01  0.91266162430E+02  0.00000000000E+00 0. -1.
         -2    1    5    5    0  503  0.20112583896E+03  0.15033504295E+03 -0.60096737495E+02  0.25819342767E+03  0.00000000000E+00 0.  1.
         -3    1    6    6    0  502 -0.10777198655E+03 -0.18632598661E+03  0.14450098511E+03  0.25925413992E+03  0.00000000000E+00 0.  1.
<mgrwt>
<rscale>  0 0.12210813E+04</rscale>
<asrwt>0</asrwt>
<pdfrwt beam="1">  1        2 0.12145692E+00 0.12210813E+04</pdfrwt>
<pdfrwt beam="2">  1       -2 0.72640727E-01 0.12210813E+04</pdfrwt>
<totfact> 0.59231475E+01</totfact>
</mgrwt>
</event>
<event>
12    1  0.2048318E-007  0.1788797E+04  0.7818608E-02  0.8712280E-01
         -3   -1    0    0    0  501 -0.00000000000E+00  0.00000000000E+00  0.10778984887E+04  0.10778984887E+04  0.00000000000E+00 0.  1.
          3   -1    0    0  501    0  0.00000000000E+00 -0.00000000000E+00 -0.74213742276E+03  0.74213742276E+03  0.00000000000E+00 0. -1.
         23    2    1    2    0    0  0.64757510671E+03  0.10428679893E+03  0.27757676821E+03  0.71900831475E+03  0.98462374394E+02 0.  0.
        254    2    1    2    0    0 -0.64757510671E+03 -0.10428679893E+03  0.58184297775E+02  0.11010275967E+04  0.88240982600E+03 0.  0.
        -24    2    4    4    0    0  0.46845020036E+02  0.23297296444E+03 -0.15673601599E+03  0.29530255254E+03  0.78527452292E+02 0.  0.
         24    2    4    4    0    0 -0.69442012675E+03 -0.33725976337E+03  0.21492031377E+03  0.80572504421E+03  0.83896633851E+02 0.  0.
         13    1    3    3    0    0  0.35428470427E+03  0.76348549676E+02  0.20174971992E+03  0.41478874407E+03  0.00000000000E+00 0. -1.
        -13    1    3    3    0    0  0.29329040244E+03  0.27938249251E+02  0.75827048286E+02  0.30421957068E+03  0.00000000000E+00 0.  1.
          4    1    6    6  502    0 -0.15276683102E+03 -0.80915711950E+02  0.12961737170E+02  0.17335819488E+03  0.00000000000E+00 0. -1.
          1    1    5    5  503    0  0.11829550639E+02  0.15858869842E+02  0.71465664113E+01  0.21036050781E+02  0.00000000000E+00 0. -1.
         -2    1    5    5    0  503  0.35015469397E+02  0.21711409460E+03 -0.16388258240E+03  0.27426650176E+03  0.00000000000E+00 0.  1.
         -3    1    6    6    0  502 -0.54165329572E+03 -0.25634405142E+03  0.20195857660E+03  0.63236684933E+03  0.00000000000E+00 0.  1.
<mgrwt>
<rscale>  0 0.17887971E+04</rscale>
<asrwt>0</asrwt>
<pdfrwt beam="1">  1        3 0.11417499E+00 0.17887971E+04</pdfrwt>
<pdfrwt beam="2">  1       -3 0.16583054E+00 0.17887971E+04</pdfrwt>
<totfact> 0.39057738E-01</totfact>
</mgrwt>
</event>
<event>
12    1  0.2048318E-007  0.1895127E+04  0.7818608E-02  0.8657286E-01
          1   -1    0    0  501    0  0.00000000000E+00  0.00000000000E+00  0.52771558505E+03  0.52771558505E+03  0.00000000000E+00 0. -1.
         -1   -1    0    0    0  501 -0.00000000000E+00 -0.00000000000E+00 -0.17014400065E+04  0.17014400065E+04  0.00000000000E+00 0.  1.
         23    2    1    2    0    0 -0.13566820191E+03 -0.34731410157E+03 -0.11975565914E+04  0.12576035970E+04  0.91608250301E+02 0.  0.
        254    2    1    2    0    0  0.13566820191E+03  0.34731410157E+03  0.23832169928E+02  0.97155199454E+03  0.89683463337E+03 0.  0.
        -24    2    4    4    0    0  0.24203710058E+03 -0.23132584113E+03 -0.11407457973E+03  0.36226505059E+03  0.78290192879E+02 0.  0.
         24    2    4    4    0    0 -0.10636889868E+03  0.57863994271E+03  0.13790674965E+03  0.60928694395E+03  0.77934476132E+02 0.  0.
         13    1    3    3    0    0 -0.13856564235E+03 -0.29592131443E+03 -0.10971094947E+04  0.11447353864E+04  0.00000000000E+00 0.  1.
        -13    1    3    3    0    0  0.28974404475E+01 -0.51392787145E+02 -0.10044709668E+03  0.11286821060E+03  0.00000000000E+00 0. -1.
          4    1    6    6  502    0  0.41441438255E+01  0.12222568219E+03  0.10719034170E+02  0.12276477104E+03  0.00000000000E+00 0. -1.
          3    1    5    5  503    0  0.17172251460E+03 -0.19447247481E+03 -0.11271737497E+03  0.28286635024E+03  0.00000000000E+00 0. -1.
         -4    1    5    5    0  503  0.70314585985E+02 -0.36853366319E+02 -0.13572047590E+01  0.79398700342E+02  0.00000000000E+00 0.  1.
         -3    1    6    6    0  502 -0.11051304250E+03  0.45641426051E+03  0.12718771548E+03  0.48652217291E+03  0.00000000000E+00 0.  1.
<mgrwt>
<rscale>  0 0.18951268E+04</rscale>
<asrwt>0</asrwt>
<pdfrwt beam="1">  1        1 0.81187014E-01 0.18951268E+04</pdfrwt>
<pdfrwt beam="2">  1       -1 0.26176000E+00 0.18951268E+04</pdfrwt>
<totfact> 0.22495663E+00</totfact>
</mgrwt>
</event>
<event>
12    1  0.2048318E-007  0.3362420E+04  0.7818608E-02  0.8147192E-01
         -1   -1    0    0    0  501 -0.00000000000E+00  0.00000000000E+00  0.95152258025E+03  0.95152258025E+03  0.00000000000E+00 0.  1.
          1   -1    0    0  501    0  0.00000000000E+00 -0.00000000000E+00 -0.29704673597E+04  0.29704673597E+04  0.00000000000E+00 0. -1.
         23    2    1    2    0    0 -0.12404345910E+04  0.53190401359E+03 -0.27504904572E+02  0.13530882586E+04  0.92149127144E+02 0.  0.
        254    2    1    2    0    0  0.12404345910E+04 -0.53190401359E+03 -0.19914398749E+04  0.25689016814E+04  0.90101233015E+03 0.  0.
        -24    2    4    4    0    0  0.66165256122E+03 -0.10820996692E+03 -0.31792196314E+03  0.74635573944E+03  0.80492275707E+02 0.  0.
         24    2    4    4    0    0  0.57878202974E+03 -0.42369404667E+03 -0.16735179117E+04  0.18225459419E+04  0.80661182273E+02 0.  0.
         13    1    3    3    0    0 -0.10289454178E+04  0.44347219687E+03  0.11816760839E+02  0.11205069826E+04  0.00000000000E+00 0.  1.
        -13    1    3    3    0    0 -0.21148917317E+03  0.88431816718E+02 -0.39321665411E+02  0.23258127600E+03  0.00000000000E+00 0. -1.
          4    1    6    6  502    0  0.50846368134E+03 -0.37143859331E+03 -0.15284477841E+04  0.16530742792E+04  0.00000000000E+00 0. -1.
          1    1    5    5  503    0  0.30263429521E+03 -0.85203535819E+02 -0.12702836197E+03  0.33909196968E+03  0.00000000000E+00 0. -1.
         -2    1    5    5    0  503  0.35901826600E+03 -0.23006431098E+02 -0.19089360117E+03  0.40726376977E+03  0.00000000000E+00 0.  1.
         -3    1    6    6    0  502  0.70318348401E+02 -0.52255453367E+02 -0.14507012766E+03  0.16947166273E+03  0.00000000000E+00 0.  1.
<mgrwt>
<rscale>  0 0.33624198E+04</rscale>
<asrwt>0</asrwt>
<pdfrwt beam="1">  1        1 0.45699497E+00 0.33624198E+04</pdfrwt>
<pdfrwt beam="2">  1       -1 0.14638809E+00 0.33624198E+04</pdfrwt>
<totfact> 0.19294821E-01</totfact>
</mgrwt>
</event>
<event>
12    1  0.2048318E-007  0.1310305E+04  0.7818608E-02  0.9021433E-01
         -2   -1    0    0    0  501 -0.00000000000E+00  0.00000000000E+00  0.36608158987E+03  0.36608158987E+03  0.00000000000E+00 0.  1.
          2   -1    0    0  501    0  0.00000000000E+00 -0.00000000000E+00 -0.11724841384E+04  0.11724841384E+04  0.00000000000E+00 0. -1.
         23    2    1    2    0    0  0.56636204384E+02 -0.32871428120E+03 -0.24187797148E+03  0.42222028983E+03  0.92218662698E+02 0.  0.
        254    2    1    2    0    0 -0.56636204384E+02  0.32871428120E+03 -0.56452457707E+03  0.11163454385E+04  0.90348126795E+03 0.  0.
        -24    2    4    4    0    0  0.26343048096E+03  0.41807128900E+03 -0.59152874696E+03  0.77506232638E+03  0.81462447205E+02 0.  0.
         24    2    4    4    0    0 -0.32006668534E+03 -0.89357007804E+02  0.27004169890E+02  0.34128311208E+03  0.72921735383E+02 0.  0.
         11    1    3    3    0    0  0.30669292765E+02 -0.15364067839E+03 -0.58162646281E+02  0.16711958891E+03  0.00000000000E+00 0.  1.
        -11    1    3    3    0    0  0.25966911619E+02 -0.17507360281E+03 -0.18371532520E+03  0.25510070092E+03  0.00000000000E+00 0. -1.
          2    1    6    6  502    0 -0.26834509766E+03 -0.64799678445E+02  0.48192026514E+02  0.28023304798E+03  0.00000000000E+00 0. -1.
          1    1    5    5  503    0  0.23441150477E+03  0.37530911677E+03 -0.56283101540E+03  0.71595002521E+03  0.00000000000E+00 0. -1.
         -2    1    5    5    0  503  0.29018976188E+02  0.42762172232E+02 -0.28697731563E+02  0.59112301172E+02  0.00000000000E+00 0.  1.
         -3    1    6    6    0  502 -0.51721587682E+02 -0.24557329360E+02 -0.21187856624E+02  0.61050064095E+02  0.00000000000E+00 0.  1.
<mgrwt>
<rscale>  0 0.13103051E+04</rscale>
<asrwt>0</asrwt>
<pdfrwt beam="1">  1        2 0.18038217E+00 0.13103051E+04</pdfrwt>
<pdfrwt beam="2">  1       -2 0.56320245E-01 0.13103051E+04</pdfrwt>
<totfact> 0.57019290E+01</totfact>
</mgrwt>
</event>
<event>
12    1  0.2048318E-007  0.1384218E+04  0.7818608E-02  0.8965322E-01
          1   -1    0    0  501    0  0.00000000000E+00  0.00000000000E+00  0.17503628044E+04  0.17503628044E+04  0.00000000000E+00 0. -1.
         -1   -1    0    0    0  501 -0.00000000000E+00 -0.00000000000E+00 -0.27366597841E+03  0.27366597841E+03  0.00000000000E+00 0.  1.
         23    2    1    2    0    0  0.32139890254E+02 -0.38725155376E+03  0.35161398374E+03  0.53197739472E+03  0.91492166318E+02 0.  0.
        254    2    1    2    0    0 -0.32139890254E+02  0.38725155376E+03  0.11250828423E+04  0.14920513881E+04  0.89967172033E+03 0.  0.
        -24    2    4    4    0    0 -0.34673368837E+02 -0.28628739943E+03  0.29206435977E+03  0.41781589034E+03  0.78139685178E+02 0.  0.
         24    2    4    4    0    0  0.25334785830E+01  0.67353895318E+03  0.83301848251E+03  0.10742354978E+04  0.80006077925E+02 0.  0.
         13    1    3    3    0    0  0.36547843702E+02 -0.11447900499E+03  0.15288451608E+03  0.19446043999E+03  0.00000000000E+00 0. -1.
        -13    1    3    3    0    0 -0.44079534481E+01 -0.27277254877E+03  0.19872946765E+03  0.33751695473E+03  0.00000000000E+00 0.  1.
          2    1    6    6  502    0  0.84238226598E+01  0.44276444487E+03  0.48658810035E+03  0.65793563046E+03  0.00000000000E+00 0. -1.
          1    1    5    5  503    0 -0.49917744100E+02 -0.22867137524E+03  0.26111144621E+03  0.35065876058E+03  0.00000000000E+00 0. -1.
         -2    1    5    5    0  503  0.15244375263E+02 -0.57616024188E+02  0.30952913559E+02  0.67157129764E+02  0.00000000000E+00 0.  1.
         -1    1    6    6    0  502 -0.58903440768E+01  0.23077450832E+03  0.34643038216E+03  0.41629986731E+03  0.00000000000E+00 0.  1.
<mgrwt>
<rscale>  0 0.13842178E+04</rscale>
<asrwt>0</asrwt>
<pdfrwt beam="1">  1        1 0.26928658E+00 0.13842178E+04</pdfrwt>
<pdfrwt beam="2">  1       -1 0.42102459E-01 0.13842178E+04</pdfrwt>
<totfact> 0.23833991E+01</totfact>
</mgrwt>
</event>
<event>
12    1  0.2048318E-007  0.3504183E+04  0.7818608E-02  0.8112799E-01
         -2   -1    0    0    0  501 -0.00000000000E+00  0.00000000000E+00  0.10727992013E+04  0.10727992013E+04  0.00000000000E+00 0. -1.
          2   -1    0    0  501    0  0.00000000000E+00 -0.00000000000E+00 -0.28615086929E+04  0.28615086929E+04  0.00000000000E+00 0.  1.
         23    2    1    2    0    0 -0.77313004380E+03 -0.13487221409E+04 -0.14059035444E+04  0.20979909959E+04  0.90664022099E+02 0.  0.
        254    2    1    2    0    0  0.77313004380E+03  0.13487221409E+04 -0.38280594724E+03  0.18363168983E+04  0.89929854862E+03 0.  0.
        -24    2    4    4    0    0  0.36405537313E+03  0.83192286813E+03  0.22140584307E+03  0.93852408429E+03  0.84704995340E+02 0.  0.
         24    2    4    4    0    0  0.40907467068E+03  0.51679927281E+03 -0.60421179031E+03  0.89779281398E+03  0.80848467632E+02 0.  0.
         13    1    3    3    0    0 -0.26875782135E+03 -0.45989837915E+03 -0.42478401585E+03  0.68130664594E+03  0.00000000000E+00 0. -1.
        -13    1    3    3    0    0 -0.50437222246E+03 -0.88882376179E+03 -0.98111952852E+03  0.14166843500E+04  0.00000000000E+00 0.  1.
          2    1    6    6  502    0  0.21122102316E+02  0.40258767577E+02 -0.70483570039E+02  0.83873984158E+02  0.00000000000E+00 0. -1.
          1    1    5    5  503    0  0.65875392051E+02  0.84398816337E+02  0.20191592163E+02  0.10895149320E+03  0.00000000000E+00 0. -1.
         -2    1    5    5    0  503  0.29817998107E+03  0.74752405179E+03  0.20121425091E+03  0.82957259109E+03  0.00000000000E+00 0.  1.
         -1    1    6    6    0  502  0.38795256836E+03  0.47654050523E+03 -0.53372822027E+03  0.81391882982E+03  0.00000000000E+00 0.  1.
<mgrwt>
<rscale>  0 0.35041828E+04</rscale>
<asrwt>0</asrwt>
<pdfrwt beam="1">  1        2 0.44023210E+00 0.35041828E+04</pdfrwt>
<pdfrwt beam="2">  1       -2 0.16504603E+00 0.35041828E+04</pdfrwt>
<totfact> 0.40292676E-01</totfact>
</mgrwt>
</event>
<event>
12    1  0.2048318E-007  0.1203680E+04  0.7818608E-02  0.9109642E-01
          2   -1    0    0  501    0  0.00000000000E+00  0.00000000000E+00  0.61891308722E+03  0.61891308722E+03  0.00000000000E+00 0. -1.
         -2   -1    0    0    0  501 -0.00000000000E+00 -0.00000000000E+00 -0.58523781014E+03  0.58523781014E+03  0.00000000000E+00 0.  1.
         23    2    1    2    0    0 -0.21811322780E+03 -0.12251844315E+03 -0.34967590598E+02  0.26890406835E+03  0.92209091372E+02 0.  0.
        254    2    1    2    0    0  0.21811322780E+03  0.12251844315E+03  0.68642867678E+02  0.93524682900E+03  0.89854918553E+03 0.  0.
        -24    2    4    4    0    0  0.17035771140E+03  0.47381947072E+02 -0.40394773483E+03  0.44770429911E+03  0.77450424318E+02 0.  0.
         24    2    4    4    0    0  0.47755516400E+02  0.75136496078E+02  0.47259060251E+03  0.48754252988E+03  0.80185774751E+02 0.  0.
         11    1    3    3    0    0 -0.19492902240E+03 -0.72128409766E+02 -0.44676518106E+02  0.21259309147E+03  0.00000000000E+00 0.  1.
        -11    1    3    3    0    0 -0.23184205398E+02 -0.50390033384E+02  0.97089275083E+01  0.56310976885E+02  0.00000000000E+00 0. -1.
          2    1    6    6  502    0  0.49809728580E+02  0.59452859043E+02  0.46209648086E+03  0.46856035805E+03  0.00000000000E+00 0. -1.
          1    1    5    5  503    0  0.75331718161E+02  0.59522483027E+02 -0.22747032250E+03  0.24690188611E+03  0.00000000000E+00 0. -1.
         -2    1    5    5    0  503  0.95025993240E+02 -0.12140535956E+02 -0.17647741234E+03  0.20080241301E+03  0.00000000000E+00 0.  1.
         -1    1    6    6    0  502 -0.20542121802E+01  0.15683637036E+02  0.10494121650E+02  0.18982171834E+02  0.00000000000E+00 0.  1.
<mgrwt>
<rscale>  0 0.12036799E+04</rscale>
<asrwt>0</asrwt>
<pdfrwt beam="1">  1        2 0.95217398E-01 0.12036799E+04</pdfrwt>
<pdfrwt beam="2">  1       -2 0.90036586E-01 0.12036799E+04</pdfrwt>
<totfact> 0.49764639E+01</totfact>
</mgrwt>
</event>
<event>
12    1  0.2048318E-007  0.1801088E+04  0.7818608E-02  0.8705721E-01
         -1   -1    0    0    0  501 -0.00000000000E+00  0.00000000000E+00  0.32654161740E+03  0.32654161740E+03  0.00000000000E+00 0.  1.
          1   -1    0    0  501    0  0.00000000000E+00 -0.00000000000E+00 -0.24835409736E+04  0.24835409736E+04  0.00000000000E+00 0. -1.
         23    2    1    2    0    0  0.46797969856E+03 -0.41047797217E+03 -0.40916936529E+03  0.75072652170E+03  0.93132040650E+02 0.  0.
        254    2    1    2    0    0 -0.46797969856E+03  0.41047797217E+03 -0.17478299910E+04  0.20593560693E+04  0.89361097751E+03 0.  0.
        -24    2    4    4    0    0 -0.14016964815E+03  0.43808505866E+03 -0.26420571112E+03  0.53702050862E+03  0.83787349940E+02 0.  0.
         24    2    4    4    0    0 -0.32781005041E+03 -0.27607086484E+02 -0.14836242798E+04  0.15223355607E+04  0.90238435970E+02 0.  0.
         13    1    3    3    0    0  0.63226063716E+00 -0.20923811848E+02 -0.11577561293E+02  0.23921655069E+02  0.00000000000E+00 0.  1.
        -13    1    3    3    0    0  0.46734743792E+03 -0.38955416033E+03 -0.39759180400E+03  0.72680486663E+03  0.00000000000E+00 0. -1.
          2    1    6    6  502    0 -0.85816597957E+02  0.11833764516E+02 -0.25006081394E+03  0.26464114785E+03  0.00000000000E+00 0. -1.
          3    1    5    5  503    0 -0.13748476064E+03  0.31840671216E+03 -0.21149919547E+03  0.40622260331E+03  0.00000000000E+00 0. -1.
         -4    1    5    5    0  503 -0.26848875078E+01  0.11967834650E+03 -0.52706515658E+02  0.13079790532E+03  0.00000000000E+00 0.  1.
         -1    1    6    6    0  502 -0.24199345245E+03 -0.39440851000E+02 -0.12335634659E+04  0.12576944129E+04  0.00000000000E+00 0.  1.
<mgrwt>
<rscale>  0 0.18010880E+04</rscale>
<asrwt>0</asrwt>
<pdfrwt beam="1">  1        1 0.38208324E+00 0.18010880E+04</pdfrwt>
<pdfrwt beam="2">  1       -1 0.50237171E-01 0.18010880E+04</pdfrwt>
<totfact> 0.52254818E+00</totfact>
</mgrwt>
</event>
<event>
12    1  0.2048318E-007  0.2174668E+04  0.7818608E-02  0.8529047E-01
         -2   -1    0    0    0  501 -0.00000000000E+00  0.00000000000E+00  0.92711694272E+03  0.92711694272E+03  0.00000000000E+00 0. -1.
          2   -1    0    0  501    0  0.00000000000E+00 -0.00000000000E+00 -0.12752381228E+04  0.12752381228E+04  0.00000000000E+00 0.  1.
         23    2    1    2    0    0 -0.56997211244E+03  0.66769924117E+03 -0.33799019824E+03  0.94403104200E+03  0.79162797610E+02 0.  0.
        254    2    1    2    0    0  0.56997211244E+03 -0.66769924117E+03 -0.10130981871E+02  0.12583240236E+04  0.90143564708E+03 0.  0.
        -24    2    4    4    0    0  0.10654224828E+02 -0.62566322070E+03 -0.19699207710E+03  0.66146818580E+03  0.84654026125E+02 0.  0.
         24    2    4    4    0    0  0.55931788762E+03 -0.42036020474E+02  0.18686109523E+03  0.59685583776E+03  0.81953009289E+02 0.  0.
         13    1    3    3    0    0 -0.26802813179E+03  0.35337567103E+03 -0.20281390784E+03  0.48769552543E+03  0.00000000000E+00 0.  1.
        -13    1    3    3    0    0 -0.30194398065E+03  0.31432357014E+03 -0.13517629039E+03  0.45633551657E+03  0.00000000000E+00 0. -1.
          4    1    6    6  502    0  0.31822154130E+03 -0.79081594269E+01  0.66327808193E+02  0.32515667989E+03  0.00000000000E+00 0. -1.
          1    1    5    5  503    0  0.35335931658E+02 -0.33744303274E+03 -0.74749451094E+02  0.34742468083E+03  0.00000000000E+00 0. -1.
         -2    1    5    5    0  503 -0.24681706831E+02 -0.28822018796E+03 -0.12224262600E+03  0.31404350496E+03  0.00000000000E+00 0.  1.
         -3    1    6    6    0  502  0.24109634631E+03 -0.34127861047E+02  0.12053328703E+03  0.27169915787E+03  0.00000000000E+00 0.  1.
<mgrwt>
<rscale>  0 0.21746677E+04</rscale>
<asrwt>0</asrwt>
<pdfrwt beam="1">  1        2 0.19619048E+00 0.21746677E+04</pdfrwt>
<pdfrwt beam="2">  1       -2 0.14263337E+00 0.21746677E+04</pdfrwt>
<totfact> 0.53569631E+00</totfact>
</mgrwt>
</event>
<event>
12    1  0.2048318E-007  0.2629554E+04  0.7818608E-02  0.8358231E-01
          2   -1    0    0  501    0  0.00000000000E+00  0.00000000000E+00  0.16479891145E+04  0.16479891145E+04  0.00000000000E+00 0. -1.
         -2   -1    0    0    0  501 -0.00000000000E+00 -0.00000000000E+00 -0.10489378723E+04  0.10489378723E+04  0.00000000000E+00 0.  1.
         23    2    1    2    0    0  0.10883001856E+04 -0.72101396653E+02  0.66855637932E+03  0.12824885288E+04  0.90627198008E+02 0.  0.
        254    2    1    2    0    0 -0.10883001856E+04  0.72101396653E+02 -0.69505137098E+02  0.14144384580E+04  0.89789157585E+03 0.  0.
        -24    2    4    4    0    0 -0.98513963291E+03  0.35433539882E+03  0.10967787926E+03  0.10553628942E+04  0.75550844714E+02 0.  0.
         24    2    4    4    0    0 -0.10316055264E+03 -0.28223400217E+03 -0.17918301636E+03  0.35907556372E+03  0.80811976273E+02 0.  0.
         11    1    3    3    0    0  0.67115518962E+03 -0.56437671002E+01  0.38544981031E+03  0.77398494619E+03  0.00000000000E+00 0.  1.
        -11    1    3    3    0    0  0.41714499594E+03 -0.66457629553E+02  0.28310656901E+03  0.50850358266E+03  0.00000000000E+00 0. -1.
          2    1    6    6  502    0 -0.12477246906E+02 -0.34334660720E+01 -0.24226604308E+02  0.27466320029E+02  0.00000000000E+00 0. -1.
          1    1    5    5  503    0 -0.46660493307E+03  0.14270553067E+03  0.80585774452E+02  0.49454938994E+03  0.00000000000E+00 0. -1.
         -2    1    5    5    0  503 -0.51853469984E+03  0.21162986815E+03  0.29092104807E+02  0.56081350429E+03  0.00000000000E+00 0.  1.
         -1    1    6    6    0  502 -0.90683305739E+02 -0.27880053610E+03 -0.15495641205E+03  0.33160924369E+03  0.00000000000E+00 0.  1.
<mgrwt>
<rscale>  0 0.26295537E+04</rscale>
<asrwt>0</asrwt>
<pdfrwt beam="1">  1        2 0.25353679E+00 0.26295537E+04</pdfrwt>
<pdfrwt beam="2">  1       -2 0.16137506E+00 0.26295537E+04</pdfrwt>
<totfact> 0.22768371E+00</totfact>
</mgrwt>
</event>
<event>
12    1  0.2048318E-007  0.2698612E+04  0.7818608E-02  0.8335455E-01
          4   -1    0    0  501    0  0.00000000000E+00  0.00000000000E+00  0.65637040332E+03  0.65637040332E+03  0.00000000000E+00 0. -1.
         -4   -1    0    0    0  501 -0.00000000000E+00 -0.00000000000E+00 -0.27737792076E+04  0.27737792076E+04  0.00000000000E+00 0.  1.
         23    2    1    2    0    0  0.11726918808E+04 -0.23209060510E+03 -0.83569207008E+03  0.14614684988E+04  0.91851187880E+02 0.  0.
        254    2    1    2    0    0 -0.11726918808E+04  0.23209060510E+03 -0.12817167342E+04  0.19686811121E+04  0.89656859077E+03 0.  0.
        -24    2    4    4    0    0 -0.54491102815E+03  0.55059589449E+03 -0.57036471605E+03  0.96469456957E+03  0.72359074204E+02 0.  0.
         24    2    4    4    0    0 -0.62778085270E+03 -0.31850528939E+03 -0.71135201813E+03  0.10039865425E+04  0.80080368573E+02 0.  0.
         11    1    3    3    0    0  0.18441143398E+03 -0.24665276925E+02 -0.93379394673E+02  0.20817219848E+03  0.00000000000E+00 0.  1.
        -11    1    3    3    0    0  0.98828044686E+03 -0.20742532817E+03 -0.74231267541E+03  0.12532963004E+04  0.00000000000E+00 0. -1.
          2    1    6    6  502    0 -0.24243768453E+03 -0.13160639260E+03 -0.22529713755E+03  0.35616719900E+03  0.00000000000E+00 0. -1.
          1    1    5    5  503    0 -0.17591798643E+03  0.22619366075E+03 -0.21945842501E+03  0.36093311073E+03  0.00000000000E+00 0. -1.
         -2    1    5    5    0  503 -0.36899304172E+03  0.32440223374E+03 -0.35090629105E+03  0.60376145885E+03  0.00000000000E+00 0.  1.
         -1    1    6    6    0  502 -0.38534316817E+03 -0.18689889679E+03 -0.48605488058E+03  0.64781934350E+03  0.00000000000E+00 0.  1.
<mgrwt>
<rscale>  0 0.26986119E+04</rscale>
<asrwt>0</asrwt>
<pdfrwt beam="1">  1        4 0.10098006E+00 0.26986119E+04</pdfrwt>
<pdfrwt beam="2">  1       -4 0.42673526E+00 0.26986119E+04</pdfrwt>
<totfact> 0.61966867E-03</totfact>
</mgrwt>
</event>
<event>
12    1  0.2048318E-007  0.1692216E+04  0.7818608E-02  0.8765816E-01
          2   -1    0    0  501    0  0.00000000000E+00  0.00000000000E+00  0.42222713604E+04  0.42222713604E+04  0.00000000000E+00 0. -1.
         -2   -1    0    0    0  501 -0.00000000000E+00 -0.00000000000E+00 -0.16955306616E+03  0.16955306616E+03  0.00000000000E+00 0.  1.
         23    2    1    2    0    0 -0.22177577946E+03  0.46269065424E+03  0.23018162750E+04  0.23600502126E+04  0.90618454325E+02 0.  0.
        254    2    1    2    0    0  0.22177577946E+03 -0.46269065424E+03  0.17509020193E+04  0.20317742140E+04  0.89396948366E+03 0.  0.
        -24    2    4    4    0    0  0.26077232684E+03 -0.57664604388E+03  0.17743236939E+04  0.18854343591E+04  0.78200290179E+02 0.  0.
         24    2    4    4    0    0 -0.38996547375E+02  0.11395538964E+03 -0.23421674597E+02  0.14633985493E+03  0.79750967159E+02 0.  0.
         11    1    3    3    0    0 -0.11836520987E+03  0.15519878550E+03  0.95108254548E+03  0.97090421477E+03  0.00000000000E+00 0.  1.
        -11    1    3    3    0    0 -0.10341056959E+03  0.30749186874E+03  0.13507337295E+04  0.13891459978E+04  0.00000000000E+00 0. -1.
          4    1    6    6  502    0 -0.16465250111E+02  0.11999706381E+03 -0.19204845958E+02  0.12263452162E+03  0.00000000000E+00 0. -1.
          3    1    5    5  503    0  0.16099462746E+03 -0.43916236963E+03  0.13134275906E+04  0.13942291392E+04  0.00000000000E+00 0. -1.
         -2    1    5    5    0  503  0.99777699383E+02 -0.13748367425E+03  0.46089610333E+03  0.49120521988E+03  0.00000000000E+00 0.  1.
         -3    1    6    6    0  502 -0.22531297264E+02 -0.60416741725E+01 -0.42168286382E+01  0.23705333302E+02  0.00000000000E+00 0.  1.
<mgrwt>
<rscale>  0 0.16922164E+04</rscale>
<asrwt>0</asrwt>
<pdfrwt beam="1">  1        2 0.64958013E+00 0.16922164E+04</pdfrwt>
<pdfrwt beam="2">  1       -2 0.26085090E-01 0.16922164E+04</pdfrwt>
<totfact> 0.28718020E+00</totfact>
</mgrwt>
</event>
<event>
12    1  0.2048318E-007  0.2098308E+04  0.7818608E-02  0.8561989E-01
         -1   -1    0    0    0  501 -0.00000000000E+00  0.00000000000E+00  0.54445882811E+03  0.54445882811E+03  0.00000000000E+00 0.  1.
          1   -1    0    0  501    0  0.00000000000E+00 -0.00000000000E+00 -0.20216848127E+04  0.20216848127E+04  0.00000000000E+00 0. -1.
         23    2    1    2    0    0 -0.30861537579E+03  0.52497271331E+03 -0.13277851526E+04  0.14636067535E+04  0.91057769717E+02 0.  0.
        254    2    1    2    0    0  0.30861537579E+03 -0.52497271331E+03 -0.14944083202E+03  0.11025368874E+04  0.90687111865E+03 0.  0.
        -24    2    4    4    0    0  0.29931865776E+03  0.16222392150E+03 -0.21010013610E+03  0.40794312873E+03  0.79795172143E+02 0.  0.
         24    2    4    4    0    0  0.92967180306E+01 -0.68719663481E+03  0.60659304080E+02  0.69459375864E+03  0.80344847470E+02 0.  0.
         13    1    3    3    0    0 -0.12624346425E+03  0.13648268574E+03 -0.43285609221E+03  0.47109376172E+03  0.00000000000E+00 0.  1.
        -13    1    3    3    0    0 -0.18237191154E+03  0.38849002757E+03 -0.89492906042E+03  0.99251299176E+03  0.00000000000E+00 0. -1.
          4    1    6    6  502    0 -0.15622028988E+02 -0.32829736338E+03  0.63864463638E+02  0.33481618287E+03  0.00000000000E+00 0. -1.
          1    1    5    5  503    0  0.14996590998E+03  0.88193096209E+02 -0.15317315133E+03  0.23179691686E+03  0.00000000000E+00 0. -1.
         -2    1    5    5    0  503  0.14935274778E+03  0.74030825291E+02 -0.56926984771E+02  0.17614621187E+03  0.00000000000E+00 0.  1.
         -3    1    6    6    0  502  0.24918747019E+02 -0.35889927143E+03 -0.32051595585E+01  0.35977757578E+03  0.00000000000E+00 0.  1.
<mgrwt>
<rscale>  0 0.20983080E+04</rscale>
<asrwt>0</asrwt>
<pdfrwt beam="1">  1        1 0.31102843E+00 0.20983080E+04</pdfrwt>
<pdfrwt beam="2">  1       -1 0.83762896E-01 0.20983080E+04</pdfrwt>
<totfact> 0.37442884E+00</totfact>
</mgrwt>
</event>
<event>
12    1  0.3079175E-007  0.1857376E+04  0.7818608E-02  0.8676369E-01
          2   -1    0    0  501    0  0.00000000000E+00  0.00000000000E+00  0.19743354689E+04  0.19743354689E+04  0.00000000000E+00 0. -1.
         -2   -1    0    0    0  501 -0.00000000000E+00 -0.00000000000E+00 -0.43683618772E+03  0.43683618772E+03  0.00000000000E+00 0.  1.
         23    2    1    2    0    0  0.34052340725E+03 -0.61579114093E+03  0.56976923315E+03  0.90951005775E+03  0.86119951047E+02 0.  0.
        254    2    1    2    0    0 -0.34052340725E+03  0.61579114093E+03  0.96773004799E+03  0.15016615988E+04  0.90737599234E+03 0.  0.
        -24    2    4    4    0    0  0.92312845189E+02 -0.14450754015E+03 -0.72082347202E+01  0.18929209366E+03  0.79846399595E+02 0.  0.
         24    2    4    4    0    0 -0.43283625244E+03  0.76029868108E+03  0.97493828271E+03  0.13123695052E+04  0.80048467214E+02 0.  0.
         13    1    3    3    0    0  0.13361216306E+03 -0.20430358027E+03  0.15119528819E+03  0.28714487319E+03  0.00000000000E+00 0.  1.
        -13    1    3    3    0    0  0.20691124419E+03 -0.41148756066E+03  0.41857394497E+03  0.62236518456E+03  0.00000000000E+00 0. -1.
          2    1    6    6  502    0 -0.32437824767E+02  0.60094910647E+02  0.47176971729E+02  0.83001671205E+02  0.00000000000E+00 0. -1.
          3    1    5    5  503    0  0.38450673330E+02 -0.53763132413E+02  0.35996834249E+02  0.75264206382E+02  0.00000000000E+00 0. -1.
         -4    1    5    5    0  503  0.53862171859E+02 -0.90744407740E+02 -0.43205068969E+02  0.11402788728E+03  0.00000000000E+00 0.  1.
         -1    1    6    6    0  502 -0.40039842768E+03  0.70020377043E+03  0.92776131098E+03  0.12293678340E+04  0.00000000000E+00 0.  1.
<mgrwt>
<rscale>  0 0.18573758E+04</rscale>
<asrwt>0</asrwt>
<pdfrwt beam="1">  1        2 0.30374391E+00 0.18573758E+04</pdfrwt>
<pdfrwt beam="2">  1       -2 0.67205568E-01 0.18573758E+04</pdfrwt>
<totfact> 0.13179583E+01</totfact>
</mgrwt>
</event>
<event>
12    1  0.2048318E-007  0.1971254E+04  0.7818608E-02  0.8620179E-01
          1   -1    0    0  501    0  0.00000000000E+00  0.00000000000E+00  0.24400840095E+04  0.24400840095E+04  0.00000000000E+00 0. -1.
         -1   -1    0    0    0  501 -0.00000000000E+00 -0.00000000000E+00 -0.39812594157E+03  0.39812594157E+03  0.00000000000E+00 0.  1.
         23    2    1    2    0    0 -0.73565580566E+03 -0.47410893889E+02  0.45929188922E+03  0.87325617518E+03  0.90498899043E+02 0.  0.
        254    2    1    2    0    0  0.73565580566E+03  0.47410893889E+02  0.15826661787E+04  0.19649537759E+04  0.90153971119E+03 0.  0.
        -24    2    4    4    0    0  0.15488620531E+03  0.35633400611E+03  0.10240443036E+04  0.10982112012E+04  0.80233697940E+02 0.  0.
         24    2    4    4    0    0  0.58076960036E+03 -0.30892311222E+03  0.55862187510E+03  0.86674257463E+03  0.80358405763E+02 0.  0.
         13    1    3    3    0    0 -0.23603588034E+03 -0.48904572488E+02  0.18026973589E+03  0.30100128189E+03  0.00000000000E+00 0. -1.
        -13    1    3    3    0    0 -0.49961992532E+03  0.14936785984E+01  0.27902215332E+03  0.57225489330E+03  0.00000000000E+00 0.  1.
          4    1    6    6  502    0  0.47127710915E+03 -0.23461619383E+03  0.40651544395E+03  0.66513282748E+03  0.00000000000E+00 0. -1.
          3    1    5    5  503    0  0.14478738413E+03  0.31847970488E+03  0.97218427539E+03  0.10332158411E+04  0.00000000000E+00 0. -1.
         -4    1    5    5    0  503  0.10098821178E+02  0.37854301232E+02  0.51860028195E+02  0.64995360107E+02  0.00000000000E+00 0.  1.
         -3    1    6    6    0  502  0.10949249121E+03 -0.74306918396E+02  0.15210643114E+03  0.20160974715E+03  0.00000000000E+00 0.  1.
<mgrwt>
<rscale>  0 0.19712542E+04</rscale>
<asrwt>0</asrwt>
<pdfrwt beam="1">  1        1 0.37539753E+00 0.19712542E+04</pdfrwt>
<pdfrwt beam="2">  1       -1 0.61250146E-01 0.19712542E+04</pdfrwt>
<totfact> 0.37491350E+00</totfact>
</mgrwt>
</event>
<event>
12    1  0.2048318E-007  0.2260319E+04  0.7818608E-02  0.8493733E-01
          1   -1    0    0  501    0  0.00000000000E+00  0.00000000000E+00  0.22156724190E+04  0.22156724190E+04  0.00000000000E+00 0. -1.
         -1   -1    0    0    0  501 -0.00000000000E+00 -0.00000000000E+00 -0.57646615741E+03  0.57646615741E+03  0.00000000000E+00 0.  1.
         23    2    1    2    0    0 -0.74546844157E+02  0.89347044854E+03  0.10707222469E+04  0.13993706595E+04  0.89137187776E+02 0.  0.
        254    2    1    2    0    0  0.74546844157E+02 -0.89347044854E+03  0.56848401466E+03  0.13927679169E+04  0.90154407602E+03 0.  0.
        -24    2    4    4    0    0 -0.94589589372E+02 -0.63454866748E+03 -0.97670335817E+02  0.65377492010E+03  0.79265060644E+02 0.  0.
         24    2    4    4    0    0  0.16913643353E+03 -0.25892178106E+03  0.66615435047E+03  0.73899299679E+03  0.81862132801E+02 0.  0.
         11    1    3    3    0    0 -0.90952580563E+02  0.63399605322E+03  0.78277323471E+03  0.10114135180E+04  0.00000000000E+00 0. -1.
        -11    1    3    3    0    0  0.16405736406E+02  0.25947439532E+03  0.28794901221E+03  0.38795714151E+03  0.00000000000E+00 0.  1.
          4    1    6    6  502    0  0.16638822968E+03 -0.23247086385E+03  0.64317093037E+03  0.70384415263E+03  0.00000000000E+00 0. -1.
          1    1    5    5  503    0 -0.95138931986E+02 -0.63333356196E+03 -0.90880691693E+02  0.64685556131E+03  0.00000000000E+00 0. -1.
         -2    1    5    5    0  503  0.54934261476E+00 -0.12151055248E+01 -0.67896441235E+01  0.69193587903E+01  0.00000000000E+00 0.  1.
         -3    1    6    6    0  502  0.27482038490E+01 -0.26450917216E+02  0.22983420101E+02  0.35148844156E+02  0.00000000000E+00 0.  1.
<mgrwt>
<rscale>  0 0.22603187E+04</rscale>
<asrwt>0</asrwt>
<pdfrwt beam="1">  1        1 0.34087268E+00 0.22603187E+04</pdfrwt>
<pdfrwt beam="2">  1       -1 0.88687102E-01 0.22603187E+04</pdfrwt>
<totfact> 0.24049387E+00</totfact>
</mgrwt>
</event>
<event>
12    1  0.2048318E-007  0.2059607E+04  0.7818608E-02  0.8579248E-01
         -1   -1    0    0    0  501 -0.00000000000E+00  0.00000000000E+00  0.12276143588E+04  0.12276143588E+04  0.00000000000E+00 0.  1.
          1   -1    0    0  501    0  0.00000000000E+00 -0.00000000000E+00 -0.86386698087E+03  0.86386698087E+03  0.00000000000E+00 0. -1.
         23    2    1    2    0    0  0.44533540721E+03 -0.27088345644E+03 -0.50870311237E+03  0.73362314666E+03  0.87878284550E+02 0.  0.
        254    2    1    2    0    0 -0.44533540721E+03  0.27088345644E+03  0.87245049032E+03  0.13578581930E+04  0.90050404909E+03 0.  0.
        -24    2    4    4    0    0 -0.75097920115E+02 -0.25935571093E+03  0.57771681911E+03  0.64263554322E+03  0.79489847963E+02 0.  0.
         24    2    4    4    0    0 -0.37023748709E+03  0.53023916737E+03  0.29473367122E+03  0.71522264981E+03  0.80287797255E+02 0.  0.
         13    1    3    3    0    0  0.38833382932E+03 -0.19746393306E+03 -0.41989940211E+03  0.60507080226E+03  0.00000000000E+00 0. -1.
        -13    1    3    3    0    0  0.57001577887E+02 -0.73419523383E+02 -0.88803710262E+02  0.12855234440E+03  0.00000000000E+00 0.  1.
          4    1    6    6  502    0 -0.78461469516E+02  0.16226813753E+03  0.10602203095E+03  0.20911198364E+03  0.00000000000E+00 0. -1.
          1    1    5    5  503    0 -0.36186431791E+02 -0.19846291253E+03  0.35291672288E+03  0.40650608702E+03  0.00000000000E+00 0. -1.
         -2    1    5    5    0  503 -0.38911488324E+02 -0.60892798403E+02  0.22480009623E+03  0.23612945620E+03  0.00000000000E+00 0.  1.
         -3    1    6    6    0  502 -0.29177601758E+03  0.36797102984E+03  0.18871164026E+03  0.50611066617E+03  0.00000000000E+00 0.  1.
<mgrwt>
<rscale>  0 0.20596073E+04</rscale>
<asrwt>0</asrwt>
<pdfrwt beam="1">  1        1 0.13290261E+00 0.20596073E+04</pdfrwt>
<pdfrwt beam="2">  1       -1 0.18886375E+00 0.20596073E+04</pdfrwt>
<totfact> 0.32383104E+00</totfact>
</mgrwt>
</event>
<event>
12    1  0.2048318E-007  0.1552836E+04  0.7818608E-02  0.8850058E-01
         -2   -1    0    0    0  501 -0.00000000000E+00  0.00000000000E+00  0.22211742252E+03  0.22211742252E+03  0.00000000000E+00 0.  1.
          2   -1    0    0  501    0  0.00000000000E+00 -0.00000000000E+00 -0.27139916646E+04  0.27139916646E+04  0.00000000000E+00 0. -1.
         23    2    1    2    0    0  0.12513244109E+03 -0.49268645392E+03 -0.74304960153E+03  0.90476003007E+03  0.89832800186E+02 0.  0.
        254    2    1    2    0    0 -0.12513244109E+03  0.49268645392E+03 -0.17488246405E+04  0.20313490570E+04  0.89977402635E+03 0.  0.
        -24    2    4    4    0    0  0.38296482465E+03  0.20653302171E+03 -0.67620188650E+03  0.80795934911E+03  0.78939043076E+02 0.  0.
         24    2    4    4    0    0 -0.50809726574E+03  0.28615343221E+03 -0.10726227540E+04  0.12233897079E+04  0.78206053333E+02 0.  0.
         11    1    3    3    0    0  0.37489029642E+02 -0.68348685279E+02 -0.16359638707E+03  0.18122016440E+03  0.00000000000E+00 0. -1.
        -11    1    3    3    0    0  0.87643411451E+02 -0.42433776864E+03 -0.57945321445E+03  0.72353986566E+03  0.00000000000E+00 0.  1.
          2    1    6    6  502    0 -0.26598464652E+03  0.10617047975E+03 -0.50344635896E+03  0.57920483364E+03  0.00000000000E+00 0. -1.
          3    1    5    5  503    0  0.46117998412E+02  0.53445624160E+02 -0.13540174994E+03  0.15269884874E+03  0.00000000000E+00 0. -1.
         -4    1    5    5    0  503  0.33684682624E+03  0.15308739755E+03 -0.54080013657E+03  0.65526050037E+03  0.00000000000E+00 0.  1.
         -1    1    6    6    0  502 -0.24211261922E+03  0.17998295246E+03 -0.56917639507E+03  0.64418487429E+03  0.00000000000E+00 0.  1.
<mgrwt>
<rscale>  0 0.15528359E+04</rscale>
<asrwt>0</asrwt>
<pdfrwt beam="1">  1        2 0.41753719E+00 0.15528359E+04</pdfrwt>
<pdfrwt beam="2">  1       -2 0.34171910E-01 0.15528359E+04</pdfrwt>
<totfact> 0.20184104E+01</totfact>
</mgrwt>
</event>
<event>
12    1  0.2410676E-007  0.2077230E+04  0.7818608E-02  0.8571341E-01
         -2   -1    0    0    0  501 -0.00000000000E+00  0.00000000000E+00  0.62374876509E+03  0.62374876509E+03  0.00000000000E+00 0. -1.
          2   -1    0    0  501    0  0.00000000000E+00 -0.00000000000E+00 -0.17294160271E+04  0.17294160271E+04  0.00000000000E+00 0.  1.
         23    2    1    2    0    0  0.50012887172E+03 -0.10470431837E+03 -0.12074467520E+04  0.13142393213E+04  0.90583951014E+02 0.  0.
        254    2    1    2    0    0 -0.50012887172E+03  0.10470431837E+03  0.10177948993E+03  0.10389254709E+04  0.89884102429E+03 0.  0.
        -24    2    4    4    0    0 -0.74555210499E+03  0.64884471362E+02 -0.16783125743E+02  0.75246255200E+03  0.76552485082E+02 0.  0.
         24    2    4    4    0    0  0.24542323327E+03  0.39819847009E+02  0.11856261567E+03  0.28646291892E+03  0.78649389315E+02 0.  0.
         13    1    3    3    0    0  0.24546147325E+03 -0.72032846065E+02 -0.70529719198E+03  0.75025608613E+03  0.00000000000E+00 0.  1.
        -13    1    3    3    0    0  0.25466739847E+03 -0.32671472306E+02 -0.50214955997E+03  0.56398323514E+03  0.00000000000E+00 0. -1.
          4    1    6    6  502    0  0.31844626427E+02 -0.14851810950E+02  0.37958095011E+02  0.51724979436E+02  0.00000000000E+00 0. -1.
          3    1    5    5  503    0 -0.16757347632E+03  0.12963802939E+02 -0.35801791310E+02  0.17184498367E+03  0.00000000000E+00 0. -1.
         -4    1    5    5    0  503 -0.57797862867E+03  0.51920668423E+02  0.19018665567E+02  0.58061756833E+03  0.00000000000E+00 0.  1.
         -3    1    6    6    0  502  0.21357860684E+03  0.54671657959E+02  0.80604520661E+02  0.23473793949E+03  0.00000000000E+00 0.  1.
<mgrwt>
<rscale>  0 0.20772300E+04</rscale>
<asrwt>0</asrwt>
<pdfrwt beam="1">  1        2 0.26606400E+00 0.20772300E+04</pdfrwt>
<pdfrwt beam="2">  1       -2 0.95961350E-01 0.20772300E+04</pdfrwt>
<totfact> 0.79373202E+00</totfact>
</mgrwt>
</event>
<event>
12    1  0.2048318E-007  0.4376106E+04  0.7818608E-02  0.7932693E-01
         -2   -1    0    0    0  501 -0.00000000000E+00  0.00000000000E+00  0.24081267695E+04  0.24081267695E+04  0.00000000000E+00 0. -1.
          2   -1    0    0  501    0  0.00000000000E+00 -0.00000000000E+00 -0.19880914903E+04  0.19880914903E+04  0.00000000000E+00 0.  1.
         23    2    1    2    0    0 -0.50221047225E+03  0.12836346102E+04 -0.13833802795E+04  0.19549759818E+04  0.90867600434E+02 0.  0.
        254    2    1    2    0    0  0.50221047225E+03 -0.12836346102E+04  0.18034155586E+04  0.24412422781E+04  0.89856719964E+03 0.  0.
        -24    2    4    4    0    0  0.18981972592E+03 -0.33021488697E+03  0.12140818482E+04  0.12749144004E+04  0.79615289454E+02 0.  0.
         24    2    4    4    0    0  0.31239074633E+03 -0.95341972321E+03  0.58933371049E+03  0.11663278777E+04  0.80058410103E+02 0.  0.
         11    1    3    3    0    0 -0.43485247899E+03  0.10259803577E+04 -0.11411509145E+04  0.15949789286E+04  0.00000000000E+00 0. -1.
        -11    1    3    3    0    0 -0.67357993260E+02  0.25765425243E+03 -0.24222936496E+03  0.35999705319E+03  0.00000000000E+00 0.  1.
          4    1    6    6  502    0  0.13553619965E+03 -0.35692392202E+03  0.18434877589E+03  0.42396841710E+03  0.00000000000E+00 0. -1.
          3    1    5    5  503    0  0.51298114823E+02 -0.52701482487E+02  0.15896379815E+03  0.17515259622E+03  0.00000000000E+00 0. -1.
         -4    1    5    5    0  503  0.13852161110E+03 -0.27751340448E+03  0.10551180500E+04  0.10997618041E+04  0.00000000000E+00 0.  1.
         -3    1    6    6    0  502  0.17685454668E+03 -0.59649580119E+03  0.40498493460E+03  0.74235946062E+03  0.00000000000E+00 0.  1.
<mgrwt>
<rscale>  0 0.43761062E+04</rscale>
<asrwt>0</asrwt>
<pdfrwt beam="1">  1        2 0.30586023E+00 0.43761062E+04</pdfrwt>
<pdfrwt beam="2">  1       -2 0.37048104E+00 0.43761062E+04</pdfrwt>
<totfact> 0.59844660E-02</totfact>
</mgrwt>
</event>
<event>
12    1  0.2048318E-007  0.1367535E+04  0.7818608E-02  0.8977660E-01
          1   -1    0    0  501    0  0.00000000000E+00  0.00000000000E+00  0.48537869244E+03  0.48537869244E+03  0.00000000000E+00 0. -1.
         -1   -1    0    0    0  501 -0.00000000000E+00 -0.00000000000E+00 -0.96324314354E+03  0.96324314354E+03  0.00000000000E+00 0.  1.
         23    2    1    2    0    0  0.28672858029E+03  0.37921151059E+02  0.12501917429E+03  0.32759519625E+03  0.89652251594E+02 0.  0.
        254    2    1    2    0    0 -0.28672858029E+03 -0.37921151059E+02 -0.60288362539E+03  0.11210266397E+04  0.89976706360E+03 0.  0.
        -24    2    4    4    0    0  0.86408912310E+01  0.17752531131E+03 -0.70651093445E+03  0.73268300454E+03  0.77953726596E+02 0.  0.
         24    2    4    4    0    0 -0.29536947152E+03 -0.21544646237E+03  0.10362730906E+03  0.38834363518E+03  0.80074071618E+02 0.  0.
         13    1    3    3    0    0  0.27961246915E+03  0.16357943487E+02  0.11519900715E+03  0.30285561984E+03  0.00000000000E+00 0. -1.
        -13    1    3    3    0    0  0.71161111396E+01  0.21563207572E+02  0.98201671365E+01  0.24739576414E+02  0.00000000000E+00 0.  1.
          2    1    6    6  502    0 -0.21462003624E+03 -0.18767474321E+03  0.55940918944E+02  0.29053907759E+03  0.00000000000E+00 0. -1.
          1    1    5    5  503    0 -0.56115964375E+01  0.13538206470E+03 -0.38583339829E+03  0.40893423028E+03  0.00000000000E+00 0. -1.
         -2    1    5    5    0  503  0.14252487668E+02  0.42143246611E+02 -0.32067753616E+03  0.32374877426E+03  0.00000000000E+00 0.  1.
         -3    1    6    6    0  502 -0.80749435275E+02 -0.27771719169E+02  0.47686390114E+02  0.97804557588E+02  0.00000000000E+00 0.  1.
<mgrwt>
<rscale>  0 0.13675346E+04</rscale>
<asrwt>0</asrwt>
<pdfrwt beam="1">  1        1 0.74673646E-01 0.13675346E+04</pdfrwt>
<pdfrwt beam="2">  1       -1 0.14819125E+00 0.13675346E+04</pdfrwt>
<totfact> 0.16272529E+01</totfact>
</mgrwt>
</event>
<event>
12    1  0.2048318E-007  0.1805173E+04  0.7818608E-02  0.8703553E-01
         -3   -1    0    0    0  501 -0.00000000000E+00  0.00000000000E+00  0.57027913961E+03  0.57027913961E+03  0.00000000000E+00 0.  1.
          3   -1    0    0  501    0  0.00000000000E+00 -0.00000000000E+00 -0.14285331200E+04  0.14285331200E+04  0.00000000000E+00 0. -1.
         23    2    1    2    0    0  0.75814298530E+02  0.50177227010E+03  0.16859317879E+03  0.54283569912E+03  0.93400842620E+02 0.  0.
        254    2    1    2    0    0 -0.75814298530E+02 -0.50177227010E+03 -0.10268471592E+04  0.14559765605E+04  0.89884895145E+03 0.  0.
        -24    2    4    4    0    0  0.25080803070E+03 -0.53863086948E+03 -0.92595077509E+03  0.11033035973E+04  0.82861981950E+02 0.  0.
         24    2    4    4    0    0 -0.32662232923E+03  0.36858599384E+02 -0.10089638411E+03  0.35267296324E+03  0.78469333963E+02 0.  0.
         11    1    3    3    0    0  0.28776645820E+02  0.41810212187E+03  0.14958081383E+03  0.44498528012E+03  0.00000000000E+00 0. -1.
        -11    1    3    3    0    0  0.47037652710E+02  0.83670148227E+02  0.19012364961E+02  0.97850418999E+02  0.00000000000E+00 0.  1.
          4    1    6    6  502    0 -0.31268436163E+03  0.29931534046E+02 -0.75780676620E+02  0.32312554478E+03  0.00000000000E+00 0. -1.
          1    1    5    5  503    0  0.89499592420E+02 -0.15686890163E+03 -0.34854043928E+03  0.39255377613E+03  0.00000000000E+00 0. -1.
         -2    1    5    5    0  503  0.16130843828E+03 -0.38176196785E+03 -0.57741033581E+03  0.71074982115E+03  0.00000000000E+00 0.  1.
         -3    1    6    6    0  502 -0.13937967597E+02  0.69270653383E+01 -0.25115707488E+02  0.29547418458E+02  0.00000000000E+00 0.  1.
<mgrwt>
<rscale>  0 0.18051733E+04</rscale>
<asrwt>0</asrwt>
<pdfrwt beam="1">  1        3 0.21977432E+00 0.18051733E+04</pdfrwt>
<pdfrwt beam="2">  1       -3 0.87735253E-01 0.18051733E+04</pdfrwt>
<totfact> 0.32451743E-01</totfact>
</mgrwt>
</event>
<event>
12    1  0.2048318E-007  0.2584320E+04  0.7818608E-02  0.8373547E-01
         -1   -1    0    0    0  501 -0.00000000000E+00  0.00000000000E+00  0.65437951041E+03  0.65437951041E+03  0.00000000000E+00 0.  1.
          1   -1    0    0  501    0  0.00000000000E+00 -0.00000000000E+00 -0.25515426890E+04  0.25515426890E+04  0.00000000000E+00 0. -1.
         23    2    1    2    0    0 -0.46826195295E+03 -0.10312605540E+04 -0.89410433113E+03  0.14458885473E+04  0.91670876292E+02 0.  0.
        254    2    1    2    0    0  0.46826195295E+03  0.10312605540E+04 -0.10030588475E+04  0.17600336521E+04  0.89934632829E+03 0.  0.
        -24    2    4    4    0    0  0.29640596514E+03  0.40691197371E+03  0.59746961206E+02  0.51305992601E+03  0.78910948399E+02 0.  0.
         24    2    4    4    0    0  0.17185598781E+03  0.62434858028E+03 -0.10628058087E+04  0.12469737261E+04  0.77728092389E+02 0.  0.
         13    1    3    3    0    0 -0.16290867265E+03 -0.44322351501E+03 -0.40874771033E+03  0.62454864549E+03  0.00000000000E+00 0.  1.
        -13    1    3    3    0    0 -0.30535328030E+03 -0.58803703898E+03 -0.48535662080E+03  0.82133990185E+03  0.00000000000E+00 0. -1.
          4    1    6    6  502    0  0.20345372147E+02  0.50270057770E+02 -0.54764253417E+02  0.77072279895E+02  0.00000000000E+00 0. -1.
          1    1    5    5  503    0  0.99174624166E+02  0.19423244822E+03  0.66807491908E+01  0.21818909787E+03  0.00000000000E+00 0. -1.
         -2    1    5    5    0  503  0.19723134098E+03  0.21267952549E+03  0.53066212016E+02  0.29487082813E+03  0.00000000000E+00 0.  1.
         -3    1    6    6    0  502  0.15151061566E+03  0.57407852251E+03 -0.10080415553E+04  0.11699014462E+04  0.00000000000E+00 0.  1.
<mgrwt>
<rscale>  0 0.25843198E+04</rscale>
<asrwt>0</asrwt>
<pdfrwt beam="1">  1        1 0.39254502E+00 0.25843198E+04</pdfrwt>
<pdfrwt beam="2">  1       -1 0.10067377E+00 0.25843198E+04</pdfrwt>
<totfact> 0.10320925E+00</totfact>
</mgrwt>
</event>
<event>
12    1  0.2048318E-007  0.4141036E+04  0.7818608E-02  0.7976684E-01
          2   -1    0    0  501    0  0.00000000000E+00  0.00000000000E+00  0.20964814181E+04  0.20964814181E+04  0.00000000000E+00 0. -1.
         -2   -1    0    0    0  501 -0.00000000000E+00 -0.00000000000E+00 -0.20448761372E+04  0.20448761372E+04  0.00000000000E+00 0.  1.
         23    2    1    2    0    0  0.17719024706E+04 -0.59651746841E+03  0.65073497062E+03  0.19816807562E+04  0.90172955676E+02 0.  0.
        254    2    1    2    0    0 -0.17719024706E+04  0.59651746841E+03 -0.59912968968E+03  0.21596767991E+04  0.89987556693E+03 0.  0.
        -24    2    4    4    0    0 -0.16316287043E+04  0.78878158681E+03 -0.59301435744E+03  0.19085271363E+04  0.80132274571E+02 0.  0.
         24    2    4    4    0    0 -0.14027376629E+03 -0.19226411840E+03 -0.61153322452E+01  0.25114966277E+03  0.79978341371E+02 0.  0.
         11    1    3    3    0    0  0.10713383654E+04 -0.31444602887E+03  0.39467485520E+03  0.11842341152E+04  0.00000000000E+00 0. -1.
        -11    1    3    3    0    0  0.70056410522E+03 -0.28207143953E+03  0.25606011542E+03  0.79744664100E+03  0.00000000000E+00 0.  1.
          2    1    6    6  502    0 -0.26856381345E+02 -0.10008949783E+03  0.10014842801E+02  0.10411277478E+03  0.00000000000E+00 0. -1.
          1    1    5    5  503    0 -0.33889492885E+03  0.12978532348E+03 -0.12848688966E+03  0.38497127660E+03  0.00000000000E+00 0. -1.
         -2    1    5    5    0  503 -0.12927337755E+04  0.65899626333E+03 -0.46452746778E+03  0.15235558597E+04  0.00000000000E+00 0.  1.
         -1    1    6    6    0  502 -0.11341738494E+03 -0.92174620571E+02 -0.16130175046E+02  0.14703688800E+03  0.00000000000E+00 0.  1.
<mgrwt>
<rscale>  0 0.41410360E+04</rscale>
<asrwt>0</asrwt>
<pdfrwt beam="1">  1        2 0.32253560E+00 0.41410360E+04</pdfrwt>
<pdfrwt beam="2">  1       -2 0.31459633E+00 0.41410360E+04</pdfrwt>
<totfact> 0.11902844E-01</totfact>
</mgrwt>
</event>
<event>
12    1  0.2048318E-007  0.1181255E+04  0.7818608E-02  0.9129424E-01
         -2   -1    0    0    0  501 -0.00000000000E+00  0.00000000000E+00  0.64368236536E+03  0.64368236536E+03  0.00000000000E+00 0. -1.
          2   -1    0    0  501    0  0.00000000000E+00 -0.00000000000E+00 -0.54194533865E+03  0.54194533865E+03  0.00000000000E+00 0.  1.
         23    2    1    2    0    0  0.97954372398E+02  0.19715256746E+03 -0.61469498032E+02  0.24618208761E+03  0.91449041250E+02 0.  0.
        254    2    1    2    0    0 -0.97954372398E+02 -0.19715256746E+03  0.16320652474E+03  0.93944561640E+03  0.89858639124E+03 0.  0.
        -24    2    4    4    0    0 -0.65649143922E+02 -0.15276509867E+03  0.52946811082E+03  0.56069521193E+03  0.79972838134E+02 0.  0.
         24    2    4    4    0    0 -0.32305228476E+02 -0.44387468789E+02 -0.36626158607E+03  0.37875040447E+03  0.79312321136E+02 0.  0.
         13    1    3    3    0    0  0.77521088019E+02  0.62224897513E+02 -0.43615316788E+02  0.10855299543E+03  0.00000000000E+00 0.  1.
        -13    1    3    3    0    0  0.20433284379E+02  0.13492766994E+03 -0.17854181244E+02  0.13762909218E+03  0.00000000000E+00 0. -1.
          4    1    6    6  502    0 -0.31737618841E+02  0.15848861543E+02 -0.11377327175E+03  0.11917558570E+03  0.00000000000E+00 0. -1.
          1    1    5    5  503    0 -0.19459225681E+01  0.95868071026E+01  0.36417434592E+02  0.37708394653E+02  0.00000000000E+00 0. -1.
         -2    1    5    5    0  503 -0.63703221354E+02 -0.16235190577E+03  0.49305067622E+03  0.52298681727E+03  0.00000000000E+00 0.  1.
         -3    1    6    6    0  502 -0.56760963507E+00 -0.60236330332E+02 -0.25248831432E+03  0.25957481878E+03  0.00000000000E+00 0.  1.
<mgrwt>
<rscale>  0 0.11812547E+04</rscale>
<asrwt>0</asrwt>
<pdfrwt beam="1">  1        2 0.83376206E-01 0.11812547E+04</pdfrwt>
<pdfrwt beam="2">  1       -2 0.99028056E-01 0.11812547E+04</pdfrwt>
<totfact> 0.46797951E+01</totfact>
</mgrwt>
</event>
<event>
12    1  0.2048318E-007  0.3049870E+04  0.7818608E-02  0.8229632E-01
         -2   -1    0    0    0  501 -0.00000000000E+00  0.00000000000E+00  0.11243592135E+04  0.11243592135E+04  0.00000000000E+00 0.  1.
          2   -1    0    0  501    0  0.00000000000E+00 -0.00000000000E+00 -0.20682242053E+04  0.20682242053E+04  0.00000000000E+00 0. -1.
         23    2    1    2    0    0 -0.22316416120E+03 -0.80761547845E+03  0.72955886616E+03  0.11144524632E+04  0.87767589149E+02 0.  0.
        254    2    1    2    0    0  0.22316416120E+03  0.80761547845E+03 -0.16734238580E+04  0.20781309556E+04  0.90345772228E+03 0.  0.
        -24    2    4    4    0    0 -0.49571659724E+02  0.69072848388E+03 -0.48174491742E+03  0.84742712718E+03  0.80569116568E+02 0.  0.
         24    2    4    4    0    0  0.27273582092E+03  0.11688699458E+03 -0.11916789406E+04  0.12307038284E+04  0.80534577459E+02 0.  0.
         13    1    3    3    0    0 -0.13446153141E+03 -0.32545632961E+03  0.29759156456E+03  0.46104497092E+03  0.00000000000E+00 0.  1.
        -13    1    3    3    0    0 -0.88702629791E+02 -0.48215914885E+03  0.43196730159E+03  0.65340749230E+03  0.00000000000E+00 0. -1.
          4    1    6    6  502    0  0.22238889239E+03  0.81623045522E+02 -0.10477778954E+04  0.10742242127E+04  0.00000000000E+00 0. -1.
          3    1    5    5  503    0 -0.35059219017E+02  0.53813982043E+03 -0.33280660121E+03  0.63370643754E+03  0.00000000000E+00 0. -1.
         -4    1    5    5    0  503 -0.14512440706E+02  0.15258866345E+03 -0.14893831621E+03  0.21372068964E+03  0.00000000000E+00 0.  1.
         -3    1    6    6    0  502  0.50346928529E+02  0.35263949056E+02 -0.14390104522E+03  0.15647961570E+03  0.00000000000E+00 0.  1.
<mgrwt>
<rscale>  0 0.30498701E+04</rscale>
<asrwt>0</asrwt>
<pdfrwt beam="1">  1        2 0.31818834E+00 0.30498701E+04</pdfrwt>
<pdfrwt beam="2">  1       -2 0.17297834E+00 0.30498701E+04</pdfrwt>
<totfact> 0.10595230E+00</totfact>
</mgrwt>
</event>
<event>
12    1  0.2048318E-007  0.3491489E+04  0.7818608E-02  0.8115810E-01
         -1   -1    0    0    0  501 -0.00000000000E+00  0.00000000000E+00  0.18112728346E+04  0.18112728346E+04  0.00000000000E+00 0.  1.
          1   -1    0    0  501    0  0.00000000000E+00 -0.00000000000E+00 -0.16825866359E+04  0.16825866359E+04  0.00000000000E+00 0. -1.
         23    2    1    2    0    0  0.84237905775E+03  0.12995085707E+04 -0.44361466431E+03  0.16139513340E+04  0.98589735381E+02 0.  0.
        254    2    1    2    0    0 -0.84237905775E+03 -0.12995085707E+04  0.57230086295E+03  0.18799081364E+04  0.89900017876E+03 0.  0.
        -24    2    4    4    0    0 -0.10239150270E+04 -0.10151115717E+04  0.46090073985E+03  0.15158153650E+04  0.80082727530E+02 0.  0.
         24    2    4    4    0    0  0.18153596930E+03 -0.28439699900E+03  0.11140012310E+03  0.36409277140E+03  0.79477025427E+02 0.  0.
         11    1    3    3    0    0  0.11537534638E+03  0.20632947656E+03 -0.10144531280E+03  0.25724399884E+03  0.00000000000E+00 0. -1.
        -11    1    3    3    0    0  0.72700371137E+03  0.10931790942E+04 -0.34216935151E+03  0.13567073352E+04  0.00000000000E+00 0.  1.
          2    1    6    6  502    0  0.91808906594E+02 -0.13749864974E+03  0.13057416661E+02  0.16584706853E+03  0.00000000000E+00 0. -1.
          1    1    5    5  503    0 -0.82110905123E+03 -0.78915822723E+03  0.33477424697E+03  0.11870402597E+04  0.00000000000E+00 0. -1.
         -2    1    5    5    0  503 -0.20280597581E+03 -0.22595334450E+03  0.12612649287E+03  0.32877510539E+03  0.00000000000E+00 0.  1.
         -1    1    6    6    0  502  0.89727062703E+02 -0.14689834926E+03  0.98342706441E+02  0.19824570287E+03  0.00000000000E+00 0.  1.
<mgrwt>
<rscale>  0 0.34914888E+04</rscale>
<asrwt>0</asrwt>
<pdfrwt beam="1">  1        1 0.25885948E+00 0.34914888E+04</pdfrwt>
<pdfrwt beam="2">  1       -1 0.27865736E+00 0.34914888E+04</pdfrwt>
<totfact> 0.18158091E-01</totfact>
</mgrwt>
</event>
<event>
12    1  0.2048318E-007  0.1659442E+04  0.7818608E-02  0.8784840E-01
         -1   -1    0    0    0  501 -0.00000000000E+00  0.00000000000E+00  0.88449160656E+03  0.88449160656E+03  0.00000000000E+00 0.  1.
          1   -1    0    0  501    0  0.00000000000E+00 -0.00000000000E+00 -0.77834236797E+03  0.77834236797E+03  0.00000000000E+00 0. -1.
         23    2    1    2    0    0  0.83883788999E+02 -0.41270606207E+03 -0.36471054719E+03  0.56336594569E+03  0.83693618636E+02 0.  0.
        254    2    1    2    0    0 -0.83883788999E+02  0.41270606207E+03  0.47085978577E+03  0.10994680288E+04  0.89986567045E+03 0.  0.
        -24    2    4    4    0    0  0.40439540435E+01  0.28264591776E+03  0.72953355252E+03  0.78649593783E+03  0.80321775269E+02 0.  0.
         24    2    4    4    0    0 -0.87927743043E+02  0.13006014432E+03 -0.25867376675E+03  0.31297209101E+03  0.79953005030E+02 0.  0.
         13    1    3    3    0    0  0.19023917277E+02 -0.28906248182E+03 -0.25082856577E+03  0.38318924467E+03  0.00000000000E+00 0.  1.
        -13    1    3    3    0    0  0.64859871722E+02 -0.12364358026E+03 -0.11388198142E+03  0.18017670102E+03  0.00000000000E+00 0. -1.
          2    1    6    6  502    0 -0.85891632598E+02  0.56987935055E+02 -0.15063526699E+03  0.18252665820E+03  0.00000000000E+00 0. -1.
          1    1    5    5  503    0  0.18967333391E+02  0.27614857077E+03  0.70060455157E+03  0.75330241640E+03  0.00000000000E+00 0. -1.
         -2    1    5    5    0  503 -0.14923379347E+02  0.64973469928E+01  0.28929000948E+02  0.33193521430E+02  0.00000000000E+00 0.  1.
         -1    1    6    6    0  502 -0.20361104446E+01  0.73072209261E+02 -0.10803849976E+03  0.13044543281E+03  0.00000000000E+00 0.  1.
<mgrwt>
<rscale>  0 0.16594424E+04</rscale>
<asrwt>0</asrwt>
<pdfrwt beam="1">  1        1 0.11974498E+00 0.16594424E+04</pdfrwt>
<pdfrwt beam="2">  1       -1 0.13607563E+00 0.16594424E+04</pdfrwt>
<totfact> 0.99573065E+00</totfact>
</mgrwt>
</event>
<event>
12    1  0.2048318E-007  0.2318126E+04  0.7818608E-02  0.8470808E-01
         -1   -1    0    0    0  501 -0.00000000000E+00  0.00000000000E+00  0.11669556781E+04  0.11669556781E+04  0.00000000000E+00 0.  1.
          1   -1    0    0  501    0  0.00000000000E+00 -0.00000000000E+00 -0.11512238190E+04  0.11512238190E+04  0.00000000000E+00 0. -1.
         23    2    1    2    0    0  0.12564828740E+03 -0.86801763423E+03  0.44976754014E+03  0.98854548562E+03  0.75426994701E+02 0.  0.
        254    2    1    2    0    0 -0.12564828740E+03  0.86801763423E+03 -0.43403568107E+03  0.13296340115E+04  0.90016527743E+03 0.  0.
        -24    2    4    4    0    0  0.10296948964E+03  0.25285857525E+03 -0.58603796367E+03  0.65129422192E+03  0.78762261098E+02 0.  0.
         24    2    4    4    0    0 -0.22861777704E+03  0.61515905897E+03  0.15200228259E+03  0.67833978960E+03  0.79708345972E+02 0.  0.
         11    1    3    3    0    0  0.29307994210E+01 -0.15420420004E+03  0.10352171188E+03  0.18575324957E+03  0.00000000000E+00 0.  1.
        -11    1    3    3    0    0  0.12271748798E+03 -0.71381343419E+03  0.34624582826E+03  0.80279223606E+03  0.00000000000E+00 0. -1.
          2    1    6    6  502    0 -0.16131309677E+03  0.40817420060E+03  0.13866783200E+03  0.46027911191E+03  0.00000000000E+00 0. -1.
          1    1    5    5  503    0  0.32223672823E+01  0.77520727092E+02 -0.11334482670E+03  0.13735682189E+03  0.00000000000E+00 0. -1.
         -2    1    5    5    0  503  0.99747122362E+02  0.17533784816E+03 -0.47269313696E+03  0.51393740003E+03  0.00000000000E+00 0.  1.
         -1    1    6    6    0  502 -0.67304680274E+02  0.20698485837E+03  0.13334450599E+02  0.21806067769E+03  0.00000000000E+00 0.  1.
<mgrwt>
<rscale>  0 0.23181261E+04</rscale>
<asrwt>0</asrwt>
<pdfrwt beam="1">  1        1 0.17711136E+00 0.23181261E+04</pdfrwt>
<pdfrwt beam="2">  1       -1 0.17953164E+00 0.23181261E+04</pdfrwt>
<totfact> 0.21972332E+00</totfact>
</mgrwt>
</event>
<event>
12    1  0.2048318E-007  0.1935704E+04  0.7818608E-02  0.8637285E-01
          2   -1    0    0  501    0  0.00000000000E+00  0.00000000000E+00  0.25959491315E+04  0.25959491315E+04  0.00000000000E+00 0. -1.
         -2   -1    0    0    0  501 -0.00000000000E+00 -0.00000000000E+00 -0.36084593548E+03  0.36084593548E+03  0.00000000000E+00 0.  1.
         23    2    1    2    0    0  0.51240858723E+03  0.48993904479E+03  0.48252299963E+03  0.86226766352E+03  0.89856833428E+02 0.  0.
        254    2    1    2    0    0 -0.51240858723E+03 -0.48993904479E+03  0.17525801964E+04  0.20945274035E+04  0.90161237302E+03 0.  0.
        -24    2    4    4    0    0 -0.66067771731E+03 -0.89514431618E+02  0.77879262742E+03  0.10284102808E+04  0.81251888730E+02 0.  0.
         24    2    4    4    0    0  0.14826913008E+03 -0.40042461317E+03  0.97378756897E+03  0.10661171227E+04  0.77587911875E+02 0.  0.
         13    1    3    3    0    0  0.39438752944E+03  0.32090693947E+03  0.34145805984E+03  0.61246746347E+03  0.00000000000E+00 0. -1.
        -13    1    3    3    0    0  0.11802105779E+03  0.16903210532E+03  0.14106493979E+03  0.24980020006E+03  0.00000000000E+00 0.  1.
          4    1    6    6  502    0  0.22644066800E+02 -0.13296560464E+03  0.24443490564E+03  0.27917920566E+03  0.00000000000E+00 0. -1.
          3    1    5    5  503    0 -0.54774627392E+03 -0.48785607222E+02  0.61005529540E+03  0.82132422313E+03  0.00000000000E+00 0. -1.
         -4    1    5    5    0  503 -0.11293144339E+03 -0.40728824396E+02  0.16873733203E+03  0.20708605762E+03  0.00000000000E+00 0.  1.
         -3    1    6    6    0  502  0.12562506328E+03 -0.26745900853E+03  0.72935266333E+03  0.78693791704E+03  0.00000000000E+00 0.  1.
<mgrwt>
<rscale>  0 0.19357042E+04</rscale>
<asrwt>0</asrwt>
<pdfrwt beam="1">  1        2 0.39937678E+00 0.19357042E+04</pdfrwt>
<pdfrwt beam="2">  1       -2 0.55514761E-01 0.19357042E+04</pdfrwt>
<totfact> 0.87225312E+00</totfact>
</mgrwt>
</event>
<event>
12    1  0.2048318E-007  0.3733957E+04  0.7818608E-02  0.8060478E-01
          2   -1    0    0  501    0  0.00000000000E+00  0.00000000000E+00  0.15380454732E+04  0.15380454732E+04  0.00000000000E+00 0. -1.
         -2   -1    0    0    0  501 -0.00000000000E+00 -0.00000000000E+00 -0.22662583214E+04  0.22662583214E+04  0.00000000000E+00 0.  1.
         23    2    1    2    0    0  0.10867898083E+04 -0.13801341370E+04 -0.29493108864E+03  0.17835886986E+04  0.91224859978E+02 0.  0.
        254    2    1    2    0    0 -0.10867898083E+04  0.13801341370E+04 -0.43328175949E+03  0.20207150961E+04  0.89981892222E+03 0.  0.
        -24    2    4    4    0    0 -0.10171607736E+04  0.76932927718E+03 -0.54539951070E+03  0.13893584959E+04  0.79829993531E+02 0.  0.
         24    2    4    4    0    0 -0.69629034730E+02  0.61080485979E+03  0.11211775121E+03  0.63135660012E+03  0.90055467118E+02 0.  0.
         13    1    3    3    0    0  0.72905592583E+03 -0.99010142931E+03 -0.21936585099E+03  0.12489774857E+04  0.00000000000E+00 0.  1.
        -13    1    3    3    0    0  0.35773388251E+03 -0.39003270766E+03 -0.75565237654E+02  0.53461121283E+03  0.00000000000E+00 0. -1.
          2    1    6    6  502    0 -0.53745842477E+02  0.19382013714E+03  0.80823841215E+01  0.20129626444E+03  0.00000000000E+00 0. -1.
          3    1    5    5  503    0 -0.65756429844E+03  0.45677624572E+03 -0.36473846589E+03  0.87981219231E+03  0.00000000000E+00 0. -1.
         -4    1    5    5    0  503 -0.35959647517E+03  0.31255303146E+03 -0.18066104481E+03  0.50954630363E+03  0.00000000000E+00 0.  1.
         -1    1    6    6    0  502 -0.15883192253E+02  0.41698472265E+03  0.10403536709E+03  0.43006033568E+03  0.00000000000E+00 0.  1.
<mgrwt>
<rscale>  0 0.37339568E+04</rscale>
<asrwt>0</asrwt>
<pdfrwt beam="1">  1        2 0.23662238E+00 0.37339568E+04</pdfrwt>
<pdfrwt beam="2">  1       -2 0.34865513E+00 0.37339568E+04</pdfrwt>
<totfact> 0.15446532E-01</totfact>
</mgrwt>
</event>
<event>
12    1  0.2048318E-007  0.2514031E+04  0.7818608E-02  0.8398004E-01
         -2   -1    0    0    0  501 -0.00000000000E+00  0.00000000000E+00  0.58253974259E+03  0.58253974259E+03  0.00000000000E+00 0.  1.
          2   -1    0    0  501    0  0.00000000000E+00 -0.00000000000E+00 -0.27124116198E+04  0.27124116198E+04  0.00000000000E+00 0. -1.
         23    2    1    2    0    0 -0.84836780919E+03  0.40544199342E+03 -0.16605644738E+04  0.19102633090E+04  0.86720173347E+02 0.  0.
        254    2    1    2    0    0  0.84836780919E+03 -0.40544199342E+03 -0.46930740341E+03  0.13846880534E+04  0.90166535729E+03 0.  0.
        -24    2    4    4    0    0  0.71882747826E+02 -0.11654726080E+03  0.24244628003E+03  0.28959223676E+03  0.79580597213E+02 0.  0.
         24    2    4    4    0    0  0.77648506137E+03 -0.28889473262E+03 -0.71175368345E+03  0.10950958166E+04  0.79071642168E+02 0.  0.
         11    1    3    3    0    0 -0.60472426958E+03  0.32061438228E+03 -0.12573594255E+04  0.14315857464E+04  0.00000000000E+00 0. -1.
        -11    1    3    3    0    0 -0.24364353962E+03  0.84827611136E+02 -0.40320504830E+03  0.47867756265E+03  0.00000000000E+00 0.  1.
          2    1    6    6  502    0  0.38980893058E+03 -0.10286802360E+03 -0.34508500161E+03  0.53067550440E+03  0.00000000000E+00 0. -1.
          1    1    5    5  503    0  0.14546637341E+02 -0.65394297784E+02  0.53878623180E+02  0.85970488404E+02  0.00000000000E+00 0. -1.
         -2    1    5    5    0  503  0.57336110485E+02 -0.51152963012E+02  0.18856765685E+03  0.20362174835E+03  0.00000000000E+00 0.  1.
         -1    1    6    6    0  502  0.38667613079E+03 -0.18602670903E+03 -0.36666868184E+03  0.56442031221E+03  0.00000000000E+00 0.  1.
<mgrwt>
<rscale>  0 0.25140307E+04</rscale>
<asrwt>0</asrwt>
<pdfrwt beam="1">  1        2 0.41729410E+00 0.25140307E+04</pdfrwt>
<pdfrwt beam="2">  1       -2 0.89621498E-01 0.25140307E+04</pdfrwt>
<totfact> 0.24814973E+00</totfact>
</mgrwt>
</event>
<event>
12    1  0.2048318E-007  0.4230161E+04  0.7818608E-02  0.7959660E-01
         -1   -1    0    0    0  501 -0.00000000000E+00  0.00000000000E+00  0.12557974593E+04  0.12557974593E+04  0.00000000000E+00 0.  1.
          1   -1    0    0  501    0  0.00000000000E+00 -0.00000000000E+00 -0.35623304131E+04  0.35623304131E+04  0.00000000000E+00 0. -1.
         23    2    1    2    0    0 -0.15101569977E+04 -0.11566071984E+03  0.41743762869E+03  0.15736804607E+04  0.90909069325E+02 0.  0.
        254    2    1    2    0    0  0.15101569977E+04  0.11566071984E+03 -0.27239705826E+04  0.32444474117E+04  0.90137212761E+03 0.  0.
        -24    2    4    4    0    0  0.28280434724E+03 -0.32582524650E+03 -0.89143095673E+03  0.99369198314E+03  0.81450700765E+02 0.  0.
         24    2    4    4    0    0  0.12273526505E+04  0.44148596634E+03 -0.18325396258E+04  0.22507554285E+04  0.79963314384E+02 0.  0.
         11    1    3    3    0    0 -0.66013454425E+03 -0.93109857217E+01  0.20082554159E+03  0.69006898867E+03  0.00000000000E+00 0.  1.
        -11    1    3    3    0    0 -0.85002245345E+03 -0.10634973412E+03  0.21661208709E+03  0.88361147208E+03  0.00000000000E+00 0. -1.
          2    1    6    6  502    0  0.85327565047E+03  0.32179771042E+03 -0.13381323065E+04  0.16193304703E+04  0.00000000000E+00 0. -1.
          3    1    5    5  503    0  0.28406360791E+03 -0.30281286151E+03 -0.82943086207E+03  0.92754693541E+03  0.00000000000E+00 0. -1.
         -4    1    5    5    0  503 -0.12592606762E+01 -0.23012384991E+02 -0.62000094662E+02  0.66145047725E+02  0.00000000000E+00 0.  1.
         -1    1    6    6    0  502  0.37407699998E+03  0.11968825592E+03 -0.49440731932E+03  0.63142495826E+03  0.00000000000E+00 0.  1.
<mgrwt>
<rscale>  0 0.42301610E+04</rscale>
<asrwt>0</asrwt>
<pdfrwt beam="1">  1        1 0.54805083E+00 0.42301610E+04</pdfrwt>
<pdfrwt beam="2">  1       -1 0.19319961E+00 0.42301610E+04</pdfrwt>
<totfact> 0.28693579E-02</totfact>
</mgrwt>
</event>
<event>
12    1  0.2048318E-007  0.2924229E+04  0.7818608E-02  0.8265705E-01
         -1   -1    0    0    0  501 -0.00000000000E+00  0.00000000000E+00  0.11022059922E+04  0.11022059922E+04  0.00000000000E+00 0.  1.
          1   -1    0    0  501    0  0.00000000000E+00 -0.00000000000E+00 -0.19395455127E+04  0.19395455127E+04  0.00000000000E+00 0. -1.
         23    2    1    2    0    0  0.14505830519E+03 -0.13138592265E+04 -0.35549703373E+03  0.13719517961E+04  0.92766431610E+02 0.  0.
        254    2    1    2    0    0 -0.14505830519E+03  0.13138592265E+04 -0.48184248682E+03  0.16697997088E+04  0.89932803039E+03 0.  0.
        -24    2    4    4    0    0 -0.11120337373E+02  0.13310587726E+04 -0.20147428784E+03  0.13486267897E+04  0.79757201476E+02 0.  0.
         24    2    4    4    0    0 -0.13393796782E+03 -0.17199546096E+02 -0.28036819898E+03  0.32117291905E+03  0.79438739411E+02 0.  0.
         13    1    3    3    0    0 -0.82981407143E+01 -0.24877807367E+03 -0.59827146688E+02  0.25600522760E+03  0.00000000000E+00 0. -1.
        -13    1    3    3    0    0  0.15335644590E+03 -0.10650811529E+04 -0.29566988704E+03  0.11159465685E+04  0.00000000000E+00 0.  1.
          2    1    6    6  502    0 -0.89372401207E+02 -0.20706017119E+02 -0.25212078088E+03  0.26829285006E+03  0.00000000000E+00 0. -1.
          1    1    5    5  503    0 -0.86497692714E+01  0.12993022402E+04 -0.18399612893E+03  0.13122940621E+04  0.00000000000E+00 0. -1.
         -2    1    5    5    0  503 -0.24705681017E+01  0.31756532394E+02 -0.17478158913E+02  0.36332727608E+02  0.00000000000E+00 0.  1.
         -1    1    6    6    0  502 -0.44565566610E+02  0.35064710233E+01 -0.28247418101E+02  0.52880068983E+02  0.00000000000E+00 0.  1.
<mgrwt>
<rscale>  0 0.29242289E+04</rscale>
<asrwt>0</asrwt>
<pdfrwt beam="1">  1        1 0.29839162E+00 0.29242289E+04</pdfrwt>
<pdfrwt beam="2">  1       -1 0.16957015E+00 0.29242289E+04</pdfrwt>
<totfact> 0.69538451E-01</totfact>
</mgrwt>
</event>
<event>
12    1  0.2048318E-007  0.5740447E+04  0.7818608E-02  0.7723443E-01
          2   -1    0    0  501    0  0.00000000000E+00  0.00000000000E+00  0.43319032172E+04  0.43319032172E+04  0.00000000000E+00 0.  1.
         -2   -1    0    0    0  501 -0.00000000000E+00 -0.00000000000E+00 -0.19017469529E+04  0.19017469529E+04  0.00000000000E+00 0. -1.
         23    2    1    2    0    0 -0.21345333216E+04  0.17988962879E+04  0.14069871355E+04  0.31272931584E+04  0.89940778248E+02 0.  0.
        254    2    1    2    0    0  0.21345333216E+04 -0.17988962879E+04  0.10231691288E+04  0.31063570116E+04  0.90017690575E+03 0.  0.
        -24    2    4    4    0    0  0.97980331994E+02 -0.22678598326E+03 -0.12538228972E+03  0.28773780643E+03  0.77719360610E+02 0.  0.
         24    2    4    4    0    0  0.20365529896E+04 -0.15721103047E+04  0.11485514186E+04  0.28186192052E+04  0.79780782459E+02 0.  0.
         11    1    3    3    0    0 -0.12546554179E+04  0.10009216063E+04  0.79661541101E+03  0.17918148321E+04  0.00000000000E+00 0. -1.
        -11    1    3    3    0    0 -0.87987790371E+03  0.79797468170E+03  0.61037172448E+03  0.13354783263E+04  0.00000000000E+00 0.  1.
          4    1    6    6  502    0  0.19191969214E+04 -0.14977578848E+04  0.11001460171E+04  0.26715008447E+04  0.00000000000E+00 0. -1.
          1    1    5    5  503    0  0.90227256164E+02 -0.12193172181E+03 -0.92095607787E+02  0.17745394758E+03  0.00000000000E+00 0. -1.
         -4    1    5    5    0  503  0.77530758298E+01 -0.10485426144E+03 -0.33286681930E+02  0.11028385884E+03  0.00000000000E+00 0.  1.
         -3    1    6    6    0  502  0.11735606824E+03 -0.74352419915E+02  0.48405401460E+02  0.14711836048E+03  0.00000000000E+00 0.  1.
<mgrwt>
<rscale>  0 0.57404473E+04</rscale>
<asrwt>0</asrwt>
<pdfrwt beam="1">  1        2 0.66644665E+00 0.57404473E+04</pdfrwt>
<pdfrwt beam="2">  1       -2 0.29257645E+00 0.57404473E+04</pdfrwt>
<totfact> 0.42618112E-03</totfact>
</mgrwt>
</event>
<event>
12    1  0.2048318E-007  0.2198892E+04  0.7818608E-02  0.8518890E-01
          2   -1    0    0  501    0  0.00000000000E+00  0.00000000000E+00  0.23570839217E+04  0.23570839217E+04  0.00000000000E+00 0.  1.
         -2   -1    0    0    0  501 -0.00000000000E+00 -0.00000000000E+00 -0.51282910965E+03  0.51282910965E+03  0.00000000000E+00 0. -1.
         23    2    1    2    0    0  0.51007828015E+03 -0.51777232471E+03  0.14921771649E+04  0.16624586715E+04  0.94382789454E+02 0.  0.
        254    2    1    2    0    0 -0.51007828015E+03  0.51777232471E+03  0.35207764722E+03  0.12074543599E+04  0.89761869939E+03 0.  0.
        -24    2    4    4    0    0 -0.37508565406E+03  0.40664274902E+03  0.64691818395E+03  0.85494150235E+03  0.79838978549E+02 0.  0.
         24    2    4    4    0    0 -0.13499262609E+03  0.11112957568E+03 -0.29484053673E+03  0.35251285756E+03  0.82228832880E+02 0.  0.
         11    1    3    3    0    0  0.44256437197E+03 -0.45128480216E+03  0.13612414727E+04  0.15008329497E+04  0.00000000000E+00 0.  1.
        -11    1    3    3    0    0  0.67513908173E+02 -0.66487522546E+02  0.13093569220E+03  0.16162572179E+03  0.00000000000E+00 0. -1.
          4    1    6    6  502    0 -0.14546778709E+03  0.11042510289E+03 -0.27624887588E+03  0.33116162498E+03  0.00000000000E+00 0. -1.
          1    1    5    5  503    0 -0.21756309382E+03  0.20517401906E+03  0.29644551142E+03  0.42108196248E+03  0.00000000000E+00 0. -1.
         -2    1    5    5    0  503 -0.15752256023E+03  0.20146872996E+03  0.35047267254E+03  0.43385953986E+03  0.00000000000E+00 0.  1.
         -3    1    6    6    0  502  0.10475161001E+02  0.70447279089E+00 -0.18591660848E+02  0.21351232587E+02  0.00000000000E+00 0.  1.
<mgrwt>
<rscale>  0 0.21988918E+04</rscale>
<asrwt>0</asrwt>
<pdfrwt beam="1">  1        2 0.36262829E+00 0.21988918E+04</pdfrwt>
<pdfrwt beam="2">  1       -2 0.78896788E-01 0.21988918E+04</pdfrwt>
<totfact> 0.54839019E+00</totfact>
</mgrwt>
</event>
<event>
12    1  0.2048318E-007  0.3658772E+04  0.7818608E-02  0.8077160E-01
          1   -1    0    0  501    0  0.00000000000E+00  0.00000000000E+00  0.21143039092E+04  0.21143039092E+04  0.00000000000E+00 0. -1.
         -1   -1    0    0    0  501 -0.00000000000E+00 -0.00000000000E+00 -0.15828626292E+04  0.15828626292E+04  0.00000000000E+00 0.  1.
         23    2    1    2    0    0 -0.16978600815E+04  0.12038070760E+03  0.48426272874E+03  0.17720348780E+04  0.91525118790E+02 0.  0.
        254    2    1    2    0    0  0.16978600815E+04 -0.12038070760E+03  0.47178551274E+02  0.19251316603E+04  0.89815684753E+03 0.  0.
        -24    2    4    4    0    0  0.43869764000E+03 -0.32419910161E+03 -0.26218125538E+03  0.61016475055E+03  0.77468285863E+02 0.  0.
         24    2    4    4    0    0  0.12591624415E+04  0.20381839401E+03  0.30935980665E+03  0.13149669098E+04  0.80015573519E+02 0.  0.
         13    1    3    3    0    0 -0.17635236988E+03 -0.18029180016E+01  0.25617412807E+02  0.17821240337E+03  0.00000000000E+00 0.  1.
        -13    1    3    3    0    0 -0.15215077116E+04  0.12218362561E+03  0.45864531593E+03  0.15938224746E+04  0.00000000000E+00 0. -1.
          2    1    6    6  502    0  0.30879622110E+03  0.35494298096E+02  0.43470437323E+02  0.31385447309E+03  0.00000000000E+00 0. -1.
          3    1    5    5  503    0  0.68732634397E+01 -0.14194675562E+02  0.30945433342E+01  0.16071924685E+02  0.00000000000E+00 0. -1.
         -4    1    5    5    0  503  0.43182437656E+03 -0.31000442605E+03 -0.26527579871E+03  0.59409282586E+03  0.00000000000E+00 0.  1.
         -1    1    6    6    0  502  0.95036622041E+03  0.16832409591E+03  0.26588936933E+03  0.10011124367E+04  0.00000000000E+00 0.  1.
<mgrwt>
<rscale>  0 0.36587717E+04</rscale>
<asrwt>0</asrwt>
<pdfrwt beam="1">  1        1 0.32527752E+00 0.36587717E+04</pdfrwt>
<pdfrwt beam="2">  1       -1 0.24351733E+00 0.36587717E+04</pdfrwt>
<totfact> 0.15424626E-01</totfact>
</mgrwt>
</event>
<event>
12    1  0.2048318E-007  0.1798456E+04  0.7818608E-02  0.8707121E-01
          1   -1    0    0  501    0  0.00000000000E+00  0.00000000000E+00  0.15930481325E+04  0.15930481325E+04  0.00000000000E+00 0. -1.
         -1   -1    0    0    0  501 -0.00000000000E+00 -0.00000000000E+00 -0.50758756049E+03  0.50758756049E+03  0.00000000000E+00 0.  1.
         23    2    1    2    0    0 -0.30523067310E+03  0.52185171008E+03  0.85501122769E+02  0.61748184970E+03  0.92078344948E+02 0.  0.
        254    2    1    2    0    0  0.30523067310E+03 -0.52185171008E+03  0.99995944924E+03  0.14831538433E+04  0.91341745748E+03 0.  0.
        -24    2    4    4    0    0  0.52549263226E+03 -0.43212452849E+03  0.31548733476E+03  0.75417947580E+03  0.79876834231E+02 0.  0.
         24    2    4    4    0    0 -0.22026195916E+03 -0.89727181590E+02  0.68447211448E+03  0.72897436749E+03  0.79594316347E+02 0.  0.
         13    1    3    3    0    0 -0.56581747152E+02  0.71578344175E+02  0.44415586595E+02  0.10147757288E+03  0.00000000000E+00 0. -1.
        -13    1    3    3    0    0 -0.24864892595E+03  0.45027336590E+03  0.41085536174E+02  0.51600427682E+03  0.00000000000E+00 0.  1.
          2    1    6    6  502    0 -0.81942727544E+02 -0.30205122718E+00  0.29349399875E+03  0.30471860648E+03  0.00000000000E+00 0. -1.
          3    1    5    5  503    0  0.43516805028E+03 -0.36785213168E+03  0.23125683305E+03  0.61495214903E+03  0.00000000000E+00 0. -1.
         -4    1    5    5    0  503  0.90324581979E+02 -0.64272396807E+02  0.84230501712E+02  0.13922732677E+03  0.00000000000E+00 0.  1.
         -1    1    6    6    0  502 -0.13831923161E+03 -0.89425130363E+02  0.39097811572E+03  0.42425576101E+03  0.00000000000E+00 0.  1.
<mgrwt>
<rscale>  0 0.17984565E+04</rscale>
<asrwt>0</asrwt>
<pdfrwt beam="1">  1        1 0.24508433E+00 0.17984565E+04</pdfrwt>
<pdfrwt beam="2">  1       -1 0.78090394E-01 0.17984565E+04</pdfrwt>
<totfact> 0.87426558E+00</totfact>
</mgrwt>
</event>
<event>
12    1  0.2048318E-007  0.1875278E+04  0.7818608E-02  0.8667261E-01
          2   -1    0    0  501    0  0.00000000000E+00  0.00000000000E+00  0.29226660733E+04  0.29226660733E+04  0.00000000000E+00 0. -1.
         -2   -1    0    0    0  501 -0.00000000000E+00 -0.00000000000E+00 -0.30080981689E+03  0.30080981689E+03  0.00000000000E+00 0.  1.
         23    2    1    2    0    0 -0.43447131890E+03  0.53948368453E+03  0.68128396697E+03  0.97583313475E+03  0.91074092968E+02 0.  0.
        254    2    1    2    0    0  0.43447131890E+03 -0.53948368453E+03  0.19405722894E+04  0.22476427554E+04  0.89792492601E+03 0.  0.
        -24    2    4    4    0    0  0.32948178406E+03 -0.77758657192E+03  0.13097437964E+04  0.15604995680E+04  0.80814396726E+02 0.  0.
         24    2    4    4    0    0  0.10498953484E+03  0.23810288739E+03  0.63082849305E+03  0.68714318744E+03  0.80655966831E+02 0.  0.
         11    1    3    3    0    0 -0.57071854520E+02  0.10648685880E+03  0.83784827246E+02  0.14702566086E+03  0.00000000000E+00 0.  1.
        -11    1    3    3    0    0 -0.37739946438E+03  0.43299682573E+03  0.59749913972E+03  0.82880747389E+03  0.00000000000E+00 0. -1.
          2    1    6    6  502    0  0.27276539902E+02  0.15845668964E+02  0.12935271359E+03  0.13314360430E+03  0.00000000000E+00 0. -1.
          3    1    5    5  503    0  0.10706814894E+03 -0.32846873007E+03  0.48615193932E+03  0.59640506642E+03  0.00000000000E+00 0. -1.
         -4    1    5    5    0  503  0.22241363512E+03 -0.44911784184E+03  0.82359185705E+03  0.96409450156E+03  0.00000000000E+00 0.  1.
         -1    1    6    6    0  502  0.77712994934E+02  0.22225721843E+03  0.50147577946E+03  0.55399958313E+03  0.00000000000E+00 0.  1.
<mgrwt>
<rscale>  0 0.18752777E+04</rscale>
<asrwt>0</asrwt>
<pdfrwt beam="1">  1        2 0.44964092E+00 0.18752777E+04</pdfrwt>
<pdfrwt beam="2">  1       -2 0.46278435E-01 0.18752777E+04</pdfrwt>
<totfact> 0.81043165E+00</totfact>
</mgrwt>
</event>
<event>
12    1  0.2048318E-007  0.1376740E+04  0.7818608E-02  0.8970829E-01
          3   -1    0    0  501    0  0.00000000000E+00  0.00000000000E+00  0.50710595792E+03  0.50710595792E+03  0.00000000000E+00 0. -1.
         -3   -1    0    0    0  501 -0.00000000000E+00 -0.00000000000E+00 -0.93442706957E+03  0.93442706957E+03  0.00000000000E+00 0.  1.
         23    2    1    2    0    0  0.19960792069E+03 -0.27147800690E+03 -0.32324011081E+03  0.47581217522E+03  0.91484570400E+02 0.  0.
        254    2    1    2    0    0 -0.19960792069E+03  0.27147800690E+03 -0.10408100084E+03  0.96572085226E+03  0.89902184597E+03 0.  0.
        -24    2    4    4    0    0 -0.46043322752E+03 -0.94828219295E+02 -0.16479102840E+03  0.50469462791E+03  0.81052058707E+02 0.  0.
         24    2    4    4    0    0  0.26082530684E+03  0.36630622620E+03  0.60710027561E+02  0.46102622435E+03  0.81543730936E+02 0.  0.
         13    1    3    3    0    0  0.84991330854E+02 -0.47746944654E+02 -0.81677234383E+02  0.12717888056E+03  0.00000000000E+00 0. -1.
        -13    1    3    3    0    0  0.11461658983E+03 -0.22373106225E+03 -0.24156287643E+03  0.34863329466E+03  0.00000000000E+00 0.  1.
          4    1    6    6  502    0  0.18644373284E+03  0.26853319524E+03  0.80285680192E+02  0.33662610253E+03  0.00000000000E+00 0. -1.
          1    1    5    5  503    0 -0.28981974122E+03 -0.19945863175E+02 -0.10759494392E+03  0.30979023841E+03  0.00000000000E+00 0. -1.
         -2    1    5    5    0  503 -0.17061348631E+03 -0.74882356119E+02 -0.57196084479E+02  0.19490438950E+03  0.00000000000E+00 0.  1.
         -3    1    6    6    0  502  0.74381574003E+02  0.97773030958E+02 -0.19575652630E+02  0.12440012182E+03  0.00000000000E+00 0.  1.
<mgrwt>
<rscale>  0 0.13767404E+04</rscale>
<asrwt>0</asrwt>
<pdfrwt beam="1">  1        3 0.78016301E-01 0.13767404E+04</pdfrwt>
<pdfrwt beam="2">  1       -3 0.14375801E+00 0.13767404E+04</pdfrwt>
<totfact> 0.14144825E+00</totfact>
</mgrwt>
</event>
<event>
12    1  0.2048318E-007  0.2691395E+04  0.7818608E-02  0.8337802E-01
         -2   -1    0    0    0  501 -0.00000000000E+00  0.00000000000E+00  0.99968276361E+03  0.99968276361E+03  0.00000000000E+00 0.  1.
          2   -1    0    0  501    0  0.00000000000E+00 -0.00000000000E+00 -0.18114765706E+04  0.18114765706E+04  0.00000000000E+00 0. -1.
         23    2    1    2    0    0  0.11254662140E+04 -0.31188539401E+03 -0.11119019456E+03  0.11767034665E+04  0.91220013430E+02 0.  0.
        254    2    1    2    0    0 -0.11254662140E+04  0.31188539401E+03 -0.70060361241E+03  0.16344558677E+04  0.90368903052E+03 0.  0.
        -24    2    4    4    0    0 -0.23547893660E+03  0.25813626406E+03  0.16019343047E+03  0.39256769572E+03  0.79767162084E+02 0.  0.
         24    2    4    4    0    0 -0.88998727739E+03  0.53749129948E+02 -0.86079704288E+03  0.12418881720E+04  0.79676594944E+02 0.  0.
         13    1    3    3    0    0  0.41903127007E+03 -0.10745775855E+03 -0.84720913248E+02  0.44080835780E+03  0.00000000000E+00 0. -1.
        -13    1    3    3    0    0  0.70643494392E+03 -0.20442763546E+03 -0.26469281308E+02  0.73589510869E+03  0.00000000000E+00 0.  1.
          2    1    6    6  502    0 -0.55705694800E+03 -0.49338791188E+01 -0.53163022335E+03  0.77004381749E+03  0.00000000000E+00 0. -1.
          3    1    5    5  503    0 -0.16205335341E+03  0.22629156818E+03  0.12232688129E+03  0.30402800705E+03  0.00000000000E+00 0. -1.
         -4    1    5    5    0  503 -0.73425583194E+02  0.31844695875E+02  0.37866549179E+02  0.88539688668E+02  0.00000000000E+00 0.  1.
         -1    1    6    6    0  502 -0.33293032938E+03  0.58683009067E+02 -0.32916681953E+03  0.47184435448E+03  0.00000000000E+00 0.  1.
<mgrwt>
<rscale>  0 0.26913951E+04</rscale>
<asrwt>0</asrwt>
<pdfrwt beam="1">  1        2 0.27868870E+00 0.26913951E+04</pdfrwt>
<pdfrwt beam="2">  1       -2 0.15379735E+00 0.26913951E+04</pdfrwt>
<totfact> 0.20928259E+00</totfact>
</mgrwt>
</event>
<event>
12    1  0.2048318E-007  0.1921075E+04  0.7818608E-02  0.8644437E-01
         -1   -1    0    0    0  501 -0.00000000000E+00  0.00000000000E+00  0.77063556739E+03  0.77063556739E+03  0.00000000000E+00 0.  1.
          1   -1    0    0  501    0  0.00000000000E+00 -0.00000000000E+00 -0.11972354812E+04  0.11972354812E+04  0.00000000000E+00 0. -1.
         23    2    1    2    0    0 -0.61397785048E+03 -0.33294270031E+03  0.11090260232E+03  0.71305081129E+03  0.91227351808E+02 0.  0.
        254    2    1    2    0    0  0.61397785048E+03  0.33294270031E+03 -0.53750251612E+03  0.12548202373E+04  0.89322182604E+03 0.  0.
        -24    2    4    4    0    0 -0.21891410890E+02  0.45399082665E+02  0.20918555770E+03  0.22952291483E+03  0.79886546450E+02 0.  0.
         24    2    4    4    0    0  0.63586926137E+03  0.28754361764E+03 -0.74668807382E+03  0.10252973225E+04  0.81734143805E+02 0.  0.
         11    1    3    3    0    0 -0.45490883010E+03 -0.27884587011E+03  0.11120005711E+03  0.54503441697E+03  0.00000000000E+00 0. -1.
        -11    1    3    3    0    0 -0.15906902038E+03 -0.54096830199E+02 -0.29745479519E+00  0.16801639433E+03  0.00000000000E+00 0.  1.
          4    1    6    6  502    0  0.49027287773E+03  0.18880817960E+03 -0.58614724844E+03  0.78713697675E+03  0.00000000000E+00 0. -1.
          1    1    5    5  503    0 -0.47843813370E+02  0.36775823280E+02  0.17847571651E+03  0.18840136157E+03  0.00000000000E+00 0. -1.
         -2    1    5    5    0  503  0.25952402479E+02  0.86232593851E+01  0.30709841185E+02  0.41121553260E+02  0.00000000000E+00 0.  1.
         -3    1    6    6    0  502  0.14559638364E+03  0.98735438039E+02 -0.16054082538E+03  0.23816034571E+03  0.00000000000E+00 0.  1.
<mgrwt>
<rscale>  0 0.19210750E+04</rscale>
<asrwt>0</asrwt>
<pdfrwt beam="1">  1        1 0.18419007E+00 0.19210750E+04</pdfrwt>
<pdfrwt beam="2">  1       -1 0.11855932E+00 0.19210750E+04</pdfrwt>
<totfact> 0.63941310E+00</totfact>
</mgrwt>
</event>
<event>
12    1  0.2048318E-007  0.2929048E+04  0.7818608E-02  0.8264287E-01
          1   -1    0    0  501    0  0.00000000000E+00  0.00000000000E+00  0.26693688186E+04  0.26693688186E+04  0.00000000000E+00 0. -1.
         -1   -1    0    0    0  501 -0.00000000000E+00 -0.00000000000E+00 -0.80349738859E+03  0.80349738859E+03  0.00000000000E+00 0.  1.
         23    2    1    2    0    0  0.40710417681E+02  0.71906491152E+02  0.24138231439E+04  0.24169541987E+04  0.91090872164E+02 0.  0.
        254    2    1    2    0    0 -0.40710417681E+02 -0.71906491152E+02 -0.54795171389E+03  0.10559120085E+04  0.89881655933E+03 0.  0.
        -24    2    4    4    0    0  0.24571698927E+03  0.23238635237E+03  0.17611067652E+02  0.34787937182E+03  0.79559110414E+02 0.  0.
         24    2    4    4    0    0 -0.28642740695E+03 -0.30429284353E+03 -0.56556278155E+03  0.70803263666E+03  0.82547929335E+02 0.  0.
         13    1    3    3    0    0  0.30044454595E+02  0.91389000030E+02  0.16452067921E+04  0.16480169924E+04  0.00000000000E+00 0. -1.
        -13    1    3    3    0    0  0.10665963086E+02 -0.19482508877E+02  0.76861635185E+03  0.76893720631E+03  0.00000000000E+00 0.  1.
          2    1    6    6  502    0 -0.25683642104E+03 -0.25447170757E+03 -0.43816155025E+03  0.56807247886E+03  0.00000000000E+00 0. -1.
          1    1    5    5  503    0  0.69575249078E+02  0.28363592137E+02 -0.14216940468E+02  0.76467836634E+02  0.00000000000E+00 0. -1.
         -2    1    5    5    0  503  0.17614174019E+03  0.20402276024E+03  0.31828008120E+02  0.27141153519E+03  0.00000000000E+00 0.  1.
         -1    1    6    6    0  502 -0.29590985908E+02 -0.49821135958E+02 -0.12740123130E+03  0.13996015780E+03  0.00000000000E+00 0.  1.
<mgrwt>
<rscale>  0 0.29290482E+04</rscale>
<asrwt>0</asrwt>
<pdfrwt beam="1">  1        1 0.41067212E+00 0.29290482E+04</pdfrwt>
<pdfrwt beam="2">  1       -1 0.12361498E+00 0.29290482E+04</pdfrwt>
<totfact> 0.50785268E-01</totfact>
</mgrwt>
</event>
<event>
12    1  0.2048318E-007  0.1287262E+04  0.7818608E-02  0.9039728E-01
          2   -1    0    0  501    0  0.00000000000E+00  0.00000000000E+00  0.31692587268E+04  0.31692587268E+04  0.00000000000E+00 0. -1.
         -2   -1    0    0    0  501 -0.00000000000E+00 -0.00000000000E+00 -0.13071214843E+03  0.13071214843E+03  0.00000000000E+00 0.  1.
         23    2    1    2    0    0  0.29471130093E+03  0.59953433990E+02  0.10644997108E+04  0.11099709965E+04  0.91797678424E+02 0.  0.
        254    2    1    2    0    0 -0.29471130093E+03 -0.59953433990E+02  0.19740468676E+04  0.21899998787E+04  0.89932711963E+03 0.  0.
        -24    2    4    4    0    0 -0.24765996461E+03  0.14942649138E+03  0.19357190601E+04  0.19588590638E+04  0.80354326404E+02 0.  0.
         24    2    4    4    0    0 -0.47051336318E+02 -0.20937992537E+03  0.38327807549E+02  0.23114081496E+03  0.76832767172E+02 0.  0.
         11    1    3    3    0    0  0.17699576190E+03  0.21758734260E+02  0.77272553688E+03  0.79303574799E+03  0.00000000000E+00 0.  1.
        -11    1    3    3    0    0  0.11771553903E+03  0.38194699730E+02  0.29177417389E+03  0.31693524854E+03  0.00000000000E+00 0. -1.
          2    1    6    6  502    0 -0.22502740523E+02 -0.39172715956E+02  0.38216441728E+02  0.59172387351E+02  0.00000000000E+00 0. -1.
          1    1    5    5  503    0 -0.10206460448E+03  0.10833679212E+03  0.93794609134E+03  0.94968253342E+03  0.00000000000E+00 0. -1.
         -2    1    5    5    0  503 -0.14559536013E+03  0.41089699261E+02  0.99777296873E+03  0.10091765303E+04  0.00000000000E+00 0.  1.
         -1    1    6    6    0  502 -0.24548595795E+02 -0.17020720941E+03  0.11136582105E+00  0.17196842761E+03  0.00000000000E+00 0.  1.
<mgrwt>
<rscale>  0 0.12872616E+04</rscale>
<asrwt>0</asrwt>
<pdfrwt beam="1">  1        2 0.48757821E+00 0.12872616E+04</pdfrwt>
<pdfrwt beam="2">  1       -2 0.20109564E-01 0.12872616E+04</pdfrwt>
<totfact> 0.28620140E+01</totfact>
</mgrwt>
</event>
<event>
12    1  0.2048318E-007  0.1345120E+04  0.7818608E-02  0.8994530E-01
          1   -1    0    0  501    0  0.00000000000E+00  0.00000000000E+00  0.11312969944E+04  0.11312969944E+04  0.00000000000E+00 0. -1.
         -1   -1    0    0    0  501 -0.00000000000E+00 -0.00000000000E+00 -0.39983937706E+03  0.39983937706E+03  0.00000000000E+00 0.  1.
         23    2    1    2    0    0  0.18307852459E+03 -0.83576967974E+02  0.55223231164E+03  0.59484370126E+03  0.91518561836E+02 0.  0.
        254    2    1    2    0    0 -0.18307852459E+03  0.83576967974E+02  0.17922530567E+03  0.93629267017E+03  0.89667128775E+03 0.  0.
        -24    2    4    4    0    0 -0.49532210138E+02 -0.34258136817E+03  0.30256336505E+03  0.46649851847E+03  0.79125496567E+02 0.  0.
         24    2    4    4    0    0 -0.13354631445E+03  0.42615833614E+03 -0.12333805938E+03  0.46979415170E+03  0.77773533521E+02 0.  0.
         11    1    3    3    0    0  0.17966450899E+03 -0.88345106407E+02  0.45100612865E+03  0.49344779024E+03  0.00000000000E+00 0. -1.
        -11    1    3    3    0    0  0.34140155980E+01  0.47681384329E+01  0.10122618300E+03  0.10139591102E+03  0.00000000000E+00 0.  1.
          4    1    6    6  502    0 -0.14310093158E+03  0.39572442378E+03 -0.12077667339E+03  0.43779298879E+03  0.00000000000E+00 0. -1.
          3    1    5    5  503    0 -0.21321756212E+02 -0.28765264882E+03  0.27620287742E+03  0.39935785101E+03  0.00000000000E+00 0. -1.
         -4    1    5    5    0  503 -0.28210453926E+02 -0.54928719344E+02  0.26360487627E+02  0.67140667463E+02  0.00000000000E+00 0.  1.
         -3    1    6    6    0  502  0.95546171232E+01  0.30433912358E+02 -0.25613859916E+01  0.32001162916E+02  0.00000000000E+00 0.  1.
<mgrwt>
<rscale>  0 0.13451202E+04</rscale>
<asrwt>0</asrwt>
<pdfrwt beam="1">  1        1 0.17404569E+00 0.13451202E+04</pdfrwt>
<pdfrwt beam="2">  1       -1 0.61513751E-01 0.13451202E+04</pdfrwt>
<totfact> 0.31525189E+01</totfact>
</mgrwt>
</event>
<event>
12    1  0.2048318E-007  0.2653151E+04  0.7818608E-02  0.8350368E-01
          2   -1    0    0  501    0  0.00000000000E+00  0.00000000000E+00  0.27699343625E+04  0.27699343625E+04  0.00000000000E+00 0. -1.
         -2   -1    0    0    0  501 -0.00000000000E+00 -0.00000000000E+00 -0.63532290591E+03  0.63532290591E+03  0.00000000000E+00 0.  1.
         23    2    1    2    0    0  0.47585027657E+03  0.64243313934E+03 -0.15398086081E+03  0.81941939526E+03  0.92651042083E+02 0.  0.
        254    2    1    2    0    0 -0.47585027657E+03 -0.64243313934E+03  0.22885923174E+04  0.25858378731E+04  0.89986048183E+03 0.  0.
        -24    2    4    4    0    0 -0.47634965343E+03 -0.77985770713E+03  0.22394712581E+04  0.24200898067E+04  0.80722493973E+02 0.  0.
         24    2    4    4    0    0  0.49937686176E+00  0.13742456779E+03  0.49121059300E+02  0.16574806644E+03  0.78573416965E+02 0.  0.
         13    1    3    3    0    0  0.44037995672E+03  0.61527572632E+03 -0.16263022442E+03  0.77391686606E+03  0.00000000000E+00 0.  1.
        -13    1    3    3    0    0  0.35470319854E+02  0.27157413014E+02  0.86493636176E+01  0.45502529195E+02  0.00000000000E+00 0. -1.
          2    1    6    6  502    0  0.21854970105E+02  0.12925646874E+03  0.26815426443E+02  0.13380561097E+03  0.00000000000E+00 0. -1.
          1    1    5    5  503    0 -0.30941480445E+03 -0.46417987838E+03  0.14501204301E+04  0.15537212563E+04  0.00000000000E+00 0. -1.
         -2    1    5    5    0  503 -0.16693484899E+03 -0.31567782874E+03  0.78935082801E+03  0.86636855036E+03  0.00000000000E+00 0.  1.
         -1    1    6    6    0  502 -0.21355593243E+02  0.81680990438E+01  0.22305632856E+02  0.31942455476E+02  0.00000000000E+00 0.  1.
<mgrwt>
<rscale>  0 0.26531511E+04</rscale>
<asrwt>0</asrwt>
<pdfrwt beam="1">  1        2 0.42614374E+00 0.26531511E+04</pdfrwt>
<pdfrwt beam="2">  1       -2 0.97741987E-01 0.26531511E+04</pdfrwt>
<totfact> 0.18507532E+00</totfact>
</mgrwt>
</event>
<event>
12    1  0.2048318E-007  0.1446390E+04  0.7818608E-02  0.8920907E-01
          1   -1    0    0  501    0  0.00000000000E+00  0.00000000000E+00  0.46389332299E+03  0.46389332299E+03  0.00000000000E+00 0. -1.
         -1   -1    0    0    0  501 -0.00000000000E+00 -0.00000000000E+00 -0.11274377932E+04  0.11274377932E+04  0.00000000000E+00 0.  1.
         23    2    1    2    0    0 -0.20072008081E+03  0.34796799576E+03 -0.38786041040E+03  0.56647378078E+03  0.95323498898E+02 0.  0.
        254    2    1    2    0    0  0.20072008081E+03 -0.34796799576E+03 -0.27568405978E+03  0.10248573354E+04  0.90164326655E+03 0.  0.
        -24    2    4    4    0    0  0.17800921596E+03  0.26047491616E+03  0.50498717510E+02  0.32923958054E+03  0.79461424647E+02 0.  0.
         24    2    4    4    0    0  0.22710864843E+02 -0.60844291192E+03 -0.32618277729E+03  0.69561775483E+03  0.82281809593E+02 0.  0.
         11    1    3    3    0    0 -0.18414421290E+03  0.24331497294E+03 -0.26417341477E+03  0.40360730949E+03  0.00000000000E+00 0. -1.
        -11    1    3    3    0    0 -0.16575867904E+02  0.10465302283E+03 -0.12368699563E+03  0.16286647129E+03  0.00000000000E+00 0.  1.
          2    1    6    6  502    0  0.22992202426E+02 -0.47054516337E+03 -0.28940947859E+03  0.55290074918E+03  0.00000000000E+00 0. -1.
          1    1    5    5  503    0  0.96861246019E+02  0.12232903787E+03  0.63580010884E+02  0.16849009547E+03  0.00000000000E+00 0. -1.
         -2    1    5    5    0  503  0.81147969944E+02  0.13814587828E+03 -0.13081293374E+02  0.16074948507E+03  0.00000000000E+00 0.  1.
         -1    1    6    6    0  502 -0.28133758258E+00 -0.13789774855E+03 -0.36773298701E+02  0.14271700566E+03  0.00000000000E+00 0.  1.
<mgrwt>
<rscale>  0 0.14463898E+04</rscale>
<asrwt>0</asrwt>
<pdfrwt beam="1">  1        1 0.71368204E-01 0.14463898E+04</pdfrwt>
<pdfrwt beam="2">  1       -1 0.17345197E+00 0.14463898E+04</pdfrwt>
<totfact> 0.11078917E+01</totfact>
</mgrwt>
</event>
<event>
12    1  0.2048318E-007  0.2039374E+04  0.7818608E-02  0.8588430E-01
          1   -1    0    0  501    0  0.00000000000E+00  0.00000000000E+00  0.14256298009E+04  0.14256298009E+04  0.00000000000E+00 0. -1.
         -1   -1    0    0    0  501 -0.00000000000E+00 -0.00000000000E+00 -0.72933487441E+03  0.72933487441E+03  0.00000000000E+00 0.  1.
         23    2    1    2    0    0  0.79238052759E+03 -0.59603599880E+02  0.47868239118E+03  0.93213936967E+03  0.91255045006E+02 0.  0.
        254    2    1    2    0    0 -0.79238052759E+03  0.59603599880E+02  0.21761253534E+03  0.12228253057E+04  0.90361884830E+03 0.  0.
        -24    2    4    4    0    0 -0.21871358255E+03 -0.51143648273E+02  0.51125228945E+03  0.56397917060E+03  0.79008211286E+02 0.  0.
         24    2    4    4    0    0 -0.57366694504E+03  0.11074724815E+03 -0.29363975411E+03  0.65884613506E+03  0.80592851375E+02 0.  0.
         11    1    3    3    0    0  0.21443591962E+03 -0.55596549369E+02  0.12025980219E+03  0.25206380135E+03  0.00000000000E+00 0.  1.
        -11    1    3    3    0    0  0.57794460797E+03 -0.40070505112E+01  0.35842258898E+03  0.68007556832E+03  0.00000000000E+00 0. -1.
          2    1    6    6  502    0 -0.56181357450E+03  0.10238072048E+03 -0.27136274134E+03  0.63226105510E+03  0.00000000000E+00 0. -1.
          3    1    5    5  503    0 -0.10395039040E+03 -0.64001977693E+02  0.28182507337E+03  0.30712751226E+03  0.00000000000E+00 0. -1.
         -4    1    5    5    0  503 -0.11476319216E+03  0.12858329420E+02  0.22942721608E+03  0.25685165833E+03  0.00000000000E+00 0.  1.
         -1    1    6    6    0  502 -0.11853370542E+02  0.83665276715E+01 -0.22277012772E+02  0.26585079961E+02  0.00000000000E+00 0.  1.
<mgrwt>
<rscale>  0 0.20393740E+04</rscale>
<asrwt>0</asrwt>
<pdfrwt beam="1">  1        1 0.21932766E+00 0.20393740E+04</pdfrwt>
<pdfrwt beam="2">  1       -1 0.11220537E+00 0.20393740E+04</pdfrwt>
<totfact> 0.49613013E+00</totfact>
</mgrwt>
</event>
<event>
12    1  0.2048318E-007  0.1481017E+04  0.7818608E-02  0.8897175E-01
          1   -1    0    0  501    0  0.00000000000E+00  0.00000000000E+00  0.56875471247E+03  0.56875471247E+03  0.00000000000E+00 0. -1.
         -1   -1    0    0    0  501 -0.00000000000E+00 -0.00000000000E+00 -0.96412931454E+03  0.96412931454E+03  0.00000000000E+00 0.  1.
         23    2    1    2    0    0  0.29580271261E+03 -0.63507756425E+02 -0.48364583612E+03  0.57761350967E+03  0.90507413179E+02 0.  0.
        254    2    1    2    0    0 -0.29580271261E+03  0.63507756425E+02  0.88271234055E+02  0.95527051735E+03  0.90178571215E+03 0.  0.
        -24    2    4    4    0    0 -0.40260723589E+03 -0.16779851999E+03  0.36253135678E+03  0.57250903993E+03  0.78030035576E+02 0.  0.
         24    2    4    4    0    0  0.10680452328E+03  0.23130627641E+03 -0.27426012272E+03  0.38276147742E+03  0.79861968262E+02 0.  0.
         13    1    3    3    0    0  0.21888011704E+03 -0.82490522224E+02 -0.39184154786E+03  0.45634744496E+03  0.00000000000E+00 0.  1.
        -13    1    3    3    0    0  0.76922595570E+02  0.18982765798E+02 -0.91804288257E+02  0.12126606470E+03  0.00000000000E+00 0. -1.
          4    1    6    6  502    0  0.16307739927E+02  0.27059702215E+02 -0.82525143292E+02  0.88366108553E+02  0.00000000000E+00 0. -1.
          1    1    5    5  503    0 -0.22833643465E+03 -0.53336285313E+02  0.19848104474E+03  0.30720841759E+03  0.00000000000E+00 0. -1.
         -2    1    5    5    0  503 -0.17427080124E+03 -0.11446223468E+03  0.16405031204E+03  0.26530062234E+03  0.00000000000E+00 0.  1.
         -3    1    6    6    0  502  0.90496783356E+02  0.20424657420E+03 -0.19173497943E+03  0.29439536886E+03  0.00000000000E+00 0.  1.
<mgrwt>
<rscale>  0 0.14810173E+04</rscale>
<asrwt>0</asrwt>
<pdfrwt beam="1">  1        1 0.87500725E-01 0.14810173E+04</pdfrwt>
<pdfrwt beam="2">  1       -1 0.14832759E+00 0.14810173E+04</pdfrwt>
<totfact> 0.12886510E+01</totfact>
</mgrwt>
</event>
<event>
12    1  0.2048318E-007  0.1522414E+04  0.7818608E-02  0.8869683E-01
          2   -1    0    0  501    0  0.00000000000E+00  0.00000000000E+00  0.93984702327E+03  0.93984702327E+03  0.00000000000E+00 0. -1.
         -2   -1    0    0    0  501 -0.00000000000E+00 -0.00000000000E+00 -0.61652194811E+03  0.61652194811E+03  0.00000000000E+00 0.  1.
         23    2    1    2    0    0  0.14505240340E+03  0.46690846883E+03  0.14742848186E+03  0.51855978836E+03  0.90140883316E+02 0.  0.
        254    2    1    2    0    0 -0.14505240340E+03 -0.46690846883E+03  0.17589659329E+03  0.10378091830E+04  0.89836772584E+03 0.  0.
        -24    2    4    4    0    0 -0.30952129814E+03 -0.67335524594E+03  0.10345034421E+03  0.75254386628E+03  0.80059825885E+02 0.  0.
         24    2    4    4    0    0  0.16446889474E+03  0.20644677711E+03  0.72446249084E+02  0.28526531674E+03  0.80358900018E+02 0.  0.
         11    1    3    3    0    0  0.83315510282E+02  0.24374713330E+03  0.31181557073E+02  0.25947336809E+03  0.00000000000E+00 0.  1.
        -11    1    3    3    0    0  0.61736893120E+02  0.22316133553E+03  0.11624692479E+03  0.25908642027E+03  0.00000000000E+00 0. -1.
          4    1    6    6  502    0  0.10028417086E+03  0.63015880090E+02  0.24181121319E+02  0.12088276426E+03  0.00000000000E+00 0. -1.
          1    1    5    5  503    0 -0.20119423415E+03 -0.35180655239E+03  0.38724281960E+02  0.40711981059E+03  0.00000000000E+00 0. -1.
         -2    1    5    5    0  503 -0.10832706399E+03 -0.32154869355E+03  0.64726062246E+02  0.34542405569E+03  0.00000000000E+00 0.  1.
         -3    1    6    6    0  502  0.64184723882E+02  0.14343089702E+03  0.48265127765E+02  0.16438255248E+03  0.00000000000E+00 0.  1.
<mgrwt>
<rscale>  0 0.15224143E+04</rscale>
<asrwt>0</asrwt>
<pdfrwt beam="1">  1        2 0.14459185E+00 0.15224143E+04</pdfrwt>
<pdfrwt beam="2">  1       -2 0.94849530E-01 0.15224143E+04</pdfrwt>
<totfact> 0.24885602E+01</totfact>
</mgrwt>
</event>
<event>
12    1  0.2048318E-007  0.1682871E+04  0.7818608E-02  0.8771194E-01
          1   -1    0    0  501    0  0.00000000000E+00  0.00000000000E+00  0.22026515167E+04  0.22026515167E+04  0.00000000000E+00 0. -1.
         -1   -1    0    0    0  501 -0.00000000000E+00 -0.00000000000E+00 -0.32143706345E+03  0.32143706345E+03  0.00000000000E+00 0.  1.
         23    2    1    2    0    0 -0.38316496007E+03 -0.36329240885E+03  0.25939413741E+03  0.59514562730E+03  0.90090167141E+02 0.  0.
        254    2    1    2    0    0  0.38316496007E+03  0.36329240885E+03  0.16218203159E+04  0.19289429529E+04  0.90095672347E+03 0.  0.
        -24    2    4    4    0    0  0.36690255639E+03  0.20583694713E+03  0.16092332002E+03  0.45737799198E+03  0.79447957409E+02 0.  0.
         24    2    4    4    0    0  0.16262403678E+02  0.15745546172E+03  0.14608969958E+04  0.14715649609E+04  0.78909527089E+02 0.  0.
         13    1    3    3    0    0 -0.14232501520E+03 -0.13006959791E+03  0.14377941647E+03  0.24051409699E+03  0.00000000000E+00 0. -1.
        -13    1    3    3    0    0 -0.24083994487E+03 -0.23322281094E+03  0.11561472094E+03  0.35463153030E+03  0.00000000000E+00 0.  1.
          4    1    6    6  502    0  0.39517646083E+02  0.10654097641E+03  0.11560835722E+04  0.11616547895E+04  0.00000000000E+00 0. -1.
          3    1    5    5  503    0  0.29515974115E+03  0.18776672554E+03  0.15658273592E+03  0.38326722949E+03  0.00000000000E+00 0. -1.
         -4    1    5    5    0  503  0.71742815238E+02  0.18070221591E+02  0.43405841036E+01  0.74110762491E+02  0.00000000000E+00 0.  1.
         -3    1    6    6    0  502 -0.23255242405E+02  0.50914485307E+02  0.30481342367E+03  0.30991017144E+03  0.00000000000E+00 0.  1.
<mgrwt>
<rscale>  0 0.16828712E+04</rscale>
<asrwt>0</asrwt>
<pdfrwt beam="1">  1        1 0.33886945E+00 0.16828712E+04</pdfrwt>
<pdfrwt beam="2">  1       -1 0.49451857E-01 0.16828712E+04</pdfrwt>
<totfact> 0.84805664E+00</totfact>
</mgrwt>
</event>
<event>
12    1  0.2235782E-007  0.3069456E+04  0.7818608E-02  0.8224171E-01
         -1   -1    0    0    0  501 -0.00000000000E+00  0.00000000000E+00  0.88214425029E+03  0.88214425029E+03  0.00000000000E+00 0.  1.
          1   -1    0    0  501    0  0.00000000000E+00 -0.00000000000E+00 -0.26700728590E+04  0.26700728590E+04  0.00000000000E+00 0. -1.
         23    2    1    2    0    0 -0.67197528846E+02  0.13326220547E+04 -0.32417924579E+03  0.13762338648E+04  0.92360265470E+02 0.  0.
        254    2    1    2    0    0  0.67197528846E+02 -0.13326220547E+04 -0.14637493629E+04  0.21759832444E+04  0.90107926066E+03 0.  0.
        -24    2    4    4    0    0  0.44911068929E+03 -0.91135289156E+03 -0.10830168215E+04  0.14871383611E+04  0.79941010121E+02 0.  0.
         24    2    4    4    0    0 -0.38191316045E+03 -0.42126916319E+03 -0.38073254136E+03  0.68884488334E+03  0.78896357840E+02 0.  0.
         11    1    3    3    0    0  0.20070269386E+02  0.48144255652E+03 -0.11484416502E+03  0.49535737925E+03  0.00000000000E+00 0. -1.
        -11    1    3    3    0    0 -0.87267798232E+02  0.85117949823E+03 -0.20933508077E+03  0.88087648558E+03  0.00000000000E+00 0.  1.
          2    1    6    6  502    0 -0.24893853900E+03 -0.21926362365E+03 -0.20613589993E+03  0.39056234085E+03  0.00000000000E+00 0. -1.
          1    1    5    5  503    0  0.16009965919E+03 -0.40915415359E+03 -0.48667003275E+03  0.65565748913E+03  0.00000000000E+00 0. -1.
         -2    1    5    5    0  503  0.28901103011E+03 -0.50219873797E+03 -0.59634678877E+03  0.83148087195E+03  0.00000000000E+00 0.  1.
         -1    1    6    6    0  502 -0.13297462145E+03 -0.20200553954E+03 -0.17459664143E+03  0.29828254249E+03  0.00000000000E+00 0.  1.
<mgrwt>
<rscale>  0 0.30694556E+04</rscale>
<asrwt>0</asrwt>
<pdfrwt beam="1">  1        1 0.41078043E+00 0.30694556E+04</pdfrwt>
<pdfrwt beam="2">  1       -1 0.13571450E+00 0.30694556E+04</pdfrwt>
<totfact> 0.39589139E-01</totfact>
</mgrwt>
</event>
<event>
12    1  0.2048318E-007  0.2287647E+04  0.7818608E-02  0.8482808E-01
         -2   -1    0    0    0  501 -0.00000000000E+00  0.00000000000E+00  0.72151371912E+03  0.72151371912E+03  0.00000000000E+00 0.  1.
          2   -1    0    0  501    0  0.00000000000E+00 -0.00000000000E+00 -0.18133151189E+04  0.18133151189E+04  0.00000000000E+00 0. -1.
         23    2    1    2    0    0 -0.26260163606E+03 -0.92078658199E+03 -0.34438428156E+03  0.10215924741E+04  0.90791524056E+02 0.  0.
        254    2    1    2    0    0  0.26260163606E+03  0.92078658199E+03 -0.74741711818E+03  0.15132363639E+04  0.90246573104E+03 0.  0.
        -24    2    4    4    0    0  0.20837678374E+03 -0.98220151133E+02  0.31079501151E+01  0.24395528686E+03  0.80227430108E+02 0.  0.
         24    2    4    4    0    0  0.54224852320E+02  0.10190067331E+04 -0.75052506830E+03  0.12692810771E+04  0.80445743716E+02 0.  0.
         13    1    3    3    0    0 -0.22990838470E+03 -0.66628659030E+03 -0.23993026401E+03  0.74455504656E+03  0.00000000000E+00 0.  1.
        -13    1    3    3    0    0 -0.32693251356E+02 -0.25449999169E+03 -0.10445401755E+03  0.27703742750E+03  0.00000000000E+00 0. -1.
          4    1    6    6  502    0  0.64385759286E+02  0.64952303315E+03 -0.44836624281E+03  0.79186992889E+03  0.00000000000E+00 0. -1.
          3    1    5    5  503    0  0.34326132668E+02 -0.32037081352E+02 -0.28726955076E+02  0.55044490309E+02  0.00000000000E+00 0. -1.
         -4    1    5    5    0  503  0.17405065107E+03 -0.66183069781E+02  0.31834905191E+02  0.18891079655E+03  0.00000000000E+00 0.  1.
         -3    1    6    6    0  502 -0.10160906966E+02  0.36948369997E+03 -0.30215882549E+03  0.47741114817E+03  0.00000000000E+00 0.  1.
<mgrwt>
<rscale>  0 0.22876466E+04</rscale>
<asrwt>0</asrwt>
<pdfrwt beam="1">  1        2 0.27897155E+00 0.22876466E+04</pdfrwt>
<pdfrwt beam="2">  1       -2 0.11100211E+00 0.22876466E+04</pdfrwt>
<totfact> 0.49483304E+00</totfact>
</mgrwt>
</event>
<event>
12    1  0.2048318E-007  0.2327794E+04  0.7818608E-02  0.8467042E-01
          3   -1    0    0  501    0  0.00000000000E+00  0.00000000000E+00  0.21631798911E+04  0.21631798911E+04  0.00000000000E+00 0. -1.
         -3   -1    0    0    0  501 -0.00000000000E+00 -0.00000000000E+00 -0.62623394740E+03  0.62623394740E+03  0.00000000000E+00 0.  1.
         23    2    1    2    0    0 -0.65198784459E+03 -0.75186096554E+02  0.15389840456E+04  0.16755171857E+04  0.90248812822E+02 0.  0.
        254    2    1    2    0    0  0.65198784459E+03  0.75186096554E+02 -0.20381019638E+01  0.11138966528E+04  0.90001138915E+03 0.  0.
        -24    2    4    4    0    0  0.84727926545E+03 -0.74898356020E+02 -0.13135510621E+02  0.85462468135E+03  0.81968816874E+02 0.  0.
         24    2    4    4    0    0 -0.19529142086E+03  0.15008445257E+03  0.11097408657E+02  0.25927197142E+03  0.80216710974E+02 0.  0.
         13    1    3    3    0    0 -0.20023962486E+03 -0.24680235813E+02  0.58399675065E+03  0.61786505498E+03  0.00000000000E+00 0. -1.
        -13    1    3    3    0    0 -0.45174821973E+03 -0.50505860742E+02  0.95498729498E+03  0.10576521307E+04  0.00000000000E+00 0.  1.
          2    1    6    6  502    0 -0.10616016761E+03  0.32363245852E+02  0.11835290711E+02  0.11161287997E+03  0.00000000000E+00 0. -1.
          1    1    5    5  503    0  0.65008425520E+03 -0.26967042195E+02 -0.27106053639E+02  0.65120772290E+03  0.00000000000E+00 0. -1.
         -2    1    5    5    0  503  0.19719501025E+03 -0.47931313826E+02  0.13970543018E+02  0.20341695845E+03  0.00000000000E+00 0.  1.
         -1    1    6    6    0  502 -0.89131253253E+02  0.11772120672E+03 -0.73788205329E+00  0.14765909145E+03  0.00000000000E+00 0.  1.
<mgrwt>
<rscale>  0 0.23277944E+04</rscale>
<asrwt>0</asrwt>
<pdfrwt beam="1">  1        3 0.33279690E+00 0.23277944E+04</pdfrwt>
<pdfrwt beam="2">  1       -3 0.96343685E-01 0.23277944E+04</pdfrwt>
<totfact> 0.57536438E-02</totfact>
</mgrwt>
</event>
<event>
12    1  0.2048318E-007  0.1745226E+04  0.7818608E-02  0.8735983E-01
         -1   -1    0    0    0  501 -0.00000000000E+00  0.00000000000E+00  0.10662332768E+04  0.10662332768E+04  0.00000000000E+00 0.  1.
          1   -1    0    0  501    0  0.00000000000E+00 -0.00000000000E+00 -0.71415268168E+03  0.71415268168E+03  0.00000000000E+00 0. -1.
         23    2    1    2    0    0  0.49799977535E+03 -0.15533756010E+03  0.50182277956E+03  0.72945382283E+03  0.90239923126E+02 0.  0.
        254    2    1    2    0    0 -0.49799977535E+03  0.15533756010E+03 -0.14974218444E+03  0.10509321356E+04  0.89994560841E+03 0.  0.
        -24    2    4    4    0    0  0.82608469520E+02  0.39143000909E+03 -0.38651534039E+02  0.40963265852E+03  0.79141408816E+02 0.  0.
         24    2    4    4    0    0 -0.58060824487E+03 -0.23609244899E+03 -0.11109065040E+03  0.64129947712E+03  0.77963505969E+02 0.  0.
         13    1    3    3    0    0  0.36707412636E+03 -0.11676165223E+03  0.42186471850E+03  0.57126748409E+03  0.00000000000E+00 0.  1.
        -13    1    3    3    0    0  0.13092564900E+03 -0.38575907870E+02  0.79958061062E+02  0.15818633873E+03  0.00000000000E+00 0. -1.
          4    1    6    6  502    0 -0.57273842231E+02 -0.66064630125E+01  0.60736637371E+01  0.57972646556E+02  0.00000000000E+00 0. -1.
          3    1    5    5  503    0 -0.15681420825E+02  0.59578103905E+02 -0.26663801515E+01  0.61664957692E+02  0.00000000000E+00 0. -1.
         -4    1    5    5    0  503  0.98289890345E+02  0.33185190519E+03 -0.35985153887E+02  0.34796770083E+03  0.00000000000E+00 0.  1.
         -3    1    6    6    0  502 -0.52333440264E+03 -0.22948598598E+03 -0.11716431414E+03  0.58332683057E+03  0.00000000000E+00 0.  1.
<mgrwt>
<rscale>  0 0.17452259E+04</rscale>
<asrwt>0</asrwt>
<pdfrwt beam="1">  1        1 0.10986964E+00 0.17452259E+04</pdfrwt>
<pdfrwt beam="2">  1       -1 0.16403589E+00 0.17452259E+04</pdfrwt>
<totfact> 0.68250673E+00</totfact>
</mgrwt>
</event>
<event>
12    1  0.2048318E-007  0.4773060E+04  0.7818608E-02  0.7864501E-01
         -1   -1    0    0    0  501 -0.00000000000E+00  0.00000000000E+00  0.15280434396E+04  0.15280434396E+04  0.00000000000E+00 0.  1.
          1   -1    0    0  501    0  0.00000000000E+00 -0.00000000000E+00 -0.37273322845E+04  0.37273322845E+04  0.00000000000E+00 0. -1.
         23    2    1    2    0    0 -0.36208806962E+03  0.22581667398E+04 -0.78021605815E+03  0.24181080122E+04  0.89913659455E+02 0.  0.
        254    2    1    2    0    0  0.36208806962E+03 -0.22581667398E+04 -0.14190727867E+04  0.28372677119E+04  0.89771693755E+03 0.  0.
        -24    2    4    4    0    0 -0.24957505657E+03 -0.10633917868E+04 -0.80243209957E+03  0.13576662363E+04  0.79186702149E+02 0.  0.
         24    2    4    4    0    0  0.61166312619E+03 -0.11947749530E+04 -0.61664068718E+03  0.14796014756E+04  0.85766083603E+02 0.  0.
         13    1    3    3    0    0 -0.23234313882E+03  0.12795006685E+04 -0.48101094677E+03  0.13865341055E+04  0.00000000000E+00 0. -1.
        -13    1    3    3    0    0 -0.12974493080E+03  0.97866607130E+03 -0.29920511138E+03  0.10315739066E+04  0.00000000000E+00 0.  1.
          4    1    6    6  502    0  0.61072859646E+03 -0.11792923400E+04 -0.61630431677E+03  0.14640870372E+04  0.00000000000E+00 0. -1.
          1    1    5    5  503    0 -0.99133958397E+02 -0.50576272519E+03 -0.42142106571E+03  0.66574709202E+03  0.00000000000E+00 0. -1.
         -2    1    5    5    0  503 -0.15044109818E+03 -0.55762906160E+03 -0.38101103385E+03  0.69191914432E+03  0.00000000000E+00 0.  1.
         -3    1    6    6    0  502  0.93452973460E+00 -0.15482613016E+02 -0.33637040676E+00  0.15514438330E+02  0.00000000000E+00 0.  1.
<mgrwt>
<rscale>  0 0.47730601E+04</rscale>
<asrwt>0</asrwt>
<pdfrwt beam="1">  1        1 0.57343573E+00 0.47730601E+04</pdfrwt>
<pdfrwt beam="2">  1       -1 0.23508361E+00 0.47730601E+04</pdfrwt>
<totfact> 0.10496765E-02</totfact>
</mgrwt>
</event>
<event>
12    1  0.2048318E-007  0.2644328E+04  0.7818608E-02  0.8353298E-01
          2   -1    0    0  501    0  0.00000000000E+00  0.00000000000E+00  0.87118725877E+03  0.87118725877E+03  0.00000000000E+00 0. -1.
         -2   -1    0    0    0  501 -0.00000000000E+00 -0.00000000000E+00 -0.20065926578E+04  0.20065926578E+04  0.00000000000E+00 0.  1.
         23    2    1    2    0    0 -0.51599988433E+02  0.10469574110E+04 -0.10601531369E+04  0.14938607729E+04  0.94408451687E+02 0.  0.
        254    2    1    2    0    0  0.51599988433E+02 -0.10469574110E+04 -0.75252262074E+02  0.13839191437E+04  0.90043706829E+03 0.  0.
        -24    2    4    4    0    0 -0.35759007964E+03 -0.83529159109E+03 -0.10587089266E+02  0.91223995997E+03  0.80541609805E+02 0.  0.
         24    2    4    4    0    0  0.40919006807E+03 -0.21166581993E+03 -0.64665172808E+02  0.47167918369E+03  0.77850732920E+02 0.  0.
         11    1    3    3    0    0 -0.70566462341E+02  0.74962746592E+03 -0.79596255918E+03  0.10956629769E+04  0.00000000000E+00 0.  1.
        -11    1    3    3    0    0  0.18966473908E+02  0.29732994509E+03 -0.26419057776E+03  0.39819779602E+03  0.00000000000E+00 0. -1.
          4    1    6    6  502    0  0.30561223018E+03 -0.17868468448E+03 -0.21330170559E+02  0.35465762064E+03  0.00000000000E+00 0. -1.
          1    1    5    5  503    0 -0.28113387875E+03 -0.56282603407E+03 -0.11945508507E+02  0.62924724679E+03  0.00000000000E+00 0. -1.
         -4    1    5    5    0  503 -0.76456200885E+02 -0.27246555701E+03  0.13584192407E+01  0.28299271318E+03  0.00000000000E+00 0.  1.
         -3    1    6    6    0  502  0.10357783789E+03 -0.32981135446E+02 -0.43335002249E+02  0.11702156304E+03  0.00000000000E+00 0.  1.
<mgrwt>
<rscale>  0 0.26443282E+04</rscale>
<asrwt>0</asrwt>
<pdfrwt beam="1">  1        2 0.13402881E+00 0.26443282E+04</pdfrwt>
<pdfrwt beam="2">  1       -2 0.30870656E+00 0.26443282E+04</pdfrwt>
<totfact> 0.76005837E-01</totfact>
</mgrwt>
</event>
<event>
12    1  0.2048318E-007  0.1716697E+04  0.7818608E-02  0.8751898E-01
          1   -1    0    0  501    0  0.00000000000E+00  0.00000000000E+00  0.21639924479E+04  0.21639924479E+04  0.00000000000E+00 0. -1.
         -1   -1    0    0    0  501 -0.00000000000E+00 -0.00000000000E+00 -0.34046418104E+03  0.34046418104E+03  0.00000000000E+00 0.  1.
         23    2    1    2    0    0  0.47994473694E+02  0.30469636851E+03  0.14465145832E+04  0.14819340100E+04  0.92631658451E+02 0.  0.
        254    2    1    2    0    0 -0.47994473694E+02 -0.30469636851E+03  0.37701368368E+03  0.10225226190E+04  0.89903828734E+03 0.  0.
        -24    2    4    4    0    0 -0.42216244442E+03 -0.32292202150E+03  0.92730761807E+02  0.54576466878E+03  0.82221153318E+02 0.  0.
         24    2    4    4    0    0  0.37416797073E+03  0.18225652999E+02  0.28428292187E+03  0.47675795017E+03  0.78406113483E+02 0.  0.
         13    1    3    3    0    0  0.14557835686E+02  0.78486428523E+01  0.29936216422E+02  0.34201006245E+02  0.00000000000E+00 0.  1.
        -13    1    3    3    0    0  0.33436638008E+02  0.29684772565E+03  0.14165783668E+04  0.14477330038E+04  0.00000000000E+00 0. -1.
          2    1    6    6  502    0  0.23925650979E+03 -0.23789364773E+02  0.16231233826E+03  0.29009465094E+03  0.00000000000E+00 0. -1.
          1    1    5    5  503    0 -0.40156429164E+03 -0.30602643881E+03  0.10617192992E+03  0.51592493667E+03  0.00000000000E+00 0. -1.
         -2    1    5    5    0  503 -0.20598152782E+02 -0.16895582694E+02 -0.13441168111E+02  0.29839732116E+02  0.00000000000E+00 0.  1.
         -1    1    6    6    0  502  0.13491146094E+03  0.42015017771E+02  0.12197058361E+03  0.18666329922E+03  0.00000000000E+00 0.  1.
<mgrwt>
<rscale>  0 0.17166967E+04</rscale>
<asrwt>0</asrwt>
<pdfrwt beam="1">  1        1 0.33292191E+00 0.17166967E+04</pdfrwt>
<pdfrwt beam="2">  1       -1 0.52379106E-01 0.17166967E+04</pdfrwt>
<totfact> 0.80480596E+00</totfact>
</mgrwt>
</event>
<event>
12    1  0.2048318E-007  0.3830121E+04  0.7818608E-02  0.8039722E-01
         -2   -1    0    0    0  501 -0.00000000000E+00  0.00000000000E+00  0.22483273887E+04  0.22483273887E+04  0.00000000000E+00 0.  1.
          2   -1    0    0  501    0  0.00000000000E+00 -0.00000000000E+00 -0.16311937772E+04  0.16311937772E+04  0.00000000000E+00 0. -1.
         23    2    1    2    0    0 -0.15918829441E+04 -0.83883009620E+03  0.47049535891E+03  0.18621156577E+04  0.91551088235E+02 0.  0.
        254    2    1    2    0    0  0.15918829441E+04  0.83883009620E+03  0.14663825254E+03  0.20174055082E+04  0.90038601140E+03 0.  0.
        -24    2    4    4    0    0  0.43187926712E+03  0.72747687237E+02 -0.31989407188E+03  0.54874391209E+03  0.83520874435E+02 0.  0.
         24    2    4    4    0    0  0.11600036770E+04  0.76608240896E+03  0.46653232443E+03  0.14686615961E+04  0.82605606983E+02 0.  0.
         13    1    3    3    0    0 -0.35682582738E+03 -0.15618025012E+03  0.76049138946E+02  0.39686321718E+03  0.00000000000E+00 0. -1.
        -13    1    3    3    0    0 -0.12350571167E+04 -0.68264984608E+03  0.39444621996E+03  0.14652524405E+04  0.00000000000E+00 0.  1.
          2    1    6    6  502    0  0.18295910620E+02  0.26198544111E+01  0.11992120536E+01  0.18521395522E+02  0.00000000000E+00 0. -1.
          3    1    5    5  503    0  0.13990364110E+03  0.36601349083E+02 -0.61381667589E+02  0.15709995756E+03  0.00000000000E+00 0. -1.
         -4    1    5    5    0  503  0.29197562601E+03  0.36146338154E+02 -0.25851240429E+03  0.39164395453E+03  0.00000000000E+00 0.  1.
         -1    1    6    6    0  502  0.11417077664E+04  0.76346255455E+03  0.46533311237E+03  0.14501402006E+04  0.00000000000E+00 0.  1.
<mgrwt>
<rscale>  0 0.38301215E+04</rscale>
<asrwt>0</asrwt>
<pdfrwt beam="1">  1        2 0.25095289E+00 0.38301215E+04</pdfrwt>
<pdfrwt beam="2">  1       -2 0.34589652E+00 0.38301215E+04</pdfrwt>
<totfact> 0.14144122E-01</totfact>
</mgrwt>
</event>
<event>
12    1  0.2048318E-007  0.1955013E+04  0.7818608E-02  0.8627947E-01
          2   -1    0    0  501    0  0.00000000000E+00  0.00000000000E+00  0.82846395093E+03  0.82846395093E+03  0.00000000000E+00 0.  1.
         -2   -1    0    0    0  501 -0.00000000000E+00 -0.00000000000E+00 -0.11533621033E+04  0.11533621033E+04  0.00000000000E+00 0. -1.
         23    2    1    2    0    0  0.20400578999E+03 -0.36087430498E+03  0.52554991304E+03  0.67553566932E+03  0.91088435510E+02 0.  0.
        254    2    1    2    0    0 -0.20400578999E+03  0.36087430498E+03 -0.85044806542E+03  0.13062903849E+04  0.90071306832E+03 0.  0.
        -24    2    4    4    0    0 -0.19502607424E+03 -0.27194196208E+03 -0.38496461982E+03  0.51587353469E+03  0.77072335558E+02 0.  0.
         24    2    4    4    0    0 -0.89797157500E+01  0.63281626705E+03 -0.46548344560E+03  0.79041685024E+03  0.86872871909E+02 0.  0.
         13    1    3    3    0    0 -0.67517781578E+01 -0.16639299215E+02  0.92881340778E+01  0.20216879614E+02  0.00000000000E+00 0. -1.
        -13    1    3    3    0    0  0.21075756815E+03 -0.34423500576E+03  0.51626177896E+03  0.65531878970E+03  0.00000000000E+00 0.  1.
          4    1    6    6  502    0  0.36174437106E+02  0.31825900709E+03 -0.25247926496E+03  0.40785189067E+03  0.00000000000E+00 0. -1.
          1    1    5    5  503    0 -0.14567420616E+03 -0.14925010977E+03 -0.20403121765E+03  0.29176241599E+03  0.00000000000E+00 0. -1.
         -2    1    5    5    0  503 -0.49351868082E+02 -0.12269185230E+03 -0.18093340217E+03  0.22411111870E+03  0.00000000000E+00 0.  1.
         -3    1    6    6    0  502 -0.45154152856E+02  0.31455725997E+03 -0.21300418065E+03  0.38256495957E+03  0.00000000000E+00 0.  1.
<mgrwt>
<rscale>  0 0.19550130E+04</rscale>
<asrwt>0</asrwt>
<pdfrwt beam="1">  1        2 0.12745599E+00 0.19550130E+04</pdfrwt>
<pdfrwt beam="2">  1       -2 0.17744032E+00 0.19550130E+04</pdfrwt>
<totfact> 0.57863454E+00</totfact>
</mgrwt>
</event>
<event>
12    1  0.2048318E-007  0.1523918E+04  0.7818608E-02  0.8868702E-01
          1   -1    0    0  501    0  0.00000000000E+00  0.00000000000E+00  0.12586299402E+04  0.12586299402E+04  0.00000000000E+00 0. -1.
         -1   -1    0    0    0  501 -0.00000000000E+00 -0.00000000000E+00 -0.46128057518E+03  0.46128057518E+03  0.00000000000E+00 0.  1.
         23    2    1    2    0    0  0.12431322064E+03 -0.47053631287E+03  0.32608625920E+03  0.59294489612E+03  0.91614424873E+02 0.  0.
        254    2    1    2    0    0 -0.12431322064E+03  0.47053631287E+03  0.47126310583E+03  0.11269656193E+04  0.90061334295E+03 0.  0.
        -24    2    4    4    0    0 -0.77664133925E+02  0.70328833981E+03  0.50688771344E+03  0.87414939222E+03  0.80967890346E+02 0.  0.
         24    2    4    4    0    0 -0.46649086713E+02 -0.23275202694E+03 -0.35624607615E+02  0.25281622703E+03  0.79355457577E+02 0.  0.
         13    1    3    3    0    0  0.49507420116E+02 -0.13996072060E+03  0.14981641308E+03  0.21091454569E+03  0.00000000000E+00 0. -1.
        -13    1    3    3    0    0  0.74805800522E+02 -0.33057559228E+03  0.17626984612E+03  0.38203035043E+03  0.00000000000E+00 0.  1.
          4    1    6    6  502    0 -0.24050578747E+02 -0.32324322819E+02  0.17975357374E+02  0.44118087634E+02  0.00000000000E+00 0. -1.
          3    1    5    5  503    0 -0.16327098986E+01  0.65842183453E+01  0.19096304188E+02  0.20265401710E+02  0.00000000000E+00 0. -1.
         -4    1    5    5    0  503 -0.76031424026E+02  0.69670412147E+03  0.48779140925E+03  0.85388399051E+03  0.00000000000E+00 0.  1.
         -3    1    6    6    0  502 -0.22598507967E+02 -0.20042770412E+03 -0.53599964989E+02  0.20869813940E+03  0.00000000000E+00 0.  1.
<mgrwt>
<rscale>  0 0.15239180E+04</rscale>
<asrwt>0</asrwt>
<pdfrwt beam="1">  1        1 0.19363537E+00 0.15239180E+04</pdfrwt>
<pdfrwt beam="2">  1       -1 0.70966243E-01 0.15239180E+04</pdfrwt>
<totfact> 0.18758863E+01</totfact>
</mgrwt>
</event>
<event>
12    1  0.2052539E-007  0.2238377E+04  0.7818608E-02  0.8502623E-01
          2   -1    0    0  501    0  0.00000000000E+00  0.00000000000E+00  0.76694178611E+03  0.76694178611E+03  0.00000000000E+00 0. -1.
         -2   -1    0    0    0  501 -0.00000000000E+00 -0.00000000000E+00 -0.16332172118E+04  0.16332172118E+04  0.00000000000E+00 0.  1.
         23    2    1    2    0    0 -0.51457383233E+03  0.74170402978E+03 -0.62681046052E+03  0.11029436455E+04  0.93178511542E+02 0.  0.
        254    2    1    2    0    0  0.51457383233E+03 -0.74170402978E+03 -0.23946496517E+03  0.12972153524E+04  0.90028501280E+03 0.  0.
        -24    2    4    4    0    0 -0.21261557067E+03 -0.14362630049E+02  0.33774408561E+02  0.23002010015E+03  0.79729980342E+02 0.  0.
         24    2    4    4    0    0  0.72718940300E+03 -0.72734139973E+03 -0.27323937373E+03  0.10671952523E+04  0.80100009412E+02 0.  0.
         11    1    3    3    0    0 -0.25958613887E+03  0.29439303646E+03 -0.28078623630E+03  0.48259002674E+03  0.00000000000E+00 0.  1.
        -11    1    3    3    0    0 -0.25498769346E+03  0.44731099332E+03 -0.34602422422E+03  0.62035361876E+03  0.00000000000E+00 0. -1.
          2    1    6    6  502    0  0.36823820655E+03 -0.37289093576E+03 -0.18049653311E+03  0.55427973551E+03  0.00000000000E+00 0. -1.
          1    1    5    5  503    0 -0.75584605819E+02 -0.43581412774E+01  0.51384035689E+02  0.91500519976E+02  0.00000000000E+00 0. -1.
         -2    1    5    5    0  503 -0.13703096485E+03 -0.10004488771E+02 -0.17609627128E+02  0.13851958017E+03  0.00000000000E+00 0.  1.
         -1    1    6    6    0  502  0.35895119645E+03 -0.35445046398E+03 -0.92742840621E+02  0.51291551676E+03  0.00000000000E+00 0.  1.
<mgrwt>
<rscale>  0 0.22383767E+04</rscale>
<asrwt>0</asrwt>
<pdfrwt beam="1">  1        2 0.11799105E+00 0.22383767E+04</pdfrwt>
<pdfrwt beam="2">  1       -2 0.25126418E+00 0.22383767E+04</pdfrwt>
<totfact> 0.20944297E+00</totfact>
</mgrwt>
</event>
<event>
12    1  0.2048318E-007  0.1907614E+04  0.7818608E-02  0.8651076E-01
          2   -1    0    0  501    0  0.00000000000E+00  0.00000000000E+00  0.15093850781E+04  0.15093850781E+04  0.00000000000E+00 0. -1.
         -2   -1    0    0    0  501 -0.00000000000E+00 -0.00000000000E+00 -0.60272738886E+03  0.60272738886E+03  0.00000000000E+00 0.  1.
         23    2    1    2    0    0  0.70939287240E+03  0.17274973657E+03  0.46787284567E+03  0.87236452067E+03  0.95048084146E+02 0.  0.
        254    2    1    2    0    0 -0.70939287240E+03 -0.17274973657E+03  0.43878484352E+03  0.12397479462E+04  0.90075641125E+03 0.  0.
        -24    2    4    4    0    0 -0.21924092603E+03 -0.31545757672E+03 -0.18131212945E+03  0.43216138529E+03  0.79431154396E+02 0.  0.
         24    2    4    4    0    0 -0.49015194637E+03  0.14270784015E+03  0.62009697297E+03  0.80758656096E+03  0.84031775977E+02 0.  0.
         13    1    3    3    0    0  0.47689524830E+02  0.27489793823E+02  0.13614876671E+02  0.56704006999E+02  0.00000000000E+00 0. -1.
        -13    1    3    3    0    0  0.66170334757E+03  0.14525994275E+03  0.45425796900E+03  0.81566051367E+03  0.00000000000E+00 0.  1.
          4    1    6    6  502    0 -0.77355146515E+02 -0.61581690344E+01  0.76423505529E+02  0.10891415856E+03  0.00000000000E+00 0. -1.
          3    1    5    5  503    0 -0.40228237183E+02 -0.77979564430E+02 -0.77805936649E+02  0.11727270490E+03  0.00000000000E+00 0. -1.
         -2    1    5    5    0  503 -0.17901268885E+03 -0.23747801229E+03 -0.10350619280E+03  0.31488868039E+03  0.00000000000E+00 0.  1.
         -3    1    6    6    0  502 -0.41279679986E+03  0.14886600918E+03  0.54367346744E+03  0.69867240239E+03  0.00000000000E+00 0.  1.
<mgrwt>
<rscale>  0 0.19076139E+04</rscale>
<asrwt>0</asrwt>
<pdfrwt beam="1">  1        2 0.23221309E+00 0.19076139E+04</pdfrwt>
<pdfrwt beam="2">  1       -2 0.92727291E-01 0.19076139E+04</pdfrwt>
<totfact> 0.11575482E+01</totfact>
</mgrwt>
</event>
<event>
12    1  0.2048318E-007  0.1347433E+04  0.7818608E-02  0.8992774E-01
         -2   -1    0    0    0  501 -0.00000000000E+00  0.00000000000E+00  0.10364973987E+04  0.10364973987E+04  0.00000000000E+00 0.  1.
          2   -1    0    0  501    0  0.00000000000E+00 -0.00000000000E+00 -0.43791130933E+03  0.43791130933E+03  0.00000000000E+00 0. -1.
         23    2    1    2    0    0  0.33797372103E+03 -0.16359066985E+02  0.30681259298E+03  0.46545877435E+03  0.89577051925E+02 0.  0.
        254    2    1    2    0    0 -0.33797372103E+03  0.16359066985E+02  0.29177349642E+03  0.10089499337E+04  0.90462939391E+03 0.  0.
        -24    2    4    4    0    0 -0.81593058313E+02 -0.27751372600E+03 -0.21144497648E+03  0.36741264063E+03  0.81312822657E+02 0.  0.
         24    2    4    4    0    0 -0.25638066272E+03  0.29387279299E+03  0.50321847290E+03  0.64153729308E+03  0.79050643659E+02 0.  0.
         13    1    3    3    0    0  0.21156308302E+03 -0.23012485616E+02  0.13488613351E+03  0.25195789650E+03  0.00000000000E+00 0. -1.
        -13    1    3    3    0    0  0.12641063801E+03  0.66534186310E+01  0.17192645947E+03  0.21350087786E+03  0.00000000000E+00 0.  1.
          2    1    6    6  502    0 -0.21898731518E+03  0.26705590690E+03  0.39960285912E+03  0.52816356049E+03  0.00000000000E+00 0. -1.
          1    1    5    5  503    0 -0.28094607641E+01 -0.13175053024E+03 -0.68184027392E+02  0.14837505477E+03  0.00000000000E+00 0. -1.
         -2    1    5    5    0  503 -0.78783597549E+02 -0.14576319577E+03 -0.14326094909E+03  0.21903758585E+03  0.00000000000E+00 0.  1.
         -1    1    6    6    0  502 -0.37393347546E+02  0.26816886088E+02  0.10361561378E+03  0.11337373258E+03  0.00000000000E+00 0.  1.
<mgrwt>
<rscale>  0 0.13474330E+04</rscale>
<asrwt>0</asrwt>
<pdfrwt beam="1">  1        2 0.67370971E-01 0.13474330E+04</pdfrwt>
<pdfrwt beam="2">  1       -2 0.15946114E+00 0.13474330E+04</pdfrwt>
<totfact> 0.17799762E+01</totfact>
</mgrwt>
</event>
<event>
12    1  0.2048318E-007  0.1659293E+04  0.7818608E-02  0.8784928E-01
          2   -1    0    0  501    0  0.00000000000E+00  0.00000000000E+00  0.18663506933E+04  0.18663506933E+04  0.00000000000E+00 0. -1.
         -2   -1    0    0    0  501 -0.00000000000E+00 -0.00000000000E+00 -0.36880156166E+03  0.36880156166E+03  0.00000000000E+00 0.  1.
         23    2    1    2    0    0  0.49630571907E+03  0.16931578027E+03  0.85900772304E+03  0.10105023127E+04  0.90738390816E+02 0.  0.
        254    2    1    2    0    0 -0.49630571907E+03 -0.16931578027E+03  0.63854140857E+03  0.12246499422E+04  0.90390549850E+03 0.  0.
        -24    2    4    4    0    0 -0.15500398712E+03  0.14369156798E+03  0.71430690872E+03  0.74858332930E+03  0.73953622835E+02 0.  0.
         24    2    4    4    0    0 -0.34130173195E+03 -0.31300734825E+03 -0.75765500155E+02  0.47606661289E+03  0.80240492265E+02 0.  0.
         11    1    3    3    0    0  0.14483760734E+03  0.17988300558E+02  0.18739862725E+03  0.23752843399E+03  0.00000000000E+00 0.  1.
        -11    1    3    3    0    0  0.35146811174E+03  0.15132747972E+03  0.67160909579E+03  0.77297387875E+03  0.00000000000E+00 0. -1.
          4    1    6    6  502    0 -0.32382377824E+03 -0.30363245632E+03 -0.88298840804E+02  0.45260489742E+03  0.00000000000E+00 0. -1.
          1    1    5    5  503    0 -0.34058226653E+02  0.80200059076E+02  0.29356636025E+03  0.30622413385E+03  0.00000000000E+00 0. -1.
         -2    1    5    5    0  503 -0.12094576046E+03  0.63491508903E+02  0.42074054847E+03  0.44235919546E+03  0.00000000000E+00 0.  1.
         -3    1    6    6    0  502 -0.17477953713E+02 -0.93748919328E+01  0.12533340648E+02  0.23461715465E+02  0.00000000000E+00 0.  1.
<mgrwt>
<rscale>  0 0.16592927E+04</rscale>
<asrwt>0</asrwt>
<pdfrwt beam="1">  1        2 0.28713087E+00 0.16592927E+04</pdfrwt>
<pdfrwt beam="2">  1       -2 0.56738703E-01 0.16592927E+04</pdfrwt>
<totfact> 0.22044942E+01</totfact>
</mgrwt>
</event>
<event>
12    1  0.2048318E-007  0.2449657E+04  0.7818608E-02  0.8421143E-01
         -2   -1    0    0    0  501 -0.00000000000E+00  0.00000000000E+00  0.12279021730E+04  0.12279021730E+04  0.00000000000E+00 0.  1.
          2   -1    0    0  501    0  0.00000000000E+00 -0.00000000000E+00 -0.12217629622E+04  0.12217629622E+04  0.00000000000E+00 0. -1.
         23    2    1    2    0    0 -0.96680252913E+03  0.25976721178E+03  0.34139448603E+03  0.10614377398E+04  0.88959236390E+02 0.  0.
        254    2    1    2    0    0  0.96680252913E+03 -0.25976721178E+03 -0.33525527522E+03  0.13882273954E+04  0.90143944177E+03 0.  0.
        -24    2    4    4    0    0  0.37347357893E+03  0.30644628841E+03  0.22996405889E+02  0.48986589291E+03  0.77768351634E+02 0.  0.
         24    2    4    4    0    0  0.59332895020E+03 -0.56621350020E+03 -0.35825168111E+03  0.89836150251E+03  0.77924009267E+02 0.  0.
         11    1    3    3    0    0 -0.42837771027E+03  0.15780647121E+03  0.13811186478E+03  0.47695411960E+03  0.00000000000E+00 0.  1.
        -11    1    3    3    0    0 -0.53842481886E+03  0.10196074057E+03  0.20328262125E+03  0.58448362020E+03  0.00000000000E+00 0. -1.
          2    1    6    6  502    0  0.40304680744E+03 -0.36072620710E+03 -0.20002864676E+03  0.57669886856E+03  0.00000000000E+00 0. -1.
          1    1    5    5  503    0  0.18924814186E+03  0.17348596026E+03 -0.24027679619E+02  0.25785570964E+03  0.00000000000E+00 0. -1.
         -2    1    5    5    0  503  0.18422543707E+03  0.13296032815E+03  0.47024085507E+02  0.23201018327E+03  0.00000000000E+00 0.  1.
         -1    1    6    6    0  502  0.19028214276E+03 -0.20548729310E+03 -0.15822303435E+03  0.32166263394E+03  0.00000000000E+00 0.  1.
<mgrwt>
<rscale>  0 0.24496574E+04</rscale>
<asrwt>0</asrwt>
<pdfrwt beam="1">  1        2 0.18796353E+00 0.24496574E+04</pdfrwt>
<pdfrwt beam="2">  1       -2 0.18890803E+00 0.24496574E+04</pdfrwt>
<totfact> 0.25953328E+00</totfact>
</mgrwt>
</event>
<event>
12    1  0.2048318E-007  0.2108888E+04  0.7818608E-02  0.8557338E-01
          2   -1    0    0  501    0  0.00000000000E+00  0.00000000000E+00  0.15937149031E+04  0.15937149031E+04  0.00000000000E+00 0. -1.
         -2   -1    0    0    0  501 -0.00000000000E+00 -0.00000000000E+00 -0.69764788757E+03  0.69764788757E+03  0.00000000000E+00 0.  1.
         23    2    1    2    0    0 -0.85924658324E+03  0.17755162237E+02  0.38224805306E+03  0.94507076146E+03  0.91789070684E+02 0.  0.
        254    2    1    2    0    0  0.85924658324E+03 -0.17755162237E+02  0.51381896243E+03  0.13462920292E+04  0.89992908891E+03 0.  0.
        -24    2    4    4    0    0 -0.16748278240E+03  0.15809903386E+02  0.18924536230E+03  0.26601172948E+03  0.81535253891E+02 0.  0.
         24    2    4    4    0    0  0.10267293656E+04 -0.33565065623E+02  0.32457360013E+03  0.10802802997E+04  0.79735187346E+02 0.  0.
         11    1    3    3    0    0 -0.41538930195E+03  0.21100276672E+02  0.13672336490E+03  0.43782047961E+03  0.00000000000E+00 0.  1.
        -11    1    3    3    0    0 -0.44385728129E+03 -0.33451144353E+01  0.24552468816E+03  0.50725028185E+03  0.00000000000E+00 0. -1.
          2    1    6    6  502    0  0.44216865102E+03 -0.43192122391E+02  0.11178754964E+03  0.45812130669E+03  0.00000000000E+00 0. -1.
          3    1    5    5  503    0  0.91934737521E+01  0.34906822476E+01  0.10432736278E+02  0.14336903726E+02  0.00000000000E+00 0. -1.
         -4    1    5    5    0  503 -0.17667625615E+03  0.12319221139E+02  0.17881262602E+03  0.25167482576E+03  0.00000000000E+00 0.  1.
         -1    1    6    6    0  502  0.58456071461E+03  0.96270567674E+01  0.21278605049E+03  0.62215899300E+03  0.00000000000E+00 0.  1.
<mgrwt>
<rscale>  0 0.21088877E+04</rscale>
<asrwt>0</asrwt>
<pdfrwt beam="1">  1        2 0.24518691E+00 0.21088877E+04</pdfrwt>
<pdfrwt beam="2">  1       -2 0.10733044E+00 0.21088877E+04</pdfrwt>
<totfact> 0.72194020E+00</totfact>
</mgrwt>
</event>
<event>
12    1  0.2048318E-007  0.2241159E+04  0.7818608E-02  0.8501490E-01
          1   -1    0    0  501    0  0.00000000000E+00  0.00000000000E+00  0.29252804603E+04  0.29252804603E+04  0.00000000000E+00 0. -1.
         -1   -1    0    0    0  501 -0.00000000000E+00 -0.00000000000E+00 -0.42925732687E+03  0.42925732687E+03  0.00000000000E+00 0.  1.
         23    2    1    2    0    0  0.28131776408E+03  0.87501791724E+03  0.78288779039E+03  0.12110754471E+04  0.94838844007E+02 0.  0.
        254    2    1    2    0    0 -0.28131776408E+03 -0.87501791724E+03  0.17131353430E+04  0.21434623401E+04  0.90266386869E+03 0.  0.
        -24    2    4    4    0    0  0.84218257072E+02 -0.37675145021E+02 -0.66194406916E+02  0.14164662485E+03  0.84675471340E+02 0.  0.
         24    2    4    4    0    0 -0.36553602116E+03 -0.83734277222E+03  0.17793297499E+04  0.20018157152E+04  0.80574795639E+02 0.  0.
         11    1    3    3    0    0  0.16926013848E+03  0.65893565614E+03  0.58939354098E+03  0.90012773514E+03  0.00000000000E+00 0.  1.
        -11    1    3    3    0    0  0.11205762560E+03  0.21608226110E+03  0.19349424941E+03  0.31094771196E+03  0.00000000000E+00 0. -1.
          2    1    6    6  502    0 -0.68087065192E+02 -0.22698789925E+03  0.41589579488E+03  0.47867386293E+03  0.00000000000E+00 0. -1.
          1    1    5    5  503    0  0.83967304022E+02 -0.82918294925E+00 -0.27853570360E+02  0.88470430489E+02  0.00000000000E+00 0. -1.
         -2    1    5    5    0  503  0.25095304939E+00 -0.36845962072E+02 -0.38340836556E+02  0.53176194357E+02  0.00000000000E+00 0.  1.
         -1    1    6    6    0  502 -0.29744895596E+03 -0.61035487297E+03  0.13634339551E+04  0.15231418523E+04  0.00000000000E+00 0.  1.
<mgrwt>
<rscale>  0 0.22411587E+04</rscale>
<asrwt>0</asrwt>
<pdfrwt beam="1">  1        1 0.45004314E+00 0.22411587E+04</pdfrwt>
<pdfrwt beam="2">  1       -1 0.66039591E-01 0.22411587E+04</pdfrwt>
<totfact> 0.14309047E+00</totfact>
</mgrwt>
</event>
<event>
12    1  0.2048318E-007  0.1844049E+04  0.7818608E-02  0.8683219E-01
          1   -1    0    0  501    0  0.00000000000E+00  0.00000000000E+00  0.13608578918E+04  0.13608578918E+04  0.00000000000E+00 0. -1.
         -1   -1    0    0    0  501 -0.00000000000E+00 -0.00000000000E+00 -0.62470113267E+03  0.62470113267E+03  0.00000000000E+00 0.  1.
         23    2    1    2    0    0 -0.33722504759E+03  0.16054387222E+03 -0.35438757948E+03  0.52291325067E+03  0.91392798455E+02 0.  0.
        254    2    1    2    0    0  0.33722504759E+03 -0.16054387222E+03  0.10905443386E+04  0.14626457738E+04  0.90030585775E+03 0.  0.
        -24    2    4    4    0    0  0.61183276535E+03  0.47081194274E+02  0.73966502022E+03  0.96462384015E+03  0.82697274691E+02 0.  0.
         24    2    4    4    0    0 -0.27460771776E+03 -0.20762506649E+03  0.35087931834E+03  0.49802193360E+03  0.79949880692E+02 0.  0.
         13    1    3    3    0    0 -0.13198953813E+03  0.11273852290E+03 -0.16840630763E+03  0.24185098133E+03  0.00000000000E+00 0.  1.
        -13    1    3    3    0    0 -0.20523550947E+03  0.47805349315E+02 -0.18598127184E+03  0.28106226934E+03  0.00000000000E+00 0. -1.
          4    1    6    6  502    0 -0.10101545881E+03 -0.10955965673E+03  0.10937628151E+03  0.18485294766E+03  0.00000000000E+00 0. -1.
          1    1    5    5  503    0  0.50559944106E+03  0.38498477111E+02  0.65601719467E+03  0.82913900357E+03  0.00000000000E+00 0. -1.
         -2    1    5    5    0  503  0.10623332430E+03  0.85827171632E+01  0.83647825550E+02  0.13548483659E+03  0.00000000000E+00 0.  1.
         -3    1    6    6    0  502 -0.17359225895E+03 -0.98065409756E+02  0.24150303682E+03  0.31316898594E+03  0.00000000000E+00 0.  1.
<mgrwt>
<rscale>  0 0.18440493E+04</rscale>
<asrwt>0</asrwt>
<pdfrwt beam="1">  1        1 0.20936275E+00 0.18440493E+04</pdfrwt>
<pdfrwt beam="2">  1       -1 0.96107867E-01 0.18440493E+04</pdfrwt>
<totfact> 0.80287000E+00</totfact>
</mgrwt>
</event>
<event>
12    1  0.2048318E-007  0.1859182E+04  0.7818608E-02  0.8675445E-01
          2   -1    0    0  501    0  0.00000000000E+00  0.00000000000E+00  0.51064733207E+03  0.51064733207E+03  0.00000000000E+00 0. -1.
         -2   -1    0    0    0  501 -0.00000000000E+00 -0.00000000000E+00 -0.16922431053E+04  0.16922431053E+04  0.00000000000E+00 0.  1.
         23    2    1    2    0    0 -0.45343124914E+03  0.36320598361E+03  0.25862985911E+02  0.58872008002E+03  0.91673084121E+02 0.  0.
        254    2    1    2    0    0  0.45343124914E+03 -0.36320598361E+03 -0.12074587591E+04  0.16141703573E+04  0.90003933428E+03 0.  0.
        -24    2    4    4    0    0  0.70040865167E+03 -0.39849224748E+03 -0.90659905069E+03  0.12155404507E+04  0.79046809217E+02 0.  0.
         24    2    4    4    0    0 -0.24697740254E+03  0.35286263872E+02 -0.30085970842E+03  0.39862990656E+03  0.78398217290E+02 0.  0.
         13    1    3    3    0    0 -0.77625276977E+00  0.19965047680E+02 -0.10373847974E+01  0.20007045370E+02  0.00000000000E+00 0. -1.
        -13    1    3    3    0    0 -0.45265499637E+03  0.34324093593E+03  0.26900370708E+02  0.56871303465E+03  0.00000000000E+00 0.  1.
          4    1    6    6  502    0 -0.31350628865E+02 -0.21511948507E+02 -0.53038810568E+02  0.65259032212E+02  0.00000000000E+00 0. -1.
          3    1    5    5  503    0  0.15734254732E+03 -0.53807561744E+02 -0.19716263705E+03  0.25792447799E+03  0.00000000000E+00 0. -1.
         -4    1    5    5    0  503  0.54306610435E+03 -0.34468468574E+03 -0.70943641364E+03  0.95761597276E+03  0.00000000000E+00 0.  1.
         -3    1    6    6    0  502 -0.21562677367E+03  0.56798212379E+02 -0.24782089785E+03  0.33337087435E+03  0.00000000000E+00 0.  1.
<mgrwt>
<rscale>  0 0.18591820E+04</rscale>
<asrwt>0</asrwt>
<pdfrwt beam="1">  1        2 0.78561127E-01 0.18591820E+04</pdfrwt>
<pdfrwt beam="2">  1       -2 0.26034510E+00 0.18591820E+04</pdfrwt>
<totfact> 0.31350000E+00</totfact>
</mgrwt>
</event>
<event>
12    1  0.2048318E-007  0.1384453E+04  0.7818608E-02  0.8965150E-01
         -2   -1    0    0    0  501 -0.00000000000E+00  0.00000000000E+00  0.62618838193E+03  0.62618838193E+03  0.00000000000E+00 0.  1.
          2   -1    0    0  501    0  0.00000000000E+00 -0.00000000000E+00 -0.76522853909E+03  0.76522853909E+03  0.00000000000E+00 0. -1.
         23    2    1    2    0    0 -0.45164008041E+02  0.42430112072E+02  0.35004925750E+03  0.36616320474E+03  0.87754816358E+02 0.  0.
        254    2    1    2    0    0  0.45164008041E+02 -0.42430112072E+02 -0.48908941466E+03  0.10252537163E+04  0.89894194761E+03 0.  0.
        -24    2    4    4    0    0  0.13726995878E+03  0.35603261404E+03 -0.46661293261E+03  0.60804930738E+03  0.79962913190E+02 0.  0.
         24    2    4    4    0    0 -0.92105950736E+02 -0.39846272612E+03 -0.22476482055E+02  0.41720440890E+03  0.79361680247E+02 0.  0.
         11    1    3    3    0    0  0.19425474114E+02 -0.97593578907E+01  0.11080901313E+03  0.11292135095E+03  0.00000000000E+00 0. -1.
        -11    1    3    3    0    0 -0.64589482154E+02  0.52189469962E+02  0.23924024438E+03  0.25324185379E+03  0.00000000000E+00 0.  1.
          2    1    6    6  502    0 -0.95569545167E+01 -0.20945344118E+02  0.17196471875E+02  0.28736065576E+02  0.00000000000E+00 0. -1.
          3    1    5    5  503    0  0.36606197966E+02  0.81348118449E+02 -0.61508730453E+02  0.10835522150E+03  0.00000000000E+00 0. -1.
         -4    1    5    5    0  503  0.10066376081E+03  0.27468449560E+03 -0.40510420216E+03  0.49969408588E+03  0.00000000000E+00 0.  1.
         -1    1    6    6    0  502 -0.82548996219E+02 -0.37751738200E+03 -0.39672953930E+02  0.38846834332E+03  0.00000000000E+00 0.  1.
<mgrwt>
<rscale>  0 0.13844526E+04</rscale>
<asrwt>0</asrwt>
<pdfrwt beam="1">  1        2 0.11772747E+00 0.13844526E+04</pdfrwt>
<pdfrwt beam="2">  1       -2 0.96336675E-01 0.13844526E+04</pdfrwt>
<totfact> 0.32114290E+01</totfact>
</mgrwt>
</event>
<event>
12    1  0.2048318E-007  0.1438891E+04  0.7818608E-02  0.8926139E-01
         -1   -1    0    0    0  501 -0.00000000000E+00  0.00000000000E+00  0.13396262840E+04  0.13396262840E+04  0.00000000000E+00 0.  1.
          1   -1    0    0  501    0  0.00000000000E+00 -0.00000000000E+00 -0.38637763731E+03  0.38637763731E+03  0.00000000000E+00 0. -1.
         23    2    1    2    0    0 -0.14037403164E+03  0.23584740062E+02 -0.19539877232E+03  0.26014351005E+03  0.96087756095E+02 0.  0.
        254    2    1    2    0    0  0.14037403164E+03 -0.23584740062E+02  0.11486474190E+04  0.14658604112E+04  0.89949693905E+03 0.  0.
        -24    2    4    4    0    0 -0.34622904087E+01  0.42293203058E+03  0.46783178278E+03  0.63513772326E+03  0.75165554483E+02 0.  0.
         24    2    4    4    0    0  0.14383632205E+03 -0.44651677064E+03  0.68081563619E+03  0.83072268796E+03  0.80772147462E+02 0.  0.
         13    1    3    3    0    0 -0.11954157083E+03  0.13315075681E+02 -0.20278278031E+03  0.23577178454E+03  0.00000000000E+00 0. -1.
        -13    1    3    3    0    0 -0.20832460813E+02  0.10269664380E+02  0.73840079883E+01  0.24371725503E+02  0.00000000000E+00 0.  1.
          4    1    6    6  502    0  0.13005224082E+02 -0.13205372436E+03  0.15263244589E+03  0.20224733746E+03  0.00000000000E+00 0. -1.
          1    1    5    5  503    0 -0.28143227473E+02  0.11139957284E+03  0.15513001601E+03  0.19304721689E+03  0.00000000000E+00 0. -1.
         -2    1    5    5    0  503  0.24680937065E+02  0.31153245774E+03  0.31270176677E+03  0.44209050637E+03  0.00000000000E+00 0.  1.
         -3    1    6    6    0  502  0.13083109797E+03 -0.31446304629E+03  0.52818319030E+03  0.62847535051E+03  0.00000000000E+00 0.  1.
<mgrwt>
<rscale>  0 0.14388907E+04</rscale>
<asrwt>0</asrwt>
<pdfrwt beam="1">  1        1 0.59442714E-01 0.14388907E+04</pdfrwt>
<pdfrwt beam="2">  1       -1 0.20609635E+00 0.14388907E+04</pdfrwt>
<totfact> 0.83471343E+00</totfact>
</mgrwt>
</event>
<event>
12    1  0.2048318E-007  0.1799039E+04  0.7818608E-02  0.8706811E-01
         -1   -1    0    0    0  501 -0.00000000000E+00  0.00000000000E+00  0.97789852703E+03  0.97789852703E+03  0.00000000000E+00 0.  1.
          1   -1    0    0  501    0  0.00000000000E+00 -0.00000000000E+00 -0.82742244040E+03  0.82742244040E+03  0.00000000000E+00 0. -1.
         23    2    1    2    0    0 -0.36090263790E+02  0.63721265327E+03 -0.15129311468E+03  0.66196088737E+03  0.89219601151E+02 0.  0.
        254    2    1    2    0    0  0.36090263790E+02 -0.63721265327E+03  0.30176920132E+03  0.11433600801E+04  0.89936930635E+03 0.  0.
        -24    2    4    4    0    0  0.42996319105E+03 -0.31575130231E+03 -0.12993457657E+02  0.53954825348E+03  0.79851470348E+02 0.  0.
         24    2    4    4    0    0 -0.39387292726E+03 -0.32146135095E+03  0.31476265898E+03  0.60381182659E+03  0.83904156389E+02 0.  0.
         11    1    3    3    0    0 -0.63649757117E+02  0.34085107159E+03 -0.77041074728E+02  0.35519863707E+03  0.00000000000E+00 0. -1.
        -11    1    3    3    0    0  0.27559493327E+02  0.29636158168E+03 -0.74252039956E+02  0.30676225029E+03  0.00000000000E+00 0.  1.
          2    1    6    6  502    0 -0.16760302367E+03 -0.14066831547E+03  0.87473064822E+02  0.23564779989E+03  0.00000000000E+00 0. -1.
          3    1    5    5  503    0  0.29808281954E+02 -0.18187823891E+02  0.19190109196E+02  0.39844584348E+02  0.00000000000E+00 0. -1.
         -4    1    5    5    0  503  0.40015490910E+03 -0.29756347842E+03 -0.32183566853E+02  0.49970366913E+03  0.00000000000E+00 0.  1.
         -1    1    6    6    0  502 -0.22626990359E+03 -0.18079303548E+03  0.22728959415E+03  0.36816402671E+03  0.00000000000E+00 0.  1.
<mgrwt>
<rscale>  0 0.17990388E+04</rscale>
<asrwt>0</asrwt>
<pdfrwt beam="1">  1        1 0.12729576E+00 0.17990388E+04</pdfrwt>
<pdfrwt beam="2">  1       -1 0.15044593E+00 0.17990388E+04</pdfrwt>
<totfact> 0.68380400E+00</totfact>
</mgrwt>
</event>
<event>
12    1  0.2048318E-007  0.2594001E+04  0.7818608E-02  0.8370242E-01
          1   -1    0    0  501    0  0.00000000000E+00  0.00000000000E+00  0.12091244570E+04  0.12091244570E+04  0.00000000000E+00 0. -1.
         -1   -1    0    0    0  501 -0.00000000000E+00 -0.00000000000E+00 -0.13912636559E+04  0.13912636559E+04  0.00000000000E+00 0.  1.
         23    2    1    2    0    0  0.10642817645E+03  0.11326139105E+04 -0.25220082248E+02  0.11415611073E+04  0.91566817632E+02 0.  0.
        254    2    1    2    0    0 -0.10642817645E+03 -0.11326139105E+04 -0.15691911672E+03  0.14588270056E+04  0.89967293839E+03 0.  0.
        -24    2    4    4    0    0  0.38836229347E+03 -0.58483524103E+03 -0.47009792650E+02  0.70826858268E+03  0.81098301270E+02 0.  0.
         24    2    4    4    0    0 -0.49479046992E+03 -0.54777866947E+03 -0.10990932407E+03  0.75055842292E+03  0.79867432989E+02 0.  0.
         13    1    3    3    0    0 -0.65916740856E+01  0.25981358796E+03 -0.28609755700E+02  0.26146714664E+03  0.00000000000E+00 0.  1.
        -13    1    3    3    0    0  0.11301985054E+03  0.87280032255E+03  0.33896734524E+01  0.88009396063E+03  0.00000000000E+00 0. -1.
          4    1    6    6  502    0 -0.10966617783E+03 -0.16666494436E+03 -0.48094468341E+02  0.20522415093E+03  0.00000000000E+00 0. -1.
          3    1    5    5  503    0  0.62361346137E+02 -0.11615287861E+03  0.20353606603E+02  0.13339676908E+03  0.00000000000E+00 0. -1.
         -4    1    5    5    0  503  0.32600094733E+03 -0.46868236242E+03 -0.67363399253E+02  0.57487181359E+03  0.00000000000E+00 0.  1.
         -3    1    6    6    0  502 -0.38512429209E+03 -0.38111372511E+03 -0.61814855725E+02  0.54533427200E+03  0.00000000000E+00 0.  1.
<mgrwt>
<rscale>  0 0.25940015E+04</rscale>
<asrwt>0</asrwt>
<pdfrwt beam="1">  1        1 0.18601915E+00 0.25940015E+04</pdfrwt>
<pdfrwt beam="2">  1       -1 0.21404056E+00 0.25940015E+04</pdfrwt>
<totfact> 0.11192261E+00</totfact>
</mgrwt>
</event>
<event>
12    1  0.2048318E-007  0.2184051E+04  0.7818608E-02  0.8525096E-01
         -2   -1    0    0    0  501 -0.00000000000E+00  0.00000000000E+00  0.95087960862E+03  0.95087960862E+03  0.00000000000E+00 0. -1.
          2   -1    0    0  501    0  0.00000000000E+00 -0.00000000000E+00 -0.12541231305E+04  0.12541231305E+04  0.00000000000E+00 0.  1.
         23    2    1    2    0    0  0.34237957228E+03 -0.19868465037E+03 -0.94528190859E+03  0.10291048399E+04  0.93805772772E+02 0.  0.
        254    2    1    2    0    0 -0.34237957228E+03  0.19868465037E+03  0.64203838673E+03  0.11758978992E+04  0.90212150926E+03 0.  0.
        -24    2    4    4    0    0  0.22384641996E+03  0.23870301921E+03  0.30306902197E+02  0.33760086463E+03  0.77262438271E+02 0.  0.
         24    2    4    4    0    0 -0.56622599225E+03 -0.40018368835E+02  0.61173148453E+03  0.83829703456E+03  0.79455426777E+02 0.  0.
         13    1    3    3    0    0  0.61363197975E+02 -0.27978037719E+02 -0.87568362385E+02  0.11052796366E+03  0.00000000000E+00 0. -1.
        -13    1    3    3    0    0  0.28101637431E+03 -0.17070661265E+03 -0.85771354620E+03  0.91857687625E+03  0.00000000000E+00 0.  1.
          4    1    6    6  502    0 -0.45214068906E+03 -0.78396487243E+00  0.49522005336E+03  0.67057789894E+03  0.00000000000E+00 0. -1.
          1    1    5    5  503    0  0.22366800586E+03  0.20775360970E+03  0.26472299952E+02  0.30641429773E+03  0.00000000000E+00 0. -1.
         -2    1    5    5    0  503  0.17841410361E+00  0.30949409510E+02  0.38346022448E+01  0.31186566900E+02  0.00000000000E+00 0.  1.
         -3    1    6    6    0  502 -0.11408530319E+03 -0.39234403962E+02  0.11651143117E+03  0.16771913562E+03  0.00000000000E+00 0.  1.
<mgrwt>
<rscale>  0 0.21840514E+04</rscale>
<asrwt>0</asrwt>
<pdfrwt beam="1">  1        2 0.19294202E+00 0.21840514E+04</pdfrwt>
<pdfrwt beam="2">  1       -2 0.14628917E+00 0.21840514E+04</pdfrwt>
<totfact> 0.51541511E+00</totfact>
</mgrwt>
</event>
<event>
12    1  0.2048318E-007  0.1398824E+04  0.7818608E-02  0.8954670E-01
          1   -1    0    0  501    0  0.00000000000E+00  0.00000000000E+00  0.70073929637E+03  0.70073929637E+03  0.00000000000E+00 0. -1.
         -1   -1    0    0    0  501 -0.00000000000E+00 -0.00000000000E+00 -0.69808695950E+03  0.69808695950E+03  0.00000000000E+00 0.  1.
         23    2    1    2    0    0 -0.22520939311E+03  0.32522688842E+03  0.10361760546E+03  0.41886553298E+03  0.90663812280E+02 0.  0.
        254    2    1    2    0    0  0.22520939311E+03 -0.32522688842E+03 -0.10096526858E+03  0.97996072289E+03  0.89086319558E+03 0.  0.
        -24    2    4    4    0    0 -0.11998612410E+03 -0.54059542489E+03 -0.62773180853E+02  0.56314790991E+03  0.80963033624E+02 0.  0.
         24    2    4    4    0    0  0.34519551721E+03  0.21536853647E+03 -0.38192087730E+02  0.41681281297E+03  0.82041050024E+02 0.  0.
         13    1    3    3    0    0 -0.16201515832E+03  0.23763315638E+03  0.11605734487E+03  0.31014147713E+03  0.00000000000E+00 0. -1.
        -13    1    3    3    0    0 -0.63194234794E+02  0.87593732042E+02 -0.12439739410E+02  0.10872405585E+03  0.00000000000E+00 0.  1.
          2    1    6    6  502    0 -0.24002902279E+01  0.62624325134E+01 -0.74201418573E+01  0.10001897787E+02  0.00000000000E+00 0. -1.
          1    1    5    5  503    0 -0.14853826984E+02 -0.14779187366E+03  0.14496226231E+02  0.14924213436E+03  0.00000000000E+00 0. -1.
         -2    1    5    5    0  503 -0.10513229711E+03 -0.39280355124E+03 -0.77269407085E+02  0.41390577555E+03  0.00000000000E+00 0.  1.
         -1    1    6    6    0  502  0.34759580744E+03  0.20910610396E+03 -0.30771945872E+02  0.40681091519E+03  0.00000000000E+00 0.  1.
<mgrwt>
<rscale>  0 0.13988237E+04</rscale>
<asrwt>0</asrwt>
<pdfrwt beam="1">  1        1 0.10780605E+00 0.13988237E+04</pdfrwt>
<pdfrwt beam="2">  1       -1 0.10739799E+00 0.13988237E+04</pdfrwt>
<totfact> 0.21428153E+01</totfact>
</mgrwt>
</event>
<event>
12    1  0.2048318E-007  0.2107552E+04  0.7818608E-02  0.8557924E-01
          2   -1    0    0  501    0  0.00000000000E+00  0.00000000000E+00  0.24914325405E+04  0.24914325405E+04  0.00000000000E+00 0. -1.
         -2   -1    0    0    0  501 -0.00000000000E+00 -0.00000000000E+00 -0.44570500309E+03  0.44570500309E+03  0.00000000000E+00 0.  1.
         23    2    1    2    0    0  0.65565660228E+02 -0.83575070413E+03  0.57750308898E+03  0.10219292820E+04  0.89730398082E+02 0.  0.
        254    2    1    2    0    0 -0.65565660228E+02  0.83575070413E+03  0.14682244484E+04  0.19152082616E+04  0.89975638872E+03 0.  0.
        -24    2    4    4    0    0 -0.34746357946E+03  0.71165803992E+03  0.61816341950E+03  0.10074799795E+04  0.75510204496E+02 0.  0.
         24    2    4    4    0    0  0.28189791923E+03  0.12409266422E+03  0.85006102891E+03  0.90772828212E+03  0.80631601122E+02 0.  0.
         11    1    3    3    0    0 -0.17904798000E+02 -0.57219124036E+02  0.36070658854E+02  0.69969295959E+02  0.00000000000E+00 0.  1.
        -11    1    3    3    0    0  0.83470458228E+02 -0.77853158010E+03  0.54143243013E+03  0.95195998603E+03  0.00000000000E+00 0. -1.
          2    1    6    6  502    0  0.28132700244E+03  0.11203855768E+03  0.78156630904E+03  0.83817863021E+03  0.00000000000E+00 0. -1.
          3    1    5    5  503    0 -0.18843900888E+03  0.35110493786E+03  0.35450610029E+03  0.53334652207E+03  0.00000000000E+00 0. -1.
         -4    1    5    5    0  503 -0.15902457057E+03  0.36055310205E+03  0.26365731921E+03  0.47413345739E+03  0.00000000000E+00 0.  1.
         -1    1    6    6    0  502  0.57091679086E+00  0.12054106535E+02  0.68494719871E+02  0.69549651908E+02  0.00000000000E+00 0.  1.
<mgrwt>
<rscale>  0 0.21075521E+04</rscale>
<asrwt>0</asrwt>
<pdfrwt beam="1">  1        2 0.38329731E+00 0.21075521E+04</pdfrwt>
<pdfrwt beam="2">  1       -2 0.68570002E-01 0.21075521E+04</pdfrwt>
<totfact> 0.63077492E+00</totfact>
</mgrwt>
</event>
<event>
12    1  0.2048318E-007  0.1947863E+04  0.7818608E-02  0.8631392E-01
         -1   -1    0    0    0  501 -0.00000000000E+00  0.00000000000E+00  0.25928672638E+03  0.25928672638E+03  0.00000000000E+00 0.  1.
          1   -1    0    0  501    0  0.00000000000E+00 -0.00000000000E+00 -0.36582763814E+04  0.36582763814E+04  0.00000000000E+00 0. -1.
         23    2    1    2    0    0 -0.66727933736E+03 -0.22740520739E+03 -0.19181751893E+04  0.20456613023E+04  0.91429013800E+02 0.  0.
        254    2    1    2    0    0  0.66727933736E+03  0.22740520739E+03 -0.14808144657E+04  0.18719018055E+04  0.90234696484E+03 0.  0.
        -24    2    4    4    0    0  0.67856534915E+03  0.49992850802E+03 -0.97087172791E+03  0.12887757935E+04  0.89284308736E+02 0.  0.
         24    2    4    4    0    0 -0.11286011795E+02 -0.27252330062E+03 -0.50994273782E+03  0.58312601191E+03  0.74819960336E+02 0.  0.
         13    1    3    3    0    0 -0.47617902429E+03 -0.11775121113E+03 -0.13163349399E+04  0.14047595826E+04  0.00000000000E+00 0.  1.
        -13    1    3    3    0    0 -0.19110031307E+03 -0.10965399626E+03 -0.60184024938E+03  0.64090171971E+03  0.00000000000E+00 0. -1.
          4    1    6    6  502    0  0.16703006705E+02 -0.25806734125E+02 -0.31064432219E+02  0.43703282580E+02  0.00000000000E+00 0. -1.
          3    1    5    5  503    0  0.10271130042E+03  0.42410707069E+02 -0.14890341645E+03  0.18579695029E+03  0.00000000000E+00 0. -1.
         -4    1    5    5    0  503  0.57585404873E+03  0.45751780095E+03 -0.82196831146E+03  0.11029788433E+04  0.00000000000E+00 0.  1.
         -3    1    6    6    0  502 -0.27989018500E+02 -0.24671656650E+03 -0.47887830560E+03  0.53942272933E+03  0.00000000000E+00 0.  1.
<mgrwt>
<rscale>  0 0.19478629E+04</rscale>
<asrwt>0</asrwt>
<pdfrwt beam="1">  1        1 0.56281175E+00 0.19478629E+04</pdfrwt>
<pdfrwt beam="2">  1       -1 0.39890265E-01 0.19478629E+04</pdfrwt>
<totfact> 0.10710160E+00</totfact>
</mgrwt>
</event>
<event>
12    1  0.2048318E-007  0.1485494E+04  0.7818608E-02  0.8894157E-01
          1   -1    0    0  501    0  0.00000000000E+00  0.00000000000E+00  0.13942145686E+04  0.13942145686E+04  0.00000000000E+00 0. -1.
         -1   -1    0    0    0  501 -0.00000000000E+00 -0.00000000000E+00 -0.39568759198E+03  0.39568759198E+03  0.00000000000E+00 0.  1.
         23    2    1    2    0    0  0.24116528410E+03  0.12243027981E+03 -0.13827126398E+03  0.31509092419E+03  0.83746524676E+02 0.  0.
        254    2    1    2    0    0 -0.24116528410E+03 -0.12243027981E+03  0.11367982406E+04  0.14748112364E+04  0.89978223782E+03 0.  0.
        -24    2    4    4    0    0 -0.56423944567E+00  0.33137090379E+03  0.75882719732E+03  0.83202488998E+03  0.81484402814E+02 0.  0.
         24    2    4    4    0    0 -0.24060104466E+03 -0.45380118360E+03  0.37797104330E+03  0.64278634644E+03  0.80546884916E+02 0.  0.
         11    1    3    3    0    0  0.19995247649E+03  0.12848913912E+03 -0.97799863551E+02  0.25701218850E+03  0.00000000000E+00 0. -1.
        -11    1    3    3    0    0  0.41212807612E+02 -0.60588593054E+01 -0.40471400429E+02  0.58078735695E+02  0.00000000000E+00 0.  1.
          4    1    6    6  502    0 -0.31366851168E+02 -0.12443056571E+03  0.11427629930E+03  0.17183107291E+03  0.00000000000E+00 0. -1.
          3    1    5    5  503    0 -0.37674796804E+02  0.14003115779E+03  0.36040928699E+03  0.38848805595E+03  0.00000000000E+00 0. -1.
         -4    1    5    5    0  503  0.37110557359E+02  0.19133974600E+03  0.39841791033E+03  0.44353683402E+03  0.00000000000E+00 0.  1.
         -3    1    6    6    0  502 -0.20923419349E+03 -0.32937061789E+03  0.26369474400E+03  0.47095527353E+03  0.00000000000E+00 0.  1.
<mgrwt>
<rscale>  0 0.14854944E+04</rscale>
<asrwt>0</asrwt>
<pdfrwt beam="1">  1        1 0.21449455E+00 0.14854944E+04</pdfrwt>
<pdfrwt beam="2">  1       -1 0.60875015E-01 0.14854944E+04</pdfrwt>
<totfact> 0.20553545E+01</totfact>
</mgrwt>
</event>
<event>
12    1  0.2048318E-007  0.2133490E+04  0.7818608E-02  0.8546632E-01
         -2   -1    0    0    0  501 -0.00000000000E+00  0.00000000000E+00  0.90939060153E+03  0.90939060153E+03  0.00000000000E+00 0.  1.
          2   -1    0    0  501    0  0.00000000000E+00 -0.00000000000E+00 -0.12513272572E+04  0.12513272572E+04  0.00000000000E+00 0. -1.
         23    2    1    2    0    0  0.36134851917E+03  0.78812198665E+03 -0.18204617554E+03  0.89070200153E+03  0.92196677529E+02 0.  0.
        254    2    1    2    0    0 -0.36134851917E+03 -0.78812198665E+03 -0.15989048010E+03  0.12700158572E+04  0.91414785111E+03 0.  0.
        -24    2    4    4    0    0  0.12097033384E+03  0.12298864376E+03  0.83403602045E+02  0.20764949033E+03  0.80013260387E+02 0.  0.
         24    2    4    4    0    0 -0.48231885301E+03 -0.91111063042E+03 -0.24329408214E+03  0.10623663668E+04  0.81708201335E+02 0.  0.
         13    1    3    3    0    0  0.10780547986E+03  0.18650281776E+03 -0.80604911767E+02  0.23000537889E+03  0.00000000000E+00 0. -1.
        -13    1    3    3    0    0  0.25354303931E+03  0.60161916890E+03 -0.10144126377E+03  0.66069662263E+03  0.00000000000E+00 0.  1.
          2    1    6    6  502    0 -0.81536982554E+02 -0.10512541718E+03 -0.46844854949E+02  0.14104635159E+03  0.00000000000E+00 0. -1.
          1    1    5    5  503    0 -0.93529998771E+01  0.21976859533E+02  0.25916017307E+01  0.24024515836E+02  0.00000000000E+00 0. -1.
         -2    1    5    5    0  503  0.13032333371E+03  0.10101178423E+03  0.80812000314E+02  0.18362497450E+03  0.00000000000E+00 0.  1.
         -1    1    6    6    0  502 -0.40078187045E+03 -0.80598521323E+03 -0.19644922719E+03  0.92132001525E+03  0.00000000000E+00 0.  1.
<mgrwt>
<rscale>  0 0.21334903E+04</rscale>
<asrwt>0</asrwt>
<pdfrwt beam="1">  1        2 0.19251188E+00 0.21334903E+04</pdfrwt>
<pdfrwt beam="2">  1       -2 0.13990625E+00 0.21334903E+04</pdfrwt>
<totfact> 0.58387996E+00</totfact>
</mgrwt>
</event>
<event>
12    1  0.2048318E-007  0.1352181E+04  0.7818608E-02  0.8989179E-01
         -4   -1    0    0    0  501 -0.00000000000E+00  0.00000000000E+00  0.10249015496E+04  0.10249015496E+04  0.00000000000E+00 0.  1.
          4   -1    0    0  501    0  0.00000000000E+00 -0.00000000000E+00 -0.44599262344E+03  0.44599262344E+03  0.00000000000E+00 0. -1.
         23    2    1    2    0    0  0.30870982486E+03  0.19514827488E+03  0.12543920408E+03  0.39644036426E+03  0.89695949428E+02 0.  0.
        254    2    1    2    0    0 -0.30870982486E+03 -0.19514827488E+03  0.45346972206E+03  0.10744538088E+04  0.90301250998E+03 0.  0.
        -24    2    4    4    0    0 -0.41763302040E+03 -0.46542216065E+03  0.15381499023E+03  0.64899196009E+03  0.80600159397E+02 0.  0.
         24    2    4    4    0    0  0.10892319554E+03  0.27027388577E+03  0.29965473183E+03  0.42546184867E+03  0.79451812503E+02 0.  0.
         13    1    3    3    0    0  0.48456640378E+02  0.73891650220E+02  0.20170963686E+02  0.90636028957E+02  0.00000000000E+00 0.  1.
        -13    1    3    3    0    0  0.26025318448E+03  0.12125662466E+03  0.10526824039E+03  0.30580433531E+03  0.00000000000E+00 0. -1.
          2    1    6    6  502    0  0.38239563242E+02  0.17878319310E+03  0.21466702976E+03  0.28197097013E+03  0.00000000000E+00 0. -1.
          1    1    5    5  503    0 -0.17247082739E+03 -0.23590758023E+03  0.43150962284E+02  0.29539901533E+03  0.00000000000E+00 0. -1.
         -2    1    5    5    0  503 -0.24516219301E+03 -0.22951458041E+03  0.11066402795E+03  0.35359294476E+03  0.00000000000E+00 0.  1.
         -1    1    6    6    0  502  0.70683632299E+02  0.91490692674E+02  0.84987702070E+02  0.14349087854E+03  0.00000000000E+00 0.  1.
<mgrwt>
<rscale>  0 0.13521812E+04</rscale>
<asrwt>0</asrwt>
<pdfrwt beam="1">  1        4 0.68614250E-01 0.13521812E+04</pdfrwt>
<pdfrwt beam="2">  1       -4 0.15767716E+00 0.13521812E+04</pdfrwt>
<totfact> 0.99409157E-01</totfact>
</mgrwt>
</event>
<event>
12    1  0.2048318E-007  0.1790681E+04  0.7818608E-02  0.8711271E-01
          1   -1    0    0  501    0  0.00000000000E+00  0.00000000000E+00  0.87749183161E+03  0.87749183161E+03  0.00000000000E+00 0. -1.
         -1   -1    0    0    0  501 -0.00000000000E+00 -0.00000000000E+00 -0.91355231292E+03  0.91355231292E+03  0.00000000000E+00 0.  1.
         23    2    1    2    0    0 -0.93937153500E+02 -0.61777566067E+03  0.21594929799E+03  0.66726953003E+03  0.90241734668E+02 0.  0.
        254    2    1    2    0    0  0.93937153500E+02  0.61777566067E+03 -0.25200977931E+03  0.11237746145E+04  0.89938284374E+03 0.  0.
        -24    2    4    4    0    0  0.14737321687E+03  0.74611886262E+03  0.65708587638E+02  0.76765070279E+03  0.80980002435E+02 0.  0.
         24    2    4    4    0    0 -0.53436063368E+02 -0.12834320195E+03 -0.31771836694E+03  0.35612391172E+03  0.80943742485E+02 0.  0.
         13    1    3    3    0    0 -0.34158435445E+02 -0.18658833654E+03  0.22880628939E+02  0.19106420184E+03  0.00000000000E+00 0.  1.
        -13    1    3    3    0    0 -0.59778718054E+02 -0.43118732413E+03  0.19306866905E+03  0.47620532819E+03  0.00000000000E+00 0. -1.
          2    1    6    6  502    0 -0.72877181528E+02 -0.11840749485E+03 -0.27465046936E+03  0.30783810476E+03  0.00000000000E+00 0. -1.
          3    1    5    5  503    0  0.13547669871E+03  0.51093266655E+03  0.29656565876E+02  0.52942009552E+03  0.00000000000E+00 0. -1.
         -4    1    5    5    0  503  0.11896518159E+02  0.23518619607E+03  0.36052021762E+02  0.23823060727E+03  0.00000000000E+00 0.  1.
         -1    1    6    6    0  502  0.19441118160E+02 -0.99357070997E+01 -0.43067897586E+02  0.48285806955E+02  0.00000000000E+00 0.  1.
<mgrwt>
<rscale>  0 0.17906811E+04</rscale>
<asrwt>0</asrwt>
<pdfrwt beam="1">  1        1 0.13499874E+00 0.17906811E+04</pdfrwt>
<pdfrwt beam="2">  1       -1 0.14054651E+00 0.17906811E+04</pdfrwt>
<totfact> 0.74426355E+00</totfact>
</mgrwt>
</event>
<event>
12    1  0.2048318E-007  0.1024476E+04  0.7818608E-02  0.9282100E-01
          2   -1    0    0  501    0  0.00000000000E+00  0.00000000000E+00  0.66443838267E+03  0.66443838267E+03  0.00000000000E+00 0. -1.
         -2   -1    0    0    0  501 -0.00000000000E+00 -0.00000000000E+00 -0.39490163855E+03  0.39490163855E+03  0.00000000000E+00 0.  1.
         23    2    1    2    0    0  0.71528123591E+02  0.85436820509E+01  0.20204087259E+01  0.11751982495E+03  0.92830815128E+02 0.  0.
        254    2    1    2    0    0 -0.71528123591E+02 -0.85436820509E+01  0.26751633540E+03  0.94182019628E+03  0.90015055710E+03 0.  0.
        -24    2    4    4    0    0  0.38499738495E+03  0.10166202027E+03  0.24511051832E+02  0.40716047645E+03  0.81367740123E+02 0.  0.
         24    2    4    4    0    0 -0.45652550854E+03 -0.11020570232E+03  0.24300528357E+03  0.53465971983E+03  0.79048158702E+02 0.  0.
         11    1    3    3    0    0  0.15511279510E+02  0.13408172133E+02  0.43204567483E+02  0.47822730196E+02  0.00000000000E+00 0. -1.
        -11    1    3    3    0    0  0.56016844081E+02 -0.48644900821E+01 -0.41184158757E+02  0.69697094754E+02  0.00000000000E+00 0.  1.
          2    1    6    6  502    0 -0.25302850674E+03 -0.25513076286E+02  0.15138273217E+03  0.29595789208E+03  0.00000000000E+00 0. -1.
          3    1    5    5  503    0  0.61178809272E+02 -0.12398176802E+02  0.12308081012E+02  0.63624290567E+02  0.00000000000E+00 0. -1.
         -4    1    5    5    0  503  0.32381857568E+03  0.11406019707E+03  0.12202970820E+02  0.34353618588E+03  0.00000000000E+00 0.  1.
         -1    1    6    6    0  502 -0.20349700180E+03 -0.84692626037E+02  0.91622551394E+02  0.23870182775E+03  0.00000000000E+00 0.  1.
<mgrwt>
<rscale>  0 0.10244761E+04</rscale>
<asrwt>0</asrwt>
<pdfrwt beam="1">  1        2 0.10222129E+00 0.10244761E+04</pdfrwt>
<pdfrwt beam="2">  1       -2 0.60754098E-01 0.10244761E+04</pdfrwt>
<totfact> 0.11009217E+02</totfact>
</mgrwt>
</event>
<event>
12    1  0.2048318E-007  0.1786220E+04  0.7818608E-02  0.8713662E-01
          3   -1    0    0  501    0  0.00000000000E+00  0.00000000000E+00  0.98605632791E+03  0.98605632791E+03  0.00000000000E+00 0. -1.
         -3   -1    0    0    0  501 -0.00000000000E+00 -0.00000000000E+00 -0.80892486224E+03  0.80892486224E+03  0.00000000000E+00 0.  1.
         23    2    1    2    0    0 -0.50208363304E+03 -0.20161651812E+03 -0.31635791471E+03  0.63378565096E+03  0.94152675047E+02 0.  0.
        254    2    1    2    0    0  0.50208363304E+03  0.20161651812E+03  0.49348938038E+03  0.11611955392E+04  0.90116930527E+03 0.  0.
        -24    2    4    4    0    0  0.61680127722E+03 -0.15123959046E+03  0.16971985649E+03  0.66220157920E+03  0.79930422910E+02 0.  0.
         24    2    4    4    0    0 -0.11471764418E+03  0.35285610857E+03  0.32376952389E+03  0.49899396000E+03  0.80626895453E+02 0.  0.
         11    1    3    3    0    0 -0.23607420831E+03 -0.12629249038E+03 -0.11310387083E+03  0.29064292620E+03  0.00000000000E+00 0. -1.
        -11    1    3    3    0    0 -0.26600942473E+03 -0.75324027738E+02 -0.20325404388E+03  0.34314272476E+03  0.00000000000E+00 0.  1.
          4    1    6    6  502    0 -0.39948942649E+02  0.91875281126E+02  0.44845035351E+02  0.10976366656E+03  0.00000000000E+00 0. -1.
          3    1    5    5  503    0  0.43449729968E+03 -0.11518814437E+03  0.15621349521E+03  0.47587694641E+03  0.00000000000E+00 0. -1.
         -4    1    5    5    0  503  0.18230397753E+03 -0.36051446094E+02  0.13506361278E+02  0.18632463279E+03  0.00000000000E+00 0.  1.
         -3    1    6    6    0  502 -0.74768701528E+02  0.26098082745E+03  0.27892448854E+03  0.38923029344E+03  0.00000000000E+00 0.  1.
<mgrwt>
<rscale>  0 0.17862200E+04</rscale>
<asrwt>0</asrwt>
<pdfrwt beam="1">  1        3 0.15170097E+00 0.17862200E+04</pdfrwt>
<pdfrwt beam="2">  1       -3 0.12444998E+00 0.17862200E+04</pdfrwt>
<totfact> 0.40166802E-01</totfact>
</mgrwt>
</event>
<event>
12    1  0.2048318E-007  0.2589979E+04  0.7818608E-02  0.8371613E-01
         -2   -1    0    0    0  501 -0.00000000000E+00  0.00000000000E+00  0.17360011146E+04  0.17360011146E+04  0.00000000000E+00 0.  1.
          2   -1    0    0  501    0  0.00000000000E+00 -0.00000000000E+00 -0.96601217498E+03  0.96601217498E+03  0.00000000000E+00 0. -1.
         23    2    1    2    0    0 -0.91279617464E+03 -0.56390256535E+03 -0.51865060535E+02  0.10781268623E+04  0.92111817788E+02 0.  0.
        254    2    1    2    0    0  0.91279617464E+03  0.56390256535E+03  0.82185400012E+03  0.16238864273E+04  0.90021118165E+03 0.  0.
        -24    2    4    4    0    0  0.35763623159E+03  0.69575283365E+03  0.65755833864E+03  0.10248052104E+04  0.76596807172E+02 0.  0.
         24    2    4    4    0    0  0.55515994305E+03 -0.13185026830E+03  0.16429566148E+03  0.59908121689E+03  0.79487007935E+02 0.  0.
         11    1    3    3    0    0 -0.79331145038E+03 -0.50556713956E+03 -0.17859885464E+02  0.94088265231E+03  0.00000000000E+00 0.  1.
        -11    1    3    3    0    0 -0.11948472426E+03 -0.58335425795E+02 -0.34005175071E+02  0.13724420996E+03  0.00000000000E+00 0. -1.
          2    1    6    6  502    0  0.18543893092E+02 -0.15018349406E+02  0.20302580956E+02  0.31330840770E+02  0.00000000000E+00 0. -1.
          1    1    5    5  503    0  0.74163506158E+01  0.31494444853E+02  0.46609384656E+02  0.56739202066E+02  0.00000000000E+00 0. -1.
         -2    1    5    5    0  503  0.35021988097E+03  0.66425838880E+03  0.61094895398E+03  0.96806600833E+03  0.00000000000E+00 0.  1.
         -1    1    6    6    0  502  0.53661604996E+03 -0.11683191889E+03  0.14399308052E+03  0.56775037612E+03  0.00000000000E+00 0.  1.
<mgrwt>
<rscale>  0 0.25899793E+04</rscale>
<asrwt>0</asrwt>
<pdfrwt beam="1">  1        2 0.14861726E+00 0.25899793E+04</pdfrwt>
<pdfrwt beam="2">  1       -2 0.26707710E+00 0.25899793E+04</pdfrwt>
<totfact> 0.11847389E+00</totfact>
</mgrwt>
</event>
<event>
12    1  0.2048318E-007  0.4270457E+04  0.7818608E-02  0.7952104E-01
         -1   -1    0    0    0  501 -0.00000000000E+00  0.00000000000E+00  0.17955449262E+04  0.17955449262E+04  0.00000000000E+00 0.  1.
          1   -1    0    0  501    0  0.00000000000E+00 -0.00000000000E+00 -0.25391740172E+04  0.25391740172E+04  0.00000000000E+00 0. -1.
         23    2    1    2    0    0  0.78431240684E+03 -0.18773596458E+04 -0.49049879678E+03  0.20951681206E+04  0.97545849200E+02 0.  0.
        254    2    1    2    0    0 -0.78431240684E+03  0.18773596458E+04 -0.25313029427E+03  0.22395508228E+04  0.90104814028E+03 0.  0.
        -24    2    4    4    0    0 -0.23577011202E+03  0.10734639677E+04 -0.53251266358E+03  0.12238976908E+04  0.80270698412E+02 0.  0.
         24    2    4    4    0    0 -0.54854229483E+03  0.80389567806E+03  0.27938236931E+03  0.10156531320E+04  0.79686045717E+02 0.  0.
         11    1    3    3    0    0  0.33831437833E+03 -0.80490872208E+03 -0.26019249645E+03  0.91106245927E+03  0.00000000000E+00 0. -1.
        -11    1    3    3    0    0  0.44599802851E+03 -0.10724509237E+04 -0.23030630033E+03  0.11841056613E+04  0.00000000000E+00 0.  1.
          2    1    6    6  502    0 -0.26276180213E+02  0.75854705132E+02  0.17363545290E+02  0.82133224960E+02  0.00000000000E+00 0. -1.
          1    1    5    5  503    0 -0.11504332638E+03  0.64991419565E+03 -0.28753967397E+03  0.71993228345E+03  0.00000000000E+00 0. -1.
         -2    1    5    5    0  503 -0.12072678563E+03  0.42354977208E+03 -0.24497298961E+03  0.50396540738E+03  0.00000000000E+00 0.  1.
         -1    1    6    6    0  502 -0.52226611461E+03  0.72804097292E+03  0.26201882402E+03  0.93351990706E+03  0.00000000000E+00 0.  1.
<mgrwt>
<rscale>  0 0.42704571E+04</rscale>
<asrwt>0</asrwt>
<pdfrwt beam="1">  1        1 0.39064215E+00 0.42704571E+04</pdfrwt>
<pdfrwt beam="2">  1       -1 0.27623768E+00 0.42704571E+04</pdfrwt>
<totfact> 0.45858257E-02</totfact>
</mgrwt>
</event>
<event>
12    1  0.2048318E-007  0.2578513E+04  0.7818608E-02  0.8375537E-01
          1   -1    0    0  501    0  0.00000000000E+00  0.00000000000E+00  0.59906158494E+03  0.59906158494E+03  0.00000000000E+00 0. -1.
         -1   -1    0    0    0  501 -0.00000000000E+00 -0.00000000000E+00 -0.27746435631E+04  0.27746435631E+04  0.00000000000E+00 0.  1.
         23    2    1    2    0    0 -0.32098464584E+03 -0.72146698554E+03 -0.20115314058E+04  0.21629361262E+04  0.92132161719E+02 0.  0.
        254    2    1    2    0    0  0.32098464584E+03  0.72146698554E+03 -0.16405057229E+03  0.12107690218E+04  0.90305220216E+03 0.  0.
        -24    2    4    4    0    0  0.16082380886E+03  0.77038339781E+02  0.32703684051E+03  0.38100451443E+03  0.80075849518E+02 0.  0.
         24    2    4    4    0    0  0.16016083697E+03  0.64442864576E+03 -0.49108741280E+03  0.82976450738E+03  0.80015732955E+02 0.  0.
         13    1    3    3    0    0 -0.17922787482E+03 -0.50633572650E+03 -0.13338997513E+04  0.14379801965E+04  0.00000000000E+00 0. -1.
        -13    1    3    3    0    0 -0.14175677101E+03 -0.21513125904E+03 -0.67763165452E+03  0.72495592966E+03  0.00000000000E+00 0.  1.
          4    1    6    6  502    0  0.12124454282E+03  0.38115066834E+03 -0.25780064004E+03  0.47585422258E+03  0.00000000000E+00 0. -1.
          1    1    5    5  503    0  0.31039708327E+02 -0.16492951747E+02  0.68092735953E+02  0.76629639435E+02  0.00000000000E+00 0. -1.
         -2    1    5    5    0  503  0.12978410054E+03  0.93531291528E+02  0.25894410455E+03  0.30437487500E+03  0.00000000000E+00 0.  1.
         -3    1    6    6    0  502  0.38916294158E+02  0.26327797742E+03 -0.23328677275E+03  0.35391028480E+03  0.00000000000E+00 0.  1.
<mgrwt>
<rscale>  0 0.25785130E+04</rscale>
<asrwt>0</asrwt>
<pdfrwt beam="1">  1        1 0.92163320E-01 0.25785130E+04</pdfrwt>
<pdfrwt beam="2">  1       -1 0.42686824E+00 0.25785130E+04</pdfrwt>
<totfact> 0.14152845E-01</totfact>
</mgrwt>
</event>
<event>
12    1  0.2048318E-007  0.2984397E+04  0.7818608E-02  0.8248200E-01
         -2   -1    0    0    0  501 -0.00000000000E+00  0.00000000000E+00  0.19942665126E+04  0.19942665126E+04  0.00000000000E+00 0.  1.
          2   -1    0    0  501    0  0.00000000000E+00 -0.00000000000E+00 -0.11165292713E+04  0.11165292713E+04  0.00000000000E+00 0. -1.
         23    2    1    2    0    0 -0.12080179031E+04  0.59120786466E+03  0.52557835240E+03  0.14466730808E+04  0.88297253677E+02 0.  0.
        254    2    1    2    0    0  0.12080179031E+04 -0.59120786466E+03  0.35215888887E+03  0.16641227031E+04  0.91457886191E+03 0.  0.
        -24    2    4    4    0    0  0.12822864284E+04 -0.51749737728E+03  0.11081248210E+03  0.13895327162E+04  0.80372528266E+02 0.  0.
         24    2    4    4    0    0 -0.74268525331E+02 -0.73710487380E+02  0.24134640677E+03  0.27458998690E+03  0.78756098435E+02 0.  0.
         13    1    3    3    0    0 -0.73295301062E+03  0.37803656164E+03  0.36419180477E+03  0.90153614923E+03  0.00000000000E+00 0.  1.
        -13    1    3    3    0    0 -0.47506489244E+03  0.21317130302E+03  0.16138654763E+03  0.54513693162E+03  0.00000000000E+00 0. -1.
          4    1    6    6  502    0 -0.38469892528E+02 -0.77978488653E+02  0.12129168318E+03  0.14923890154E+03  0.00000000000E+00 0. -1.
          1    1    5    5  503    0 -0.31667013129E+00 -0.31776831969E+01  0.71631995803E+00  0.32727763068E+01  0.00000000000E+00 0. -1.
         -2    1    5    5    0  503  0.12826030985E+04 -0.51431969408E+03  0.11009616214E+03  0.13862599399E+04  0.00000000000E+00 0.  1.
         -3    1    6    6    0  502 -0.35798632803E+02  0.42680012728E+01  0.12005472359E+03  0.12535108536E+03  0.00000000000E+00 0.  1.
<mgrwt>
<rscale>  0 0.29843974E+04</rscale>
<asrwt>0</asrwt>
<pdfrwt beam="1">  1        2 0.17177373E+00 0.29843974E+04</pdfrwt>
<pdfrwt beam="2">  1       -2 0.30681023E+00 0.29843974E+04</pdfrwt>
<totfact> 0.52654469E-01</totfact>
</mgrwt>
</event>
<event>
12    1  0.2048318E-007  0.2079135E+04  0.7818608E-02  0.8570491E-01
          1   -1    0    0  501    0  0.00000000000E+00  0.00000000000E+00  0.72026710482E+03  0.72026710482E+03  0.00000000000E+00 0. -1.
         -1   -1    0    0    0  501 -0.00000000000E+00 -0.00000000000E+00 -0.15004157298E+04  0.15004157298E+04  0.00000000000E+00 0.  1.
         23    2    1    2    0    0  0.24307042485E+03  0.76889611190E+03 -0.63380241743E+02  0.81337594329E+03  0.85316515112E+02 0.  0.
        254    2    1    2    0    0 -0.24307042485E+03 -0.76889611190E+03 -0.71676838327E+03  0.14073068914E+04  0.90358801947E+03 0.  0.
        -24    2    4    4    0    0  0.30781875479E+03 -0.42538330471E+03 -0.46657424446E+03  0.70697984877E+03  0.80160085155E+02 0.  0.
         24    2    4    4    0    0 -0.55088917964E+03 -0.34351280719E+03 -0.25019413881E+03  0.70032704260E+03  0.79880676968E+02 0.  0.
         13    1    3    3    0    0  0.13891189657E+03  0.56147262973E+03 -0.33741733478E+02  0.57938461623E+03  0.00000000000E+00 0. -1.
        -13    1    3    3    0    0  0.10415852827E+03  0.20742348217E+03 -0.29638508266E+02  0.23399132706E+03  0.00000000000E+00 0.  1.
          4    1    6    6  502    0 -0.45931463110E+03 -0.28269233969E+03 -0.17453364012E+03  0.56687466057E+03  0.00000000000E+00 0. -1.
          3    1    5    5  503    0  0.21990660843E+03 -0.24925557484E+03 -0.32158684196E+03  0.46249903237E+03  0.00000000000E+00 0. -1.
         -4    1    5    5    0  503  0.87912146362E+02 -0.17612772986E+03 -0.14498740249E+03  0.24448081640E+03  0.00000000000E+00 0.  1.
         -3    1    6    6    0  502 -0.91574548539E+02 -0.60820467504E+02 -0.75660498694E+02  0.13345238203E+03  0.00000000000E+00 0.  1.
<mgrwt>
<rscale>  0 0.20791345E+04</rscale>
<asrwt>0</asrwt>
<pdfrwt beam="1">  1        1 0.11081032E+00 0.20791345E+04</pdfrwt>
<pdfrwt beam="2">  1       -1 0.23083319E+00 0.20791345E+04</pdfrwt>
<totfact> 0.22390896E+00</totfact>
</mgrwt>
</event>
<event>
12    1  0.2048318E-007  0.1857759E+04  0.7818608E-02  0.8676173E-01
          2   -1    0    0  501    0  0.00000000000E+00  0.00000000000E+00  0.24102723879E+04  0.24102723879E+04  0.00000000000E+00 0. -1.
         -2   -1    0    0    0  501 -0.00000000000E+00 -0.00000000000E+00 -0.35797483306E+03  0.35797483306E+03  0.00000000000E+00 0.  1.
         23    2    1    2    0    0  0.10873120902E+03  0.69514176687E+03  0.68086140438E+03  0.98341018451E+03  0.92080330018E+02 0.  0.
        254    2    1    2    0    0 -0.10873120902E+03 -0.69514176687E+03  0.13714361504E+04  0.17848370364E+04  0.89986753470E+03 0.  0.
        -24    2    4    4    0    0 -0.16405791757E+03 -0.62297183947E+03  0.14860284512E+04  0.16216120466E+04  0.79599991732E+02 0.  0.
         24    2    4    4    0    0  0.55326708548E+02 -0.72169927400E+02 -0.11459230079E+03  0.16322498985E+03  0.72397919934E+02 0.  0.
         11    1    3    3    0    0  0.11769441040E+02  0.23365351979E+03  0.17747885246E+03  0.29365154542E+03  0.00000000000E+00 0.  1.
        -11    1    3    3    0    0  0.96961767983E+02  0.46148824707E+03  0.50338255191E+03  0.68975863910E+03  0.00000000000E+00 0. -1.
          2    1    6    6  502    0  0.64035971578E+02 -0.58477294576E+02 -0.57939242892E+02  0.10429360241E+03  0.00000000000E+00 0. -1.
          3    1    5    5  503    0 -0.11192159824E+03 -0.31120922816E+03  0.82782296555E+03  0.89144180412E+03  0.00000000000E+00 0. -1.
         -4    1    5    5    0  503 -0.52136319336E+02 -0.31176261130E+03  0.65820548567E+03  0.73017024246E+03  0.00000000000E+00 0.  1.
         -1    1    6    6    0  502 -0.87092630299E+01 -0.13692632824E+02 -0.56653057895E+02  0.58931387435E+02  0.00000000000E+00 0.  1.
<mgrwt>
<rscale>  0 0.18577587E+04</rscale>
<asrwt>0</asrwt>
<pdfrwt beam="1">  1        2 0.37081113E+00 0.18577587E+04</pdfrwt>
<pdfrwt beam="2">  1       -2 0.55073053E-01 0.18577587E+04</pdfrwt>
<totfact> 0.11434280E+01</totfact>
</mgrwt>
</event>
<event>
12    1  0.2048318E-007  0.1968129E+04  0.7818608E-02  0.8621668E-01
          2   -1    0    0  501    0  0.00000000000E+00  0.00000000000E+00  0.12501029260E+04  0.12501029260E+04  0.00000000000E+00 0. -1.
         -2   -1    0    0    0  501 -0.00000000000E+00 -0.00000000000E+00 -0.77464255540E+03  0.77464255540E+03  0.00000000000E+00 0.  1.
         23    2    1    2    0    0  0.41643231957E+03 -0.65295807742E+03  0.23249962805E+03  0.81396736253E+03  0.93363068570E+02 0.  0.
        254    2    1    2    0    0 -0.41643231957E+03  0.65295807742E+03  0.24296074257E+03  0.12107781189E+04  0.89843397260E+03 0.  0.
        -24    2    4    4    0    0 -0.34088867633E+03 -0.14580412056E+03  0.72342658815E+02  0.38663144040E+03  0.82380089823E+02 0.  0.
         24    2    4    4    0    0 -0.75543643233E+02  0.79876219798E+03  0.17061808376E+03  0.82414667849E+03  0.79870684348E+02 0.  0.
         13    1    3    3    0    0  0.71856851839E+02 -0.14558499747E+03  0.14262330963E+02  0.16297795167E+03  0.00000000000E+00 0.  1.
        -13    1    3    3    0    0  0.34457546773E+03 -0.50737307995E+03  0.21823729709E+03  0.65098941086E+03  0.00000000000E+00 0. -1.
          2    1    6    6  502    0 -0.15318057930E+02  0.14807058864E+03  0.37214945554E+00  0.14886127977E+03  0.00000000000E+00 0. -1.
          1    1    5    5  503    0 -0.19546487918E+03 -0.56188997571E+02  0.72190614601E+02  0.21581289878E+03  0.00000000000E+00 0. -1.
         -2    1    5    5    0  503 -0.14542379715E+03 -0.89615122987E+02  0.15204421358E+00  0.17081854163E+03  0.00000000000E+00 0.  1.
         -1    1    6    6    0  502 -0.60225585304E+02  0.65069160934E+03  0.17024593430E+03  0.67528539873E+03  0.00000000000E+00 0.  1.
<mgrwt>
<rscale>  0 0.19681290E+04</rscale>
<asrwt>0</asrwt>
<pdfrwt beam="1">  1        2 0.19232353E+00 0.19681290E+04</pdfrwt>
<pdfrwt beam="2">  1       -2 0.11917578E+00 0.19681290E+04</pdfrwt>
<totfact> 0.88998611E+00</totfact>
</mgrwt>
</event>
<event>
12    1  0.2048318E-007  0.1028137E+04  0.7818608E-02  0.9278212E-01
          2   -1    0    0  501    0  0.00000000000E+00  0.00000000000E+00  0.16990799468E+04  0.16990799468E+04  0.00000000000E+00 0. -1.
         -2   -1    0    0    0  501 -0.00000000000E+00 -0.00000000000E+00 -0.15553495475E+03  0.15553495475E+03  0.00000000000E+00 0.  1.
         23    2    1    2    0    0  0.66109168006E+02  0.28875079901E+02  0.26480659334E+03  0.28870809290E+03  0.89585929098E+02 0.  0.
        254    2    1    2    0    0 -0.66109168006E+02 -0.28875079901E+02  0.12787383987E+04  0.15659068087E+04  0.90093731675E+03 0.  0.
        -24    2    4    4    0    0  0.39708014899E+03 -0.58538751650E+02  0.77137563150E+03  0.87332229679E+03  0.81068113523E+02 0.  0.
         24    2    4    4    0    0 -0.46318931700E+03  0.29663671749E+02  0.50736276724E+03  0.69258451189E+03  0.82656226175E+02 0.  0.
         13    1    3    3    0    0 -0.20101241976E+02 -0.23121160709E+01  0.26259459685E+02  0.33150641512E+02  0.00000000000E+00 0.  1.
        -13    1    3    3    0    0  0.86210409982E+02  0.31187195972E+02  0.23854713366E+03  0.25555745139E+03  0.00000000000E+00 0. -1.
          2    1    6    6  502    0 -0.45240853966E+03  0.29510097481E+02  0.46726056754E+03  0.65105819293E+03  0.00000000000E+00 0. -1.
          3    1    5    5  503    0  0.31933762733E+03 -0.65465289612E+02  0.67260468780E+03  0.74743514129E+03  0.00000000000E+00 0. -1.
         -4    1    5    5    0  503  0.77742521658E+02  0.69265379615E+01  0.98770943693E+02  0.12588715550E+03  0.00000000000E+00 0.  1.
         -1    1    6    6    0  502 -0.10780777339E+02  0.15357426789E+00  0.40102199705E+02  0.41526318959E+02  0.00000000000E+00 0.  1.
<mgrwt>
<rscale>  0 0.10281368E+04</rscale>
<asrwt>0</asrwt>
<pdfrwt beam="1">  1        2 0.26139690E+00 0.10281368E+04</pdfrwt>
<pdfrwt beam="2">  1       -2 0.23928456E-01 0.10281368E+04</pdfrwt>
<totfact> 0.15204441E+02</totfact>
</mgrwt>
</event>
<event>
12    1  0.2048318E-007  0.3207320E+04  0.7818608E-02  0.8186887E-01
         -2   -1    0    0    0  501 -0.00000000000E+00  0.00000000000E+00  0.14876821805E+04  0.14876821805E+04  0.00000000000E+00 0.  1.
          2   -1    0    0  501    0  0.00000000000E+00 -0.00000000000E+00 -0.17286788282E+04  0.17286788282E+04  0.00000000000E+00 0. -1.
         23    2    1    2    0    0 -0.13415730291E+04 -0.35384712613E+03  0.39308136924E+03  0.14448836717E+04  0.90276689066E+02 0.  0.
        254    2    1    2    0    0  0.13415730291E+04  0.35384712613E+03 -0.63407801703E+03  0.17714773371E+04  0.90058372338E+03 0.  0.
        -24    2    4    4    0    0  0.75985726808E+03  0.28441836686E+03  0.10723144035E+03  0.82247273980E+03  0.81767662637E+02 0.  0.
         24    2    4    4    0    0  0.58171576106E+03  0.69428759263E+02 -0.74130945738E+03  0.94900459725E+03  0.88636531505E+02 0.  0.
         13    1    3    3    0    0 -0.29397870749E+03 -0.11348822124E+03  0.10455594995E+03  0.33201657110E+03  0.00000000000E+00 0.  1.
        -13    1    3    3    0    0 -0.10475943217E+04 -0.24035890488E+03  0.28852541929E+03  0.11128671006E+04  0.00000000000E+00 0. -1.
          2    1    6    6  502    0  0.45675557558E+03  0.86961617129E+02 -0.55566132671E+03  0.72453260015E+03  0.00000000000E+00 0. -1.
          1    1    5    5  503    0  0.80082731167E+02  0.13759703756E+02 -0.85040393868E+01  0.81700012023E+02  0.00000000000E+00 0. -1.
         -2    1    5    5    0  503  0.67977453692E+03  0.27065866311E+03  0.11573547974E+03  0.74077272778E+03  0.00000000000E+00 0.  1.
         -1    1    6    6    0  502  0.12496018548E+03 -0.17532857865E+02 -0.18564813067E+03  0.22447199710E+03  0.00000000000E+00 0.  1.
<mgrwt>
<rscale>  0 0.32073196E+04</rscale>
<asrwt>0</asrwt>
<pdfrwt beam="1">  1        2 0.26595059E+00 0.32073196E+04</pdfrwt>
<pdfrwt beam="2">  1       -2 0.22887418E+00 0.32073196E+04</pdfrwt>
<totfact> 0.69136259E-01</totfact>
</mgrwt>
</event>
<event>
12    1  0.2048318E-007  0.3282845E+04  0.7818608E-02  0.8167274E-01
         -2   -1    0    0    0  501 -0.00000000000E+00  0.00000000000E+00  0.22999713592E+04  0.22999713592E+04  0.00000000000E+00 0.  1.
          2   -1    0    0  501    0  0.00000000000E+00 -0.00000000000E+00 -0.11714353257E+04  0.11714353257E+04  0.00000000000E+00 0. -1.
         23    2    1    2    0    0  0.52409668308E+03 -0.10554407746E+04  0.15309231309E+04  0.19341585592E+04  0.92796214410E+02 0.  0.
        254    2    1    2    0    0 -0.52409668308E+03  0.10554407746E+04 -0.40238709741E+03  0.15372481258E+04  0.90143433600E+03 0.  0.
        -24    2    4    4    0    0 -0.11609853110E+03  0.10382948237E+04 -0.17202927554E+03  0.10617214956E+04  0.78252493273E+02 0.  0.
         24    2    4    4    0    0 -0.40799815198E+03  0.17145950862E+02 -0.23035782187E+03  0.47552663015E+03  0.79400089646E+02 0.  0.
         13    1    3    3    0    0  0.28233623028E+03 -0.48504346665E+03  0.77308407820E+03  0.95532188473E+03  0.00000000000E+00 0.  1.
        -13    1    3    3    0    0  0.24176045280E+03 -0.57039730794E+03  0.75783905268E+03  0.97883667443E+03  0.00000000000E+00 0. -1.
          2    1    6    6  502    0 -0.37170206703E+03  0.89423204681E+01 -0.23204352205E+03  0.43827683928E+03  0.00000000000E+00 0. -1.
          3    1    5    5  503    0 -0.31603806675E+02  0.57550134669E+03 -0.11634485884E+03  0.58799381529E+03  0.00000000000E+00 0. -1.
         -4    1    5    5    0  503 -0.84494724429E+02  0.46279347703E+03 -0.55684416704E+02  0.47372768032E+03  0.00000000000E+00 0.  1.
         -1    1    6    6    0  502 -0.36296084952E+02  0.82036303938E+01  0.16857001792E+01  0.37249790866E+02  0.00000000000E+00 0.  1.
<mgrwt>
<rscale>  0 0.32828449E+04</rscale>
<asrwt>0</asrwt>
<pdfrwt beam="1">  1        2 0.18022082E+00 0.32828449E+04</pdfrwt>
<pdfrwt beam="2">  1       -2 0.35384175E+00 0.32828449E+04</pdfrwt>
<totfact> 0.24236147E-01</totfact>
</mgrwt>
</event>
<event>
12    1  0.2048318E-007  0.3457663E+04  0.7818608E-02  0.8123897E-01
          2   -1    0    0  501    0  0.00000000000E+00  0.00000000000E+00  0.18776481522E+04  0.18776481522E+04  0.00000000000E+00 0. -1.
         -2   -1    0    0    0  501 -0.00000000000E+00 -0.00000000000E+00 -0.15918098654E+04  0.15918098654E+04  0.00000000000E+00 0.  1.
         23    2    1    2    0    0  0.11789317241E+04  0.10972461174E+04  0.13299747871E+03  0.16184487622E+04  0.88651080931E+02 0.  0.
        254    2    1    2    0    0 -0.11789317241E+04 -0.10972461174E+04  0.15284080802E+03  0.18510092555E+04  0.89946978767E+03 0.  0.
        -24    2    4    4    0    0  0.10750195677E+03 -0.95190285259E+01 -0.72922993392E+02  0.14946553748E+03  0.73313718468E+02 0.  0.
         24    2    4    4    0    0 -0.12864336809E+04 -0.10877270889E+04  0.22576380141E+03  0.17015437180E+04  0.78866311003E+02 0.  0.
         13    1    3    3    0    0  0.89285660105E+03  0.77755986039E+03  0.99406060921E+02  0.11881388014E+04  0.00000000000E+00 0. -1.
        -13    1    3    3    0    0  0.28607512305E+03  0.31968625700E+03  0.33591417792E+02  0.43030996072E+03  0.00000000000E+00 0.  1.
          2    1    6    6  502    0 -0.34799565898E+03 -0.25480170072E+03  0.74557485635E+02  0.43770275762E+03  0.00000000000E+00 0. -1.
          1    1    5    5  503    0  0.32482796674E+02 -0.33131671317E+02 -0.48484023424E+02  0.67108421613E+02  0.00000000000E+00 0. -1.
         -2    1    5    5    0  503  0.75019160091E+02  0.23612642791E+02 -0.24438969968E+02  0.82357115864E+02  0.00000000000E+00 0.  1.
         -1    1    6    6    0  502 -0.93843802189E+03 -0.83292538815E+03  0.15120631577E+03  0.12638409604E+04  0.00000000000E+00 0.  1.
<mgrwt>
<rscale>  0 0.34576633E+04</rscale>
<asrwt>0</asrwt>
<pdfrwt beam="1">  1        2 0.28886895E+00 0.34576633E+04</pdfrwt>
<pdfrwt beam="2">  1       -2 0.24489383E+00 0.34576633E+04</pdfrwt>
<totfact> 0.44515830E-01</totfact>
</mgrwt>
</event>
<event>
12    1  0.2048318E-007  0.2018184E+04  0.7818608E-02  0.8598166E-01
         -2   -1    0    0    0  501 -0.00000000000E+00  0.00000000000E+00  0.12852641742E+04  0.12852641742E+04  0.00000000000E+00 0.  1.
          2   -1    0    0  501    0  0.00000000000E+00 -0.00000000000E+00 -0.79226227919E+03  0.79226227919E+03  0.00000000000E+00 0. -1.
         23    2    1    2    0    0 -0.24636013953E+03 -0.73585072838E+03 -0.16902738734E+02  0.78151308220E+03  0.91144842195E+02 0.  0.
        254    2    1    2    0    0  0.24636013953E+03  0.73585072838E+03  0.50990463373E+03  0.12960133712E+04  0.90414507131E+03 0.  0.
        -24    2    4    4    0    0  0.40359501833E+03  0.86933952424E+03  0.35182757251E+03  0.10241140852E+04  0.79917904392E+02 0.  0.
         24    2    4    4    0    0 -0.15723487880E+03 -0.13348879586E+03  0.15807706122E+03  0.27189928601E+03  0.79992491620E+02 0.  0.
         13    1    3    3    0    0 -0.14272924281E+03 -0.29708278138E+03  0.11380739375E+02  0.32978680533E+03  0.00000000000E+00 0.  1.
        -13    1    3    3    0    0 -0.10363089672E+03 -0.43876794701E+03 -0.28283478109E+02  0.45172627686E+03  0.00000000000E+00 0. -1.
          4    1    6    6  502    0 -0.96965781716E+02 -0.87411197131E+02  0.14465829348E+03  0.19485661929E+03  0.00000000000E+00 0. -1.
          3    1    5    5  503    0  0.24392416074E+03  0.50302542819E+03  0.16424053161E+03  0.58267360488E+03  0.00000000000E+00 0. -1.
         -4    1    5    5    0  503  0.15967085759E+03  0.36631409605E+03  0.18758704090E+03  0.44144048029E+03  0.00000000000E+00 0.  1.
         -1    1    6    6    0  502 -0.60269097082E+02 -0.46077598730E+02  0.13418767746E+02  0.77042666722E+02  0.00000000000E+00 0.  1.
<mgrwt>
<rscale>  0 0.20181837E+04</rscale>
<asrwt>0</asrwt>
<pdfrwt beam="1">  1        2 0.12188650E+00 0.20181837E+04</pdfrwt>
<pdfrwt beam="2">  1       -2 0.19773295E+00 0.20181837E+04</pdfrwt>
<totfact> 0.44537375E+00</totfact>
</mgrwt>
</event>
<event>
12    1  0.2048318E-007  0.1968728E+04  0.7818608E-02  0.8621382E-01
          2   -1    0    0  501    0  0.00000000000E+00  0.00000000000E+00  0.10351746483E+04  0.10351746483E+04  0.00000000000E+00 0.  1.
         -2   -1    0    0    0  501 -0.00000000000E+00 -0.00000000000E+00 -0.93604776917E+03  0.93604776917E+03  0.00000000000E+00 0. -1.
         23    2    1    2    0    0  0.44666337533E+02 -0.66937740421E+03  0.42719821986E+03  0.80046152927E+03  0.90438652198E+02 0.  0.
        254    2    1    2    0    0 -0.44666337533E+02  0.66937740421E+03 -0.32807134073E+03  0.11707608882E+04  0.90165906073E+03 0.  0.
        -24    2    4    4    0    0 -0.18137834101E+02 -0.67378986253E+02  0.22342022638E+03  0.24654250075E+03  0.77444808101E+02 0.  0.
         24    2    4    4    0    0 -0.26528503432E+02  0.73675639046E+03 -0.55149156711E+03  0.92421838747E+03  0.80764712379E+02 0.  0.
         11    1    3    3    0    0  0.50075023883E+01 -0.37111219124E+03  0.18780636864E+03  0.41595740847E+03  0.00000000000E+00 0. -1.
        -11    1    3    3    0    0  0.39658835145E+02 -0.29826521297E+03  0.23939185122E+03  0.38450412079E+03  0.00000000000E+00 0.  1.
          2    1    6    6  502    0 -0.45354012195E+02  0.56870043084E+03 -0.39583770901E+03  0.69438077330E+03  0.00000000000E+00 0. -1.
          1    1    5    5  503    0  0.20872016057E+02 -0.45961869520E+02  0.66833480012E+02  0.83754692731E+02  0.00000000000E+00 0. -1.
         -2    1    5    5    0  503 -0.39009850158E+02 -0.21417116734E+02  0.15658674637E+03  0.16278780801E+03  0.00000000000E+00 0.  1.
         -1    1    6    6    0  502  0.18825508763E+02  0.16805595962E+03 -0.15565385810E+03  0.22983761417E+03  0.00000000000E+00 0.  1.
<mgrwt>
<rscale>  0 0.19687284E+04</rscale>
<asrwt>0</asrwt>
<pdfrwt beam="1">  1        2 0.15925764E+00 0.19687284E+04</pdfrwt>
<pdfrwt beam="2">  1       -2 0.14400735E+00 0.19687284E+04</pdfrwt>
<totfact> 0.74325772E+00</totfact>
</mgrwt>
</event>
<event>
12    1  0.2048318E-007  0.1235780E+04  0.7818608E-02  0.9082103E-01
         -1   -1    0    0    0  501 -0.00000000000E+00  0.00000000000E+00  0.14765313257E+03  0.14765313257E+03  0.00000000000E+00 0.  1.
          1   -1    0    0  501    0  0.00000000000E+00 -0.00000000000E+00 -0.25857074324E+04  0.25857074324E+04  0.00000000000E+00 0. -1.
         23    2    1    2    0    0  0.18239815087E+03 -0.10059980966E+03 -0.99456715508E+03  0.10199227517E+04  0.87688005599E+02 0.  0.
        254    2    1    2    0    0 -0.18239815087E+03  0.10059980966E+03 -0.14434871447E+04  0.17134378132E+04  0.89934676054E+03 0.  0.
        -24    2    4    4    0    0  0.25607325199E+03  0.18855142286E+03 -0.18847041167E+03  0.37817373418E+03  0.79806814870E+02 0.  0.
         24    2    4    4    0    0 -0.43847140285E+03 -0.87951613202E+02 -0.12550167330E+04  0.13352640790E+04  0.88715856496E+02 0.  0.
         13    1    3    3    0    0  0.12094694304E+03 -0.10119252435E+03 -0.58983973995E+03  0.61055631095E+03  0.00000000000E+00 0.  1.
        -13    1    3    3    0    0  0.61451207827E+02  0.59271469265E+00 -0.40472741514E+03  0.40936644076E+03  0.00000000000E+00 0. -1.
          4    1    6    6  502    0 -0.24161703922E+03 -0.83576600411E+02 -0.62763454203E+03  0.67770861005E+03  0.00000000000E+00 0. -1.
          3    1    5    5  503    0 -0.40150279381E+01  0.20896678900E+01  0.28256420135E+01  0.53358611322E+01  0.00000000000E+00 0. -1.
         -4    1    5    5    0  503  0.26008827993E+03  0.18646175497E+03 -0.19129605368E+03  0.37283787304E+03  0.00000000000E+00 0.  1.
         -1    1    6    6    0  502 -0.19685436363E+03 -0.43750127909E+01 -0.62738219100E+03  0.65755546899E+03  0.00000000000E+00 0.  1.
<mgrwt>
<rscale>  0 0.12357796E+04</rscale>
<asrwt>0</asrwt>
<pdfrwt beam="1">  1        1 0.39780110E+00 0.12357796E+04</pdfrwt>
<pdfrwt beam="2">  1       -1 0.22715869E-01 0.12357796E+04</pdfrwt>
<totfact> 0.19357448E+01</totfact>
</mgrwt>
</event>
<event>
12    1  0.2048318E-007  0.1831586E+04  0.7818608E-02  0.8689680E-01
          1   -1    0    0  501    0  0.00000000000E+00  0.00000000000E+00  0.24434692259E+04  0.24434692259E+04  0.00000000000E+00 0. -1.
         -1   -1    0    0    0  501 -0.00000000000E+00 -0.00000000000E+00 -0.34323214137E+03  0.34323214137E+03  0.00000000000E+00 0.  1.
         23    2    1    2    0    0  0.30133724205E+03 -0.36816616963E+03  0.40464700316E+02  0.48634762412E+03  0.92445430459E+02 0.  0.
        254    2    1    2    0    0 -0.30133724205E+03  0.36816616963E+03  0.20597723843E+04  0.23003537432E+04  0.90698104000E+03 0.  0.
        -24    2    4    4    0    0 -0.61571504765E+03  0.23389233188E+03  0.11966600877E+04  0.13682672170E+04  0.79681672451E+02 0.  0.
         24    2    4    4    0    0  0.31437780560E+03  0.13427383776E+03  0.86311229656E+03  0.93208652614E+03  0.83424142717E+02 0.  0.
         13    1    3    3    0    0  0.16181223855E+03 -0.26031597786E+03  0.54550271879E+01  0.30655728045E+03  0.00000000000E+00 0. -1.
        -13    1    3    3    0    0  0.13952500350E+03 -0.10785019177E+03  0.35009673128E+02  0.17979034367E+03  0.00000000000E+00 0.  1.
          2    1    6    6  502    0  0.12493367749E+03  0.91795145660E+02  0.32663971919E+03  0.36156365787E+03  0.00000000000E+00 0. -1.
          3    1    5    5  503    0 -0.50010775676E+01  0.12521636863E+02  0.18520701202E+02  0.22908918341E+02  0.00000000000E+00 0. -1.
         -4    1    5    5    0  503 -0.61071397008E+03  0.22137069501E+03  0.11781393865E+04  0.13453582987E+04  0.00000000000E+00 0.  1.
         -1    1    6    6    0  502  0.18944412810E+03  0.42478692095E+02  0.53647257736E+03  0.57052286827E+03  0.00000000000E+00 0.  1.
<mgrwt>
<rscale>  0 0.18315864E+04</rscale>
<asrwt>0</asrwt>
<pdfrwt beam="1">  1        1 0.37591833E+00 0.18315864E+04</pdfrwt>
<pdfrwt beam="2">  1       -1 0.52804946E-01 0.18315864E+04</pdfrwt>
<totfact> 0.50480663E+00</totfact>
</mgrwt>
</event>
<event>
12    1  0.2048318E-007  0.2921368E+04  0.7818608E-02  0.8266548E-01
         -2   -1    0    0    0  501 -0.00000000000E+00  0.00000000000E+00  0.90197953462E+03  0.90197953462E+03  0.00000000000E+00 0.  1.
          2   -1    0    0  501    0  0.00000000000E+00 -0.00000000000E+00 -0.23654607019E+04  0.23654607019E+04  0.00000000000E+00 0. -1.
         23    2    1    2    0    0  0.69744401714E+03  0.89460452285E+03  0.92986848079E+02  0.11414746025E+04  0.87018991022E+02 0.  0.
        254    2    1    2    0    0 -0.69744401714E+03 -0.89460452285E+03 -0.15564680154E+04  0.21259656341E+04  0.90021763204E+03 0.  0.
        -24    2    4    4    0    0 -0.60623366594E+03 -0.97485194474E+02 -0.49122580851E+03  0.78997341366E+03  0.75713793201E+02 0.  0.
         24    2    4    4    0    0 -0.91210351203E+02 -0.79711932838E+03 -0.10652422069E+04  0.13359922204E+04  0.80098076698E+02 0.  0.
         13    1    3    3    0    0  0.15290015561E+03  0.22112897658E+03 -0.11648931140E+02  0.26909511230E+03  0.00000000000E+00 0. -1.
        -13    1    3    3    0    0  0.54454386153E+03  0.67347554627E+03  0.10463577922E+03  0.87237949016E+03  0.00000000000E+00 0.  1.
          2    1    6    6  502    0 -0.17003611624E+02 -0.36245096148E+02 -0.35609047797E+02  0.53580165062E+02  0.00000000000E+00 0. -1.
          3    1    5    5  503    0 -0.21987194446E+03 -0.56625381034E+02 -0.22001160760E+03  0.31615694396E+03  0.00000000000E+00 0. -1.
         -4    1    5    5    0  503 -0.38636172148E+03 -0.40859813440E+02 -0.27121420091E+03  0.47381646970E+03  0.00000000000E+00 0.  1.
         -1    1    6    6    0  502 -0.74206739579E+02 -0.76087423223E+03 -0.10296331591E+04  0.12824120554E+04  0.00000000000E+00 0.  1.
<mgrwt>
<rscale>  0 0.29213676E+04</rscale>
<asrwt>0</asrwt>
<pdfrwt beam="1">  1        2 0.36391703E+00 0.29213676E+04</pdfrwt>
<pdfrwt beam="2">  1       -2 0.13876608E+00 0.29213676E+04</pdfrwt>
<totfact> 0.13172396E+00</totfact>
</mgrwt>
</event>
<event>
12    1  0.2048318E-007  0.1134465E+04  0.7818608E-02  0.9172236E-01
         -1   -1    0    0    0  501 -0.00000000000E+00  0.00000000000E+00  0.95534346595E+03  0.95534346595E+03  0.00000000000E+00 0. -1.
          1   -1    0    0  501    0  0.00000000000E+00 -0.00000000000E+00 -0.33679272340E+03  0.33679272340E+03  0.00000000000E+00 0.  1.
         23    2    1    2    0    0 -0.15504884502E+03  0.24260578242E+02 -0.12760068919E+02  0.18201961664E+03  0.91321418542E+02 0.  0.
        254    2    1    2    0    0  0.15504884502E+03 -0.24260578242E+02  0.63131081147E+03  0.11101165727E+04  0.89954251945E+03 0.  0.
        -24    2    4    4    0    0  0.20007659270E+03 -0.34702943000E+03  0.16069232916E+02  0.40927678450E+03  0.82396588816E+02 0.  0.
         24    2    4    4    0    0 -0.45027747674E+02  0.32276885176E+03  0.61524157855E+03  0.70083978820E+03  0.80293082020E+02 0.  0.
         13    1    3    3    0    0 -0.13817927078E+03  0.33950085250E+02 -0.40680491447E+02  0.14798993731E+03  0.00000000000E+00 0.  1.
        -13    1    3    3    0    0 -0.16869574246E+02 -0.96895070078E+01  0.27920422528E+02  0.34029679332E+02  0.00000000000E+00 0. -1.
          4    1    6    6  502    0 -0.40280466196E+02  0.23192325542E+03  0.51018087091E+03  0.56186780776E+03  0.00000000000E+00 0. -1.
          1    1    5    5  503    0 -0.20107195905E+01 -0.11377328794E+02 -0.11773979666E+02  0.16495854053E+02  0.00000000000E+00 0. -1.
         -2    1    5    5    0  503  0.20208731229E+03 -0.33565210121E+03  0.27843212583E+02  0.39278093045E+03  0.00000000000E+00 0.  1.
         -1    1    6    6    0  502 -0.47472814775E+01  0.90845596343E+02  0.10506070764E+03  0.13897198044E+03  0.00000000000E+00 0.  1.
<mgrwt>
<rscale>  0 0.11344650E+04</rscale>
<asrwt>0</asrwt>
<pdfrwt beam="1">  1        1 0.51814265E-01 0.11344650E+04</pdfrwt>
<pdfrwt beam="2">  1       -1 0.14697592E+00 0.11344650E+04</pdfrwt>
<totfact> 0.27607585E+01</totfact>
</mgrwt>
</event>
<event>
12    1  0.2048318E-007  0.2193041E+04  0.7818608E-02  0.8521330E-01
         -1   -1    0    0    0  501 -0.00000000000E+00  0.00000000000E+00  0.89081288288E+03  0.89081288288E+03  0.00000000000E+00 0.  1.
          1   -1    0    0  501    0  0.00000000000E+00 -0.00000000000E+00 -0.13497299359E+04  0.13497299359E+04  0.00000000000E+00 0. -1.
         23    2    1    2    0    0 -0.55253104896E+03  0.36459656525E+03 -0.82983102539E+03  0.10657506063E+04  0.94781900052E+02 0.  0.
        254    2    1    2    0    0  0.55253104896E+03 -0.36459656525E+03  0.37091397238E+03  0.11747922125E+04  0.89684912455E+03 0.  0.
        -24    2    4    4    0    0  0.71149862435E+03 -0.10825136223E+03  0.44887237776E+03  0.85208481421E+03  0.81323239136E+02 0.  0.
         24    2    4    4    0    0 -0.15896757538E+03 -0.25634520302E+03 -0.77958405376E+02  0.32270739830E+03  0.84136786324E+02 0.  0.
         11    1    3    3    0    0 -0.38893618756E+03  0.21215180192E+03 -0.59036141252E+03  0.73810997992E+03  0.00000000000E+00 0. -1.
        -11    1    3    3    0    0 -0.16359486140E+03  0.15244476333E+03 -0.23946961287E+03  0.32764062634E+03  0.00000000000E+00 0.  1.
          2    1    6    6  502    0 -0.13306475180E+03 -0.25288403722E+03 -0.79251607207E+02  0.29654237758E+03  0.00000000000E+00 0. -1.
          3    1    5    5  503    0  0.44659212584E+03 -0.28029118835E+02  0.27529437227E+03  0.52537334323E+03  0.00000000000E+00 0. -1.
         -4    1    5    5    0  503  0.26490649850E+03 -0.80222243397E+02  0.17357800549E+03  0.32671147098E+03  0.00000000000E+00 0.  1.
         -1    1    6    6    0  502 -0.25902823586E+02 -0.34611657952E+01  0.12932018302E+01  0.26165020721E+02  0.00000000000E+00 0.  1.
<mgrwt>
<rscale>  0 0.21930406E+04</rscale>
<asrwt>0</asrwt>
<pdfrwt beam="1">  1        1 0.20765076E+00 0.21930406E+04</pdfrwt>
<pdfrwt beam="2">  1       -1 0.13704814E+00 0.21930406E+04</pdfrwt>
<totfact> 0.33703782E+00</totfact>
</mgrwt>
</event>
<event>
12    1  0.2048318E-007  0.2415199E+04  0.7818608E-02  0.8433835E-01
          2   -1    0    0  501    0  0.00000000000E+00  0.00000000000E+00  0.17690350163E+04  0.17690350163E+04  0.00000000000E+00 0. -1.
         -2   -1    0    0    0  501 -0.00000000000E+00 -0.00000000000E+00 -0.82434599727E+03  0.82434599727E+03  0.00000000000E+00 0.  1.
         23    2    1    2    0    0 -0.66009152128E+03  0.68969446527E+03 -0.29257301666E+02  0.95932317633E+03  0.89697798530E+02 0.  0.
        254    2    1    2    0    0  0.66009152128E+03 -0.68969446527E+03  0.97394632067E+03  0.16340578372E+04  0.90009683253E+03 0.  0.
        -24    2    4    4    0    0  0.66514212380E+02  0.77551031176E+02 -0.11467357361E+03  0.17349803676E+03  0.80704630534E+02 0.  0.
         24    2    4    4    0    0  0.59357730890E+03 -0.76724549644E+03  0.10886198943E+04  0.14605598004E+04  0.84510253901E+02 0.  0.
         11    1    3    3    0    0 -0.35046169103E+03  0.42862497993E+03 -0.69724117369E+01  0.55370694851E+03  0.00000000000E+00 0.  1.
        -11    1    3    3    0    0 -0.30962983025E+03  0.26106948533E+03 -0.22284889929E+02  0.40561622782E+03  0.00000000000E+00 0. -1.
          2    1    6    6  502    0  0.52304740124E+03 -0.63086408052E+03  0.89620418696E+03  0.12143928593E+04  0.00000000000E+00 0. -1.
          1    1    5    5  503    0 -0.23947956205E+01  0.53987694119E+02 -0.29982815963E+02  0.61801095584E+02  0.00000000000E+00 0. -1.
         -2    1    5    5    0  503  0.68909008001E+02  0.23563337057E+02 -0.84690757650E+02  0.11169694118E+03  0.00000000000E+00 0.  1.
         -1    1    6    6    0  502  0.70529907664E+02 -0.13638141592E+03  0.19241570732E+03  0.24616694113E+03  0.00000000000E+00 0.  1.
<mgrwt>
<rscale>  0 0.24151993E+04</rscale>
<asrwt>0</asrwt>
<pdfrwt beam="1">  1        2 0.27215923E+00 0.24151993E+04</pdfrwt>
<pdfrwt beam="2">  1       -2 0.12682246E+00 0.24151993E+04</pdfrwt>
<totfact> 0.37280180E+00</totfact>
</mgrwt>
</event>
<event>
12    1  0.2048318E-007  0.3451145E+04  0.7818608E-02  0.8125466E-01
          1   -1    0    0  501    0  0.00000000000E+00  0.00000000000E+00  0.27436804399E+04  0.27436804399E+04  0.00000000000E+00 0. -1.
         -1   -1    0    0    0  501 -0.00000000000E+00 -0.00000000000E+00 -0.10852578269E+04  0.10852578269E+04  0.00000000000E+00 0.  1.
         23    2    1    2    0    0  0.12830522656E+04  0.96378550589E+03  0.69423068240E+03  0.17508511487E+04  0.91749043307E+02 0.  0.
        254    2    1    2    0    0 -0.12830522656E+04 -0.96378550589E+03  0.96419193069E+03  0.20780871181E+04  0.90203900876E+03 0.  0.
        -24    2    4    4    0    0 -0.52244244019E+03 -0.35697310637E+03  0.89506683622E+03  0.10990779599E+04  0.80323214094E+02 0.  0.
         24    2    4    4    0    0 -0.76060982546E+03 -0.60681239952E+03  0.69125094465E+02  0.97900915813E+03  0.83258982862E+02 0.  0.
         11    1    3    3    0    0  0.43011960640E+03  0.30396788705E+03  0.27202727319E+03  0.59278848633E+03  0.00000000000E+00 0. -1.
        -11    1    3    3    0    0  0.85293265924E+03  0.65981761883E+03  0.42220340922E+03  0.11580626624E+04  0.00000000000E+00 0.  1.
          2    1    6    6  502    0 -0.14955145858E+03 -0.11401372463E+03  0.46276247779E+02  0.19366532802E+03  0.00000000000E+00 0. -1.
          3    1    5    5  503    0 -0.14356502617E+03 -0.10436723502E+03  0.31573061233E+03  0.36220057434E+03  0.00000000000E+00 0. -1.
         -2    1    5    5    0  503 -0.37887741401E+03 -0.25260587135E+03  0.57933622389E+03  0.73687738559E+03  0.00000000000E+00 0.  1.
         -1    1    6    6    0  502 -0.61105836687E+03 -0.49279867489E+03  0.22848846687E+02  0.78534383011E+03  0.00000000000E+00 0.  1.
<mgrwt>
<rscale>  0 0.34511451E+04</rscale>
<asrwt>0</asrwt>
<pdfrwt beam="1">  1        1 0.42210468E+00 0.34511451E+04</pdfrwt>
<pdfrwt beam="2">  1       -1 0.16696274E+00 0.34511451E+04</pdfrwt>
<totfact> 0.19390989E-01</totfact>
</mgrwt>
</event>
<event>
12    1  0.2048318E-007  0.1846469E+04  0.7818608E-02  0.8681971E-01
         -1   -1    0    0    0  501 -0.00000000000E+00  0.00000000000E+00  0.10016960938E+04  0.10016960938E+04  0.00000000000E+00 0.  1.
          1   -1    0    0  501    0  0.00000000000E+00 -0.00000000000E+00 -0.85091856939E+03  0.85091856939E+03  0.00000000000E+00 0. -1.
         23    2    1    2    0    0  0.12313765843E+03 -0.68224834108E+03 -0.50010497114E+02  0.69975395101E+03  0.80801363242E+02 0.  0.
        254    2    1    2    0    0 -0.12313765843E+03  0.68224834108E+03  0.20078802152E+03  0.11528607122E+04  0.89896958251E+03 0.  0.
        -24    2    4    4    0    0  0.16757058059E+03  0.51706837723E+03 -0.23316095014E+03  0.59827768870E+03  0.90180695964E+02 0.  0.
         24    2    4    4    0    0 -0.29070823902E+03  0.16517996385E+03  0.43394897165E+03  0.55458302348E+03  0.86341874178E+02 0.  0.
         13    1    3    3    0    0  0.71587427482E+02 -0.24041715990E+03 -0.45266064248E+02  0.25490034743E+03  0.00000000000E+00 0. -1.
        -13    1    3    3    0    0  0.51550230949E+02 -0.44183118118E+03 -0.47444328657E+01  0.44485360358E+03  0.00000000000E+00 0.  1.
          2    1    6    6  502    0 -0.24763961067E+03  0.16517977538E+03  0.40524657748E+03  0.50282653423E+03  0.00000000000E+00 0. -1.
          3    1    5    5  503    0  0.16800784919E+03  0.52055607028E+03 -0.22946571528E+03  0.59317769191E+03  0.00000000000E+00 0. -1.
         -4    1    5    5    0  503 -0.43726860298E+00 -0.34876930496E+01 -0.36952348554E+01  0.50999967918E+01  0.00000000000E+00 0.  1.
         -1    1    6    6    0  502 -0.43068628346E+02  0.18847582523E-03  0.28702394174E+02  0.51756489245E+02  0.00000000000E+00 0.  1.
<mgrwt>
<rscale>  0 0.18464689E+04</rscale>
<asrwt>0</asrwt>
<pdfrwt beam="1">  1        1 0.13091055E+00 0.18464689E+04</pdfrwt>
<pdfrwt beam="2">  1       -1 0.15410709E+00 0.18464689E+04</pdfrwt>
<totfact> 0.60923579E+00</totfact>
</mgrwt>
</event>
<event>
12    1  0.2048318E-007  0.1836235E+04  0.7818608E-02  0.8687264E-01
          2   -1    0    0  501    0  0.00000000000E+00  0.00000000000E+00  0.17774321693E+04  0.17774321693E+04  0.00000000000E+00 0. -1.
         -2   -1    0    0    0  501 -0.00000000000E+00 -0.00000000000E+00 -0.47424601812E+03  0.47424601812E+03  0.00000000000E+00 0.  1.
         23    2    1    2    0    0  0.20568505436E+03 -0.55657285518E+03  0.93964953520E+03  0.11152822897E+04  0.93987509780E+02 0.  0.
        254    2    1    2    0    0 -0.20568505436E+03  0.55657285518E+03  0.36353661596E+03  0.11363958977E+04  0.89841921198E+03 0.  0.
        -24    2    4    4    0    0 -0.24643241506E+03  0.74252601136E+03  0.85386680724E+02  0.79110632521E+03  0.80526516184E+02 0.  0.
         24    2    4    4    0    0  0.40747360702E+02 -0.18595315618E+03  0.27814993523E+03  0.34528957248E+03  0.74957179107E+02 0.  0.
         13    1    3    3    0    0  0.33018669721E+02 -0.27193089456E+02  0.50672368957E+02  0.66312786399E+02  0.00000000000E+00 0.  1.
        -13    1    3    3    0    0  0.17266638464E+03 -0.52937976572E+03  0.88897716625E+03  0.10489695033E+04  0.00000000000E+00 0. -1.
          2    1    6    6  502    0  0.42032520429E+02 -0.18642507788E+03  0.23851604581E+03  0.30563204437E+03  0.00000000000E+00 0. -1.
          3    1    5    5  503    0 -0.25095358646E+03  0.70845607200E+03  0.87536332465E+02  0.75667054787E+03  0.00000000000E+00 0. -1.
         -4    1    5    5    0  503  0.45211713967E+01  0.34069939353E+02 -0.21496517412E+01  0.34435777339E+02  0.00000000000E+00 0.  1.
         -1    1    6    6    0  502 -0.12851597267E+01  0.47192169893E+00  0.39633889423E+02  0.39657528118E+02  0.00000000000E+00 0.  1.
<mgrwt>
<rscale>  0 0.18362354E+04</rscale>
<asrwt>0</asrwt>
<pdfrwt beam="1">  1        2 0.27345110E+00 0.18362354E+04</pdfrwt>
<pdfrwt beam="2">  1       -2 0.72960927E-01 0.18362354E+04</pdfrwt>
<totfact> 0.14188119E+01</totfact>
</mgrwt>
</event>
<event>
12    1  0.2048318E-007  0.2079728E+04  0.7818608E-02  0.8570226E-01
          1   -1    0    0  501    0  0.00000000000E+00  0.00000000000E+00  0.14342745005E+04  0.14342745005E+04  0.00000000000E+00 0. -1.
         -1   -1    0    0    0  501 -0.00000000000E+00 -0.00000000000E+00 -0.75391196023E+03  0.75391196023E+03  0.00000000000E+00 0.  1.
         23    2    1    2    0    0  0.64779772764E+03  0.42468780394E+03  0.62305378047E+03  0.99810357250E+03  0.89515927794E+02 0.  0.
        254    2    1    2    0    0 -0.64779772764E+03 -0.42468780394E+03  0.57308759824E+02  0.11900828882E+04  0.90167142584E+03 0.  0.
        -24    2    4    4    0    0  0.32603685417E+02 -0.49284803706E+03  0.35268531678E+02  0.50127057523E+03  0.77885379438E+02 0.  0.
         24    2    4    4    0    0 -0.68040141306E+03  0.68160233117E+02  0.22040228146E+02  0.68881231301E+03  0.79904509371E+02 0.  0.
         11    1    3    3    0    0  0.56306666943E+03  0.39604363639E+03  0.57259406960E+03  0.89540974123E+03  0.00000000000E+00 0. -1.
        -11    1    3    3    0    0  0.84731058212E+02  0.28644167555E+02  0.50459710869E+02  0.10269383127E+03  0.00000000000E+00 0.  1.
          4    1    6    6  502    0 -0.14014416585E+03 -0.13270459093E+02 -0.12742554120E+02  0.14134661295E+03  0.00000000000E+00 0. -1.
          3    1    5    5  503    0  0.43397436803E+02 -0.33778601589E+03  0.53605769290E+02  0.34475543295E+03  0.00000000000E+00 0. -1.
         -4    1    5    5    0  503 -0.10793751385E+02 -0.15506202118E+03 -0.18337237612E+02  0.15651514228E+03  0.00000000000E+00 0.  1.
         -3    1    6    6    0  502 -0.54025724721E+03  0.81430692210E+02  0.34782782266E+02  0.54746570005E+03  0.00000000000E+00 0.  1.
<mgrwt>
<rscale>  0 0.20797276E+04</rscale>
<asrwt>0</asrwt>
<pdfrwt beam="1">  1        1 0.22065762E+00 0.20797276E+04</pdfrwt>
<pdfrwt beam="2">  1       -1 0.11598646E+00 0.20797276E+04</pdfrwt>
<totfact> 0.45033712E+00</totfact>
</mgrwt>
</event>
<event>
12    1  0.2048318E-007  0.1654534E+04  0.7818608E-02  0.8787729E-01
         -1   -1    0    0    0  501 -0.00000000000E+00  0.00000000000E+00  0.87386379673E+03  0.87386379673E+03  0.00000000000E+00 0.  1.
          1   -1    0    0  501    0  0.00000000000E+00 -0.00000000000E+00 -0.78315479635E+03  0.78315479635E+03  0.00000000000E+00 0. -1.
         23    2    1    2    0    0  0.48780679086E+03  0.28987761844E+03 -0.77011946440E+02  0.57971461964E+03  0.90297848488E+02 0.  0.
        254    2    1    2    0    0 -0.48780679086E+03 -0.28987761844E+03  0.16772094682E+03  0.10773039734E+04  0.90026053801E+03 0.  0.
        -24    2    4    4    0    0  0.14979708988E+03 -0.24348529940E+03 -0.17782117511E+03  0.34623344743E+03  0.80826794106E+02 0.  0.
         24    2    4    4    0    0 -0.63760388074E+03 -0.46392319038E+02  0.34554212193E+03  0.73107052600E+03  0.79836081821E+02 0.  0.
         13    1    3    3    0    0  0.23472691350E+03  0.88571150481E+02 -0.24109811516E+02  0.25203740919E+03  0.00000000000E+00 0. -1.
        -13    1    3    3    0    0  0.25307987736E+03  0.20130646796E+03 -0.52902134924E+02  0.32767721045E+03  0.00000000000E+00 0.  1.
          4    1    6    6  502    0 -0.51505734613E+03 -0.16912956979E+02  0.30420048745E+03  0.59842130182E+03  0.00000000000E+00 0. -1.
          1    1    5    5  503    0  0.99252566291E+02 -0.21989902917E+03 -0.14209350866E+03  0.27999503593E+03  0.00000000000E+00 0. -1.
         -2    1    5    5    0  503  0.50544523589E+02 -0.23586270231E+02 -0.35727666451E+02  0.66238411502E+02  0.00000000000E+00 0.  1.
         -3    1    6    6    0  502 -0.12254653462E+03 -0.29479362059E+02  0.41341634477E+02  0.13264922418E+03  0.00000000000E+00 0.  1.
<mgrwt>
<rscale>  0 0.16545339E+04</rscale>
<asrwt>0</asrwt>
<pdfrwt beam="1">  1        1 0.12048535E+00 0.16545339E+04</pdfrwt>
<pdfrwt beam="2">  1       -1 0.13444058E+00 0.16545339E+04</pdfrwt>
<totfact> 0.10175415E+01</totfact>
</mgrwt>
</event>
<event>
12    1  0.2048318E-007  0.2543671E+04  0.7818608E-02  0.8387591E-01
          2   -1    0    0  501    0  0.00000000000E+00  0.00000000000E+00  0.37866941511E+04  0.37866941511E+04  0.00000000000E+00 0. -1.
         -2   -1    0    0    0  501 -0.00000000000E+00 -0.00000000000E+00 -0.42717077865E+03  0.42717077865E+03  0.00000000000E+00 0.  1.
         23    2    1    2    0    0  0.10403278764E+04 -0.22862140135E+03  0.19874319066E+04  0.22568386457E+04  0.94261622750E+02 0.  0.
        254    2    1    2    0    0 -0.10403278764E+04  0.22862140135E+03  0.13720914658E+04  0.19570262841E+04  0.90153593958E+03 0.  0.
        -24    2    4    4    0    0 -0.10506520801E+04  0.18984191353E+02  0.74449618565E+03  0.12903998317E+04  0.81406155508E+02 0.  0.
         24    2    4    4    0    0  0.10324203677E+02  0.20963721000E+03  0.62759528018E+03  0.66662645242E+03  0.80378121194E+02 0.  0.
         11    1    3    3    0    0  0.16981392891E+03 -0.33158557660E+01  0.33467378226E+03  0.37530561664E+03  0.00000000000E+00 0. -1.
        -11    1    3    3    0    0  0.87051394752E+03 -0.22530554558E+03  0.16527581244E+04  0.18815330291E+04  0.00000000000E+00 0.  1.
          4    1    6    6  502    0 -0.19922641638E+02  0.48539172134E+02  0.24227268759E+03  0.24788912447E+03  0.00000000000E+00 0. -1.
          1    1    5    5  503    0 -0.66669225681E+03 -0.10654356115E+02  0.43237491248E+03  0.79469500158E+03  0.00000000000E+00 0. -1.
         -2    1    5    5    0  503 -0.38395982330E+03  0.29638547468E+02  0.31212127317E+03  0.49570483008E+03  0.00000000000E+00 0.  1.
         -3    1    6    6    0  502  0.30246845315E+02  0.16109803786E+03  0.38532259259E+03  0.41873732795E+03  0.00000000000E+00 0.  1.
<mgrwt>
<rscale>  0 0.25436706E+04</rscale>
<asrwt>0</asrwt>
<pdfrwt beam="1">  1        2 0.58256831E+00 0.25436706E+04</pdfrwt>
<pdfrwt beam="2">  1       -2 0.65718584E-01 0.25436706E+04</pdfrwt>
<totfact> 0.95437549E-01</totfact>
</mgrwt>
</event>
<event>
12    1  0.2048318E-007  0.1507472E+04  0.7818608E-02  0.8879499E-01
          1   -1    0    0  501    0  0.00000000000E+00  0.00000000000E+00  0.27120456299E+04  0.27120456299E+04  0.00000000000E+00 0. -1.
         -1   -1    0    0    0  501 -0.00000000000E+00 -0.00000000000E+00 -0.20947953108E+03  0.20947953108E+03  0.00000000000E+00 0.  1.
         23    2    1    2    0    0 -0.36646691046E+03 -0.29151317587E+03  0.10268132518E+04  0.11324148005E+04  0.93487421429E+02 0.  0.
        254    2    1    2    0    0  0.36646691046E+03  0.29151317587E+03  0.14757528469E+04  0.17891103605E+04  0.89654419221E+03 0.  0.
        -24    2    4    4    0    0  0.41135121340E+03  0.35693150670E+03  0.15561239130E+04  0.16508644585E+04  0.84981801071E+02 0.  0.
         24    2    4    4    0    0 -0.44884302940E+02 -0.65418330836E+02 -0.80371066043E+02  0.13824590200E+03  0.79738713948E+02 0.  0.
         11    1    3    3    0    0 -0.10064237928E+03 -0.10193507419E+03  0.41348846476E+03  0.43759839847E+03  0.00000000000E+00 0. -1.
        -11    1    3    3    0    0 -0.26582453119E+03 -0.18957810167E+03  0.61332478708E+03  0.69481640198E+03  0.00000000000E+00 0.  1.
          4    1    6    6  502    0 -0.33751410821E+02  0.10251238371E+02 -0.18267238220E+02  0.39723262866E+02  0.00000000000E+00 0. -1.
          3    1    5    5  503    0  0.30959297189E+03  0.21755800642E+03  0.10915661934E+04  0.11552904609E+04  0.00000000000E+00 0. -1.
         -4    1    5    5    0  503  0.10175824151E+03  0.13937350028E+03  0.46455771957E+03  0.49557399761E+03  0.00000000000E+00 0.  1.
         -3    1    6    6    0  502 -0.11132892119E+02 -0.75669569207E+02 -0.62103827823E+02  0.98522639130E+02  0.00000000000E+00 0.  1.
<mgrwt>
<rscale>  0 0.15074721E+04</rscale>
<asrwt>0</asrwt>
<pdfrwt beam="1">  1        1 0.41723777E+00 0.15074721E+04</pdfrwt>
<pdfrwt beam="2">  1       -1 0.32227622E-01 0.15074721E+04</pdfrwt>
<totfact> 0.83975586E+00</totfact>
</mgrwt>
</event>
<event>
12    1  0.2048318E-007  0.1855424E+04  0.7818608E-02  0.8677368E-01
          2   -1    0    0  501    0  0.00000000000E+00  0.00000000000E+00  0.84947069261E+03  0.84947069261E+03  0.00000000000E+00 0. -1.
         -2   -1    0    0    0  501 -0.00000000000E+00 -0.00000000000E+00 -0.10131597902E+04  0.10131597902E+04  0.00000000000E+00 0.  1.
         23    2    1    2    0    0  0.40221001938E+03  0.16845500707E+03  0.49411837159E+03  0.66556169507E+03  0.93109697119E+02 0.  0.
        254    2    1    2    0    0 -0.40221001938E+03 -0.16845500707E+03 -0.65780746916E+03  0.11970687877E+04  0.90006279055E+03 0.  0.
        -24    2    4    4    0    0 -0.10019830081E+03 -0.51560339134E+03 -0.38050936809E+03  0.65427592374E+03  0.86040970030E+02 0.  0.
         24    2    4    4    0    0 -0.30201171857E+03  0.34714838427E+03 -0.27729810107E+03  0.54279286398E+03  0.77503402932E+02 0.  0.
         13    1    3    3    0    0  0.80801771966E+02  0.62188561389E+02  0.73772082167E+02  0.12585175258E+03  0.00000000000E+00 0.  1.
        -13    1    3    3    0    0  0.32140824741E+03  0.10626644568E+03  0.42034628943E+03  0.53970994249E+03  0.00000000000E+00 0. -1.
          2    1    6    6  502    0 -0.27096498774E+03  0.27209715528E+03 -0.24428898219E+03  0.45512195433E+03  0.00000000000E+00 0. -1.
          3    1    5    5  503    0 -0.51035074844E+02 -0.43392939414E+03 -0.31221584012E+03  0.53700840663E+03  0.00000000000E+00 0. -1.
         -4    1    5    5    0  503 -0.49163225964E+02 -0.81673997200E+02 -0.68293527972E+02  0.11726751711E+03  0.00000000000E+00 0.  1.
         -1    1    6    6    0  502 -0.31046730828E+02  0.75051228992E+02 -0.33009118880E+02  0.87670909642E+02  0.00000000000E+00 0.  1.
<mgrwt>
<rscale>  0 0.18554240E+04</rscale>
<asrwt>0</asrwt>
<pdfrwt beam="1">  1        2 0.13068780E+00 0.18554240E+04</pdfrwt>
<pdfrwt beam="2">  1       -2 0.15587074E+00 0.18554240E+04</pdfrwt>
<totfact> 0.80707219E+00</totfact>
</mgrwt>
</event>
<event>
12    1  0.2048318E-007  0.1512767E+04  0.7818608E-02  0.8876007E-01
         -2   -1    0    0    0  501 -0.00000000000E+00  0.00000000000E+00  0.30658209157E+03  0.30658209157E+03  0.00000000000E+00 0. -1.
          2   -1    0    0  501    0  0.00000000000E+00 -0.00000000000E+00 -0.18661107487E+04  0.18661107487E+04  0.00000000000E+00 0.  1.
         23    2    1    2    0    0  0.43792273084E+03  0.20586251446E+03 -0.49333835034E+03  0.69721200594E+03  0.92553553494E+02 0.  0.
        254    2    1    2    0    0 -0.43792273084E+03 -0.20586251446E+03 -0.10661903068E+04  0.14754808344E+04  0.89784532586E+03 0.  0.
        -24    2    4    4    0    0  0.11888649893E+03  0.18746542362E+03 -0.60292744544E+03  0.64743196825E+03  0.79808297589E+02 0.  0.
         24    2    4    4    0    0 -0.55680922976E+03 -0.39332793808E+03 -0.46326286138E+03  0.82804886611E+03  0.79429595959E+02 0.  0.
         13    1    3    3    0    0  0.18041303607E+03  0.70198949900E+02 -0.13725874394E+03  0.23731143870E+03  0.00000000000E+00 0. -1.
        -13    1    3    3    0    0  0.25750969476E+03  0.13566356456E+03 -0.35607960640E+03  0.45990056723E+03  0.00000000000E+00 0.  1.
          2    1    6    6  502    0 -0.47098025282E+02 -0.34435064519E+02 -0.69387257115E+02  0.90656434431E+02  0.00000000000E+00 0. -1.
          1    1    5    5  503    0  0.48504938837E+01  0.66693489291E+02 -0.13012972578E+03  0.14630548293E+03  0.00000000000E+00 0. -1.
         -2    1    5    5    0  503  0.11403600504E+03  0.12077193433E+03 -0.47279771966E+03  0.50112648532E+03  0.00000000000E+00 0.  1.
         -1    1    6    6    0  502 -0.50971120448E+03 -0.35889287356E+03 -0.39387560426E+03  0.73739243168E+03  0.00000000000E+00 0.  1.
<mgrwt>
<rscale>  0 0.15127672E+04</rscale>
<asrwt>0</asrwt>
<pdfrwt beam="1">  1        2 0.28709396E+00 0.15127672E+04</pdfrwt>
<pdfrwt beam="2">  1       -2 0.47166476E-01 0.15127672E+04</pdfrwt>
<totfact> 0.32612782E+01</totfact>
</mgrwt>
</event>
<event>
12    1  0.2048318E-007  0.1994258E+04  0.7818608E-02  0.8609310E-01
          2   -1    0    0  501    0  0.00000000000E+00  0.00000000000E+00  0.19467307073E+04  0.19467307073E+04  0.00000000000E+00 0. -1.
         -2   -1    0    0    0  501 -0.00000000000E+00 -0.00000000000E+00 -0.51073622174E+03  0.51073622174E+03  0.00000000000E+00 0.  1.
         23    2    1    2    0    0 -0.68730570254E+03 -0.87531405482E+01  0.90811295359E+02  0.69915931445E+03  0.90062808150E+02 0.  0.
        254    2    1    2    0    0  0.68730570254E+03  0.87531405482E+01  0.13451831902E+04  0.17583076146E+04  0.89981226159E+03 0.  0.
        -24    2    4    4    0    0 -0.68077045577E+02 -0.17012976481E+03  0.70836607837E+00  0.20380603861E+03  0.89206381965E+02 0.  0.
         24    2    4    4    0    0  0.75538274812E+03  0.17888290536E+03  0.13444748242E+04  0.15545015760E+04  0.79122733874E+02 0.  0.
         11    1    3    3    0    0 -0.19090817370E+03  0.16831038950E+02  0.61357169921E+02  0.20123100397E+03  0.00000000000E+00 0. -1.
        -11    1    3    3    0    0 -0.49639752884E+03 -0.25584179498E+02  0.29454125438E+02  0.49792831049E+03  0.00000000000E+00 0.  1.
          2    1    6    6  502    0  0.18821821882E+03  0.10628746572E+02  0.31064736244E+03  0.36337425877E+03  0.00000000000E+00 0. -1.
          3    1    5    5  503    0  0.20399413885E+02 -0.31068658701E+02  0.10716049814E+02  0.38681149982E+02  0.00000000000E+00 0. -1.
         -4    1    5    5    0  503 -0.88476459461E+02 -0.13906110611E+03 -0.10007683736E+02  0.16512488863E+03  0.00000000000E+00 0.  1.
         -1    1    6    6    0  502  0.56716452930E+03  0.16825415879E+03  0.10338274617E+04  0.11911273172E+04  0.00000000000E+00 0.  1.
<mgrwt>
<rscale>  0 0.19942576E+04</rscale>
<asrwt>0</asrwt>
<pdfrwt beam="1">  1        2 0.29949703E+00 0.19942576E+04</pdfrwt>
<pdfrwt beam="2">  1       -2 0.78574804E-01 0.19942576E+04</pdfrwt>
<totfact> 0.95681897E+00</totfact>
</mgrwt>
</event>
<event>
12    1  0.2048318E-007  0.1121810E+04  0.7818608E-02  0.9184192E-01
          2   -1    0    0  501    0  0.00000000000E+00  0.00000000000E+00  0.19071080995E+04  0.19071080995E+04  0.00000000000E+00 0. -1.
         -2   -1    0    0    0  501 -0.00000000000E+00 -0.00000000000E+00 -0.16496929961E+03  0.16496929961E+03  0.00000000000E+00 0.  1.
         23    2    1    2    0    0 -0.32529050749E+02  0.43967286793E+02  0.15155604274E+02  0.10918293447E+03  0.93273572824E+02 0.  0.
        254    2    1    2    0    0  0.32529050749E+02 -0.43967286793E+02  0.17269831956E+04  0.19628944646E+04  0.93139275277E+03 0.  0.
        -24    2    4    4    0    0 -0.22241470102E+03 -0.65220276722E+02  0.34199010708E+02  0.24897766965E+03  0.84251551476E+02 0.  0.
         24    2    4    4    0    0  0.25494375177E+03  0.21252989929E+02  0.16927841849E+04  0.17139167950E+04  0.80897943909E+02 0.  0.
         11    1    3    3    0    0 -0.46881738564E+02  0.51089149365E+02  0.39678424161E+02  0.79889773673E+02  0.00000000000E+00 0. -1.
        -11    1    3    3    0    0  0.14352687816E+02 -0.71218625723E+01 -0.24522819888E+02  0.29293160793E+02  0.00000000000E+00 0.  1.
          2    1    6    6  502    0  0.12063121344E+03  0.11821307610E+02  0.54817424816E+03  0.56141485491E+03  0.00000000000E+00 0. -1.
          3    1    5    5  503    0 -0.14388573474E+03 -0.37730913674E+01  0.39079102366E+02  0.14914595912E+03  0.00000000000E+00 0. -1.
         -4    1    5    5    0  503 -0.78528966280E+02 -0.61447185355E+02 -0.48800916573E+01  0.99831710531E+02  0.00000000000E+00 0.  1.
         -1    1    6    6    0  502  0.13431253833E+03  0.94316823192E+01  0.11446099367E+04  0.11525019400E+04  0.00000000000E+00 0.  1.
<mgrwt>
<rscale>  0 0.11218098E+04</rscale>
<asrwt>0</asrwt>
<pdfrwt beam="1">  1        2 0.29340123E+00 0.11218098E+04</pdfrwt>
<pdfrwt beam="2">  1       -2 0.25379894E-01 0.11218098E+04</pdfrwt>
<totfact> 0.10427145E+02</totfact>
</mgrwt>
</event>
<event>
12    1  0.2048318E-007  0.1196444E+04  0.7818608E-02  0.9115975E-01
         -1   -1    0    0    0  501 -0.00000000000E+00  0.00000000000E+00  0.27529648208E+03  0.27529648208E+03  0.00000000000E+00 0.  1.
          1   -1    0    0  501    0  0.00000000000E+00 -0.00000000000E+00 -0.12999425555E+04  0.12999425555E+04  0.00000000000E+00 0. -1.
         23    2    1    2    0    0  0.11621425119E+03 -0.17964743229E+03 -0.63603160916E+02  0.24022743452E+03  0.88796993791E+02 0.  0.
        254    2    1    2    0    0 -0.11621425119E+03  0.17964743229E+03 -0.96104291250E+03  0.13350116031E+04  0.90159500250E+03 0.  0.
        -24    2    4    4    0    0  0.37253134828E+02  0.52391270969E+03 -0.65174914279E+03  0.84071567919E+03  0.78444787433E+02 0.  0.
         24    2    4    4    0    0 -0.15346738602E+03 -0.34426527739E+03 -0.30929376971E+03  0.49429592388E+03  0.81209633611E+02 0.  0.
         13    1    3    3    0    0  0.11893843464E+03 -0.17094318327E+03 -0.78671087190E+02  0.22261415746E+03  0.00000000000E+00 0. -1.
        -13    1    3    3    0    0 -0.27241834501E+01 -0.87042490248E+01  0.15067926274E+02  0.17613277059E+02  0.00000000000E+00 0.  1.
          2    1    6    6  502    0 -0.14955039047E+03 -0.31868781617E+03 -0.25671411348E+03  0.43569413529E+03  0.00000000000E+00 0. -1.
          1    1    5    5  503    0  0.52627122640E+02  0.49869456173E+03 -0.61838495331E+03  0.79615691319E+03  0.00000000000E+00 0. -1.
         -2    1    5    5    0  503 -0.15373987812E+02  0.25218147958E+02 -0.33364189482E+02  0.44558766000E+02  0.00000000000E+00 0.  1.
         -1    1    6    6    0  502 -0.39169955476E+01 -0.25577461225E+02 -0.52579656228E+02  0.58601788590E+02  0.00000000000E+00 0.  1.
<mgrwt>
<rscale>  0 0.11964441E+04</rscale>
<asrwt>0</asrwt>
<pdfrwt beam="1">  1        1 0.19999116E+00 0.11964441E+04</pdfrwt>
<pdfrwt beam="2">  1       -1 0.42353305E-01 0.11964441E+04</pdfrwt>
<totfact> 0.49075503E+01</totfact>
</mgrwt>
</event>
<event>
12    1  0.2048318E-007  0.1769658E+04  0.7818608E-02  0.8722603E-01
          2   -1    0    0  501    0  0.00000000000E+00  0.00000000000E+00  0.24250110274E+04  0.24250110274E+04  0.00000000000E+00 0. -1.
         -2   -1    0    0    0  501 -0.00000000000E+00 -0.00000000000E+00 -0.32285328624E+03  0.32285328624E+03  0.00000000000E+00 0.  1.
         23    2    1    2    0    0 -0.55389132838E+03  0.26010222564E+03  0.11317681895E+04  0.12898772278E+04  0.91843652158E+02 0.  0.
        254    2    1    2    0    0  0.55389132838E+03 -0.26010222564E+03  0.97038955164E+03  0.14579870859E+04  0.89978980281E+03 0.  0.
        -24    2    4    4    0    0 -0.21577146705E+03 -0.19978814658E+03  0.19961359899E+03  0.36424777948E+03  0.79738487858E+02 0.  0.
         24    2    4    4    0    0  0.76966279543E+03 -0.60314079055E+02  0.77077595265E+03  0.10937393064E+04  0.78431463051E+02 0.  0.
         11    1    3    3    0    0 -0.13439461257E+03  0.44452625273E+02  0.33951483697E+03  0.36784272768E+03  0.00000000000E+00 0. -1.
        -11    1    3    3    0    0 -0.41949671581E+03  0.21564960036E+03  0.79225335255E+03  0.92203450008E+03  0.00000000000E+00 0.  1.
          2    1    6    6  502    0  0.17577375722E+03 -0.38554392308E+02  0.14898786640E+03  0.23362414093E+03  0.00000000000E+00 0. -1.
          1    1    5    5  503    0 -0.15025265175E+02 -0.47941976957E+02  0.52663535186E+02  0.72784886388E+02  0.00000000000E+00 0. -1.
         -2    1    5    5    0  503 -0.20074620188E+03 -0.15184616962E+03  0.14695006380E+03  0.29146289309E+03  0.00000000000E+00 0.  1.
         -1    1    6    6    0  502  0.59388903821E+03 -0.21759686747E+02  0.62178808625E+03  0.86011516548E+03  0.00000000000E+00 0.  1.
<mgrwt>
<rscale>  0 0.17696585E+04</rscale>
<asrwt>0</asrwt>
<pdfrwt beam="1">  1        2 0.37307861E+00 0.17696585E+04</pdfrwt>
<pdfrwt beam="2">  1       -2 0.49669738E-01 0.17696585E+04</pdfrwt>
<totfact> 0.13975886E+01</totfact>
</mgrwt>
</event>
<event>
12    1  0.2048318E-007  0.1154548E+04  0.7818608E-02  0.9153598E-01
          2   -1    0    0  501    0  0.00000000000E+00  0.00000000000E+00  0.22847194540E+04  0.22847194540E+04  0.00000000000E+00 0. -1.
         -2   -1    0    0    0  501 -0.00000000000E+00 -0.00000000000E+00 -0.14585835123E+03  0.14585835123E+03  0.00000000000E+00 0.  1.
         23    2    1    2    0    0 -0.19525789535E+03  0.55896920685E+02  0.30219810895E+03  0.37533979948E+03  0.91138118174E+02 0.  0.
        254    2    1    2    0    0  0.19525789535E+03 -0.55896920685E+02  0.18366629938E+04  0.20552380057E+04  0.89967894049E+03 0.  0.
        -24    2    4    4    0    0 -0.31618208527E+03  0.14357563073E+03  0.56916777361E+03  0.67161510531E+03  0.80807316364E+02 0.  0.
         24    2    4    4    0    0  0.51143998063E+03 -0.19947255142E+03  0.12674952202E+04  0.13836229004E+04  0.80672453805E+02 0.  0.
         11    1    3    3    0    0 -0.51038607638E+02  0.59322355884E+02  0.11157861039E+03  0.13628597754E+03  0.00000000000E+00 0. -1.
        -11    1    3    3    0    0 -0.14421928771E+03 -0.34254351987E+01  0.19061949856E+03  0.23905382194E+03  0.00000000000E+00 0.  1.
          2    1    6    6  502    0  0.55482234113E+02 -0.10374724772E+02  0.19465723570E+03  0.20267548600E+03  0.00000000000E+00 0. -1.
          1    1    5    5  503    0 -0.12352002615E+03  0.16904646295E+02  0.17314053137E+03  0.21335558940E+03  0.00000000000E+00 0. -1.
         -2    1    5    5    0  503 -0.19266205912E+03  0.12667098444E+03  0.39602724224E+03  0.45825951591E+03  0.00000000000E+00 0.  1.
         -1    1    6    6    0  502  0.45595774651E+03 -0.18909782665E+03  0.10728379845E+04  0.11809474144E+04  0.00000000000E+00 0.  1.
<mgrwt>
<rscale>  0 0.11545482E+04</rscale>
<asrwt>0</asrwt>
<pdfrwt beam="1">  1        2 0.35149528E+00 0.11545482E+04</pdfrwt>
<pdfrwt beam="2">  1       -2 0.22439748E-01 0.11545482E+04</pdfrwt>
<totfact> 0.80129989E+01</totfact>
</mgrwt>
</event>
<event>
12    1  0.2048318E-007  0.2224149E+04  0.7818608E-02  0.8508444E-01
          1   -1    0    0  501    0  0.00000000000E+00  0.00000000000E+00  0.73360705382E+03  0.73360705382E+03  0.00000000000E+00 0. -1.
         -1   -1    0    0    0  501 -0.00000000000E+00 -0.00000000000E+00 -0.16857923912E+04  0.16857923912E+04  0.00000000000E+00 0.  1.
         23    2    1    2    0    0 -0.47915901614E+03  0.62027217682E+03 -0.93816503380E+03  0.12261157041E+04  0.94208030895E+02 0.  0.
        254    2    1    2    0    0  0.47915901614E+03 -0.62027217682E+03 -0.14020303600E+02  0.11932837410E+04  0.89966581653E+03 0.  0.
        -24    2    4    4    0    0  0.24417686396E+03 -0.12461345962E+03  0.40705076867E+03  0.49719388878E+03  0.79753241612E+02 0.  0.
         24    2    4    4    0    0  0.23498215218E+03 -0.49565871720E+03 -0.42107107227E+03  0.69608985218E+03  0.79662152993E+02 0.  0.
         13    1    3    3    0    0 -0.76088151279E+02  0.14707783674E+03 -0.16117215330E+03  0.23107955302E+03  0.00000000000E+00 0. -1.
        -13    1    3    3    0    0 -0.40307086486E+03  0.47319434008E+03 -0.77699288050E+03  0.99503615107E+03  0.00000000000E+00 0.  1.
          4    1    6    6  502    0  0.78246318084E+02 -0.15199391525E+03 -0.86922539946E+02  0.19178155416E+03  0.00000000000E+00 0. -1.
          3    1    5    5  503    0  0.58199824085E+02 -0.12154654774E+02  0.43635867012E+02  0.73749874888E+02  0.00000000000E+00 0. -1.
         -4    1    5    5    0  503  0.18597703988E+03 -0.11245880485E+03  0.36341490166E+03  0.42344401389E+03  0.00000000000E+00 0.  1.
         -3    1    6    6    0  502  0.15673583409E+03 -0.34366480195E+03 -0.33414853233E+03  0.50430829801E+03  0.00000000000E+00 0.  1.
<mgrwt>
<rscale>  0 0.22241485E+04</rscale>
<asrwt>0</asrwt>
<pdfrwt beam="1">  1        1 0.11286262E+00 0.22241485E+04</pdfrwt>
<pdfrwt beam="2">  1       -1 0.25935268E+00 0.22241485E+04</pdfrwt>
<totfact> 0.13973194E+00</totfact>
</mgrwt>
</event>
<event>
12    1  0.2048318E-007  0.2034694E+04  0.7818608E-02  0.8590570E-01
         -1   -1    0    0    0  501 -0.00000000000E+00  0.00000000000E+00  0.40655899629E+03  0.40655899629E+03  0.00000000000E+00 0.  1.
          1   -1    0    0  501    0  0.00000000000E+00 -0.00000000000E+00 -0.25457423725E+04  0.25457423725E+04  0.00000000000E+00 0. -1.
         23    2    1    2    0    0 -0.34223972770E+03  0.67088816774E+03 -0.13147741537E+04  0.15179359305E+04  0.90991478659E+02 0.  0.
        254    2    1    2    0    0  0.34223972770E+03 -0.67088816774E+03 -0.82440922250E+03  0.14343654382E+04  0.90029699511E+03 0.  0.
        -24    2    4    4    0    0  0.30337822566E+03 -0.82690892102E+03 -0.39463784024E+03  0.96833428517E+03  0.78201991090E+02 0.  0.
         24    2    4    4    0    0  0.38861502046E+02  0.15602075328E+03 -0.42977138226E+03  0.46603115306E+03  0.81418074284E+02 0.  0.
         11    1    3    3    0    0 -0.14872546400E+03  0.36895593585E+03 -0.74877835708E+03  0.84788960029E+03  0.00000000000E+00 0. -1.
        -11    1    3    3    0    0 -0.19351426370E+03  0.30193223189E+03 -0.56599579660E+03  0.67004633025E+03  0.00000000000E+00 0.  1.
          2    1    6    6  502    0  0.10528909925E+02  0.14030652003E+03 -0.28705129818E+03  0.31967987940E+03  0.00000000000E+00 0. -1.
          3    1    5    5  503    0  0.21901750918E+03 -0.54299346929E+03 -0.22672821087E+03  0.62786643374E+03  0.00000000000E+00 0. -1.
         -4    1    5    5    0  503  0.84360716480E+02 -0.28391545173E+03 -0.16790962937E+03  0.34046785142E+03  0.00000000000E+00 0.  1.
         -1    1    6    6    0  502  0.28332592121E+02  0.15714233254E+02 -0.14272008408E+03  0.14635127366E+03  0.00000000000E+00 0.  1.
<mgrwt>
<rscale>  0 0.20346936E+04</rscale>
<asrwt>0</asrwt>
<pdfrwt beam="1">  1        1 0.39165266E+00 0.20346936E+04</pdfrwt>
<pdfrwt beam="2">  1       -1 0.62547540E-01 0.20346936E+04</pdfrwt>
<totfact> 0.30204681E+00</totfact>
</mgrwt>
</event>
<event>
12    1  0.2048318E-007  0.1571088E+04  0.7818608E-02  0.8838510E-01
         -1   -1    0    0    0  501 -0.00000000000E+00  0.00000000000E+00  0.38945121865E+03  0.38945121865E+03  0.00000000000E+00 0.  1.
          1   -1    0    0  501    0  0.00000000000E+00 -0.00000000000E+00 -0.15844834650E+04  0.15844834650E+04  0.00000000000E+00 0. -1.
         23    2    1    2    0    0 -0.11258782973E+03  0.50548687377E+03 -0.49419168385E+03  0.72157234710E+03  0.90819781724E+02 0.  0.
        254    2    1    2    0    0  0.11258782973E+03 -0.50548687377E+03 -0.70084056253E+03  0.12523623366E+04  0.89946702498E+03 0.  0.
        -24    2    4    4    0    0  0.47644465518E+03 -0.43160390842E+03 -0.52335030445E+03  0.83308867321E+03  0.82823626144E+02 0.  0.
         24    2    4    4    0    0 -0.36385682544E+03 -0.73882965356E+02 -0.17749025808E+03  0.41927366337E+03  0.80231733714E+02 0.  0.
         13    1    3    3    0    0 -0.97734789882E+02  0.23946380460E+03 -0.22484478289E+03  0.34271005130E+03  0.00000000000E+00 0.  1.
        -13    1    3    3    0    0 -0.14853039851E+02  0.26602306917E+03 -0.26934690096E+03  0.37886229580E+03  0.00000000000E+00 0. -1.
          2    1    6    6  502    0 -0.33774863473E+03 -0.83922094296E+02 -0.14669872011E+03  0.37767389724E+03  0.00000000000E+00 0. -1.
          1    1    5    5  503    0  0.39716187935E+03 -0.35259806085E+03 -0.38953893462E+03  0.65863763369E+03  0.00000000000E+00 0. -1.
         -2    1    5    5    0  503  0.79282775822E+02 -0.79005847565E+02 -0.13381136984E+03  0.17445103952E+03  0.00000000000E+00 0.  1.
         -1    1    6    6    0  502 -0.26108190713E+02  0.10039128940E+02 -0.30791537965E+02  0.41599766135E+02  0.00000000000E+00 0.  1.
<mgrwt>
<rscale>  0 0.15710875E+04</rscale>
<asrwt>0</asrwt>
<pdfrwt beam="1">  1        1 0.24376668E+00 0.15710875E+04</pdfrwt>
<pdfrwt beam="2">  1       -1 0.59915573E-01 0.15710875E+04</pdfrwt>
<totfact> 0.15534968E+01</totfact>
</mgrwt>
</event>
<event>
12    1  0.2048318E-007  0.2084938E+04  0.7818608E-02  0.8567908E-01
          2   -1    0    0  501    0  0.00000000000E+00  0.00000000000E+00  0.24716405026E+04  0.24716405026E+04  0.00000000000E+00 0. -1.
         -2   -1    0    0    0  501 -0.00000000000E+00 -0.00000000000E+00 -0.43968427990E+03  0.43968427990E+03  0.00000000000E+00 0.  1.
         23    2    1    2    0    0  0.16109956154E+03 -0.52194255544E+03 -0.72117249678E+02  0.55847978291E+03  0.91223189494E+02 0.  0.
        254    2    1    2    0    0 -0.16109956154E+03  0.52194255544E+03  0.21040734724E+04  0.23528449996E+04  0.90020959505E+03 0.  0.
        -24    2    4    4    0    0 -0.30789893432E+03  0.50171997864E+03  0.61830103766E+03  0.85756181666E+03  0.81187471321E+02 0.  0.
         24    2    4    4    0    0  0.14679937279E+03  0.20222576805E+02  0.14857724347E+04  0.14952831829E+04  0.79956619059E+02 0.  0.
         11    1    3    3    0    0  0.13889793638E+02 -0.75112459907E+02  0.20291362803E+02  0.79035102359E+02  0.00000000000E+00 0. -1.
        -11    1    3    3    0    0  0.14720976790E+03 -0.44683009554E+03 -0.92408612481E+02  0.47944468055E+03  0.00000000000E+00 0.  1.
          4    1    6    6  502    0  0.14053576120E+03 -0.49577637677E+01  0.13234408303E+04  0.13308908711E+04  0.00000000000E+00 0. -1.
          1    1    5    5  503    0 -0.15949083085E+03  0.30806670620E+03  0.40717940228E+03  0.53491820518E+03  0.00000000000E+00 0. -1.
         -2    1    5    5    0  503 -0.14840810347E+03  0.19365327244E+03  0.21112163538E+03  0.32264361148E+03  0.00000000000E+00 0.  1.
         -3    1    6    6    0  502  0.62636115863E+01  0.25180340573E+02  0.16233160445E+03  0.16439231182E+03  0.00000000000E+00 0.  1.
<mgrwt>
<rscale>  0 0.20849379E+04</rscale>
<asrwt>0</asrwt>
<pdfrwt beam="1">  1        2 0.38025238E+00 0.20849379E+04</pdfrwt>
<pdfrwt beam="2">  1       -2 0.67643737E-01 0.20849379E+04</pdfrwt>
<totfact> 0.66830773E+00</totfact>
</mgrwt>
</event>
<event>
12    1  0.2048318E-007  0.1213448E+04  0.7818608E-02  0.9101166E-01
         -2   -1    0    0    0  501 -0.00000000000E+00  0.00000000000E+00  0.21000989587E+03  0.21000989587E+03  0.00000000000E+00 0. -1.
          2   -1    0    0  501    0  0.00000000000E+00 -0.00000000000E+00 -0.17528419205E+04  0.17528419205E+04  0.00000000000E+00 0.  1.
         23    2    1    2    0    0 -0.80118952160E+02 -0.13181540198E+03 -0.12682286687E+02  0.17946457916E+03  0.90842435476E+02 0.  0.
        254    2    1    2    0    0  0.80118952160E+02  0.13181540198E+03 -0.15301497380E+04  0.17833872372E+04  0.90294931786E+03 0.  0.
        -24    2    4    4    0    0  0.16675208484E+03 -0.17469257527E+03 -0.14109255432E+04  0.14336912911E+04  0.80225158215E+02 0.  0.
         24    2    4    4    0    0 -0.86633132684E+02  0.30650797725E+03 -0.11922419474E+03  0.34969594612E+03  0.81365879364E+02 0.  0.
         13    1    3    3    0    0 -0.79127167977E+02 -0.62377776254E+02  0.19984353529E+02  0.10272034885E+03  0.00000000000E+00 0. -1.
        -13    1    3    3    0    0 -0.99178418239E+00 -0.69437625730E+02 -0.32666640216E+02  0.76744230310E+02  0.00000000000E+00 0.  1.
          4    1    6    6  502    0 -0.10163799833E+03  0.24171739637E+03 -0.96734806233E+02  0.27949097508E+03  0.00000000000E+00 0. -1.
          3    1    5    5  503    0  0.12376388614E+03 -0.72333243815E+02 -0.77430930755E+03  0.78746714308E+03  0.00000000000E+00 0. -1.
         -4    1    5    5    0  503  0.42988198700E+02 -0.10235933146E+03 -0.63661623570E+03  0.64622414805E+03  0.00000000000E+00 0.  1.
         -3    1    6    6    0  502  0.15004865645E+02  0.64790580881E+02 -0.22489388506E+02  0.70204971044E+02  0.00000000000E+00 0.  1.
<mgrwt>
<rscale>  0 0.12134482E+04</rscale>
<asrwt>0</asrwt>
<pdfrwt beam="1">  1        2 0.26966798E+00 0.12134482E+04</pdfrwt>
<pdfrwt beam="2">  1       -2 0.32309216E-01 0.12134482E+04</pdfrwt>
<totfact> 0.80605653E+01</totfact>
</mgrwt>
</event>
<event>
12    1  0.2048318E-007  0.1977821E+04  0.7818608E-02  0.8617061E-01
          1   -1    0    0  501    0  0.00000000000E+00  0.00000000000E+00  0.21101985671E+04  0.21101985671E+04  0.00000000000E+00 0. -1.
         -1   -1    0    0    0  501 -0.00000000000E+00 -0.00000000000E+00 -0.46343697923E+03  0.46343697923E+03  0.00000000000E+00 0.  1.
         23    2    1    2    0    0  0.62763267674E+03 -0.18463678113E+03  0.11045588877E+03  0.66963341661E+03  0.90525639624E+02 0.  0.
        254    2    1    2    0    0 -0.62763267674E+03  0.18463678113E+03  0.15363056991E+04  0.19040021297E+04  0.91486359147E+03 0.  0.
        -24    2    4    4    0    0 -0.38311538616E+03  0.49483919946E+03  0.54592995110E+03  0.83435262281E+03  0.80383799663E+02 0.  0.
         24    2    4    4    0    0 -0.24451729058E+03 -0.31020241833E+03  0.99037574802E+03  0.10696495069E+04  0.85391449521E+02 0.  0.
         11    1    3    3    0    0  0.13083860413E+03 -0.26394081235E+02  0.58274617890E+02  0.14564106202E+03  0.00000000000E+00 0. -1.
        -11    1    3    3    0    0  0.49679407260E+03 -0.15824269989E+03  0.52181270876E+02  0.52399235459E+03  0.00000000000E+00 0.  1.
          2    1    6    6  502    0 -0.23278217174E+03 -0.29074546747E+03  0.97030462314E+03  0.10393322510E+04  0.00000000000E+00 0. -1.
          3    1    5    5  503    0 -0.16003303494E+03  0.21689656621E+03  0.18369905305E+03  0.32619018194E+03  0.00000000000E+00 0. -1.
         -4    1    5    5    0  503 -0.22308235122E+03  0.27794263325E+03  0.36223089806E+03  0.50816244087E+03  0.00000000000E+00 0.  1.
         -1    1    6    6    0  502 -0.11735118835E+02 -0.19456950857E+02  0.20071124879E+02  0.30317255889E+02  0.00000000000E+00 0.  1.
<mgrwt>
<rscale>  0 0.19778211E+04</rscale>
<asrwt>0</asrwt>
<pdfrwt beam="1">  1        1 0.32464593E+00 0.19778211E+04</pdfrwt>
<pdfrwt beam="2">  1       -1 0.71297998E-01 0.19778211E+04</pdfrwt>
<totfact> 0.46307301E+00</totfact>
</mgrwt>
</event>
<event>
12    1  0.2048318E-007  0.2680269E+04  0.7818608E-02  0.8341436E-01
          2   -1    0    0  501    0  0.00000000000E+00  0.00000000000E+00  0.42895685474E+04  0.42895685474E+04  0.00000000000E+00 0. -1.
         -2   -1    0    0    0  501 -0.00000000000E+00 -0.00000000000E+00 -0.41868080800E+03  0.41868080800E+03  0.00000000000E+00 0.  1.
         23    2    1    2    0    0  0.11228724896E+04 -0.34378708246E+03  0.20311251595E+04  0.23479344043E+04  0.91073417450E+02 0.  0.
        254    2    1    2    0    0 -0.11228724896E+04  0.34378708246E+03  0.18397625799E+04  0.23603149511E+04  0.89851440275E+03 0.  0.
        -24    2    4    4    0    0 -0.12348904955E+04  0.32561312992E+03  0.18122344186E+04  0.22185583016E+04  0.82637179807E+02 0.  0.
         24    2    4    4    0    0  0.11201800584E+03  0.18173952543E+02  0.27528161210E+02  0.14175664943E+03  0.80366795471E+02 0.  0.
         11    1    3    3    0    0  0.72014865209E+03 -0.19727826335E+03  0.13646264350E+04  0.15555507389E+04  0.00000000000E+00 0. -1.
        -11    1    3    3    0    0  0.40272383753E+03 -0.14650881911E+03  0.66649872453E+03  0.79238366540E+03  0.00000000000E+00 0.  1.
          2    1    6    6  502    0  0.11021861036E+03 -0.32100993089E+01  0.46126169178E+01  0.11036178252E+03  0.00000000000E+00 0. -1.
          3    1    5    5  503    0 -0.95572195498E+03  0.23748386534E+03  0.14503556271E+04  0.17530928346E+04  0.00000000000E+00 0. -1.
         -4    1    5    5    0  503 -0.27916854047E+03  0.88129264578E+02  0.36187879151E+03  0.46546546704E+03  0.00000000000E+00 0.  1.
         -1    1    6    6    0  502  0.17993954793E+01  0.21384051852E+02  0.22915544292E+02  0.31394866904E+02  0.00000000000E+00 0.  1.
<mgrwt>
<rscale>  0 0.26802687E+04</rscale>
<asrwt>0</asrwt>
<pdfrwt beam="1">  1        2 0.65993359E+00 0.26802687E+04</pdfrwt>
<pdfrwt beam="2">  1       -2 0.64412435E-01 0.26802687E+04</pdfrwt>
<totfact> 0.38007130E-01</totfact>
</mgrwt>
</event>
<event>
12    1  0.2048318E-007  0.1209518E+04  0.7818608E-02  0.9104566E-01
         -2   -1    0    0    0  501 -0.00000000000E+00  0.00000000000E+00  0.21786204587E+03  0.21786204587E+03  0.00000000000E+00 0.  1.
          2   -1    0    0  501    0  0.00000000000E+00 -0.00000000000E+00 -0.16787383432E+04  0.16787383432E+04  0.00000000000E+00 0. -1.
         23    2    1    2    0    0 -0.14500165134E+03  0.15335179494E+03 -0.55583644981E+03  0.60067038942E+03  0.85489799897E+02 0.  0.
        254    2    1    2    0    0  0.14500165134E+03 -0.15335179494E+03 -0.90503984755E+03  0.12959299997E+04  0.90321380995E+03 0.  0.
        -24    2    4    4    0    0 -0.12251053057E+03 -0.20201666550E+03  0.86961410632E+02  0.26427113209E+03  0.80357831462E+02 0.  0.
         24    2    4    4    0    0  0.26751218191E+03  0.48664870562E+02 -0.99200125818E+03  0.10316588676E+04  0.79514059979E+02 0.  0.
         13    1    3    3    0    0 -0.15384679841E+03  0.12568340288E+03 -0.48562878424E+03  0.52469083395E+03  0.00000000000E+00 0. -1.
        -13    1    3    3    0    0  0.88451470718E+01  0.27668392053E+02 -0.70207665569E+02  0.75979555475E+02  0.00000000000E+00 0.  1.
          2    1    6    6  502    0  0.36948834873E+02  0.35592623012E+02 -0.14829844854E+03  0.15692189474E+03  0.00000000000E+00 0. -1.
          1    1    5    5  503    0 -0.69584033435E+02 -0.15269445934E+03  0.26283319418E+02  0.16984801589E+03  0.00000000000E+00 0. -1.
         -2    1    5    5    0  503 -0.52926497132E+02 -0.49322206155E+02  0.60678091214E+02  0.94423116195E+02  0.00000000000E+00 0.  1.
         -1    1    6    6    0  502  0.23056334704E+03  0.13072247550E+02 -0.84370280965E+03  0.87473697284E+03  0.00000000000E+00 0.  1.
<mgrwt>
<rscale>  0 0.12095179E+04</rscale>
<asrwt>0</asrwt>
<pdfrwt beam="1">  1        2 0.25826743E+00 0.12095179E+04</pdfrwt>
<pdfrwt beam="2">  1       -2 0.33517238E-01 0.12095179E+04</pdfrwt>
<totfact> 0.82675169E+01</totfact>
</mgrwt>
</event>
<event>
12    1  0.2048318E-007  0.1818434E+04  0.7818608E-02  0.8696557E-01
         -2   -1    0    0    0  501 -0.00000000000E+00  0.00000000000E+00  0.59509043484E+03  0.59509043484E+03  0.00000000000E+00 0.  1.
          2   -1    0    0  501    0  0.00000000000E+00 -0.00000000000E+00 -0.13891595179E+04  0.13891595179E+04  0.00000000000E+00 0. -1.
         23    2    1    2    0    0 -0.15197056905E+03 -0.56723862105E+03  0.82781013230E+02  0.59959564804E+03  0.88360273482E+02 0.  0.
        254    2    1    2    0    0  0.15197056905E+03  0.56723862105E+03 -0.87685009634E+03  0.13846543047E+04  0.89640768911E+03 0.  0.
        -24    2    4    4    0    0  0.32608094312E+03  0.66027299931E+03 -0.90527627941E+03  0.11697572710E+04  0.80732372708E+02 0.  0.
         24    2    4    4    0    0 -0.17411037406E+03 -0.93034378253E+02  0.28426183070E+02  0.21489703370E+03  0.80017931214E+02 0.  0.
         13    1    3    3    0    0 -0.13479911670E+03 -0.46938972727E+03  0.10073216849E+03  0.49864264529E+03  0.00000000000E+00 0.  1.
        -13    1    3    3    0    0 -0.17171452353E+02 -0.97848893778E+02 -0.17951155262E+02  0.10095300275E+03  0.00000000000E+00 0. -1.
          2    1    6    6  502    0 -0.96049398440E+02 -0.62144132441E+02 -0.22662294204E+02  0.11662315257E+03  0.00000000000E+00 0. -1.
          3    1    5    5  503    0  0.11962413229E+02  0.65789102043E+02 -0.61487128385E+02  0.90840366770E+02  0.00000000000E+00 0. -1.
         -2    1    5    5    0  503  0.31411852989E+03  0.59448389726E+03 -0.84378915102E+03  0.10789169043E+04  0.00000000000E+00 0.  1.
         -1    1    6    6    0  502 -0.78060975624E+02 -0.30890245812E+02  0.51088477274E+02  0.98273881128E+02  0.00000000000E+00 0.  1.
<mgrwt>
<rscale>  0 0.18184340E+04</rscale>
<asrwt>0</asrwt>
<pdfrwt beam="1">  1        2 0.21371685E+00 0.18184340E+04</pdfrwt>
<pdfrwt beam="2">  1       -2 0.91552375E-01 0.18184340E+04</pdfrwt>
<totfact> 0.14057938E+01</totfact>
</mgrwt>
</event>
<event>
12    1  0.2048318E-007  0.1401040E+04  0.7818608E-02  0.8953066E-01
          1   -1    0    0  501    0  0.00000000000E+00  0.00000000000E+00  0.63099945808E+03  0.63099945808E+03  0.00000000000E+00 0. -1.
         -1   -1    0    0    0  501 -0.00000000000E+00 -0.00000000000E+00 -0.77770043731E+03  0.77770043731E+03  0.00000000000E+00 0.  1.
         23    2    1    2    0    0  0.37805091334E+03  0.11984206386E+03 -0.15242689957E+03  0.43441322747E+03  0.90533304076E+02 0.  0.
        254    2    1    2    0    0 -0.37805091334E+03 -0.11984206386E+03  0.57259203376E+01  0.97428666792E+03  0.88989724787E+03 0.  0.
        -24    2    4    4    0    0 -0.33001606766E+03  0.34944394692E+03 -0.63108009740E+02  0.49141503009E+03  0.80525983054E+02 0.  0.
         24    2    4    4    0    0 -0.48034845672E+02 -0.46928601078E+03  0.68833930078E+02  0.48287163783E+03  0.76747653917E+02 0.  0.
         13    1    3    3    0    0  0.11304721005E+03  0.13883414585E+01 -0.68758240375E+02  0.13232269198E+03  0.00000000000E+00 0.  1.
        -13    1    3    3    0    0  0.26500370329E+03  0.11845372240E+03 -0.83668659196E+02  0.30209053550E+03  0.00000000000E+00 0. -1.
          4    1    6    6  502    0 -0.28171756903E+02 -0.56263391548E+02  0.22319972167E+02  0.66763749693E+02  0.00000000000E+00 0. -1.
          1    1    5    5  503    0 -0.82851854578E+02  0.11748156288E+03  0.11904407096E+02  0.14424999942E+03  0.00000000000E+00 0. -1.
         -2    1    5    5    0  503 -0.24716421309E+03  0.23196238404E+03 -0.75012416836E+02  0.34716503067E+03  0.00000000000E+00 0.  1.
         -3    1    6    6    0  502 -0.19863088769E+02 -0.41302261923E+03  0.46513957910E+02  0.41610788814E+03  0.00000000000E+00 0.  1.
<mgrwt>
<rscale>  0 0.14010404E+04</rscale>
<asrwt>0</asrwt>
<pdfrwt beam="1">  1        1 0.97076840E-01 0.14010404E+04</pdfrwt>
<pdfrwt beam="2">  1       -1 0.11964622E+00 0.14010404E+04</pdfrwt>
<totfact> 0.19353554E+01</totfact>
</mgrwt>
</event>
<event>
12    1  0.2048318E-007  0.1129609E+04  0.7818608E-02  0.9176804E-01
          2   -1    0    0  501    0  0.00000000000E+00  0.00000000000E+00  0.52202606617E+03  0.52202606617E+03  0.00000000000E+00 0. -1.
         -2   -1    0    0    0  501 -0.00000000000E+00 -0.00000000000E+00 -0.61108834163E+03  0.61108834163E+03  0.00000000000E+00 0.  1.
         23    2    1    2    0    0  0.10765862542E+03  0.14198468574E+03 -0.82040336222E+02  0.21595378827E+03  0.90307205078E+02 0.  0.
        254    2    1    2    0    0 -0.10765862542E+03 -0.14198468574E+03 -0.70219392398E+01  0.91716061952E+03  0.89965785928E+03 0.  0.
        -24    2    4    4    0    0  0.49945641705E+02 -0.14061976538E+03 -0.42811350242E+03  0.46024319937E+03  0.79209507454E+02 0.  0.
         24    2    4    4    0    0 -0.15760426713E+03 -0.13649203612E+01  0.42109156318E+03  0.45691742015E+03  0.81329307319E+02 0.  0.
         13    1    3    3    0    0  0.26409337219E+02  0.49665201430E+02  0.16216553089E+02  0.58541113070E+02  0.00000000000E+00 0. -1.
        -13    1    3    3    0    0  0.81249288204E+02  0.92319484308E+02 -0.98256889312E+02  0.15741267520E+03  0.00000000000E+00 0.  1.
          2    1    6    6  502    0 -0.89626604975E+02 -0.12402899308E+02  0.13404127297E+03  0.16172143671E+03  0.00000000000E+00 0. -1.
          3    1    5    5  503    0  0.53556493758E+02 -0.47394248698E+02 -0.13696132444E+03  0.15450863156E+03  0.00000000000E+00 0. -1.
         -4    1    5    5    0  503 -0.36108520528E+01 -0.93225516679E+02 -0.29115217798E+03  0.30573456781E+03  0.00000000000E+00 0.  1.
         -1    1    6    6    0  502 -0.67977662153E+02  0.11037978947E+02  0.28705029021E+03  0.29519598345E+03  0.00000000000E+00 0.  1.
<mgrwt>
<rscale>  0 0.11296089E+04</rscale>
<asrwt>0</asrwt>
<pdfrwt beam="1">  1        2 0.80311702E-01 0.11296089E+04</pdfrwt>
<pdfrwt beam="2">  1       -2 0.94013592E-01 0.11296089E+04</pdfrwt>
<totfact> 0.55441920E+01</totfact>
</mgrwt>
</event>
<event>
12    1  0.2048318E-007  0.2103781E+04  0.7818608E-02  0.8559580E-01
         -1   -1    0    0    0  501 -0.00000000000E+00  0.00000000000E+00  0.22873624586E+04  0.22873624586E+04  0.00000000000E+00 0.  1.
          1   -1    0    0  501    0  0.00000000000E+00 -0.00000000000E+00 -0.48373352210E+03  0.48373352210E+03  0.00000000000E+00 0. -1.
         23    2    1    2    0    0  0.27626509819E+03  0.64464659595E+03  0.90017852182E+02  0.71277591332E+03  0.89747706131E+02 0.  0.
        254    2    1    2    0    0 -0.27626509819E+03 -0.64464659595E+03  0.17136110844E+04  0.20583200674E+04  0.89907002696E+03 0.  0.
        -24    2    4    4    0    0 -0.34340946553E+03 -0.25842231977E+03  0.15748554826E+04  0.16344252749E+04  0.80399204231E+02 0.  0.
         24    2    4    4    0    0  0.67144367339E+02 -0.38622427618E+03  0.13875560179E+03  0.42389479248E+03  0.82195623275E+02 0.  0.
         13    1    3    3    0    0  0.30101354852E+02  0.15507752623E+03  0.34687567661E+01  0.15801000911E+03  0.00000000000E+00 0. -1.
        -13    1    3    3    0    0  0.24616374334E+03  0.48956906971E+03  0.86549095416E+02  0.55476590421E+03  0.00000000000E+00 0.  1.
          2    1    6    6  502    0  0.40037606382E+02 -0.70640404737E+02  0.93498772519E+01  0.81734306817E+02  0.00000000000E+00 0. -1.
          1    1    5    5  503    0 -0.72969628247E+02 -0.19211327491E+02  0.23827007426E+03  0.24993253098E+03  0.00000000000E+00 0. -1.
         -2    1    5    5    0  503 -0.27043983728E+03 -0.23921099228E+03  0.13365854083E+04  0.13844927440E+04  0.00000000000E+00 0.  1.
         -1    1    6    6    0  502  0.27106760957E+02 -0.31558387144E+03  0.12940572454E+03  0.34216048566E+03  0.00000000000E+00 0.  1.
<mgrwt>
<rscale>  0 0.21037813E+04</rscale>
<asrwt>0</asrwt>
<pdfrwt beam="1">  1        1 0.74420543E-01 0.21037813E+04</pdfrwt>
<pdfrwt beam="2">  1       -1 0.35190191E+00 0.21037813E+04</pdfrwt>
<totfact> 0.64449831E-01</totfact>
</mgrwt>
</event>
<event>
12    1  0.2048318E-007  0.2434355E+04  0.7818608E-02  0.8426752E-01
          2   -1    0    0  501    0  0.00000000000E+00  0.00000000000E+00  0.19563281813E+04  0.19563281813E+04  0.00000000000E+00 0. -1.
         -2   -1    0    0    0  501 -0.00000000000E+00 -0.00000000000E+00 -0.75729669699E+03  0.75729669699E+03  0.00000000000E+00 0.  1.
         23    2    1    2    0    0  0.90852593766E+03  0.26077791632E+03  0.10129750621E+04  0.13885280739E+04  0.92017576651E+02 0.  0.
        254    2    1    2    0    0 -0.90852593766E+03 -0.26077791632E+03  0.18605642223E+03  0.13250968045E+04  0.90985715796E+03 0.  0.
        -24    2    4    4    0    0 -0.37899360652E+03  0.38512948476E+02  0.50164780616E+03  0.63521586805E+03  0.82032168153E+02 0.  0.
         24    2    4    4    0    0 -0.52953233114E+03 -0.29929086480E+03 -0.31559138393E+03  0.68988093640E+03  0.79738781826E+02 0.  0.
         13    1    3    3    0    0  0.24289817380E+03  0.93142944117E+02  0.22962340485E+03  0.34698996949E+03  0.00000000000E+00 0. -1.
        -13    1    3    3    0    0  0.66562776386E+03  0.16763497220E+03  0.78335165725E+03  0.10415381044E+04  0.00000000000E+00 0.  1.
          4    1    6    6  502    0 -0.18800469229E+02 -0.28001884410E+02 -0.72284008195E+01  0.34493665391E+02  0.00000000000E+00 0. -1.
          3    1    5    5  503    0  0.77814424947E+00  0.74071177135E+01  0.40428149621E+01  0.84743881261E+01  0.00000000000E+00 0. -1.
         -4    1    5    5    0  503 -0.37977175077E+03  0.31105830763E+02  0.49760499120E+03  0.62674147993E+03  0.00000000000E+00 0.  1.
         -3    1    6    6    0  502 -0.51073186191E+03 -0.27128898039E+03 -0.30836298312E+03  0.65538727101E+03  0.00000000000E+00 0.  1.
<mgrwt>
<rscale>  0 0.24343548E+04</rscale>
<asrwt>0</asrwt>
<pdfrwt beam="1">  1        2 0.30097356E+00 0.24343548E+04</pdfrwt>
<pdfrwt beam="2">  1       -2 0.11650719E+00 0.24343548E+04</pdfrwt>
<totfact> 0.36187176E+00</totfact>
</mgrwt>
</event>
<event>
12    1  0.2048318E-007  0.1013541E+04  0.7818608E-02  0.9293817E-01
          2   -1    0    0  501    0  0.00000000000E+00  0.00000000000E+00  0.19080132989E+04  0.19080132989E+04  0.00000000000E+00 0. -1.
         -2   -1    0    0    0  501 -0.00000000000E+00 -0.00000000000E+00 -0.13459870869E+03  0.13459870869E+03  0.00000000000E+00 0.  1.
         23    2    1    2    0    0  0.56184987180E+02  0.23223860738E+02  0.21166396400E+03  0.23827304166E+03  0.90974217405E+02 0.  0.
        254    2    1    2    0    0 -0.56184987180E+02 -0.23223860738E+02  0.15617506262E+04  0.18043389659E+04  0.90159746286E+03 0.  0.
        -24    2    4    4    0    0 -0.18416615130E+03  0.16293697551E+03  0.37997373847E+02  0.26167453326E+03  0.81019328952E+02 0.  0.
         24    2    4    4    0    0  0.12798116412E+03 -0.18616083624E+03  0.15237532523E+04  0.15426644327E+04  0.83393899303E+02 0.  0.
         11    1    3    3    0    0 -0.28765910354E+01  0.43398774883E+02  0.11761278892E+03  0.12539735465E+03  0.00000000000E+00 0. -1.
        -11    1    3    3    0    0  0.59061578216E+02 -0.20174914145E+02  0.94051175084E+02  0.11287568700E+03  0.00000000000E+00 0.  1.
          4    1    6    6  502    0  0.62221637144E+01  0.37979887440E+01  0.11125155360E+02  0.13300718837E+02  0.00000000000E+00 0. -1.
          3    1    5    5  503    0 -0.71417069140E+02  0.15417642649E+02  0.14960703259E+02  0.74578308585E+02  0.00000000000E+00 0. -1.
         -4    1    5    5    0  503 -0.11274908216E+03  0.14751933286E+03  0.23036670588E+02  0.18709622467E+03  0.00000000000E+00 0.  1.
         -3    1    6    6    0  502  0.12175900041E+03 -0.18995882499E+03  0.15126280970E+04  0.15293637138E+04  0.00000000000E+00 0.  1.
<mgrwt>
<rscale>  0 0.10135406E+04</rscale>
<asrwt>0</asrwt>
<pdfrwt beam="1">  1        2 0.29354049E+00 0.10135406E+04</pdfrwt>
<pdfrwt beam="2">  1       -2 0.20707495E-01 0.10135406E+04</pdfrwt>
<totfact> 0.15110335E+02</totfact>
</mgrwt>
</event>
<event>
12    1  0.2048318E-007  0.1644287E+04  0.7818608E-02  0.8793794E-01
         -2   -1    0    0    0  501 -0.00000000000E+00  0.00000000000E+00  0.21587365747E+03  0.21587365747E+03  0.00000000000E+00 0.  1.
          2   -1    0    0  501    0  0.00000000000E+00 -0.00000000000E+00 -0.31310891156E+04  0.31310891156E+04  0.00000000000E+00 0. -1.
         23    2    1    2    0    0  0.53292211460E+03  0.17908837872E+03 -0.12557455801E+04  0.13782641474E+04  0.81464534943E+02 0.  0.
        254    2    1    2    0    0 -0.53292211460E+03 -0.17908837872E+03 -0.16594698780E+04  0.19686986256E+04  0.89769447753E+03 0.  0.
        -24    2    4    4    0    0 -0.38949913821E+02 -0.27441419510E+03 -0.13332399355E+04  0.13638748439E+04  0.76194607138E+02 0.  0.
         24    2    4    4    0    0 -0.49397220078E+03  0.95325816389E+02 -0.32622994256E+03  0.60482378172E+03  0.79311317578E+02 0.  0.
         11    1    3    3    0    0  0.13077594054E+03  0.26397881384E+02 -0.22860974931E+03  0.26469154169E+03  0.00000000000E+00 0.  1.
        -11    1    3    3    0    0  0.40214617406E+03  0.15269049733E+03 -0.10271358308E+04  0.11135726057E+04  0.00000000000E+00 0. -1.
          2    1    6    6  502    0 -0.33878558473E+03  0.61938958845E+02 -0.26552706274E+03  0.43487553173E+03  0.00000000000E+00 0. -1.
          3    1    5    5  503    0  0.89503420722E+01 -0.11289951813E+02 -0.27707248816E+02  0.31229205435E+02  0.00000000000E+00 0. -1.
         -4    1    5    5    0  503 -0.47900255893E+02 -0.26312424329E+03 -0.13055326866E+04  0.13326456385E+04  0.00000000000E+00 0.  1.
         -1    1    6    6    0  502 -0.15518661605E+03  0.33386857543E+02 -0.60702879810E+02  0.16994824999E+03  0.00000000000E+00 0.  1.
<mgrwt>
<rscale>  0 0.16442867E+04</rscale>
<asrwt>0</asrwt>
<pdfrwt beam="1">  1        2 0.48170599E+00 0.16442867E+04</pdfrwt>
<pdfrwt beam="2">  1       -2 0.33211334E-01 0.16442867E+04</pdfrwt>
<totfact> 0.11708294E+01</totfact>
</mgrwt>
</event>
<event>
12    1  0.2048318E-007  0.1181586E+04  0.7818608E-02  0.9129128E-01
         -1   -1    0    0    0  501 -0.00000000000E+00  0.00000000000E+00  0.54437150085E+03  0.54437150085E+03  0.00000000000E+00 0.  1.
          1   -1    0    0  501    0  0.00000000000E+00 -0.00000000000E+00 -0.64117362804E+03  0.64117362804E+03  0.00000000000E+00 0. -1.
         23    2    1    2    0    0  0.10429338151E+03 -0.15244192785E+03  0.96395826245E+02  0.22630975964E+03  0.88364592428E+02 0.  0.
        254    2    1    2    0    0 -0.10429338151E+03  0.15244192785E+03 -0.19319795343E+03  0.95923536926E+03  0.92124448093E+03 0.  0.
        -24    2    4    4    0    0 -0.14671193713E+03  0.53882838779E+02 -0.55029495703E+03  0.57757925828E+03  0.79658690964E+02 0.  0.
         24    2    4    4    0    0  0.42418555621E+02  0.98559089076E+02  0.35709700360E+03  0.38165611099E+03  0.81424131393E+02 0.  0.
         13    1    3    3    0    0  0.11557493744E+03 -0.12684963018E+03  0.99177288299E+02  0.19820325263E+03  0.00000000000E+00 0. -1.
        -13    1    3    3    0    0 -0.11281555934E+02 -0.25592297677E+02 -0.27814620539E+01  0.28106507002E+02  0.00000000000E+00 0.  1.
          4    1    6    6  502    0 -0.17859979409E+02  0.17625901883E+02  0.14025836158E+03  0.14248529494E+03  0.00000000000E+00 0. -1.
          1    1    5    5  503    0 -0.10650095435E+02 -0.10935387059E+02 -0.13354913905E+03  0.13441867342E+03  0.00000000000E+00 0. -1.
         -2    1    5    5    0  503 -0.13606184169E+03  0.64818225837E+02 -0.41674581798E+03  0.44316058486E+03  0.00000000000E+00 0.  1.
         -3    1    6    6    0  502  0.60278535030E+02  0.80933187193E+02  0.21683864202E+03  0.23917081605E+03  0.00000000000E+00 0.  1.
<mgrwt>
<rscale>  0 0.11815865E+04</rscale>
<asrwt>0</asrwt>
<pdfrwt beam="1">  1        1 0.98642097E-01 0.11815865E+04</pdfrwt>
<pdfrwt beam="2">  1       -1 0.83749462E-01 0.11815865E+04</pdfrwt>
<totfact> 0.43567927E+01</totfact>
</mgrwt>
</event>
<event>
12    1  0.2048318E-007  0.3746108E+04  0.7818608E-02  0.8057820E-01
         -1   -1    0    0    0  501 -0.00000000000E+00  0.00000000000E+00  0.13805437638E+04  0.13805437638E+04  0.00000000000E+00 0.  1.
          1   -1    0    0  501    0  0.00000000000E+00 -0.00000000000E+00 -0.25412680996E+04  0.25412680996E+04  0.00000000000E+00 0. -1.
         23    2    1    2    0    0 -0.12900141024E+04  0.11566950878E+04 -0.89374452644E+03  0.19519327435E+04  0.95824036091E+02 0.  0.
        254    2    1    2    0    0  0.12900141024E+04 -0.11566950878E+04 -0.26697980942E+03  0.19698791199E+04  0.89836830862E+03 0.  0.
        -24    2    4    4    0    0  0.72572303883E+03 -0.11542511953E+03 -0.25759270085E+03  0.78299362158E+03  0.82025146081E+02 0.  0.
         24    2    4    4    0    0  0.56429106361E+03 -0.10412699683E+04 -0.93871085699E+01  0.11868854984E+04  0.77081237310E+02 0.  0.
         11    1    3    3    0    0 -0.90541877278E+03  0.82701894307E+03 -0.58458519809E+03  0.13584856790E+04  0.00000000000E+00 0.  1.
        -11    1    3    3    0    0 -0.38459532967E+03  0.32967614472E+03 -0.30915932835E+03  0.59344706445E+03  0.00000000000E+00 0. -1.
          2    1    6    6  502    0  0.22678206629E+03 -0.44947795889E+03 -0.39118233332E+02  0.50496611500E+03  0.00000000000E+00 0. -1.
          1    1    5    5  503    0  0.32489065944E+03 -0.46248350955E+02 -0.72379858875E+02  0.33605311266E+03  0.00000000000E+00 0. -1.
         -2    1    5    5    0  503  0.40083237940E+03 -0.69176768571E+02 -0.18521284197E+03  0.44694050892E+03  0.00000000000E+00 0.  1.
         -3    1    6    6    0  502  0.33750899732E+03 -0.59179200937E+03  0.29731124762E+02  0.68191938336E+03  0.00000000000E+00 0.  1.
<mgrwt>
<rscale>  0 0.37461083E+04</rscale>
<asrwt>0</asrwt>
<pdfrwt beam="1">  1        1 0.39096432E+00 0.37461083E+04</pdfrwt>
<pdfrwt beam="2">  1       -1 0.21239135E+00 0.37461083E+04</pdfrwt>
<totfact> 0.12550958E-01</totfact>
</mgrwt>
</event>
<event>
12    1  0.2048318E-007  0.2291448E+04  0.7818608E-02  0.8481301E-01
         -1   -1    0    0    0  501 -0.00000000000E+00  0.00000000000E+00  0.55307167411E+03  0.55307167411E+03  0.00000000000E+00 0.  1.
          1   -1    0    0  501    0  0.00000000000E+00 -0.00000000000E+00 -0.23734418196E+04  0.23734418196E+04  0.00000000000E+00 0. -1.
         23    2    1    2    0    0  0.27547987751E+03  0.82379521953E+03 -0.13112279489E+04  0.15754650123E+04  0.90793966028E+02 0.  0.
        254    2    1    2    0    0 -0.27547987751E+03 -0.82379521953E+03 -0.50914219657E+03  0.13510484814E+04  0.90087651552E+03 0.  0.
        -24    2    4    4    0    0  0.29967810155E+03 -0.10763901478E+03 -0.14055751319E+03  0.35809423452E+03  0.84154288268E+02 0.  0.
         24    2    4    4    0    0 -0.57515797906E+03 -0.71615620475E+03 -0.36858468338E+03  0.99295424691E+03  0.80106536248E+02 0.  0.
         11    1    3    3    0    0  0.19107002128E+03  0.42996485327E+03 -0.71743942665E+03  0.85796087265E+03  0.00000000000E+00 0. -1.
        -11    1    3    3    0    0  0.84409856228E+02  0.39383036626E+03 -0.59378852228E+03  0.71750413965E+03  0.00000000000E+00 0.  1.
          4    1    6    6  502    0 -0.19384620214E+03 -0.30340329341E+03 -0.14848244383E+03  0.38945724369E+03  0.00000000000E+00 0. -1.
          1    1    5    5  503    0  0.95951948672E+02  0.15095003359E+01 -0.22504623857E+02  0.98567302592E+02  0.00000000000E+00 0. -1.
         -2    1    5    5    0  503  0.20372615288E+03 -0.10914851511E+03 -0.11805288934E+03  0.25952693193E+03  0.00000000000E+00 0.  1.
         -3    1    6    6    0  502 -0.38131177692E+03 -0.41275291134E+03 -0.22010223955E+03  0.60349700322E+03  0.00000000000E+00 0.  1.
<mgrwt>
<rscale>  0 0.22914480E+04</rscale>
<asrwt>0</asrwt>
<pdfrwt beam="1">  1        1 0.36514489E+00 0.22914480E+04</pdfrwt>
<pdfrwt beam="2">  1       -1 0.85087950E-01 0.22914480E+04</pdfrwt>
<totfact> 0.20471719E+00</totfact>
</mgrwt>
</event>
<event>
12    1  0.2048318E-007  0.2034689E+04  0.7818608E-02  0.8590572E-01
         -2   -1    0    0    0  501 -0.00000000000E+00  0.00000000000E+00  0.50345416498E+03  0.50345416498E+03  0.00000000000E+00 0.  1.
          2   -1    0    0  501    0  0.00000000000E+00 -0.00000000000E+00 -0.20557780943E+04  0.20557780943E+04  0.00000000000E+00 0. -1.
         23    2    1    2    0    0 -0.55331726085E+03  0.51549802419E+03 -0.10035977569E+04  0.12599003838E+04  0.90787197645E+02 0.  0.
        254    2    1    2    0    0  0.55331726085E+03 -0.51549802419E+03 -0.54872617242E+03  0.12993318755E+04  0.90292009963E+03 0.  0.
        -24    2    4    4    0    0  0.48691142689E+03  0.14044587963E+03 -0.26006462845E+03  0.57521417110E+03  0.80186962250E+02 0.  0.
         24    2    4    4    0    0  0.66405833962E+02 -0.65594390382E+03 -0.28866154397E+03  0.72411770442E+03  0.79679502634E+02 0.  0.
         13    1    3    3    0    0 -0.41857507588E+03  0.33563366673E+03 -0.68820612306E+03  0.87262977271E+03  0.00000000000E+00 0.  1.
        -13    1    3    3    0    0 -0.13474218497E+03  0.17986435746E+03 -0.31539163387E+03  0.38727061108E+03  0.00000000000E+00 0. -1.
          2    1    6    6  502    0  0.45395797869E+02 -0.61749170051E+03 -0.27965084932E+03  0.67938308500E+03  0.00000000000E+00 0. -1.
          1    1    5    5  503    0  0.33897423014E+03  0.60735812460E+02 -0.18825124881E+03  0.39246770605E+03  0.00000000000E+00 0. -1.
         -2    1    5    5    0  503  0.14793719675E+03  0.79710067170E+02 -0.71813379645E+02  0.18274646505E+03  0.00000000000E+00 0.  1.
         -1    1    6    6    0  502  0.21010036092E+02 -0.38452203312E+02 -0.90106946482E+01  0.44734619415E+02  0.00000000000E+00 0.  1.
<mgrwt>
<rscale>  0 0.20346892E+04</rscale>
<asrwt>0</asrwt>
<pdfrwt beam="1">  1        2 0.31627355E+00 0.20346892E+04</pdfrwt>
<pdfrwt beam="2">  1       -2 0.77454487E-01 0.20346892E+04</pdfrwt>
<totfact> 0.85637860E+00</totfact>
</mgrwt>
</event>
<event>
12    1  0.2048318E-007  0.2353673E+04  0.7818608E-02  0.8457054E-01
          2   -1    0    0  501    0  0.00000000000E+00  0.00000000000E+00  0.21923471364E+04  0.21923471364E+04  0.00000000000E+00 0.  1.
         -2   -1    0    0    0  501 -0.00000000000E+00 -0.00000000000E+00 -0.63171756010E+03  0.63171756010E+03  0.00000000000E+00 0. -1.
         23    2    1    2    0    0  0.77310040296E+03  0.37436687196E+03  0.12872325629E+04  0.15505850384E+04  0.97526931646E+02 0.  0.
        254    2    1    2    0    0 -0.77310040296E+03 -0.37436687196E+03  0.27339701339E+03  0.12734796581E+04  0.89953861774E+03 0.  0.
        -24    2    4    4    0    0 -0.63652033562E+03  0.16527964128E+03  0.25842476556E+03  0.71085680268E+03  0.77836604420E+02 0.  0.
         24    2    4    4    0    0 -0.13658006734E+03 -0.53964651324E+03  0.14972247834E+02  0.56262285543E+03  0.80298413406E+02 0.  0.
         11    1    3    3    0    0  0.76809776443E+03  0.36982472683E+03  0.12517899613E+04  0.15145040810E+04  0.00000000000E+00 0. -1.
        -11    1    3    3    0    0  0.50026385317E+01  0.45421451353E+01  0.35442601573E+02  0.36080957318E+02  0.00000000000E+00 0.  1.
          4    1    6    6  502    0 -0.63931490822E+02 -0.17402252291E+03 -0.27563695718E+02  0.18743220460E+03  0.00000000000E+00 0. -1.
          3    1    5    5  503    0 -0.28070446853E+03  0.10216209962E+03  0.14538969165E+03  0.33222019158E+03  0.00000000000E+00 0. -1.
         -4    1    5    5    0  503 -0.35581586709E+03  0.63117541657E+02  0.11303507390E+03  0.37863661110E+03  0.00000000000E+00 0.  1.
         -3    1    6    6    0  502 -0.72648576519E+02 -0.36562399033E+03  0.42535943553E+02  0.37519065083E+03  0.00000000000E+00 0.  1.
<mgrwt>
<rscale>  0 0.23536730E+04</rscale>
<asrwt>0</asrwt>
<pdfrwt beam="1">  1        2 0.33728417E+00 0.23536730E+04</pdfrwt>
<pdfrwt beam="2">  1       -2 0.97187318E-01 0.23536730E+04</pdfrwt>
<totfact> 0.41588444E+00</totfact>
</mgrwt>
</event>
<event>
12    1  0.2048318E-007  0.1927404E+04  0.7818608E-02  0.8641335E-01
         -2   -1    0    0    0  501 -0.00000000000E+00  0.00000000000E+00  0.59864348902E+03  0.59864348902E+03  0.00000000000E+00 0.  1.
          2   -1    0    0  501    0  0.00000000000E+00 -0.00000000000E+00 -0.15513770035E+04  0.15513770035E+04  0.00000000000E+00 0. -1.
         23    2    1    2    0    0  0.22269453230E+03  0.52252749487E+03  0.17330377275E+03  0.60092253030E+03  0.91901317562E+02 0.  0.
        254    2    1    2    0    0 -0.22269453230E+03 -0.52252749487E+03 -0.11260372873E+04  0.15490979622E+04  0.89950913655E+03 0.  0.
        -24    2    4    4    0    0  0.27521476105E+03 -0.47317240244E+03 -0.52201810632E+03  0.76048235409E+03  0.78709722533E+02 0.  0.
         24    2    4    4    0    0 -0.49790929335E+03 -0.49355092424E+02 -0.60401918093E+03  0.78861560815E+03  0.82011078164E+02 0.  0.
         13    1    3    3    0    0  0.38576777326E+02  0.37111667419E+02  0.33936396867E+02  0.63380775001E+02  0.00000000000E+00 0.  1.
        -13    1    3    3    0    0  0.18411775498E+03  0.48541582745E+03  0.13936737588E+03  0.53754175530E+03  0.00000000000E+00 0. -1.
          4    1    6    6  502    0 -0.43527466822E+03 -0.45676213894E+02 -0.47966469603E+03  0.64932932625E+03  0.00000000000E+00 0. -1.
          1    1    5    5  503    0  0.20103496738E+03 -0.38874722152E+03 -0.44559427863E+03  0.62457483259E+03  0.00000000000E+00 0. -1.
         -2    1    5    5    0  503  0.74179793673E+02 -0.84425180918E+02 -0.76423827692E+02  0.13590752150E+03  0.00000000000E+00 0.  1.
         -1    1    6    6    0  502 -0.62634625130E+02 -0.36788785298E+01 -0.12435448490E+03  0.13928628190E+03  0.00000000000E+00 0.  1.
<mgrwt>
<rscale>  0 0.19274042E+04</rscale>
<asrwt>0</asrwt>
<pdfrwt beam="1">  1        2 0.23867339E+00 0.19274042E+04</pdfrwt>
<pdfrwt beam="2">  1       -2 0.92098998E-01 0.19274042E+04</pdfrwt>
<totfact> 0.11118473E+01</totfact>
</mgrwt>
</event>
<event>
12    1  0.2048318E-007  0.2192306E+04  0.7818608E-02  0.8521637E-01
         -1   -1    0    0    0  501 -0.00000000000E+00  0.00000000000E+00  0.10511007616E+04  0.10511007616E+04  0.00000000000E+00 0.  1.
          1   -1    0    0  501    0  0.00000000000E+00 -0.00000000000E+00 -0.11431365630E+04  0.11431365630E+04  0.00000000000E+00 0. -1.
         23    2    1    2    0    0 -0.52464504219E+03 -0.57604784846E+03 -0.50696797386E+03  0.93367085062E+03  0.87413881929E+02 0.  0.
        254    2    1    2    0    0  0.52464504219E+03  0.57604784846E+03  0.41493217249E+03  0.12605664740E+04  0.89987531555E+03 0.  0.
        -24    2    4    4    0    0 -0.60207016135E+02  0.44494453250E+03  0.46798360182E+03  0.65352849498E+03  0.80562524725E+02 0.  0.
         24    2    4    4    0    0  0.58485205833E+03  0.13110331597E+03 -0.53051429324E+02  0.60703797900E+03  0.80253624251E+02 0.  0.
         13    1    3    3    0    0 -0.11781346356E+03 -0.14917983579E+03 -0.16684866015E+03  0.25292906317E+03  0.00000000000E+00 0. -1.
        -13    1    3    3    0    0 -0.40683157864E+03 -0.42686801267E+03 -0.34011931372E+03  0.68074178745E+03  0.00000000000E+00 0.  1.
          4    1    6    6  502    0  0.26885107864E+02  0.24240220598E+02 -0.85112321216E+01  0.37186535087E+02  0.00000000000E+00 0. -1.
          3    1    5    5  503    0 -0.67670591514E+02  0.21109212258E+03  0.21202919208E+03  0.30675001461E+03  0.00000000000E+00 0. -1.
         -2    1    5    5    0  503  0.74635753789E+01  0.23385240992E+03  0.25595440974E+03  0.34677848037E+03  0.00000000000E+00 0.  1.
         -3    1    6    6    0  502  0.55796695046E+03  0.10686309537E+03 -0.44540197202E+02  0.56985144391E+03  0.00000000000E+00 0.  1.
<mgrwt>
<rscale>  0 0.21923063E+04</rscale>
<asrwt>0</asrwt>
<pdfrwt beam="1">  1        1 0.17586716E+00 0.21923063E+04</pdfrwt>
<pdfrwt beam="2">  1       -1 0.16170781E+00 0.21923063E+04</pdfrwt>
<totfact> 0.30463125E+00</totfact>
</mgrwt>
</event>
<event>
12    1  0.2048318E-007  0.2426921E+04  0.7818608E-02  0.8429493E-01
          2   -1    0    0  501    0  0.00000000000E+00  0.00000000000E+00  0.65494770684E+03  0.65494770684E+03  0.00000000000E+00 0. -1.
         -2   -1    0    0    0  501 -0.00000000000E+00 -0.00000000000E+00 -0.22482497967E+04  0.22482497967E+04  0.00000000000E+00 0.  1.
         23    2    1    2    0    0  0.97564494133E+02  0.97753946925E+03 -0.26958146779E+03  0.10239288580E+04  0.10321770181E+03 0.  0.
        254    2    1    2    0    0 -0.97564494133E+02 -0.97753946925E+03 -0.13237206221E+04  0.18792686456E+04  0.90239243821E+03 0.  0.
        -24    2    4    4    0    0 -0.38072232585E+03 -0.52595412692E+03 -0.11314387758E+04  0.13068904642E+04  0.78941427624E+02 0.  0.
         24    2    4    4    0    0  0.28315783171E+03 -0.45158534233E+03 -0.19228184634E+03  0.57237818145E+03  0.80850448969E+02 0.  0.
         13    1    3    3    0    0  0.85059643270E+02  0.73171295507E+03 -0.15664101361E+03  0.75311048238E+03  0.00000000000E+00 0. -1.
        -13    1    3    3    0    0  0.12504850864E+02  0.24582651418E+03 -0.11294045418E+03  0.27081837559E+03  0.00000000000E+00 0.  1.
          4    1    6    6  502    0  0.10259792214E+03 -0.23949274033E+03 -0.89937073720E+02  0.27562979434E+03  0.00000000000E+00 0. -1.
          1    1    5    5  503    0 -0.77120032788E+02 -0.13223113462E+03 -0.32971942835E+03  0.36352094005E+03  0.00000000000E+00 0. -1.
         -2    1    5    5    0  503 -0.30360229306E+03 -0.39372299229E+03 -0.80171934742E+03  0.94336952412E+03  0.00000000000E+00 0.  1.
         -3    1    6    6    0  502  0.18055990958E+03 -0.21209260200E+03 -0.10234477262E+03  0.29674838711E+03  0.00000000000E+00 0.  1.
<mgrwt>
<rscale>  0 0.24269207E+04</rscale>
<asrwt>0</asrwt>
<pdfrwt beam="1">  1        2 0.10076118E+00 0.24269207E+04</pdfrwt>
<pdfrwt beam="2">  1       -2 0.34588459E+00 0.24269207E+04</pdfrwt>
<totfact> 0.66045273E-01</totfact>
</mgrwt>
</event>
<event>
12    1  0.2048318E-007  0.1504680E+04  0.7818608E-02  0.8881346E-01
         -1   -1    0    0    0  501 -0.00000000000E+00  0.00000000000E+00  0.43509256320E+03  0.43509256320E+03  0.00000000000E+00 0.  1.
          1   -1    0    0  501    0  0.00000000000E+00 -0.00000000000E+00 -0.13009088022E+04  0.13009088022E+04  0.00000000000E+00 0. -1.
         23    2    1    2    0    0  0.42636201430E+03 -0.67309886504E+02 -0.49875306779E+02  0.44699156008E+03  0.10487478488E+03 0.  0.
        254    2    1    2    0    0 -0.42636201430E+03  0.67309886504E+02 -0.81594093222E+03  0.12890098053E+04  0.89970633279E+03 0.  0.
        -24    2    4    4    0    0 -0.25175973110E+03  0.28325328200E+03  0.36626391784E+02  0.38900920158E+03  0.79820313022E+02 0.  0.
         24    2    4    4    0    0 -0.17460228320E+03 -0.21594339550E+03 -0.85256732400E+03  0.90000060373E+03  0.77540553272E+02 0.  0.
         11    1    3    3    0    0  0.34227927936E+03 -0.50957260694E+02  0.34913008846E+01  0.34606926572E+03  0.00000000000E+00 0.  1.
        -11    1    3    3    0    0  0.84082734943E+02 -0.16352625810E+02 -0.53366607664E+02  0.10092229436E+03  0.00000000000E+00 0. -1.
          4    1    6    6  502    0 -0.11639536906E+03 -0.16761194253E+03 -0.51277761757E+03  0.55188996213E+03  0.00000000000E+00 0. -1.
          3    1    5    5  503    0 -0.15467096494E+03  0.16170176625E+03 -0.17123205049E+02  0.22441874421E+03  0.00000000000E+00 0. -1.
         -4    1    5    5    0  503 -0.97088766160E+02  0.12155151576E+03  0.53749596834E+02  0.16459045737E+03  0.00000000000E+00 0.  1.
         -3    1    6    6    0  502 -0.58206914144E+02 -0.48331452968E+02 -0.33978970643E+03  0.34811064160E+03  0.00000000000E+00 0.  1.
<mgrwt>
<rscale>  0 0.15046804E+04</rscale>
<asrwt>0</asrwt>
<pdfrwt beam="1">  1        1 0.20013981E+00 0.15046804E+04</pdfrwt>
<pdfrwt beam="2">  1       -1 0.66937318E-01 0.15046804E+04</pdfrwt>
<totfact> 0.19747041E+01</totfact>
</mgrwt>
</event>
<event>
12    1  0.2048318E-007  0.2221158E+04  0.7818608E-02  0.8509673E-01
         -2   -1    0    0    0  501 -0.00000000000E+00  0.00000000000E+00  0.13303340077E+04  0.13303340077E+04  0.00000000000E+00 0.  1.
          2   -1    0    0  501    0  0.00000000000E+00 -0.00000000000E+00 -0.92712496893E+03  0.92712496893E+03  0.00000000000E+00 0. -1.
         23    2    1    2    0    0  0.86408780807E+03 -0.17301792231E+03 -0.11736337406E+03  0.89401157901E+03  0.94337693042E+02 0.  0.
        254    2    1    2    0    0 -0.86408780807E+03  0.17301792231E+03  0.52057241279E+03  0.13634473976E+04  0.90078311903E+03 0.  0.
        -24    2    4    4    0    0  0.81015440313E+02  0.28264303120E+03  0.12738316776E+03  0.33029348996E+03  0.80104515634E+02 0.  0.
         24    2    4    4    0    0 -0.94510324838E+03 -0.10962510889E+03  0.39318924503E+03  0.10331539076E+04  0.87013791076E+02 0.  0.
         11    1    3    3    0    0  0.68379751927E+03 -0.11906781647E+03 -0.57201399415E+02  0.69643965450E+03  0.00000000000E+00 0.  1.
        -11    1    3    3    0    0  0.18029028881E+03 -0.53950105840E+02 -0.60161974644E+02  0.19757192450E+03  0.00000000000E+00 0. -1.
          4    1    6    6  502    0 -0.89126218785E+03 -0.96679242231E+02  0.39011326133E+03  0.97769295795E+03  0.00000000000E+00 0. -1.
          1    1    5    5  503    0  0.86509935010E+02  0.22551788630E+03  0.75871930988E+02  0.25317747888E+03  0.00000000000E+00 0. -1.
         -2    1    5    5    0  503 -0.54944946970E+01  0.57125144897E+02  0.51511236771E+02  0.77116011082E+02  0.00000000000E+00 0.  1.
         -3    1    6    6    0  502 -0.53841060537E+02 -0.12945866661E+02  0.30759836995E+01  0.55460949677E+02  0.00000000000E+00 0.  1.
<mgrwt>
<rscale>  0 0.22211581E+04</rscale>
<asrwt>0</asrwt>
<pdfrwt beam="1">  1        2 0.14263461E+00 0.22211581E+04</pdfrwt>
<pdfrwt beam="2">  1       -2 0.20466677E+00 0.22211581E+04</pdfrwt>
<totfact> 0.31795144E+00</totfact>
</mgrwt>
</event>
<event>
12    1  0.2048318E-007  0.1675291E+04  0.7818608E-02  0.8775584E-01
         -2   -1    0    0    0  501 -0.00000000000E+00  0.00000000000E+00  0.28960434061E+03  0.28960434061E+03  0.00000000000E+00 0. -1.
          2   -1    0    0  501    0  0.00000000000E+00 -0.00000000000E+00 -0.24227881746E+04  0.24227881746E+04  0.00000000000E+00 0.  1.
         23    2    1    2    0    0 -0.63973387023E+02  0.45487344117E+03 -0.15690500827E+03  0.49364459637E+03  0.89796236958E+02 0.  0.
        254    2    1    2    0    0  0.63973387023E+02 -0.45487344117E+03 -0.19762788257E+04  0.22187479188E+04  0.89786518399E+03 0.  0.
        -24    2    4    4    0    0 -0.42808056787E+02  0.22403388237E+03 -0.95649125695E+03  0.98640420524E+03  0.78064212754E+02 0.  0.
         24    2    4    4    0    0  0.10678144381E+03 -0.67890732354E+03 -0.10197875688E+04  0.12323437136E+04  0.79918160216E+02 0.  0.
         13    1    3    3    0    0 -0.61429510540E+02  0.16114149894E+03 -0.79367654644E+02  0.18984043839E+03  0.00000000000E+00 0.  1.
        -13    1    3    3    0    0 -0.25438764830E+01  0.29373194223E+03 -0.77537353627E+02  0.30380415798E+03  0.00000000000E+00 0. -1.
          2    1    6    6  502    0  0.10224757708E+03 -0.53808596654E+03 -0.75984308035E+03  0.93667101011E+03  0.00000000000E+00 0. -1.
          1    1    5    5  503    0 -0.31856538344E+02  0.44030348510E+02 -0.33113374340E+03  0.33556380414E+03  0.00000000000E+00 0. -1.
         -2    1    5    5    0  503 -0.10951518443E+02  0.18000353386E+03 -0.62535751355E+03  0.65084040110E+03  0.00000000000E+00 0.  1.
         -1    1    6    6    0  502  0.45338667247E+01 -0.14082135700E+03 -0.25994448841E+03  0.29567270349E+03  0.00000000000E+00 0.  1.
<mgrwt>
<rscale>  0 0.16752910E+04</rscale>
<asrwt>0</asrwt>
<pdfrwt beam="1">  1        2 0.37273665E+00 0.16752910E+04</pdfrwt>
<pdfrwt beam="2">  1       -2 0.44554513E-01 0.16752910E+04</pdfrwt>
<totfact> 0.17594074E+01</totfact>
</mgrwt>
</event>
<event>
12    1  0.2048318E-007  0.1296801E+04  0.7818608E-02  0.9032106E-01
          1   -1    0    0  501    0  0.00000000000E+00  0.00000000000E+00  0.61965832127E+03  0.61965832127E+03  0.00000000000E+00 0. -1.
         -1   -1    0    0    0  501 -0.00000000000E+00 -0.00000000000E+00 -0.67847581584E+03  0.67847581584E+03  0.00000000000E+00 0.  1.
         23    2    1    2    0    0 -0.14330158734E+03  0.25253890881E+02  0.27867278946E+03  0.32890306640E+03  0.96672641231E+02 0.  0.
        254    2    1    2    0    0  0.14330158734E+03 -0.25253890881E+02 -0.33749028403E+03  0.96923107070E+03  0.89684785369E+03 0.  0.
        -24    2    4    4    0    0 -0.31207492859E+03  0.20837671299E+03 -0.20312934620E+03  0.43431607198E+03  0.80977179016E+02 0.  0.
         24    2    4    4    0    0  0.45537651594E+03 -0.23363060387E+03 -0.13436093783E+03  0.53491499872E+03  0.78295363311E+02 0.  0.
         13    1    3    3    0    0 -0.11679052951E+03  0.18374244988E+01  0.26736769225E+03  0.29176855000E+03  0.00000000000E+00 0. -1.
        -13    1    3    3    0    0 -0.26511057834E+02  0.23416466382E+02  0.11305097214E+02  0.37134516401E+02  0.00000000000E+00 0.  1.
          2    1    6    6  502    0  0.19571126833E+03 -0.65958157158E+02 -0.77754476100E+02  0.22067881095E+03  0.00000000000E+00 0. -1.
          3    1    5    5  503    0 -0.30955360688E+03  0.21492258699E+03 -0.19876910115E+03  0.42605669752E+03  0.00000000000E+00 0. -1.
         -4    1    5    5    0  503 -0.25213217161E+01 -0.65458740005E+01 -0.43602450422E+01  0.82593744591E+01  0.00000000000E+00 0.  1.
         -1    1    6    6    0  502  0.25966524761E+03 -0.16767244671E+03 -0.56606461733E+02  0.31423618778E+03  0.00000000000E+00 0.  1.
<mgrwt>
<rscale>  0 0.12968010E+04</rscale>
<asrwt>0</asrwt>
<pdfrwt beam="1">  1        1 0.95332050E-01 0.12968010E+04</pdfrwt>
<pdfrwt beam="2">  1       -1 0.10438089E+00 0.12968010E+04</pdfrwt>
<totfact> 0.27735228E+01</totfact>
</mgrwt>
</event>
<event>
12    1  0.2048318E-007  0.3059025E+04  0.7818608E-02  0.8227074E-01
          1   -1    0    0  501    0  0.00000000000E+00  0.00000000000E+00  0.19860829389E+04  0.19860829389E+04  0.00000000000E+00 0.  1.
         -1   -1    0    0    0  501 -0.00000000000E+00 -0.00000000000E+00 -0.11779009117E+04  0.11779009117E+04  0.00000000000E+00 0. -1.
         23    2    1    2    0    0  0.22089601405E+03  0.13771707308E+04  0.33348281777E+03  0.14370362195E+04  0.92021929147E+02 0.  0.
        254    2    1    2    0    0 -0.22089601405E+03 -0.13771707308E+04  0.47469920946E+03  0.17269476311E+04  0.90089650355E+03 0.  0.
        -24    2    4    4    0    0 -0.10698111284E+03  0.24520743087E+02 -0.13632202217E+03  0.19172382044E+03  0.78282209030E+02 0.  0.
         24    2    4    4    0    0 -0.11391490121E+03 -0.14016914739E+04  0.61102123163E+03  0.15352238106E+04  0.76482745979E+02 0.  0.
         11    1    3    3    0    0  0.20933985034E+03  0.12919535105E+04  0.28947896902E+03  0.13404346756E+04  0.00000000000E+00 0. -1.
        -11    1    3    3    0    0  0.11556163716E+02  0.85217220358E+02  0.44003848746E+02  0.96601543827E+02  0.00000000000E+00 0.  1.
          4    1    6    6  502    0 -0.94998140294E+02 -0.12351257761E+04  0.56396126717E+03  0.13611071377E+04  0.00000000000E+00 0. -1.
          3    1    5    5  503    0 -0.75264172348E+02  0.28634511536E+02 -0.13791298103E+03  0.15970166319E+03  0.00000000000E+00 0. -1.
         -4    1    5    5    0  503 -0.31716940493E+02 -0.41137684493E+01  0.15909588555E+01  0.32022157253E+02  0.00000000000E+00 0.  1.
         -3    1    6    6    0  502 -0.18916760918E+02 -0.16656569782E+03  0.47059964462E+02  0.17411667292E+03  0.00000000000E+00 0.  1.
<mgrwt>
<rscale>  0 0.30590253E+04</rscale>
<asrwt>0</asrwt>
<pdfrwt beam="1">  1        1 0.30555122E+00 0.30590253E+04</pdfrwt>
<pdfrwt beam="2">  1       -1 0.18121552E+00 0.30590253E+04</pdfrwt>
<totfact> 0.52602009E-01</totfact>
</mgrwt>
</event>
<event>
12    1  0.2048318E-007  0.3733301E+04  0.7818608E-02  0.8060622E-01
         -2   -1    0    0    0  501 -0.00000000000E+00  0.00000000000E+00  0.20498020884E+04  0.20498020884E+04  0.00000000000E+00 0.  1.
          2   -1    0    0  501    0  0.00000000000E+00 -0.00000000000E+00 -0.16998638580E+04  0.16998638580E+04  0.00000000000E+00 0. -1.
         23    2    1    2    0    0  0.14704755462E+03  0.10605655493E+04  0.15633222565E+04  0.18972715481E+04  0.96127944368E+02 0.  0.
        254    2    1    2    0    0 -0.14704755462E+03 -0.10605655493E+04 -0.12133840261E+04  0.18523943984E+04  0.90146655219E+03 0.  0.
        -24    2    4    4    0    0  0.17918845469E+03 -0.92769985116E+03 -0.11428225529E+04  0.14849856184E+04  0.80021141881E+02 0.  0.
         24    2    4    4    0    0 -0.32623600931E+03 -0.13286569815E+03 -0.70561473159E+02  0.36740878002E+03  0.76987418616E+02 0.  0.
         11    1    3    3    0    0  0.80343744092E+02  0.49633116308E+03  0.81654489517E+03  0.95892924999E+03  0.00000000000E+00 0.  1.
        -11    1    3    3    0    0  0.66703810525E+02  0.56423438623E+03  0.74677736134E+03  0.93834229807E+03  0.00000000000E+00 0. -1.
          4    1    6    6  502    0 -0.32145172243E+03 -0.13411001361E+03 -0.56954089982E+02  0.35293125955E+03  0.00000000000E+00 0. -1.
          3    1    5    5  503    0  0.83224524493E+02 -0.44579194038E+03 -0.61111997285E+03  0.76100223180E+03  0.00000000000E+00 0. -1.
         -4    1    5    5    0  503  0.95963930201E+02 -0.48190791078E+03 -0.53170258008E+03  0.72398338658E+03  0.00000000000E+00 0.  1.
         -3    1    6    6    0  502 -0.47842868804E+01  0.12443154613E+01 -0.13607383177E+02  0.14477520466E+02  0.00000000000E+00 0.  1.
<mgrwt>
<rscale>  0 0.37333012E+04</rscale>
<asrwt>0</asrwt>
<pdfrwt beam="1">  1        2 0.26151752E+00 0.37333012E+04</pdfrwt>
<pdfrwt beam="2">  1       -2 0.31535417E+00 0.37333012E+04</pdfrwt>
<totfact> 0.20224005E-01</totfact>
</mgrwt>
</event>
<event>
12    1  0.2048318E-007  0.1467261E+04  0.7818608E-02  0.8906520E-01
          2   -1    0    0  501    0  0.00000000000E+00  0.00000000000E+00  0.21410562803E+04  0.21410562803E+04  0.00000000000E+00 0. -1.
         -2   -1    0    0    0  501 -0.00000000000E+00 -0.00000000000E+00 -0.25137780384E+03  0.25137780384E+03  0.00000000000E+00 0.  1.
         23    2    1    2    0    0  0.26805265315E+01 -0.38493002707E+03  0.19687588199E+03  0.44157058225E+03  0.89700363647E+02 0.  0.
        254    2    1    2    0    0 -0.26805265315E+01  0.38493002707E+03  0.16928025945E+04  0.19508635019E+04  0.89000531922E+03 0.  0.
        -24    2    4    4    0    0 -0.26362681538E+03  0.22101918286E+03  0.16424871311E+03  0.38949504655E+03  0.79875994829E+02 0.  0.
         24    2    4    4    0    0  0.26094628885E+03  0.16391084421E+03  0.15285538813E+04  0.15613684553E+04  0.80216922303E+02 0.  0.
         13    1    3    3    0    0  0.26964509817E+02 -0.20699689736E+03  0.14660665563E+03  0.25508491092E+03  0.00000000000E+00 0. -1.
        -13    1    3    3    0    0 -0.24283983285E+02 -0.17793312970E+03  0.50269226367E+02  0.18648567133E+03  0.00000000000E+00 0.  1.
          2    1    6    6  502    0  0.53762917471E+02  0.16905392473E+02  0.16520592056E+03  0.17455440349E+03  0.00000000000E+00 0. -1.
          3    1    5    5  503    0 -0.48194165016E+00  0.71818469023E+01 -0.66389970359E+01  0.97922149856E+01  0.00000000000E+00 0. -1.
         -4    1    5    5    0  503 -0.26314487373E+03  0.21383733596E+03  0.17088771015E+03  0.37970283157E+03  0.00000000000E+00 0.  1.
         -1    1    6    6    0  502  0.20718337138E+03  0.14700545173E+03  0.13633479608E+04  0.13868140518E+04  0.00000000000E+00 0.  1.
<mgrwt>
<rscale>  0 0.14672614E+04</rscale>
<asrwt>0</asrwt>
<pdfrwt beam="1">  1        2 0.32939326E+00 0.14672614E+04</pdfrwt>
<pdfrwt beam="2">  1       -2 0.38673510E-01 0.14672614E+04</pdfrwt>
<totfact> 0.34131175E+01</totfact>
</mgrwt>
</event>
<event>
12    1  0.2048318E-007  0.1835390E+04  0.7818608E-02  0.8687703E-01
         -1   -1    0    0    0  501 -0.00000000000E+00  0.00000000000E+00  0.85837488081E+03  0.85837488081E+03  0.00000000000E+00 0.  1.
          1   -1    0    0  501    0  0.00000000000E+00 -0.00000000000E+00 -0.98111448203E+03  0.98111448203E+03  0.00000000000E+00 0. -1.
         23    2    1    2    0    0  0.16974789751E+02  0.48271763756E+03 -0.54479706676E+03  0.73429368279E+03  0.95283301404E+02 0.  0.
        254    2    1    2    0    0 -0.16974789751E+02 -0.48271763756E+03  0.42205746554E+03  0.11051956801E+04  0.90001140320E+03 0.  0.
        -24    2    4    4    0    0  0.24471148765E+03 -0.48368893438E+03 -0.59139195074E+02  0.55134657897E+03  0.81528573637E+02 0.  0.
         24    2    4    4    0    0 -0.26168627740E+03  0.97129681480E+00  0.48119666061E+03  0.55384910108E+03  0.81963097741E+02 0.  0.
         11    1    3    3    0    0 -0.38668808292E+02  0.14865792021E+03 -0.17521341233E+03  0.23301114530E+03  0.00000000000E+00 0.  1.
        -11    1    3    3    0    0  0.55643598042E+02  0.33405971735E+03 -0.36958365444E+03  0.50128253748E+03  0.00000000000E+00 0. -1.
          4    1    6    6  502    0 -0.53210476002E+02 -0.14768896273E+02  0.17164240926E+03  0.18030693750E+03  0.00000000000E+00 0. -1.
          1    1    5    5  503    0  0.10654512691E+02 -0.58499003115E+01  0.87117389321E+01  0.14954409703E+02  0.00000000000E+00 0. -1.
         -2    1    5    5    0  503  0.23405697495E+03 -0.47783903407E+03 -0.67850934006E+02  0.53639216926E+03  0.00000000000E+00 0.  1.
         -3    1    6    6    0  502 -0.20847580139E+03  0.15740193088E+02  0.30955425135E+03  0.37354216359E+03  0.00000000000E+00 0.  1.
<mgrwt>
<rscale>  0 0.18353899E+04</rscale>
<asrwt>0</asrwt>
<pdfrwt beam="1">  1        1 0.15094069E+00 0.18353899E+04</pdfrwt>
<pdfrwt beam="2">  1       -1 0.13205767E+00 0.18353899E+04</pdfrwt>
<totfact> 0.71793004E+00</totfact>
</mgrwt>
</event>
<event>
12    1  0.2048318E-007  0.1499465E+04  0.7818608E-02  0.8884809E-01
          2   -1    0    0  501    0  0.00000000000E+00  0.00000000000E+00  0.18815307590E+04  0.18815307590E+04  0.00000000000E+00 0. -1.
         -2   -1    0    0    0  501 -0.00000000000E+00 -0.00000000000E+00 -0.29874551031E+03  0.29874551031E+03  0.00000000000E+00 0.  1.
         23    2    1    2    0    0 -0.36129374105E+03 -0.29880796409E+03  0.62696169006E+03  0.78827795986E+03  0.92096766831E+02 0.  0.
        254    2    1    2    0    0  0.36129374105E+03  0.29880796409E+03  0.95582355860E+03  0.13919983094E+04  0.89679498859E+03 0.  0.
        -24    2    4    4    0    0 -0.23266608068E+03 -0.43311252215E+02  0.53762272839E+02  0.25584716989E+03  0.80981619475E+02 0.  0.
         24    2    4    4    0    0  0.59395982173E+03  0.34211921631E+03  0.90206128576E+03  0.11361511395E+04  0.85387473344E+02 0.  0.
         13    1    3    3    0    0 -0.20000625701E+02 -0.52901162318E+01  0.64265213712E+01  0.21663576231E+02  0.00000000000E+00 0.  1.
        -13    1    3    3    0    0 -0.34129311535E+03 -0.29351784786E+03  0.62053516869E+03  0.76661438362E+03  0.00000000000E+00 0. -1.
          2    1    6    6  502    0  0.43982086190E+03  0.23656237911E+03  0.59594346168E+03  0.77752990894E+03  0.00000000000E+00 0. -1.
          1    1    5    5  503    0 -0.19197481484E+03 -0.17855409094E+01  0.40185780223E+02  0.19614386205E+03  0.00000000000E+00 0. -1.
         -2    1    5    5    0  503 -0.40691265845E+02 -0.41525711305E+02  0.13576492616E+02  0.59703307842E+02  0.00000000000E+00 0.  1.
         -1    1    6    6    0  502  0.15413895983E+03  0.10555683720E+03  0.30611782408E+03  0.35862123060E+03  0.00000000000E+00 0.  1.
<mgrwt>
<rscale>  0 0.14994651E+04</rscale>
<asrwt>0</asrwt>
<pdfrwt beam="1">  1        2 0.28946626E+00 0.14994651E+04</pdfrwt>
<pdfrwt beam="2">  1       -2 0.45960849E-01 0.14994651E+04</pdfrwt>
<totfact> 0.33724600E+01</totfact>
</mgrwt>
</event>
<event>
12    1  0.2177698E-007  0.1848906E+04  0.7818608E-02  0.8680715E-01
          2   -1    0    0  501    0  0.00000000000E+00  0.00000000000E+00  0.27307085518E+04  0.27307085518E+04  0.00000000000E+00 0. -1.
         -2   -1    0    0    0  501 -0.00000000000E+00 -0.00000000000E+00 -0.31296403402E+03  0.31296403402E+03  0.00000000000E+00 0.  1.
         23    2    1    2    0    0  0.29326348621E+03  0.53389296603E+03  0.35850310440E+03  0.71237822255E+03  0.88955520207E+02 0.  0.
        254    2    1    2    0    0 -0.29326348621E+03 -0.53389296603E+03  0.20592414134E+04  0.23312943633E+04  0.90742109196E+03 0.  0.
        -24    2    4    4    0    0  0.18350254822E+03 -0.56995910262E+03  0.10431326422E+04  0.12057742937E+04  0.85084512092E+02 0.  0.
         24    2    4    4    0    0 -0.47676603443E+03  0.36066136583E+02  0.10161087711E+04  0.11255200696E+04  0.75576282110E+02 0.  0.
         11    1    3    3    0    0  0.20553339694E+03  0.34290887054E+03  0.27971623381E+03  0.48792585729E+03  0.00000000000E+00 0. -1.
        -11    1    3    3    0    0  0.87730089269E+02  0.19098409550E+03  0.78786870594E+02  0.22445236527E+03  0.00000000000E+00 0.  1.
          4    1    6    6  502    0 -0.82208119097E+02  0.28787929300E+02  0.14420007409E+03  0.16846537059E+03  0.00000000000E+00 0. -1.
          3    1    5    5  503    0 -0.91418225939E+01 -0.22289685795E+02  0.36854041753E+02  0.44029801348E+02  0.00000000000E+00 0. -1.
         -4    1    5    5    0  503  0.19264437081E+03 -0.54766941682E+03  0.10062786005E+04  0.11617444924E+04  0.00000000000E+00 0.  1.
         -3    1    6    6    0  502 -0.39455791533E+03  0.72782072824E+01  0.87190869704E+03  0.95705469897E+03  0.00000000000E+00 0.  1.
<mgrwt>
<rscale>  0 0.18489062E+04</rscale>
<asrwt>0</asrwt>
<pdfrwt beam="1">  1        2 0.42010899E+00 0.18489062E+04</pdfrwt>
<pdfrwt beam="2">  1       -2 0.48148315E-01 0.18489062E+04</pdfrwt>
<totfact> 0.98013823E+00</totfact>
</mgrwt>
</event>
<event>
12    1  0.2048318E-007  0.2298157E+04  0.7818608E-02  0.8478648E-01
         -1   -1    0    0    0  501 -0.00000000000E+00  0.00000000000E+00  0.10080003424E+04  0.10080003424E+04  0.00000000000E+00 0.  1.
          1   -1    0    0  501    0  0.00000000000E+00 -0.00000000000E+00 -0.13099021639E+04  0.13099021639E+04  0.00000000000E+00 0. -1.
         23    2    1    2    0    0 -0.56721182846E+03 -0.51582152688E+03 -0.72850272688E+03  0.10619147911E+04  0.95633125089E+02 0.  0.
        254    2    1    2    0    0  0.56721182846E+03  0.51582152688E+03  0.42660090543E+03  0.12559877152E+04  0.89873004966E+03 0.  0.
        -24    2    4    4    0    0 -0.17790568993E+03 -0.40520803638E+02 -0.53863442382E+02  0.20652444928E+03  0.80366085455E+02 0.  0.
         24    2    4    4    0    0  0.74511751839E+03  0.55634233052E+03  0.48046434781E+03  0.10494632659E+04  0.76225008674E+02 0.  0.
         11    1    3    3    0    0 -0.34854865251E+03 -0.34966173037E+03 -0.41343406904E+03  0.64395436041E+03  0.00000000000E+00 0.  1.
        -11    1    3    3    0    0 -0.21866317596E+03 -0.16615979651E+03 -0.31506865784E+03  0.41796043072E+03  0.00000000000E+00 0. -1.
          4    1    6    6  502    0  0.39042828627E+03  0.26360134264E+03  0.20839955726E+03  0.51512162644E+03  0.00000000000E+00 0. -1.
          3    1    5    5  503    0 -0.77003974356E+02 -0.29172162911E+01  0.15274775662E+02  0.78558519519E+02  0.00000000000E+00 0. -1.
         -4    1    5    5    0  503 -0.10090171557E+03 -0.37603587347E+02 -0.69138218044E+02  0.12796592976E+03  0.00000000000E+00 0.  1.
         -1    1    6    6    0  502  0.35468923212E+03  0.29274098788E+03  0.27206479055E+03  0.53434163943E+03  0.00000000000E+00 0.  1.
<mgrwt>
<rscale>  0 0.22981574E+04</rscale>
<asrwt>0</asrwt>
<pdfrwt beam="1">  1        1 0.20152341E+00 0.22981574E+04</pdfrwt>
<pdfrwt beam="2">  1       -1 0.15507698E+00 0.22981574E+04</pdfrwt>
<totfact> 0.25641554E+00</totfact>
</mgrwt>
</event>
<event>
12    1  0.2048318E-007  0.1693719E+04  0.7818608E-02  0.8764955E-01
         -1   -1    0    0    0  501 -0.00000000000E+00  0.00000000000E+00  0.49077916187E+03  0.49077916187E+03  0.00000000000E+00 0.  1.
          1   -1    0    0  501    0  0.00000000000E+00 -0.00000000000E+00 -0.14612904100E+04  0.14612904100E+04  0.00000000000E+00 0. -1.
         23    2    1    2    0    0  0.57277937103E+03 -0.17548529377E+03 -0.35139603038E+03  0.70071772516E+03  0.93031521420E+02 0.  0.
        254    2    1    2    0    0 -0.57277937103E+03  0.17548529377E+03 -0.61911521776E+03  0.12513518467E+04  0.90758277597E+03 0.  0.
        -24    2    4    4    0    0 -0.15052246841E+03 -0.34629429489E+03 -0.35938020980E+03  0.52721501506E+03  0.78897304991E+02 0.  0.
         24    2    4    4    0    0 -0.42225690262E+03  0.52177958866E+03 -0.25973500795E+03  0.72413683167E+03  0.79731083497E+02 0.  0.
         11    1    3    3    0    0  0.22653812717E+03 -0.48713902160E+02 -0.18348350513E+03  0.29556516029E+03  0.00000000000E+00 0.  1.
        -11    1    3    3    0    0  0.34624124386E+03 -0.12677139161E+03 -0.16791252525E+03  0.40515256487E+03  0.00000000000E+00 0. -1.
          2    1    6    6  502    0 -0.14922405024E+03  0.15947404632E+03 -0.12126415767E+03  0.24980949653E+03  0.00000000000E+00 0. -1.
          1    1    5    5  503    0  0.58214332077E+01 -0.20625972254E+02 -0.69597637887E+01  0.22533489033E+02  0.00000000000E+00 0. -1.
         -2    1    5    5    0  503 -0.15634390162E+03 -0.32566832263E+03 -0.35242044602E+03  0.50468152602E+03  0.00000000000E+00 0.  1.
         -1    1    6    6    0  502 -0.27303285238E+03  0.36230554233E+03 -0.13847085029E+03  0.47432733514E+03  0.00000000000E+00 0.  1.
<mgrwt>
<rscale>  0 0.16937188E+04</rscale>
<asrwt>0</asrwt>
<pdfrwt beam="1">  1        1 0.22481390E+00 0.16937188E+04</pdfrwt>
<pdfrwt beam="2">  1       -1 0.75504489E-01 0.16937188E+04</pdfrwt>
<totfact> 0.11682245E+01</totfact>
</mgrwt>
</event>
<event>
12    1  0.2048318E-007  0.2655069E+04  0.7818608E-02  0.8349733E-01
          2   -1    0    0  501    0  0.00000000000E+00  0.00000000000E+00  0.27807290358E+04  0.27807290358E+04  0.00000000000E+00 0. -1.
         -2   -1    0    0    0  501 -0.00000000000E+00 -0.00000000000E+00 -0.63377178408E+03  0.63377178408E+03  0.00000000000E+00 0.  1.
         23    2    1    2    0    0  0.11034173652E+04  0.11933569227E+03  0.14344970890E+04  0.18160274833E+04  0.91668056028E+02 0.  0.
        254    2    1    2    0    0 -0.11034173652E+04 -0.11933569227E+03  0.71246016271E+03  0.15984733366E+04  0.90318693247E+03 0.  0.
        -24    2    4    4    0    0 -0.25658789750E+03 -0.18172671364E+02  0.69071806562E+03  0.74131101154E+03  0.79265216305E+02 0.  0.
         24    2    4    4    0    0 -0.84682946771E+03 -0.10116302090E+03  0.21742097090E+02  0.85716232504E+03  0.83068817889E+02 0.  0.
         13    1    3    3    0    0  0.70911380009E+03  0.72122902647E+02  0.99115935983E+03  0.12208361770E+04  0.00000000000E+00 0. -1.
        -13    1    3    3    0    0  0.39430356512E+03  0.47212789619E+02  0.44333772921E+03  0.59519130631E+03  0.00000000000E+00 0.  1.
          2    1    6    6  502    0 -0.23420433788E+01  0.40562274715E+01  0.36749993437E+01  0.59534669450E+01  0.00000000000E+00 0. -1.
          3    1    5    5  503    0 -0.10447726465E+03 -0.46545588390E+02  0.28613166375E+03  0.30814496529E+03  0.00000000000E+00 0. -1.
         -4    1    5    5    0  503 -0.15211063285E+03  0.28372917026E+02  0.40458640187E+03  0.43316604625E+03  0.00000000000E+00 0.  1.
         -1    1    6    6    0  502 -0.84448742433E+03 -0.10521924837E+03  0.18067097747E+02  0.85120885809E+03  0.00000000000E+00 0.  1.
<mgrwt>
<rscale>  0 0.26550688E+04</rscale>
<asrwt>0</asrwt>
<pdfrwt beam="1">  1        2 0.42780446E+00 0.26550688E+04</pdfrwt>
<pdfrwt beam="2">  1       -2 0.97503353E-01 0.26550688E+04</pdfrwt>
<totfact> 0.18334416E+00</totfact>
</mgrwt>
</event>
<event>
12    1  0.2048318E-007  0.1134586E+04  0.7818608E-02  0.9172123E-01
         -2   -1    0    0    0  501 -0.00000000000E+00  0.00000000000E+00  0.41696882152E+03  0.41696882152E+03  0.00000000000E+00 0.  1.
          2   -1    0    0  501    0  0.00000000000E+00 -0.00000000000E+00 -0.77181130883E+03  0.77181130883E+03  0.00000000000E+00 0. -1.
         23    2    1    2    0    0  0.99036535553E+02 -0.15711250929E+03 -0.57120610961E+01  0.20679003218E+03  0.90757444959E+02 0.  0.
        254    2    1    2    0    0 -0.99036535553E+02  0.15711250929E+03 -0.34913042622E+03  0.98199009817E+03  0.89884365851E+03 0.  0.
        -24    2    4    4    0    0 -0.34578197554E+03  0.12845815564E+03 -0.53979475693E+03  0.65868248873E+03  0.80109730975E+02 0.  0.
         24    2    4    4    0    0  0.24674543999E+03  0.28654353657E+02  0.19066433071E+03  0.32330760944E+03  0.80439661715E+02 0.  0.
         13    1    3    3    0    0  0.90463210675E+02 -0.10593801767E+03  0.31641783736E+02  0.14285537635E+03  0.00000000000E+00 0.  1.
        -13    1    3    3    0    0  0.85733248776E+01 -0.51174491619E+02 -0.37353844832E+02  0.63934655827E+02  0.00000000000E+00 0. -1.
          2    1    6    6  502    0  0.12661338108E+03  0.54556567877E+02  0.92519276894E+02  0.16603368322E+03  0.00000000000E+00 0. -1.
          3    1    5    5  503    0 -0.14390788560E+03  0.35042028462E+02 -0.15619261080E+03  0.21525230537E+03  0.00000000000E+00 0. -1.
         -4    1    5    5    0  503 -0.20187408994E+03  0.93416127174E+02 -0.38360214613E+03  0.44343018337E+03  0.00000000000E+00 0.  1.
         -1    1    6    6    0  502  0.12013205891E+03 -0.25902214220E+02  0.98145053814E+02  0.15727392621E+03  0.00000000000E+00 0.  1.
<mgrwt>
<rscale>  0 0.11345858E+04</rscale>
<asrwt>0</asrwt>
<pdfrwt beam="1">  1        2 0.11874020E+00 0.11345858E+04</pdfrwt>
<pdfrwt beam="2">  1       -2 0.64149050E-01 0.11345858E+04</pdfrwt>
<totfact> 0.80413229E+01</totfact>
</mgrwt>
</event>
<event>
12    1  0.2048318E-007  0.1393309E+04  0.7818608E-02  0.8958676E-01
         -3   -1    0    0    0  501 -0.00000000000E+00  0.00000000000E+00  0.14414273871E+04  0.14414273871E+04  0.00000000000E+00 0.  1.
          3   -1    0    0  501    0  0.00000000000E+00 -0.00000000000E+00 -0.33669945526E+03  0.33669945526E+03  0.00000000000E+00 0. -1.
         23    2    1    2    0    0  0.34420498818E+03  0.84423406568E+02  0.54926199224E+03  0.66010162756E+03  0.91875116980E+02 0.  0.
        254    2    1    2    0    0 -0.34420498818E+03 -0.84423406568E+02  0.55546593957E+03  0.11180252148E+04  0.90323506650E+03 0.  0.
        -24    2    4    4    0    0 -0.31987282850E+03 -0.18184104889E+02 -0.17952025514E+03  0.37564387579E+03  0.78939922244E+02 0.  0.
         24    2    4    4    0    0 -0.24332159682E+02 -0.66239301679E+02  0.73498619471E+03  0.74238133898E+03  0.77108021364E+02 0.  0.
         11    1    3    3    0    0  0.22727893924E+03  0.75224684339E+02  0.43403793315E+03  0.49568477560E+03  0.00000000000E+00 0.  1.
        -11    1    3    3    0    0  0.11692604895E+03  0.91987222294E+01  0.11522405909E+03  0.16441685195E+03  0.00000000000E+00 0. -1.
          2    1    6    6  502    0  0.26996149897E+02 -0.28785423880E+02  0.34545295604E+03  0.34769978081E+03  0.00000000000E+00 0. -1.
          1    1    5    5  503    0 -0.27250596012E+03 -0.26497152487E+02 -0.11949981226E+03  0.29873366486E+03  0.00000000000E+00 0. -1.
         -2    1    5    5    0  503 -0.47366868382E+02  0.83130475981E+01 -0.60020442882E+02  0.76910210924E+02  0.00000000000E+00 0.  1.
         -1    1    6    6    0  502 -0.51328309579E+02 -0.37453877799E+02  0.38953323867E+03  0.39468155817E+03  0.00000000000E+00 0.  1.
<mgrwt>
<rscale>  0 0.13933095E+04</rscale>
<asrwt>0</asrwt>
<pdfrwt beam="1">  1        3 0.51799917E-01 0.13933095E+04</pdfrwt>
<pdfrwt beam="2">  1       -3 0.22175806E+00 0.13933095E+04</pdfrwt>
<totfact> 0.10124167E+00</totfact>
</mgrwt>
</event>
<event>
12    1  0.2048318E-007  0.2691559E+04  0.7818608E-02  0.8337749E-01
         -1   -1    0    0    0  501 -0.00000000000E+00  0.00000000000E+00  0.63100311175E+03  0.63100311175E+03  0.00000000000E+00 0.  1.
          1   -1    0    0  501    0  0.00000000000E+00 -0.00000000000E+00 -0.28702279530E+04  0.28702279530E+04  0.00000000000E+00 0. -1.
         23    2    1    2    0    0 -0.85701244962E+03  0.80489896819E+03 -0.72988993928E+03  0.13868442247E+04  0.90911452877E+02 0.  0.
        254    2    1    2    0    0  0.85701244962E+03 -0.80489896819E+03 -0.15093349020E+04  0.21143868401E+04  0.90011509008E+03 0.  0.
        -24    2    4    4    0    0  0.77670199260E+03 -0.36833939681E+03 -0.14091081453E+04  0.16525030482E+04  0.78997865489E+02 0.  0.
         24    2    4    4    0    0  0.80310457022E+02 -0.43655957139E+03 -0.10022675667E+03  0.46188379184E+03  0.79102500168E+02 0.  0.
         13    1    3    3    0    0 -0.19361446316E+03  0.13301228636E+03 -0.15356441625E+03  0.28064365057E+03  0.00000000000E+00 0. -1.
        -13    1    3    3    0    0 -0.66339798646E+03  0.67188668183E+03 -0.57632552304E+03  0.11062005741E+04  0.00000000000E+00 0.  1.
          2    1    6    6  502    0  0.30142337865E+02 -0.53530238960E+02 -0.33136890524E+02  0.69800433585E+02  0.00000000000E+00 0. -1.
          1    1    5    5  503    0  0.24201734502E+03 -0.14614471322E+03 -0.41736409393E+03  0.50410659527E+03  0.00000000000E+00 0. -1.
         -2    1    5    5    0  503  0.53468464759E+03 -0.22219468358E+03 -0.99174405138E+03  0.11483964530E+04  0.00000000000E+00 0.  1.
         -3    1    6    6    0  502  0.50168119157E+02 -0.38302933243E+03 -0.67089866149E+02  0.39208335825E+03  0.00000000000E+00 0.  1.
<mgrwt>
<rscale>  0 0.26915592E+04</rscale>
<asrwt>0</asrwt>
<pdfrwt beam="1">  1        1 0.44157354E+00 0.26915592E+04</pdfrwt>
<pdfrwt beam="2">  1       -1 0.97077400E-01 0.26915592E+04</pdfrwt>
<totfact> 0.66103606E-01</totfact>
</mgrwt>
</event>
<event>
12    1  0.2048318E-007  0.2257884E+04  0.7818608E-02  0.8494715E-01
          1   -1    0    0  501    0  0.00000000000E+00  0.00000000000E+00  0.14740835988E+04  0.14740835988E+04  0.00000000000E+00 0. -1.
         -1   -1    0    0    0  501 -0.00000000000E+00 -0.00000000000E+00 -0.86461155863E+03  0.86461155863E+03  0.00000000000E+00 0.  1.
         23    2    1    2    0    0  0.83933468902E+03  0.29027907060E+03  0.59082911411E+03  0.10683431872E+04  0.59442951163E+02 0.  0.
        254    2    1    2    0    0 -0.83933468902E+03 -0.29027907060E+03  0.18642926039E+02  0.12703519703E+04  0.90813099862E+03 0.  0.
        -24    2    4    4    0    0 -0.10090458114E+04 -0.29788268192E+03 -0.80675960843E+02  0.10579349125E+04  0.76224187122E+02 0.  0.
         24    2    4    4    0    0  0.16971112241E+03  0.76036113215E+01  0.99318886882E+02  0.21241705776E+03  0.79981780188E+02 0.  0.
         13    1    3    3    0    0  0.74559209975E+03  0.27378962149E+03  0.51467131861E+03  0.94644329056E+03  0.00000000000E+00 0.  1.
        -13    1    3    3    0    0  0.93742589265E+02  0.16489449111E+02  0.76157795501E+02  0.12189989659E+03  0.00000000000E+00 0. -1.
          2    1    6    6  502    0  0.13623308847E+03  0.29331477463E+02  0.10157108817E+03  0.17244267429E+03  0.00000000000E+00 0. -1.
          3    1    5    5  503    0 -0.80425622319E+03 -0.23945026023E+03 -0.33522790745E+02  0.83981443020E+03  0.00000000000E+00 0. -1.
         -4    1    5    5    0  503 -0.20478958823E+03 -0.58432421685E+02 -0.47153170098E+02  0.21812048231E+03  0.00000000000E+00 0.  1.
         -1    1    6    6    0  502  0.33478033932E+02 -0.21727866142E+02 -0.22522012840E+01  0.39974383468E+02  0.00000000000E+00 0.  1.
<mgrwt>
<rscale>  0 0.22578837E+04</rscale>
<asrwt>0</asrwt>
<pdfrwt beam="1">  1        1 0.22678209E+00 0.22578837E+04</pdfrwt>
<pdfrwt beam="2">  1       -1 0.13301716E+00 0.22578837E+04</pdfrwt>
<totfact> 0.29594627E+00</totfact>
</mgrwt>
</event>
<event>
12    1  0.2048318E-007  0.1980327E+04  0.7818608E-02  0.8615874E-01
         -2   -1    0    0    0  501 -0.00000000000E+00  0.00000000000E+00  0.63658045924E+03  0.63658045924E+03  0.00000000000E+00 0.  1.
          2   -1    0    0  501    0  0.00000000000E+00 -0.00000000000E+00 -0.15401407617E+04  0.15401407617E+04  0.00000000000E+00 0. -1.
         23    2    1    2    0    0 -0.77154340859E+03  0.35506336767E+02 -0.49740880671E+03  0.92319295322E+03  0.91267609830E+02 0.  0.
        254    2    1    2    0    0  0.77154340859E+03 -0.35506336767E+02 -0.40615149577E+03  0.12535282677E+04  0.89990785597E+03 0.  0.
        -24    2    4    4    0    0  0.59304248978E+03  0.29451411377E+03 -0.52968636269E+03  0.85139187473E+03  0.76567118588E+02 0.  0.
         24    2    4    4    0    0  0.17850091880E+03 -0.33002045054E+03  0.12353486692E+03  0.40213639301E+03  0.75344140136E+02 0.  0.
         11    1    3    3    0    0 -0.39543507367E+02 -0.17081051351E+01 -0.43067947388E+01  0.39814006065E+02  0.00000000000E+00 0.  1.
        -11    1    3    3    0    0 -0.73199990122E+03  0.37214441902E+02 -0.49310201197E+03  0.88337894716E+03  0.00000000000E+00 0. -1.
          4    1    6    6  502    0  0.15944330714E+03 -0.24540992143E+03  0.72495189829E+02  0.30150248801E+03  0.00000000000E+00 0. -1.
          3    1    5    5  503    0  0.21328162502E+03  0.14715937858E+03 -0.19920958792E+03  0.32684766207E+03  0.00000000000E+00 0. -1.
         -4    1    5    5    0  503  0.37976086476E+03  0.14735473519E+03 -0.33047677476E+03  0.52454421266E+03  0.00000000000E+00 0.  1.
         -3    1    6    6    0  502  0.19057611661E+02 -0.84610529105E+02  0.51039677090E+02  0.10063390500E+03  0.00000000000E+00 0.  1.
<mgrwt>
<rscale>  0 0.19803268E+04</rscale>
<asrwt>0</asrwt>
<pdfrwt beam="1">  1        2 0.23694473E+00 0.19803268E+04</pdfrwt>
<pdfrwt beam="2">  1       -2 0.97935456E-01 0.19803268E+04</pdfrwt>
<totfact> 0.97300414E+00</totfact>
</mgrwt>
</event>
<event>
12    1  0.2048318E-007  0.2047603E+04  0.7818608E-02  0.8584682E-01
          2   -1    0    0  501    0  0.00000000000E+00  0.00000000000E+00  0.19637082122E+04  0.19637082122E+04  0.00000000000E+00 0. -1.
         -2   -1    0    0    0  501 -0.00000000000E+00 -0.00000000000E+00 -0.53377075494E+03  0.53377075494E+03  0.00000000000E+00 0.  1.
         23    2    1    2    0    0  0.53441308706E+03 -0.50479617349E+03  0.10266934863E+04  0.12671145049E+04  0.10518141145E+03 0.  0.
        254    2    1    2    0    0 -0.53441308706E+03  0.50479617349E+03  0.40324397095E+03  0.12303644622E+04  0.90043016688E+03 0.  0.
        -24    2    4    4    0    0 -0.73599638617E+03  0.17396601606E+03  0.32697568330E+03  0.82786049268E+03  0.80529762703E+02 0.  0.
         24    2    4    4    0    0  0.20158329911E+03  0.33083015743E+03  0.76268287654E+02  0.40250396955E+03  0.78154809567E+02 0.  0.
         13    1    3    3    0    0  0.42591814023E+03 -0.34269461662E+03  0.72880382088E+03  0.91104383636E+03  0.00000000000E+00 0. -1.
        -13    1    3    3    0    0  0.10849494682E+03 -0.16210155687E+03  0.29788966545E+03  0.35607066856E+03  0.00000000000E+00 0.  1.
          4    1    6    6  502    0  0.13522229779E+03  0.27433688853E+03  0.76816024354E+02  0.31535139103E+03  0.00000000000E+00 0. -1.
          3    1    5    5  503    0 -0.48151388619E+03  0.13732010680E+03  0.24887688076E+03  0.55915305248E+03  0.00000000000E+00 0. -1.
         -4    1    5    5    0  503 -0.25448249998E+03  0.36645909261E+02  0.78098802538E+02  0.26870744020E+03  0.00000000000E+00 0.  1.
         -3    1    6    6    0  502  0.66361001320E+02  0.56493268898E+02 -0.54773669993E+00  0.87152578519E+02  0.00000000000E+00 0.  1.
<mgrwt>
<rscale>  0 0.20476035E+04</rscale>
<asrwt>0</asrwt>
<pdfrwt beam="1">  1        2 0.30210895E+00 0.20476035E+04</pdfrwt>
<pdfrwt beam="2">  1       -2 0.82118579E-01 0.20476035E+04</pdfrwt>
<totfact> 0.84401468E+00</totfact>
</mgrwt>
</event>
<event>
12    1  0.2048318E-007  0.1783636E+04  0.7818608E-02  0.8715050E-01
         -1   -1    0    0    0  501 -0.00000000000E+00  0.00000000000E+00  0.58308465723E+03  0.58308465723E+03  0.00000000000E+00 0.  1.
          1   -1    0    0  501    0  0.00000000000E+00 -0.00000000000E+00 -0.13640207317E+04  0.13640207317E+04  0.00000000000E+00 0. -1.
         23    2    1    2    0    0  0.60204769422E+03  0.25349269056E+03 -0.17255126441E+03  0.68112302789E+03  0.86224532419E+02 0.  0.
        254    2    1    2    0    0 -0.60204769422E+03 -0.25349269056E+03 -0.60838481005E+03  0.12659823610E+04  0.89769665870E+03 0.  0.
        -24    2    4    4    0    0 -0.73289733804E+03 -0.21819197778E+03 -0.15465768132E+03  0.78408528006E+03  0.78259061707E+02 0.  0.
         24    2    4    4    0    0  0.13084964382E+03 -0.35300712788E+02 -0.45372712873E+03  0.48189708096E+03  0.89379637967E+02 0.  0.
         11    1    3    3    0    0  0.18081306790E+03  0.42214578419E+02 -0.25232089834E+02  0.18738221503E+03  0.00000000000E+00 0.  1.
        -11    1    3    3    0    0  0.42123462632E+03  0.21127811215E+03 -0.14731917458E+03  0.49374081286E+03  0.00000000000E+00 0. -1.
          2    1    6    6  502    0  0.22423563597E+02 -0.40599008108E+02 -0.21042917259E+03  0.21547977246E+03  0.00000000000E+00 0. -1.
          1    1    5    5  503    0 -0.38270294750E+03 -0.97357361565E+02 -0.43323506540E+02  0.39726178786E+03  0.00000000000E+00 0. -1.
         -2    1    5    5    0  503 -0.35019439055E+03 -0.12083461621E+03 -0.11133417478E+03  0.38682349220E+03  0.00000000000E+00 0.  1.
         -1    1    6    6    0  502  0.10842608023E+03  0.52982953198E+01 -0.24329795614E+03  0.26641730850E+03  0.00000000000E+00 0.  1.
<mgrwt>
<rscale>  0 0.17836362E+04</rscale>
<asrwt>0</asrwt>
<pdfrwt beam="1">  1        1 0.20984934E+00 0.17836362E+04</pdfrwt>
<pdfrwt beam="2">  1       -1 0.89705333E-01 0.17836362E+04</pdfrwt>
<totfact> 0.93646638E+00</totfact>
</mgrwt>
</event>
<event>
12    1  0.2048318E-007  0.1524993E+04  0.7818608E-02  0.8868001E-01
         -1   -1    0    0    0  501 -0.00000000000E+00  0.00000000000E+00  0.43556703792E+03  0.43556703792E+03  0.00000000000E+00 0. -1.
          1   -1    0    0  501    0  0.00000000000E+00 -0.00000000000E+00 -0.13348146868E+04  0.13348146868E+04  0.00000000000E+00 0.  1.
         23    2    1    2    0    0 -0.21952088550E+03 -0.13169402903E+03  0.19322898962E+03  0.33245868307E+03  0.87513410767E+02 0.  0.
        254    2    1    2    0    0  0.21952088550E+03  0.13169402903E+03 -0.10924766385E+04  0.14379230417E+04  0.89921339602E+03 0.  0.
        -24    2    4    4    0    0  0.24142799674E+03 -0.28778172108E+03 -0.87991244557E+03  0.96007734497E+03  0.79979996630E+02 0.  0.
         24    2    4    4    0    0 -0.21907111240E+02  0.41947575010E+03 -0.21256419295E+03  0.47784569669E+03  0.81933798130E+02 0.  0.
         13    1    3    3    0    0 -0.11438443239E+03 -0.27558118118E+02  0.54679877782E+02  0.12974258083E+03  0.00000000000E+00 0.  1.
        -13    1    3    3    0    0 -0.10513645312E+03 -0.10413591091E+03  0.13854911184E+03  0.20271610224E+03  0.00000000000E+00 0. -1.
          2    1    6    6  502    0 -0.32763717768E+02  0.23353552825E+03 -0.15764005799E+03  0.28365946492E+03  0.00000000000E+00 0. -1.
          3    1    5    5  503    0  0.22945682290E+02 -0.35730708526E+01 -0.32356621658E+02  0.39827404336E+02  0.00000000000E+00 0. -1.
         -4    1    5    5    0  503  0.21848231445E+03 -0.28420865023E+03 -0.84755582391E+03  0.92024994064E+03  0.00000000000E+00 0.  1.
         -1    1    6    6    0  502  0.10856606529E+02  0.18594022185E+03 -0.54924134960E+02  0.19418623177E+03  0.00000000000E+00 0.  1.
<mgrwt>
<rscale>  0 0.15249935E+04</rscale>
<asrwt>0</asrwt>
<pdfrwt beam="1">  1        1 0.20535610E+00 0.15249935E+04</pdfrwt>
<pdfrwt beam="2">  1       -1 0.67010314E-01 0.15249935E+04</pdfrwt>
<totfact> 0.18605249E+01</totfact>
</mgrwt>
</event>
<event>
12    1  0.2048318E-007  0.2121689E+04  0.7818608E-02  0.8551749E-01
          2   -1    0    0  501    0  0.00000000000E+00  0.00000000000E+00  0.23038998606E+04  0.23038998606E+04  0.00000000000E+00 0. -1.
         -2   -1    0    0    0  501 -0.00000000000E+00 -0.00000000000E+00 -0.48847240190E+03  0.48847240190E+03  0.00000000000E+00 0.  1.
         23    2    1    2    0    0 -0.30894100436E+03 -0.13268967062E+03  0.17968887054E+04  0.18307533196E+04  0.98982849812E+02 0.  0.
        254    2    1    2    0    0  0.30894100436E+03  0.13268967062E+03  0.18538753312E+02  0.96161894298E+03  0.90073093277E+03 0.  0.
        -24    2    4    4    0    0 -0.29712974819E+03  0.67169162868E+02 -0.11075378432E+03  0.33388282516E+03  0.80084683274E+02 0.  0.
         24    2    4    4    0    0  0.60607075255E+03  0.65520507757E+02  0.12929253763E+03  0.62773611782E+03  0.75639799698E+02 0.  0.
         11    1    3    3    0    0 -0.18272359813E+01 -0.19706025959E+02  0.17985406339E+03  0.18093963183E+03  0.00000000000E+00 0. -1.
        -11    1    3    3    0    0 -0.30711376838E+03 -0.11298364467E+03  0.16170346420E+04  0.16498136877E+04  0.00000000000E+00 0.  1.
          2    1    6    6  502    0  0.35839499862E+03  0.43323920754E+02  0.11409060082E+03  0.37860348961E+03  0.00000000000E+00 0. -1.
          3    1    5    5  503    0 -0.29039336926E+03  0.79361808752E+02 -0.10543060117E+03  0.31897055861E+03  0.00000000000E+00 0. -1.
         -4    1    5    5    0  503 -0.67363789333E+01 -0.12192645884E+02 -0.53231831433E+01  0.14912266547E+02  0.00000000000E+00 0.  1.
         -1    1    6    6    0  502  0.24767575393E+03  0.22196587003E+02  0.15201936805E+02  0.24913262821E+03  0.00000000000E+00 0.  1.
<mgrwt>
<rscale>  0 0.21216894E+04</rscale>
<asrwt>0</asrwt>
<pdfrwt beam="1">  1        2 0.35444613E+00 0.21216894E+04</pdfrwt>
<pdfrwt beam="2">  1       -2 0.75149602E-01 0.21216894E+04</pdfrwt>
<totfact> 0.65964551E+00</totfact>
</mgrwt>
</event>
<event>
12    1  0.2048318E-007  0.2268692E+04  0.7818608E-02  0.8490369E-01
          2   -1    0    0  501    0  0.00000000000E+00  0.00000000000E+00  0.20412583097E+04  0.20412583097E+04  0.00000000000E+00 0. -1.
         -2   -1    0    0    0  501 -0.00000000000E+00 -0.00000000000E+00 -0.63036668894E+03  0.63036668894E+03  0.00000000000E+00 0.  1.
         23    2    1    2    0    0 -0.79149790841E+03 -0.40688542427E+03  0.99357116190E+03  0.13371813568E+04  0.94051260608E+02 0.  0.
        254    2    1    2    0    0  0.79149790841E+03  0.40688542427E+03  0.41732045886E+03  0.13344436419E+04  0.90252910228E+03 0.  0.
        -24    2    4    4    0    0  0.90124181760E+03  0.38925372575E+03  0.10158955885E+03  0.99017989917E+03  0.79878141232E+02 0.  0.
         24    2    4    4    0    0 -0.10974390919E+03  0.17631698521E+02  0.31573090001E+03  0.34426374271E+03  0.80479319872E+02 0.  0.
         13    1    3    3    0    0 -0.28029991563E+03 -0.11109920463E+03  0.28683662545E+03  0.41615661195E+03  0.00000000000E+00 0.  1.
        -13    1    3    3    0    0 -0.51119799279E+03 -0.29578621964E+03  0.70673453644E+03  0.92102474481E+03  0.00000000000E+00 0. -1.
          4    1    6    6  502    0 -0.95709296885E+02  0.39123944139E+02  0.29015845954E+03  0.30803065458E+03  0.00000000000E+00 0. -1.
          3    1    5    5  503    0  0.33371692706E+03  0.13930352853E+03 -0.97898450148E+00  0.36162607605E+03  0.00000000000E+00 0. -1.
         -4    1    5    5    0  503  0.56752489054E+03  0.24995019722E+03  0.10256854335E+03  0.62855382312E+03  0.00000000000E+00 0.  1.
         -3    1    6    6    0  502 -0.14034612304E+02 -0.21492245618E+02  0.25572440468E+02  0.36233088133E+02  0.00000000000E+00 0.  1.
<mgrwt>
<rscale>  0 0.22686923E+04</rscale>
<asrwt>0</asrwt>
<pdfrwt beam="1">  1        2 0.31403974E+00 0.22686923E+04</pdfrwt>
<pdfrwt beam="2">  1       -2 0.96979491E-01 0.22686923E+04</pdfrwt>
<totfact> 0.51142454E+00</totfact>
</mgrwt>
</event>
<event>
12    1  0.2048318E-007  0.1748167E+04  0.7818608E-02  0.8734360E-01
         -2   -1    0    0    0  501 -0.00000000000E+00  0.00000000000E+00  0.26795513893E+03  0.26795513893E+03  0.00000000000E+00 0.  1.
          2   -1    0    0  501    0  0.00000000000E+00 -0.00000000000E+00 -0.28513061516E+04  0.28513061516E+04  0.00000000000E+00 0. -1.
         23    2    1    2    0    0  0.91355362810E+02  0.50593472662E+03 -0.27894986630E+03  0.59238040876E+03  0.93732442986E+02 0.  0.
        254    2    1    2    0    0 -0.91355362810E+02 -0.50593472662E+03 -0.23044011463E+04  0.25268808817E+04  0.90030361398E+03 0.  0.
        -24    2    4    4    0    0  0.22324864352E+03 -0.64238916510E+03 -0.15097998462E+04  0.16578578728E+04  0.80581353422E+02 0.  0.
         24    2    4    4    0    0 -0.31460400633E+03  0.13645443848E+03 -0.79460130016E+03  0.86902300897E+03  0.78830636915E+02 0.  0.
         13    1    3    3    0    0  0.97638306028E+02  0.35032045704E+03 -0.16471187398E+03  0.39923384483E+03  0.00000000000E+00 0. -1.
        -13    1    3    3    0    0 -0.62829432183E+01  0.15561426957E+03 -0.11423799233E+03  0.19314656394E+03  0.00000000000E+00 0.  1.
          4    1    6    6  502    0 -0.17581779552E+03  0.10991119412E+03 -0.52878361104E+03  0.56798281235E+03  0.00000000000E+00 0. -1.
          3    1    5    5  503    0  0.16141276507E+03 -0.35313308612E+03 -0.89560360030E+03  0.97614694903E+03  0.00000000000E+00 0. -1.
         -4    1    5    5    0  503  0.61835878453E+02 -0.28925607898E+03 -0.61419624587E+03  0.68171092373E+03  0.00000000000E+00 0.  1.
         -3    1    6    6    0  502 -0.13878621081E+03  0.26543244356E+02 -0.26581768912E+03  0.30104019662E+03  0.00000000000E+00 0.  1.
<mgrwt>
<rscale>  0 0.17481672E+04</rscale>
<asrwt>0</asrwt>
<pdfrwt beam="1">  1        2 0.43866249E+00 0.17481672E+04</pdfrwt>
<pdfrwt beam="2">  1       -2 0.41223867E-01 0.17481672E+04</pdfrwt>
<totfact> 0.11409221E+01</totfact>
</mgrwt>
</event>
<event>
12    1  0.2048318E-007  0.2592944E+04  0.7818608E-02  0.8370602E-01
          2   -1    0    0  501    0  0.00000000000E+00  0.00000000000E+00  0.11532326894E+04  0.11532326894E+04  0.00000000000E+00 0. -1.
         -2   -1    0    0    0  501 -0.00000000000E+00 -0.00000000000E+00 -0.14575028507E+04  0.14575028507E+04  0.00000000000E+00 0.  1.
         23    2    1    2    0    0 -0.56947723197E+03  0.29123748221E+03 -0.10804412565E+04  0.12578164952E+04  0.75002919084E+02 0.  0.
        254    2    1    2    0    0  0.56947723197E+03 -0.29123748221E+03  0.77617109524E+03  0.13529190449E+04  0.90488937670E+03 0.  0.
        -24    2    4    4    0    0  0.28269587348E+02  0.29291080616E+03  0.25675726359E+03  0.39885697996E+03  0.81035104277E+02 0.  0.
         24    2    4    4    0    0  0.54120764462E+03 -0.58414828837E+03  0.51941383165E+03  0.95406206489E+03  0.79427688828E+02 0.  0.
         11    1    3    3    0    0 -0.88471434887E+02  0.25094260031E+02 -0.19515001858E+03  0.21573234906E+03  0.00000000000E+00 0.  1.
        -11    1    3    3    0    0 -0.48100579708E+03  0.26614322218E+03 -0.88529123797E+03  0.10420841461E+04  0.00000000000E+00 0. -1.
          2    1    6    6  502    0  0.87859404128E+02 -0.12052204322E+03  0.67676110069E+02  0.16378306894E+03  0.00000000000E+00 0. -1.
          3    1    5    5  503    0  0.14087959181E+02  0.29752160532E+01  0.74541060684E+01  0.16213765809E+02  0.00000000000E+00 0. -1.
         -4    1    5    5    0  503  0.14181628168E+02  0.28993559010E+03  0.24930315752E+03  0.38264321415E+03  0.00000000000E+00 0.  1.
         -1    1    6    6    0  502  0.45334824050E+03 -0.46362624515E+03  0.45173772158E+03  0.79027899596E+03  0.00000000000E+00 0.  1.
<mgrwt>
<rscale>  0 0.25929442E+04</rscale>
<asrwt>0</asrwt>
<pdfrwt beam="1">  1        2 0.17742041E+00 0.25929442E+04</pdfrwt>
<pdfrwt beam="2">  1       -2 0.22423121E+00 0.25929442E+04</pdfrwt>
<totfact> 0.16623111E+00</totfact>
</mgrwt>
</event>
<event>
12    1  0.2048318E-007  0.1042605E+04  0.7818608E-02  0.9263013E-01
          2   -1    0    0  501    0  0.00000000000E+00  0.00000000000E+00  0.42613182481E+03  0.42613182481E+03  0.00000000000E+00 0.  1.
         -2   -1    0    0    0  501 -0.00000000000E+00 -0.00000000000E+00 -0.63772788604E+03  0.63772788604E+03  0.00000000000E+00 0. -1.
         23    2    1    2    0    0 -0.72163259507E+02  0.30702399828E+02 -0.94951912324E+02  0.15389258060E+03  0.92286983537E+02 0.  0.
        254    2    1    2    0    0  0.72163259507E+02 -0.30702399828E+02 -0.11664414891E+03  0.90996713026E+03  0.89904624314E+03 0.  0.
        -24    2    4    4    0    0  0.42000049661E+03  0.11150462066E+03 -0.24419850599E+03  0.50521057440E+03  0.82286794653E+02 0.  0.
         24    2    4    4    0    0 -0.34783723710E+03 -0.14220702049E+03  0.12755435708E+03  0.40475655587E+03  0.79650331523E+02 0.  0.
         13    1    3    3    0    0 -0.25802743850E+02 -0.29610200128E+01  0.14939718518E+02  0.29962383401E+02  0.00000000000E+00 0.  1.
        -13    1    3    3    0    0 -0.46360515657E+02  0.33663419841E+02 -0.10989163084E+03  0.12393019719E+03  0.00000000000E+00 0. -1.
          2    1    6    6  502    0 -0.72336484143E+01  0.42984251551E+01  0.15127991188E+02  0.17310639664E+02  0.00000000000E+00 0. -1.
          1    1    5    5  503    0  0.46416196766E+02  0.33658606828E+02 -0.54283250170E+02  0.78955914185E+02  0.00000000000E+00 0. -1.
         -2    1    5    5    0  503  0.37358429985E+03  0.77846013837E+02 -0.18991525582E+03  0.42625466021E+03  0.00000000000E+00 0.  1.
         -1    1    6    6    0  502 -0.34060358869E+03 -0.14650544565E+03  0.11242636589E+03  0.38744591620E+03  0.00000000000E+00 0.  1.
<mgrwt>
<rscale>  0 0.10426047E+04</rscale>
<asrwt>0</asrwt>
<pdfrwt beam="1">  1        2 0.65558742E-01 0.10426047E+04</pdfrwt>
<pdfrwt beam="2">  1       -2 0.98111983E-01 0.10426047E+04</pdfrwt>
<totfact> 0.63723883E+01</totfact>
</mgrwt>
</event>
<event>
12    1  0.2048318E-007  0.2256643E+04  0.7818608E-02  0.8495215E-01
         -2   -1    0    0    0  501 -0.00000000000E+00  0.00000000000E+00  0.10901888596E+04  0.10901888596E+04  0.00000000000E+00 0.  1.
          2   -1    0    0  501    0  0.00000000000E+00 -0.00000000000E+00 -0.11677876782E+04  0.11677876782E+04  0.00000000000E+00 0. -1.
         23    2    1    2    0    0 -0.56760299227E+03  0.59866128043E+03  0.43048199822E+03  0.93522968630E+03  0.93655377943E+02 0.  0.
        254    2    1    2    0    0  0.56760299227E+03 -0.59866128043E+03 -0.50808081677E+03  0.13227468515E+04  0.90052464228E+03 0.  0.
        -24    2    4    4    0    0  0.12111323827E+03  0.64843100645E+02 -0.49403118907E+03  0.51906423072E+03  0.80546977898E+02 0.  0.
         24    2    4    4    0    0  0.44648975399E+03 -0.66350438108E+03 -0.14049627699E+02  0.80368262081E+03  0.78212523464E+02 0.  0.
         11    1    3    3    0    0 -0.17948245321E+03  0.15749930195E+03  0.16625244662E+03  0.29096366978E+03  0.00000000000E+00 0.  1.
        -11    1    3    3    0    0 -0.38812053906E+03  0.44116197848E+03  0.26422955160E+03  0.64426601651E+03  0.00000000000E+00 0. -1.
          4    1    6    6  502    0  0.24797590312E+03 -0.41661592096E+03  0.18728242697E+02  0.48519235484E+03  0.00000000000E+00 0. -1.
          1    1    5    5  503    0  0.13266898323E+03  0.59166415992E+02 -0.43391760665E+03  0.45758738319E+03  0.00000000000E+00 0. -1.
         -2    1    5    5    0  503 -0.11555744963E+02  0.56766846532E+01 -0.60113582428E+02  0.61476847534E+02  0.00000000000E+00 0.  1.
         -3    1    6    6    0  502  0.19851385088E+03 -0.24688846012E+03 -0.32777870396E+02  0.31849026597E+03  0.00000000000E+00 0.  1.
<mgrwt>
<rscale>  0 0.22566427E+04</rscale>
<asrwt>0</asrwt>
<pdfrwt beam="1">  1        2 0.17965964E+00 0.22566427E+04</pdfrwt>
<pdfrwt beam="2">  1       -2 0.16772136E+00 0.22566427E+04</pdfrwt>
<totfact> 0.39872584E+00</totfact>
</mgrwt>
</event>
<event>
12    1  0.2140127E-007  0.2564714E+04  0.7818608E-02  0.8380287E-01
         -1   -1    0    0    0  501 -0.00000000000E+00  0.00000000000E+00  0.14675694510E+04  0.14675694510E+04  0.00000000000E+00 0.  1.
          1   -1    0    0  501    0  0.00000000000E+00 -0.00000000000E+00 -0.11205186877E+04  0.11205186877E+04  0.00000000000E+00 0. -1.
         23    2    1    2    0    0  0.32039679026E+02  0.10821337983E+04  0.45126726273E+03  0.11764452929E+04  0.91330642767E+02 0.  0.
        254    2    1    2    0    0 -0.32039679026E+02 -0.10821337983E+04 -0.10421649952E+03  0.14116428458E+04  0.89990796582E+03 0.  0.
        -24    2    4    4    0    0  0.61584179996E+02 -0.18119803464E+03  0.34154617861E+03  0.39896953376E+03  0.76795558211E+02 0.  0.
         24    2    4    4    0    0 -0.93623859022E+02 -0.90093576365E+03 -0.44576267813E+03  0.10126733121E+04  0.79700655887E+02 0.  0.
         13    1    3    3    0    0  0.54323634576E+01  0.53251098003E+03  0.17380493117E+03  0.56018354896E+03  0.00000000000E+00 0. -1.
        -13    1    3    3    0    0  0.26607315569E+02  0.54962281826E+03  0.27746233156E+03  0.61626174392E+03  0.00000000000E+00 0.  1.
          2    1    6    6  502    0 -0.91336859335E+02 -0.76400202811E+03 -0.34843277500E+03  0.84465787128E+03  0.00000000000E+00 0. -1.
          1    1    5    5  503    0  0.73639346762E+02 -0.11099740476E+03  0.24659366542E+03  0.28027060688E+03  0.00000000000E+00 0. -1.
         -2    1    5    5    0  503 -0.12055166766E+02 -0.70200629878E+02  0.94952513190E+02  0.11869892688E+03  0.00000000000E+00 0.  1.
         -1    1    6    6    0  502 -0.22869996869E+01 -0.13693373554E+03 -0.97329903128E+02  0.16801544078E+03  0.00000000000E+00 0.  1.
<mgrwt>
<rscale>  0 0.25647136E+04</rscale>
<asrwt>0</asrwt>
<pdfrwt beam="1">  1        1 0.17238749E+00 0.25647136E+04</pdfrwt>
<pdfrwt beam="2">  1       -1 0.22577992E+00 0.25647136E+04</pdfrwt>
<totfact> 0.10884299E+00</totfact>
</mgrwt>
</event>
<event>
12    1  0.2048318E-007  0.2545396E+04  0.7818608E-02  0.8386989E-01
          1   -1    0    0  501    0  0.00000000000E+00  0.00000000000E+00  0.15278003667E+04  0.15278003667E+04  0.00000000000E+00 0. -1.
         -1   -1    0    0    0  501 -0.00000000000E+00 -0.00000000000E+00 -0.10601909837E+04  0.10601909837E+04  0.00000000000E+00 0.  1.
         23    2    1    2    0    0 -0.10421434324E+04 -0.20405888207E+03  0.53671602764E+03  0.11936083831E+04  0.94519399509E+02 0.  0.
        254    2    1    2    0    0  0.10421434324E+04  0.20405888207E+03 -0.69106644675E+02  0.13943829672E+04  0.90101341271E+03 0.  0.
        -24    2    4    4    0    0  0.79429145226E+03  0.51377851193E+03 -0.19748495016E+03  0.96975068518E+03  0.80924751515E+02 0.  0.
         24    2    4    4    0    0  0.24785198015E+03 -0.30971962986E+03  0.12837830548E+03  0.42463228205E+03  0.80465722263E+02 0.  0.
         13    1    3    3    0    0 -0.60478699018E+02  0.10258243388E+02  0.30352410371E+02  0.68441021381E+02  0.00000000000E+00 0.  1.
        -13    1    3    3    0    0 -0.98166473340E+03 -0.21431712546E+03  0.50636361727E+03  0.11251673618E+04  0.00000000000E+00 0. -1.
          4    1    6    6  502    0  0.21036261093E+02 -0.75724938378E+02  0.18673278505E+02  0.80780454958E+02  0.00000000000E+00 0. -1.
          1    1    5    5  503    0  0.35341614858E+03  0.21892326392E+03 -0.46682273652E+02  0.41834149237E+03  0.00000000000E+00 0. -1.
         -2    1    5    5    0  503  0.44087530368E+03  0.29485524801E+03 -0.15080267650E+03  0.55140919281E+03  0.00000000000E+00 0.  1.
         -3    1    6    6    0  502  0.22681571906E+03 -0.23399469148E+03  0.10970502698E+03  0.34385182710E+03  0.00000000000E+00 0.  1.
<mgrwt>
<rscale>  0 0.25453960E+04</rscale>
<asrwt>0</asrwt>
<pdfrwt beam="1">  1        1 0.23504621E+00 0.25453960E+04</pdfrwt>
<pdfrwt beam="2">  1       -1 0.16310630E+00 0.25453960E+04</pdfrwt>
<totfact> 0.15333588E+00</totfact>
</mgrwt>
</event>
<event>
12    1  0.2048318E-007  0.1604999E+04  0.7818608E-02  0.8817483E-01
          2   -1    0    0  501    0  0.00000000000E+00  0.00000000000E+00  0.31241544197E+04  0.31241544197E+04  0.00000000000E+00 0. -1.
         -2   -1    0    0    0  501 -0.00000000000E+00 -0.00000000000E+00 -0.20613758998E+03  0.20613758998E+03  0.00000000000E+00 0.  1.
         23    2    1    2    0    0 -0.32114355247E+03  0.30308342448E+03  0.16636969116E+04  0.17236000458E+04  0.88977305392E+02 0.  0.
        254    2    1    2    0    0  0.32114355247E+03 -0.30308342448E+03  0.12543199181E+04  0.16066919638E+04  0.90174711875E+03 0.  0.
        -24    2    4    4    0    0  0.25152433655E+03  0.16932405363E+03  0.61418000313E+02  0.31920567161E+03  0.78644535795E+02 0.  0.
         24    2    4    4    0    0  0.69619215923E+02 -0.47240747811E+03  0.11929019178E+04  0.12874862922E+04  0.81180703188E+02 0.  0.
         13    1    3    3    0    0 -0.27938424492E+03  0.25850196989E+03  0.12914179862E+04  0.13463429132E+04  0.00000000000E+00 0.  1.
        -13    1    3    3    0    0 -0.41759307549E+02  0.44581454588E+02  0.37227892536E+03  0.37725713264E+03  0.00000000000E+00 0. -1.
          4    1    6    6  502    0 -0.44432188954E+01 -0.24199943833E+03  0.61921964291E+03  0.66484316685E+03  0.00000000000E+00 0. -1.
          1    1    5    5  503    0  0.34377576150E+02 -0.46877066798E+00  0.21837020999E+02  0.40729509867E+02  0.00000000000E+00 0. -1.
         -2    1    5    5    0  503  0.21714676040E+03  0.16979282430E+03  0.39580979313E+02  0.27847616174E+03  0.00000000000E+00 0.  1.
         -3    1    6    6    0  502  0.74062434819E+02 -0.23040803978E+03  0.57368227491E+03  0.62264312539E+03  0.00000000000E+00 0.  1.
<mgrwt>
<rscale>  0 0.16049993E+04</rscale>
<asrwt>0</asrwt>
<pdfrwt beam="1">  1        2 0.48063911E+00 0.16049993E+04</pdfrwt>
<pdfrwt beam="2">  1       -2 0.31713478E-01 0.16049993E+04</pdfrwt>
<totfact> 0.12953460E+01</totfact>
</mgrwt>
</event>
<event>
12    1  0.2048318E-007  0.2228635E+04  0.7818608E-02  0.8506603E-01
         -1   -1    0    0    0  501 -0.00000000000E+00  0.00000000000E+00  0.89004554663E+03  0.89004554663E+03  0.00000000000E+00 0.  1.
          1   -1    0    0  501    0  0.00000000000E+00 -0.00000000000E+00 -0.13951005892E+04  0.13951005892E+04  0.00000000000E+00 0. -1.
         23    2    1    2    0    0  0.37664561078E+03  0.84974332577E+03 -0.19164750572E+03  0.95360523562E+03  0.93319575381E+02 0.  0.
        254    2    1    2    0    0 -0.37664561078E+03 -0.84974332577E+03 -0.31340753684E+03  0.13315409002E+04  0.90047279192E+03 0.  0.
        -24    2    4    4    0    0 -0.43102974781E+03 -0.34186417446E+03  0.21150695621E+03  0.59431196607E+03  0.76248037401E+02 0.  0.
         24    2    4    4    0    0  0.54384137033E+02 -0.50787915131E+03 -0.52491449306E+03  0.73722893414E+03  0.84097619605E+02 0.  0.
         13    1    3    3    0    0  0.17317146469E+03  0.31230360496E+03 -0.10663416518E+03  0.37268316710E+03  0.00000000000E+00 0. -1.
        -13    1    3    3    0    0  0.20347414609E+03  0.53743972081E+03 -0.85013340539E+02  0.58092206852E+03  0.00000000000E+00 0.  1.
          4    1    6    6  502    0  0.20949681123E+02 -0.82341327749E+02 -0.49598626061E+02  0.98381944999E+02  0.00000000000E+00 0. -1.
          1    1    5    5  503    0 -0.20899296417E+03 -0.19789784469E+03  0.79564020673E+02  0.29861689402E+03  0.00000000000E+00 0. -1.
         -2    1    5    5    0  503 -0.22203678363E+03 -0.14396632977E+03  0.13194293554E+03  0.29569507205E+03  0.00000000000E+00 0.  1.
         -3    1    6    6    0  502  0.33434455910E+02 -0.42553782356E+03 -0.47531586700E+03  0.63884698915E+03  0.00000000000E+00 0.  1.
<mgrwt>
<rscale>  0 0.22286346E+04</rscale>
<asrwt>0</asrwt>
<pdfrwt beam="1">  1        1 0.21463086E+00 0.22286346E+04</pdfrwt>
<pdfrwt beam="2">  1       -1 0.13693008E+00 0.22286346E+04</pdfrwt>
<totfact> 0.31279081E+00</totfact>
</mgrwt>
</event>
<event>
12    1  0.2048318E-007  0.1652828E+04  0.7818608E-02  0.8788735E-01
          2   -1    0    0  501    0  0.00000000000E+00  0.00000000000E+00  0.87719915270E+03  0.87719915270E+03  0.00000000000E+00 0. -1.
         -2   -1    0    0    0  501 -0.00000000000E+00 -0.00000000000E+00 -0.77856859217E+03  0.77856859217E+03  0.00000000000E+00 0.  1.
         23    2    1    2    0    0 -0.38994524453E+03 -0.40998882386E+03  0.64482177414E+02  0.57697535327E+03  0.92706405706E+02 0.  0.
        254    2    1    2    0    0  0.38994524453E+03  0.40998882386E+03  0.34148383115E+02  0.10787923916E+04  0.91786642965E+03 0.  0.
        -24    2    4    4    0    0 -0.11214959422E+03  0.11774588361E+03  0.36370992537E+03  0.40622271504E+03  0.79311788579E+02 0.  0.
         24    2    4    4    0    0  0.50209483875E+03  0.29224294025E+03 -0.32956154225E+03  0.67256967656E+03  0.78955661429E+02 0.  0.
         11    1    3    3    0    0 -0.35921368542E+02 -0.46949836020E+02  0.35743969597E+02  0.69081569052E+02  0.00000000000E+00 0. -1.
        -11    1    3    3    0    0 -0.35402387599E+03 -0.36303898784E+03  0.28738207817E+02  0.50789378422E+03  0.00000000000E+00 0.  1.
          4    1    6    6  502    0  0.98883227424E+02  0.23625942513E+02 -0.51805683316E+02  0.11410480555E+03  0.00000000000E+00 0. -1.
          3    1    5    5  503    0  0.73845427992E+01 -0.55093358158E+01  0.17676997144E+02  0.19933902817E+02  0.00000000000E+00 0. -1.
         -4    1    5    5    0  503 -0.11953413702E+03  0.12325521943E+03  0.34603292822E+03  0.38628881222E+03  0.00000000000E+00 0.  1.
         -3    1    6    6    0  502  0.40321161133E+03  0.26861699773E+03 -0.27775585894E+03  0.55846487101E+03  0.00000000000E+00 0.  1.
<mgrwt>
<rscale>  0 0.16528275E+04</rscale>
<asrwt>0</asrwt>
<pdfrwt beam="1">  1        2 0.13495372E+00 0.16528275E+04</pdfrwt>
<pdfrwt beam="2">  1       -2 0.11977978E+00 0.16528275E+04</pdfrwt>
<totfact> 0.15482642E+01</totfact>
</mgrwt>
</event>
<event>
12    1  0.2048318E-007  0.3175619E+04  0.7818608E-02  0.8195286E-01
         -1   -1    0    0    0  501 -0.00000000000E+00  0.00000000000E+00  0.16698748614E+04  0.16698748614E+04  0.00000000000E+00 0.  1.
          1   -1    0    0  501    0  0.00000000000E+00 -0.00000000000E+00 -0.15097773612E+04  0.15097773612E+04  0.00000000000E+00 0. -1.
         23    2    1    2    0    0  0.12783496770E+04  0.49567466164E+03  0.57423632425E+03  0.14892627218E+04  0.91021049904E+02 0.  0.
        254    2    1    2    0    0 -0.12783496770E+04 -0.49567466164E+03 -0.41413882401E+03  0.16903895008E+04  0.89779420363E+03 0.  0.
        -24    2    4    4    0    0 -0.29079017556E+03 -0.57070335838E+03 -0.16125803393E+03  0.66510967083E+03  0.78137515080E+02 0.  0.
         24    2    4    4    0    0 -0.98755950145E+03  0.75028696739E+02 -0.25288079008E+03  0.10252798300E+04  0.79667820171E+02 0.  0.
         11    1    3    3    0    0  0.11105635866E+04  0.42075663497E+03  0.46428429903E+03  0.12751264785E+04  0.00000000000E+00 0. -1.
        -11    1    3    3    0    0  0.16778609038E+03  0.74918026672E+02  0.10995202522E+03  0.21413624330E+03  0.00000000000E+00 0.  1.
          4    1    6    6  502    0 -0.88705469347E+03  0.91219876560E+02 -0.23068029293E+03  0.92108658259E+03  0.00000000000E+00 0. -1.
          3    1    5    5  503    0 -0.14610340404E+03 -0.34572004459E+03 -0.65515049706E+02  0.38099970556E+03  0.00000000000E+00 0. -1.
         -4    1    5    5    0  503 -0.14468677152E+03 -0.22498331379E+03 -0.95742984229E+02  0.28410996527E+03  0.00000000000E+00 0.  1.
         -3    1    6    6    0  502 -0.10050480798E+03 -0.16191179821E+02 -0.22200497150E+02  0.10419324740E+03  0.00000000000E+00 0.  1.
<mgrwt>
<rscale>  0 0.31756192E+04</rscale>
<asrwt>0</asrwt>
<pdfrwt beam="1">  1        1 0.23227344E+00 0.31756192E+04</pdfrwt>
<pdfrwt beam="2">  1       -1 0.25690382E+00 0.31756192E+04</pdfrwt>
<totfact> 0.33935856E-01</totfact>
</mgrwt>
</event>
<event>
12    1  0.2048318E-007  0.1758189E+04  0.7818608E-02  0.8728855E-01
          2   -1    0    0  501    0  0.00000000000E+00  0.00000000000E+00  0.34385489855E+04  0.34385489855E+04  0.00000000000E+00 0. -1.
         -2   -1    0    0    0  501 -0.00000000000E+00 -0.00000000000E+00 -0.22474808933E+03  0.22474808933E+03  0.00000000000E+00 0.  1.
         23    2    1    2    0    0  0.58852762935E+03 -0.13813078714E+03  0.16702085801E+04  0.17786240591E+04  0.91988900341E+02 0.  0.
        254    2    1    2    0    0 -0.58852762935E+03  0.13813078714E+03  0.15435923161E+04  0.18846730158E+04  0.89658811785E+03 0.  0.
        -24    2    4    4    0    0 -0.47584230914E+03  0.25364747217E+03  0.28909803362E+03  0.61729959298E+03  0.81964450544E+02 0.  0.
         24    2    4    4    0    0 -0.11268532021E+03 -0.11551668502E+03  0.12544942825E+04  0.12673734228E+04  0.80233422041E+02 0.  0.
         11    1    3    3    0    0  0.27529817379E+03 -0.58321465215E+02  0.64633950731E+03  0.70494342788E+03  0.00000000000E+00 0.  1.
        -11    1    3    3    0    0  0.31322945555E+03 -0.79809321929E+02  0.10238690728E+04  0.10736806312E+04  0.00000000000E+00 0. -1.
          2    1    6    6  502    0 -0.10051050780E+03 -0.11828164939E+03  0.12311875731E+04  0.12409334192E+04  0.00000000000E+00 0. -1.
          3    1    5    5  503    0 -0.37259338877E+03  0.15876397549E+03  0.20768564613E+03  0.45515399688E+03  0.00000000000E+00 0. -1.
         -4    1    5    5    0  503 -0.10324892037E+03  0.94883496676E+02  0.81412387494E+02  0.16214559610E+03  0.00000000000E+00 0.  1.
         -1    1    6    6    0  502 -0.12174812411E+02  0.27649643657E+01  0.23306709399E+02  0.26440003559E+02  0.00000000000E+00 0.  1.
<mgrwt>
<rscale>  0 0.17581892E+04</rscale>
<asrwt>0</asrwt>
<pdfrwt beam="1">  1        2 0.52900750E+00 0.17581892E+04</pdfrwt>
<pdfrwt beam="2">  1       -2 0.34576632E-01 0.17581892E+04</pdfrwt>
<totfact> 0.67177636E+00</totfact>
</mgrwt>
</event>
<event>
12    1  0.2048318E-007  0.3275289E+04  0.7818608E-02  0.8169212E-01
          2   -1    0    0  501    0  0.00000000000E+00  0.00000000000E+00  0.16334032164E+04  0.16334032164E+04  0.00000000000E+00 0. -1.
         -2   -1    0    0    0  501 -0.00000000000E+00 -0.00000000000E+00 -0.16418971486E+04  0.16418971486E+04  0.00000000000E+00 0.  1.
         23    2    1    2    0    0  0.14972165433E+04 -0.77710623406E+02  0.20711627373E+03  0.15162126323E+04  0.91144265168E+02 0.  0.
        254    2    1    2    0    0 -0.14972165433E+04  0.77710623406E+02 -0.21561020597E+03  0.17590877327E+04  0.89454210179E+03 0.  0.
        -24    2    4    4    0    0 -0.39509375848E+03 -0.17456349844E+03  0.28142311824E+03  0.52154939249E+03  0.79014583110E+02 0.  0.
         24    2    4    4    0    0 -0.11021227848E+04  0.25227412185E+03 -0.49703332421E+03  0.12375383402E+04  0.78371887429E+02 0.  0.
         13    1    3    3    0    0  0.15973214023E+03 -0.46526176816E+01 -0.58662304014E+01  0.15990752369E+03  0.00000000000E+00 0.  1.
        -13    1    3    3    0    0  0.13374844031E+04 -0.73058005724E+02  0.21298250413E+03  0.13563051086E+04  0.00000000000E+00 0. -1.
          2    1    6    6  502    0 -0.19091839829E+03  0.17701343724E+02 -0.68148693871E+02  0.20348812460E+03  0.00000000000E+00 0. -1.
          3    1    5    5  503    0 -0.13290399945E+03 -0.25001242239E+02  0.11070262664E+03  0.17476729307E+03  0.00000000000E+00 0. -1.
         -4    1    5    5    0  503 -0.26218975903E+03 -0.14956225620E+03  0.17072049160E+03  0.34678209942E+03  0.00000000000E+00 0.  1.
         -1    1    6    6    0  502 -0.91120438652E+03  0.23457277813E+03 -0.42888463034E+03  0.10340502156E+04  0.00000000000E+00 0.  1.
<mgrwt>
<rscale>  0 0.32752894E+04</rscale>
<asrwt>0</asrwt>
<pdfrwt beam="1">  1        2 0.25129280E+00 0.32752894E+04</pdfrwt>
<pdfrwt beam="2">  1       -2 0.25259956E+00 0.32752894E+04</pdfrwt>
<totfact> 0.55374854E-01</totfact>
</mgrwt>
</event>
<event>
12    1  0.2048318E-007  0.1705801E+04  0.7818608E-02  0.8758063E-01
          2   -1    0    0  501    0  0.00000000000E+00  0.00000000000E+00  0.21947899060E+04  0.21947899060E+04  0.00000000000E+00 0. -1.
         -2   -1    0    0    0  501 -0.00000000000E+00 -0.00000000000E+00 -0.33143898656E+03  0.33143898656E+03  0.00000000000E+00 0.  1.
         23    2    1    2    0    0 -0.44069133909E+03  0.19825216577E+03  0.12260756309E+04  0.13210438902E+04  0.91557247207E+02 0.  0.
        254    2    1    2    0    0  0.44069133909E+03 -0.19825216577E+03  0.63727528850E+03  0.12051850023E+04  0.90157546492E+03 0.  0.
        -24    2    4    4    0    0  0.69906064140E+03 -0.22891397389E+03  0.38480785074E+03  0.83391544472E+03  0.79060098411E+02 0.  0.
         24    2    4    4    0    0 -0.25836930230E+03  0.30661808128E+02  0.25246743777E+03  0.37126955762E+03  0.80040205099E+02 0.  0.
         13    1    3    3    0    0 -0.25772062059E+03  0.16446801851E+03  0.77005149753E+03  0.82852215193E+03  0.00000000000E+00 0. -1.
        -13    1    3    3    0    0 -0.18297071850E+03  0.33784147258E+02  0.45602413342E+03  0.49252173830E+03  0.00000000000E+00 0.  1.
          4    1    6    6  502    0 -0.87866542989E+01 -0.19552539371E+01  0.42629442688E+02  0.43569458289E+02  0.00000000000E+00 0. -1.
          1    1    5    5  503    0  0.28693340865E+03 -0.53335835405E+02  0.15331833746E+03  0.32966953899E+03  0.00000000000E+00 0. -1.
         -2    1    5    5    0  503  0.41212723275E+03 -0.17557813849E+03  0.23148951328E+03  0.50424590573E+03  0.00000000000E+00 0.  1.
         -3    1    6    6    0  502 -0.24958264801E+03  0.32617062066E+02  0.20983799508E+03  0.32770009933E+03  0.00000000000E+00 0.  1.
<mgrwt>
<rscale>  0 0.17058006E+04</rscale>
<asrwt>0</asrwt>
<pdfrwt beam="1">  1        2 0.33765998E+00 0.17058006E+04</pdfrwt>
<pdfrwt beam="2">  1       -2 0.50990615E-01 0.17058006E+04</pdfrwt>
<totfact> 0.17984104E+01</totfact>
</mgrwt>
</event>
<event>
12    1  0.2048318E-007  0.2469693E+04  0.7818608E-02  0.8413863E-01
         -1   -1    0    0    0  501 -0.00000000000E+00  0.00000000000E+00  0.60612505024E+03  0.60612505024E+03  0.00000000000E+00 0.  1.
          1   -1    0    0  501    0  0.00000000000E+00 -0.00000000000E+00 -0.25157289766E+04  0.25157289766E+04  0.00000000000E+00 0. -1.
         23    2    1    2    0    0 -0.42985458965E+03 -0.61593269860E+03  0.13140189921E+03  0.76794823503E+03  0.91268697405E+02 0.  0.
        254    2    1    2    0    0  0.42985458965E+03  0.61593269860E+03 -0.20410058256E+04  0.23539057918E+04  0.90056628810E+03 0.  0.
        -24    2    4    4    0    0 -0.23912345642E+02  0.69932545463E+03 -0.12309820519E+04  0.14182703599E+04  0.80908033746E+02 0.  0.
         24    2    4    4    0    0  0.45376693529E+03 -0.83392756033E+02 -0.81002377365E+03  0.93563543189E+03  0.80102210950E+02 0.  0.
         13    1    3    3    0    0 -0.29930135412E+03 -0.35195346929E+03  0.73706345660E+02  0.46785165439E+03  0.00000000000E+00 0.  1.
        -13    1    3    3    0    0 -0.13055323553E+03 -0.26397922931E+03  0.57695553554E+02  0.30009658064E+03  0.00000000000E+00 0. -1.
          2    1    6    6  502    0  0.37599866776E+03 -0.96845512065E+02 -0.64817998084E+03  0.75557351656E+03  0.00000000000E+00 0. -1.
          3    1    5    5  503    0 -0.47545202614E+02  0.60791432483E+03 -0.10538972786E+04  0.12175877162E+04  0.00000000000E+00 0. -1.
         -4    1    5    5    0  503  0.23632856972E+02  0.91411129804E+02 -0.17708477326E+03  0.20068264375E+03  0.00000000000E+00 0.  1.
         -1    1    6    6    0  502  0.77768267531E+02  0.13452756032E+02 -0.16184379282E+03  0.18006191533E+03  0.00000000000E+00 0.  1.
<mgrwt>
<rscale>  0 0.24696934E+04</rscale>
<asrwt>0</asrwt>
<pdfrwt beam="1">  1        1 0.38703523E+00 0.24696934E+04</pdfrwt>
<pdfrwt beam="2">  1       -1 0.93250007E-01 0.24696934E+04</pdfrwt>
<totfact> 0.13132639E+00</totfact>
</mgrwt>
</event>
<event>
12    1  0.2048318E-007  0.2035444E+04  0.7818608E-02  0.8590226E-01
          2   -1    0    0  501    0  0.00000000000E+00  0.00000000000E+00  0.24353800849E+04  0.24353800849E+04  0.00000000000E+00 0.  1.
         -2   -1    0    0    0  501 -0.00000000000E+00 -0.00000000000E+00 -0.42529636363E+03  0.42529636363E+03  0.00000000000E+00 0. -1.
         23    2    1    2    0    0  0.36505924308E+03  0.72315596502E+03  0.69901965496E+03  0.10735928110E+04  0.88035475891E+02 0.  0.
        254    2    1    2    0    0 -0.36505924308E+03 -0.72315596502E+03  0.13110640664E+04  0.17870836376E+04  0.90474092483E+03 0.  0.
        -24    2    4    4    0    0 -0.25638923864E+03 -0.71759991124E+03  0.14207495213E+04  0.16141758396E+04  0.79682899570E+02 0.  0.
         24    2    4    4    0    0 -0.10867000443E+03 -0.55560537800E+01 -0.10968545493E+03  0.17290779806E+03  0.77628396918E+02 0.  0.
         13    1    3    3    0    0  0.28029981728E+03  0.58186059974E+03  0.51074871436E+03  0.82340390715E+03  0.00000000000E+00 0. -1.
        -13    1    3    3    0    0  0.84759425798E+02  0.14129536529E+03  0.18827094060E+03  0.25018890381E+03  0.00000000000E+00 0.  1.
          2    1    6    6  502    0 -0.12893242019E+02 -0.27222948017E+02 -0.71977051588E+01  0.30969849015E+02  0.00000000000E+00 0. -1.
          1    1    5    5  503    0 -0.63320154454E+02 -0.98096592816E+02  0.19569730484E+03  0.22788115017E+03  0.00000000000E+00 0. -1.
         -2    1    5    5    0  503 -0.19306908419E+03 -0.61950331843E+03  0.12250522164E+04  0.13862946894E+04  0.00000000000E+00 0.  1.
         -1    1    6    6    0  502 -0.95776762413E+02  0.21666894237E+02 -0.10248774978E+03  0.14193794904E+03  0.00000000000E+00 0.  1.
<mgrwt>
<rscale>  0 0.20354442E+04</rscale>
<asrwt>0</asrwt>
<pdfrwt beam="1">  1        2 0.37467385E+00 0.20354442E+04</pdfrwt>
<pdfrwt beam="2">  1       -2 0.65430212E-01 0.20354442E+04</pdfrwt>
<totfact> 0.75668114E+00</totfact>
</mgrwt>
</event>
<event>
12    1  0.2048318E-007  0.2278152E+04  0.7818608E-02  0.8486586E-01
          2   -1    0    0  501    0  0.00000000000E+00  0.00000000000E+00  0.25455369390E+04  0.25455369390E+04  0.00000000000E+00 0. -1.
         -2   -1    0    0    0  501 -0.00000000000E+00 -0.00000000000E+00 -0.50971323503E+03  0.50971323503E+03  0.00000000000E+00 0.  1.
         23    2    1    2    0    0 -0.68654265938E+03 -0.50166486651E+03  0.26818197959E+03  0.89626761442E+03  0.91463659728E+02 0.  0.
        254    2    1    2    0    0  0.68654265938E+03  0.50166486651E+03  0.17676417244E+04  0.21589825596E+04  0.90201993633E+03 0.  0.
        -24    2    4    4    0    0  0.10356695008E+03  0.87751113200E+02 -0.81101278375E+02  0.17519631584E+03  0.75431828247E+02 0.  0.
         24    2    4    4    0    0  0.58297570930E+03  0.41391375331E+03  0.18487430028E+04  0.19837862438E+04  0.79824169043E+02 0.  0.
         11    1    3    3    0    0 -0.10379449165E+03 -0.62401464758E+02  0.70806284234E+02  0.14028816481E+03  0.00000000000E+00 0.  1.
        -11    1    3    3    0    0 -0.58274816773E+03 -0.43926340175E+03  0.19737569536E+03  0.75597944961E+03  0.00000000000E+00 0. -1.
          4    1    6    6  502    0  0.12646388407E+03  0.67997077299E+02  0.44864460801E+03  0.47106124951E+03  0.00000000000E+00 0. -1.
          1    1    5    5  503    0  0.82547477738E+02  0.10097051103E+03 -0.69650686915E+02  0.14785245472E+03  0.00000000000E+00 0. -1.
         -2    1    5    5    0  503  0.21019472338E+02 -0.13219397825E+02 -0.11450591460E+02  0.27343861121E+02  0.00000000000E+00 0.  1.
         -3    1    6    6    0  502  0.45651182523E+03  0.34591667601E+03  0.14000983948E+04  0.15127249943E+04  0.00000000000E+00 0.  1.
<mgrwt>
<rscale>  0 0.22781518E+04</rscale>
<asrwt>0</asrwt>
<pdfrwt beam="1">  1        2 0.39162106E+00 0.22781518E+04</pdfrwt>
<pdfrwt beam="2">  1       -2 0.78417423E-01 0.22781518E+04</pdfrwt>
<totfact> 0.43006330E+00</totfact>
</mgrwt>
</event>
<event>
12    1  0.2048318E-007  0.2557134E+04  0.7818608E-02  0.8382909E-01
         -1   -1    0    0    0  501 -0.00000000000E+00  0.00000000000E+00  0.12584887690E+04  0.12584887690E+04  0.00000000000E+00 0.  1.
          1   -1    0    0  501    0  0.00000000000E+00 -0.00000000000E+00 -0.12989658841E+04  0.12989658841E+04  0.00000000000E+00 0. -1.
         23    2    1    2    0    0 -0.91248657342E+02  0.11144412293E+04 -0.40438480683E+02  0.11225870544E+04  0.90889234480E+02 0.  0.
        254    2    1    2    0    0  0.91248657342E+02 -0.11144412293E+04 -0.38634485489E-01  0.14348675987E+04  0.89918821896E+03 0.  0.
        -24    2    4    4    0    0  0.42220162844E+03 -0.84543969583E+03 -0.17970803633E+03  0.96519333988E+03  0.79250934987E+02 0.  0.
         24    2    4    4    0    0 -0.33095297110E+03 -0.26900153351E+03  0.17966940184E+03  0.46967425879E+03  0.80131899384E+02 0.  0.
         11    1    3    3    0    0  0.19696893245E+01  0.14410313106E+03 -0.32563907943E+02  0.14774978902E+03  0.00000000000E+00 0. -1.
        -11    1    3    3    0    0 -0.93218346667E+02  0.97033809828E+03 -0.78745727396E+01  0.97483726541E+03  0.00000000000E+00 0.  1.
          2    1    6    6  502    0 -0.13171119510E+03 -0.11761856232E+03  0.11664337845E+03  0.21163091185E+03  0.00000000000E+00 0. -1.
          3    1    5    5  503    0  0.28175374263E+03 -0.55423729513E+03 -0.80021769862E+02  0.62687130613E+03  0.00000000000E+00 0. -1.
         -4    1    5    5    0  503  0.14044788582E+03 -0.29120240070E+03 -0.99686266464E+02  0.33832203376E+03  0.00000000000E+00 0.  1.
         -1    1    6    6    0  502 -0.19924177601E+03 -0.15138297119E+03  0.63026023387E+02  0.25804334694E+03  0.00000000000E+00 0.  1.
<mgrwt>
<rscale>  0 0.25571343E+04</rscale>
<asrwt>0</asrwt>
<pdfrwt beam="1">  1        1 0.19984090E+00 0.25571343E+04</pdfrwt>
<pdfrwt beam="2">  1       -1 0.19361366E+00 0.25571343E+04</pdfrwt>
<totfact> 0.13352794E+00</totfact>
</mgrwt>
</event>
<event>
12    1  0.3825192E-007  0.3264544E+04  0.7818608E-02  0.8171976E-01
         -2   -1    0    0    0  501 -0.00000000000E+00  0.00000000000E+00  0.15617298554E+04  0.15617298554E+04  0.00000000000E+00 0.  1.
          2   -1    0    0  501    0  0.00000000000E+00 -0.00000000000E+00 -0.17060001175E+04  0.17060001175E+04  0.00000000000E+00 0. -1.
         23    2    1    2    0    0  0.14513673721E+04 -0.22455111765E+03 -0.40564705916E+03  0.15261126566E+04  0.87062338491E+02 0.  0.
        254    2    1    2    0    0 -0.14513673721E+04  0.22455111765E+03  0.26137679713E+03  0.17416173163E+04  0.89890076927E+03 0.  0.
        -24    2    4    4    0    0 -0.15562575882E+04  0.27080646568E+03  0.26237142605E+03  0.16032482640E+04  0.79324700334E+02 0.  0.
         24    2    4    4    0    0  0.10489021611E+03 -0.46255348030E+02 -0.99462891186E+00  0.13836905226E+03  0.77482195881E+02 0.  0.
         13    1    3    3    0    0  0.10563752172E+04 -0.12772891976E+03 -0.31047158139E+03  0.11084384870E+04  0.00000000000E+00 0. -1.
        -13    1    3    3    0    0  0.39499215488E+03 -0.96822197893E+02 -0.95175477768E+02  0.41767416965E+03  0.00000000000E+00 0.  1.
          2    1    6    6  502    0  0.36909166822E+02  0.12846828858E+02  0.22738400123E+02  0.45214626476E+02  0.00000000000E+00 0. -1.
          3    1    5    5  503    0 -0.28065361435E+03  0.31916501736E+02  0.21272992726E+02  0.28326251879E+03  0.00000000000E+00 0. -1.
         -4    1    5    5    0  503 -0.12756039739E+04  0.23888996394E+03  0.24109843332E+03  0.13199857452E+04  0.00000000000E+00 0.  1.
         -1    1    6    6    0  502  0.67981049293E+02 -0.59102176888E+02 -0.23733029035E+02  0.93154425783E+02  0.00000000000E+00 0.  1.
<mgrwt>
<rscale>  0 0.32645437E+04</rscale>
<asrwt>0</asrwt>
<pdfrwt beam="1">  1        2 0.26246156E+00 0.32645437E+04</pdfrwt>
<pdfrwt beam="2">  1       -2 0.24026613E+00 0.32645437E+04</pdfrwt>
<totfact> 0.60157513E-01</totfact>
</mgrwt>
</event>
<event>
12    1  0.2048318E-007  0.1779773E+04  0.7818608E-02  0.8717131E-01
          1   -1    0    0  501    0  0.00000000000E+00  0.00000000000E+00  0.13770856870E+04  0.13770856870E+04  0.00000000000E+00 0. -1.
         -1   -1    0    0    0  501 -0.00000000000E+00 -0.00000000000E+00 -0.57505326664E+03  0.57505326664E+03  0.00000000000E+00 0.  1.
         23    2    1    2    0    0  0.22554239418E+03 -0.42852789871E+03 -0.18857387925E+03  0.52779062416E+03  0.92180819428E+02 0.  0.
        254    2    1    2    0    0 -0.22554239418E+03  0.42852789871E+03  0.99060629961E+03  0.14243483295E+04  0.90164393821E+03 0.  0.
        -24    2    4    4    0    0 -0.26160297322E+03  0.60404581124E+03  0.10294187212E+04  0.12247818489E+04  0.84144019849E+02 0.  0.
         24    2    4    4    0    0  0.36060579041E+02 -0.17551791252E+03 -0.38812421619E+02  0.19956648059E+03  0.78825586742E+02 0.  0.
         11    1    3    3    0    0  0.33980249830E+02 -0.19830255254E+02 -0.20262447862E+01  0.39395457478E+02  0.00000000000E+00 0. -1.
        -11    1    3    3    0    0  0.19156214435E+03 -0.40869764346E+03 -0.18654763446E+03  0.48839516668E+03  0.00000000000E+00 0.  1.
          4    1    6    6  502    0 -0.19565680990E+02 -0.23156147952E+02  0.68159116031E+01  0.31072169406E+02  0.00000000000E+00 0. -1.
          1    1    5    5  503    0 -0.19081128865E+03  0.51669973526E+03  0.83897718339E+03  0.10036285561E+04  0.00000000000E+00 0. -1.
         -4    1    5    5    0  503 -0.70791684568E+02  0.87346075972E+02  0.19044153784E+03  0.22115329282E+03  0.00000000000E+00 0.  1.
         -3    1    6    6    0  502  0.55626260031E+02 -0.15236176457E+03 -0.45628333222E+02  0.16849431118E+03  0.00000000000E+00 0.  1.
<mgrwt>
<rscale>  0 0.17797726E+04</rscale>
<asrwt>0</asrwt>
<pdfrwt beam="1">  1        1 0.21185934E+00 0.17797726E+04</pdfrwt>
<pdfrwt beam="2">  1       -1 0.88469734E-01 0.17797726E+04</pdfrwt>
<totfact> 0.94552432E+00</totfact>
</mgrwt>
</event>
<event>
12    1  0.2048318E-007  0.2181372E+04  0.7818608E-02  0.8526222E-01
         -2   -1    0    0    0  501 -0.00000000000E+00  0.00000000000E+00  0.46444817643E+03  0.46444817643E+03  0.00000000000E+00 0.  1.
          2   -1    0    0  501    0  0.00000000000E+00 -0.00000000000E+00 -0.25613097547E+04  0.25613097547E+04  0.00000000000E+00 0. -1.
         23    2    1    2    0    0  0.38176787994E+03  0.72422902918E+03 -0.13950014535E+04  0.16200875507E+04  0.91652691926E+02 0.  0.
        254    2    1    2    0    0 -0.38176787994E+03 -0.72422902918E+03 -0.70186012476E+03  0.14056703804E+04  0.90169129014E+03 0.  0.
        -24    2    4    4    0    0 -0.27342604623E+03  0.15756195316E+03 -0.20447681263E+03  0.38438664214E+03  0.79716697841E+02 0.  0.
         24    2    4    4    0    0 -0.10834183371E+03 -0.88179098234E+03 -0.49738331214E+03  0.10212837383E+04  0.79605435410E+02 0.  0.
         13    1    3    3    0    0  0.32392629607E+03  0.53952130848E+03 -0.10991497457E+04  0.12665471373E+04  0.00000000000E+00 0. -1.
        -13    1    3    3    0    0  0.57841583867E+02  0.18470772070E+03 -0.29585170779E+03  0.35354041341E+03  0.00000000000E+00 0.  1.
          4    1    6    6  502    0 -0.67141864743E+02 -0.31077385543E+03 -0.20654563739E+03  0.37914313860E+03  0.00000000000E+00 0. -1.
          1    1    5    5  503    0 -0.52657093297E+02  0.29981890180E+02 -0.80791900449E+02  0.10099016978E+03  0.00000000000E+00 0. -1.
         -2    1    5    5    0  503 -0.22076895293E+03  0.12758006298E+03 -0.12368491218E+03  0.28339647236E+03  0.00000000000E+00 0.  1.
         -3    1    6    6    0  502 -0.41199968970E+02 -0.57101712691E+03 -0.29083767475E+03  0.64214059965E+03  0.00000000000E+00 0.  1.
<mgrwt>
<rscale>  0 0.21813717E+04</rscale>
<asrwt>0</asrwt>
<pdfrwt beam="1">  1        2 0.39404765E+00 0.21813717E+04</pdfrwt>
<pdfrwt beam="2">  1       -2 0.71453566E-01 0.21813717E+04</pdfrwt>
<totfact> 0.52172488E+00</totfact>
</mgrwt>
</event>
<event>
12    1  0.2048318E-007  0.1090516E+04  0.7818608E-02  0.9214485E-01
          1   -1    0    0  501    0  0.00000000000E+00  0.00000000000E+00  0.14687322257E+04  0.14687322257E+04  0.00000000000E+00 0. -1.
         -1   -1    0    0    0  501 -0.00000000000E+00 -0.00000000000E+00 -0.20242387224E+03  0.20242387224E+03  0.00000000000E+00 0.  1.
         23    2    1    2    0    0  0.90114572955E+02 -0.51502129286E+02  0.32249835754E+02  0.14051724209E+03  0.89061427325E+02 0.  0.
        254    2    1    2    0    0 -0.90114572955E+02  0.51502129286E+02  0.12340585177E+04  0.15306388558E+04  0.89954531644E+03 0.  0.
        -24    2    4    4    0    0  0.31090325349E+03  0.27313245320E+03  0.74323604828E+03  0.85449071820E+03  0.80575393340E+02 0.  0.
         24    2    4    4    0    0 -0.40101782644E+03 -0.22163032391E+03  0.49082246938E+03  0.67614813761E+03  0.79588378185E+02 0.  0.
         11    1    3    3    0    0  0.63230146368E+01  0.21063445401E+02  0.18659578867E+02  0.28841448122E+02  0.00000000000E+00 0. -1.
        -11    1    3    3    0    0  0.83791558319E+02 -0.72565574687E+02  0.13590256887E+02  0.11167579396E+03  0.00000000000E+00 0.  1.
          2    1    6    6  502    0 -0.11818386005E+03 -0.51199294095E+02  0.18943527360E+03  0.22907316599E+03  0.00000000000E+00 0. -1.
          3    1    5    5  503    0  0.15072925337E+03  0.15471528069E+03  0.31201837360E+03  0.37948859188E+03  0.00000000000E+00 0. -1.
         -4    1    5    5    0  503  0.16017400012E+03  0.11841717251E+03  0.43121767468E+03  0.47500212632E+03  0.00000000000E+00 0.  1.
         -1    1    6    6    0  502 -0.28283396640E+03 -0.17043102981E+03  0.30138719579E+03  0.44707497163E+03  0.00000000000E+00 0.  1.
<mgrwt>
<rscale>  0 0.10905163E+04</rscale>
<asrwt>0</asrwt>
<pdfrwt beam="1">  1        1 0.22595880E+00 0.10905163E+04</pdfrwt>
<pdfrwt beam="2">  1       -1 0.31142135E-01 0.10905163E+04</pdfrwt>
<totfact> 0.65490720E+01</totfact>
</mgrwt>
</event>
<event>
12    1  0.2048318E-007  0.1215547E+04  0.7818608E-02  0.9099356E-01
         -2   -1    0    0    0  501 -0.00000000000E+00  0.00000000000E+00  0.10358979816E+03  0.10358979816E+03  0.00000000000E+00 0.  1.
          2   -1    0    0  501    0  0.00000000000E+00 -0.00000000000E+00 -0.35658776380E+04  0.35658776380E+04  0.00000000000E+00 0. -1.
         23    2    1    2    0    0 -0.23577188772E+02  0.18329073770E+03 -0.13534009274E+04  0.13686674306E+04  0.86052815480E+02 0.  0.
        254    2    1    2    0    0  0.23577188772E+02 -0.18329073770E+03 -0.21088869124E+04  0.23008000055E+04  0.90117993630E+03 0.  0.
        -24    2    4    4    0    0  0.26039929418E+03  0.17854626351E+03 -0.15792063254E+04  0.16123365931E+04  0.77782457411E+02 0.  0.
         24    2    4    4    0    0 -0.23682210541E+03 -0.36183700120E+03 -0.52968058700E+03  0.68846341237E+03  0.80060107895E+02 0.  0.
         13    1    3    3    0    0  0.21215799468E+02  0.12125637032E+03 -0.69294706584E+03  0.70379603121E+03  0.00000000000E+00 0. -1.
        -13    1    3    3    0    0 -0.44792988240E+02  0.62034367380E+02 -0.66045386156E+03  0.66487139943E+03  0.00000000000E+00 0.  1.
          2    1    6    6  502    0 -0.21275610720E+03 -0.26809097604E+03 -0.42914279923E+03  0.54890935018E+03  0.00000000000E+00 0. -1.
          1    1    5    5  503    0  0.58061201895E+02  0.65451184607E+01 -0.34127238525E+03  0.34623804337E+03  0.00000000000E+00 0. -1.
         -2    1    5    5    0  503  0.20233809229E+03  0.17200114505E+03 -0.12379339402E+04  0.12660985498E+04  0.00000000000E+00 0.  1.
         -1    1    6    6    0  502 -0.24065998209E+02 -0.93746025160E+02 -0.10053778777E+03  0.13955406219E+03  0.00000000000E+00 0.  1.
<mgrwt>
<rscale>  0 0.12155469E+04</rscale>
<asrwt>0</asrwt>
<pdfrwt beam="1">  1        2 0.54859649E+00 0.12155469E+04</pdfrwt>
<pdfrwt beam="2">  1       -2 0.15936894E-01 0.12155469E+04</pdfrwt>
<totfact> 0.23419666E+01</totfact>
</mgrwt>
</event>
<event>
12    1  0.2048318E-007  0.2138336E+04  0.7818608E-02  0.8544541E-01
          2   -1    0    0  501    0  0.00000000000E+00  0.00000000000E+00  0.17746554138E+04  0.17746554138E+04  0.00000000000E+00 0. -1.
         -2   -1    0    0    0  501 -0.00000000000E+00 -0.00000000000E+00 -0.64413660077E+03  0.64413660077E+03  0.00000000000E+00 0.  1.
         23    2    1    2    0    0 -0.53036966154E+03 -0.32363644821E+03 -0.23430467108E+03  0.67028731091E+03  0.91399517449E+02 0.  0.
        254    2    1    2    0    0  0.53036966154E+03  0.32363644821E+03  0.13648234841E+04  0.17485047037E+04  0.89916240329E+03 0.  0.
        -24    2    4    4    0    0 -0.23659406585E+02  0.12581125278E+03  0.10787829259E+04  0.10893560758E+04  0.80844417596E+02 0.  0.
         24    2    4    4    0    0  0.55402906812E+03  0.19782519543E+03  0.28604055823E+03  0.65914862788E+03  0.81084501635E+02 0.  0.
         11    1    3    3    0    0 -0.27356980982E+03 -0.17751945486E+03 -0.17056794247E+03  0.36803127679E+03  0.00000000000E+00 0.  1.
        -11    1    3    3    0    0 -0.25679985172E+03 -0.14611699335E+03 -0.63736728611E+02  0.30225603412E+03  0.00000000000E+00 0. -1.
          2    1    6    6  502    0  0.48616857553E+03  0.14355017005E+03  0.24672750543E+03  0.56377388827E+03  0.00000000000E+00 0. -1.
          3    1    5    5  503    0  0.40475912837E+01  0.12347305543E+03  0.89238780389E+03  0.90089842432E+03  0.00000000000E+00 0. -1.
         -4    1    5    5    0  503 -0.27706997868E+02  0.23381973515E+01  0.18639512199E+03  0.18845765148E+03  0.00000000000E+00 0.  1.
         -1    1    6    6    0  502  0.67860492589E+02  0.54275025382E+02  0.39313052799E+02  0.95374739606E+02  0.00000000000E+00 0.  1.
<mgrwt>
<rscale>  0 0.21383363E+04</rscale>
<asrwt>0</asrwt>
<pdfrwt beam="1">  1        2 0.27302391E+00 0.21383363E+04</pdfrwt>
<pdfrwt beam="2">  1       -2 0.99097939E-01 0.21383363E+04</pdfrwt>
<totfact> 0.69101727E+00</totfact>
</mgrwt>
</event>
<event>
12    1  0.2048318E-007  0.1297112E+04  0.7818608E-02  0.9031859E-01
          1   -1    0    0  501    0  0.00000000000E+00  0.00000000000E+00  0.21279908764E+04  0.21279908764E+04  0.00000000000E+00 0. -1.
         -1   -1    0    0    0  501 -0.00000000000E+00 -0.00000000000E+00 -0.19766279552E+03  0.19766279552E+03  0.00000000000E+00 0.  1.
         23    2    1    2    0    0 -0.10249363605E+03  0.17184715435E+03  0.36534703459E+02  0.21934327065E+03  0.82099305314E+02 0.  0.
        254    2    1    2    0    0  0.10249363605E+03 -0.17184715435E+03  0.18937933774E+04  0.21063104013E+04  0.90002986633E+03 0.  0.
        -24    2    4    4    0    0 -0.25974641430E+03  0.13172861807E+03  0.13365208491E+04  0.13702210807E+04  0.79982506588E+02 0.  0.
         24    2    4    4    0    0  0.36224005035E+03 -0.30357577242E+03  0.55727252828E+03  0.73608932054E+03  0.88874705954E+02 0.  0.
         11    1    3    3    0    0 -0.55103471787E+02  0.88547952935E+02 -0.22623125094E+02  0.10671896908E+03  0.00000000000E+00 0.  1.
        -11    1    3    3    0    0 -0.47390164264E+02  0.83299201414E+02  0.59157828553E+02  0.11262430157E+03  0.00000000000E+00 0. -1.
          2    1    6    6  502    0  0.96936549169E+02 -0.45048936413E+02  0.89571789871E+02  0.13946041294E+03  0.00000000000E+00 0. -1.
          3    1    5    5  503    0 -0.10707165597E+03  0.11860088846E+02  0.45408685661E+03  0.46669034119E+03  0.00000000000E+00 0. -1.
         -4    1    5    5    0  503 -0.15267475832E+03  0.11986852922E+03  0.88243399253E+03  0.90353073954E+03  0.00000000000E+00 0.  1.
         -1    1    6    6    0  502  0.26530350118E+03 -0.25852683601E+03  0.46770073841E+03  0.59662890760E+03  0.00000000000E+00 0.  1.
<mgrwt>
<rscale>  0 0.12971116E+04</rscale>
<asrwt>0</asrwt>
<pdfrwt beam="1">  1        1 0.32738320E+00 0.12971116E+04</pdfrwt>
<pdfrwt beam="2">  1       -1 0.30409662E-01 0.12971116E+04</pdfrwt>
<totfact> 0.23929452E+01</totfact>
</mgrwt>
</event>
<event>
12    1  0.2048318E-007  0.1510232E+04  0.7818608E-02  0.8877677E-01
          1   -1    0    0  501    0  0.00000000000E+00  0.00000000000E+00  0.13975116896E+04  0.13975116896E+04  0.00000000000E+00 0. -1.
         -1   -1    0    0    0  501 -0.00000000000E+00 -0.00000000000E+00 -0.40801107748E+03  0.40801107748E+03  0.00000000000E+00 0.  1.
         23    2    1    2    0    0  0.92655734563E+02 -0.46121940665E+03  0.21983926822E+03  0.52722271120E+03  0.91247230841E+02 0.  0.
        254    2    1    2    0    0 -0.92655734563E+02  0.46121940665E+03  0.76966134389E+03  0.12783000559E+04  0.90573948922E+03 0.  0.
        -24    2    4    4    0    0 -0.24745252090E+03  0.68657007854E+03  0.52491352431E+03  0.90246238255E+03  0.79327933730E+02 0.  0.
         24    2    4    4    0    0  0.15479678634E+03 -0.22535067188E+03  0.24474781957E+03  0.37583767331E+03  0.81286475616E+02 0.  0.
         13    1    3    3    0    0  0.21807758446E+02 -0.19365930467E+03  0.45543461592E+02  0.20013423372E+03  0.00000000000E+00 0.  1.
        -13    1    3    3    0    0  0.70847976117E+02 -0.26756010198E+03  0.17429580663E+03  0.32708847748E+03  0.00000000000E+00 0. -1.
          2    1    6    6  502    0  0.12856568100E+03 -0.22401738950E+03  0.22917606460E+03  0.34530362540E+03  0.00000000000E+00 0. -1.
          1    1    5    5  503    0 -0.22321899506E+03  0.65156171017E+03  0.47395719783E+03  0.83605909318E+03  0.00000000000E+00 0. -1.
         -2    1    5    5    0  503 -0.24233525841E+02  0.35008368362E+02  0.50956326481E+02  0.66403289365E+02  0.00000000000E+00 0.  1.
         -1    1    6    6    0  502  0.26231105336E+02 -0.13332823853E+01  0.15571754969E+02  0.30534047911E+02  0.00000000000E+00 0.  1.
<mgrwt>
<rscale>  0 0.15102321E+04</rscale>
<asrwt>0</asrwt>
<pdfrwt beam="1">  1        1 0.21500180E+00 0.15102321E+04</pdfrwt>
<pdfrwt beam="2">  1       -1 0.62770936E-01 0.15102321E+04</pdfrwt>
<totfact> 0.19191748E+01</totfact>
</mgrwt>
</event>
<event>
12    1  0.2048318E-007  0.1119569E+04  0.7818608E-02  0.9186325E-01
         -1   -1    0    0    0  501 -0.00000000000E+00  0.00000000000E+00  0.17249035833E+03  0.17249035833E+03  0.00000000000E+00 0.  1.
          1   -1    0    0  501    0  0.00000000000E+00 -0.00000000000E+00 -0.18166749620E+04  0.18166749620E+04  0.00000000000E+00 0. -1.
         23    2    1    2    0    0 -0.75387101724E+02  0.16374147759E+03 -0.30469401351E+03  0.36549743542E+03  0.90859489550E+02 0.  0.
        254    2    1    2    0    0  0.75387101724E+02 -0.16374147759E+03 -0.13394905901E+04  0.16236678849E+04  0.89975989727E+03 0.  0.
        -24    2    4    4    0    0  0.42186940212E+03 -0.18834524463E+03 -0.39006937134E+03  0.60973905052E+03  0.78612159681E+02 0.  0.
         24    2    4    4    0    0 -0.34648230040E+03  0.24603767044E+02 -0.94942121881E+03  0.10139288344E+04  0.77431909397E+02 0.  0.
         11    1    3    3    0    0 -0.60222202690E+02  0.11642465516E+03 -0.28179099958E+03  0.31078542673E+03  0.00000000000E+00 0. -1.
        -11    1    3    3    0    0 -0.15164899035E+02  0.47316822426E+02 -0.22903013926E+02  0.54712008683E+02  0.00000000000E+00 0.  1.
          4    1    6    6  502    0 -0.21721462869E+03 -0.15982732890E+02 -0.52431981284E+03  0.56775779062E+03  0.00000000000E+00 0. -1.
          1    1    5    5  503    0  0.37303679131E+03 -0.17740037488E+03 -0.31480128561E+03  0.51935266447E+03  0.00000000000E+00 0. -1.
         -2    1    5    5    0  503  0.48832610816E+02 -0.10944869756E+02 -0.75268085731E+02  0.90386386047E+02  0.00000000000E+00 0.  1.
         -3    1    6    6    0  502 -0.12926767171E+03  0.40586499935E+02 -0.42510140596E+03  0.44617104375E+03  0.00000000000E+00 0.  1.
<mgrwt>
<rscale>  0 0.11195694E+04</rscale>
<asrwt>0</asrwt>
<pdfrwt beam="1">  1        1 0.27948844E+00 0.11195694E+04</pdfrwt>
<pdfrwt beam="2">  1       -1 0.26536980E-01 0.11195694E+04</pdfrwt>
<totfact> 0.49983922E+01</totfact>
</mgrwt>
</event>
<event>
12    1  0.2048318E-007  0.1376987E+04  0.7818608E-02  0.8970647E-01
         -2   -1    0    0    0  501 -0.00000000000E+00  0.00000000000E+00  0.32491075190E+03  0.32491075190E+03  0.00000000000E+00 0.  1.
          2   -1    0    0  501    0  0.00000000000E+00 -0.00000000000E+00 -0.14589344964E+04  0.14589344964E+04  0.00000000000E+00 0. -1.
         23    2    1    2    0    0  0.13629671804E+03 -0.20877480572E+03 -0.71026180199E+03  0.75847361944E+03  0.92987575305E+02 0.  0.
        254    2    1    2    0    0 -0.13629671804E+03  0.20877480572E+03 -0.42376194247E+03  0.10253716288E+04  0.89980502247E+03 0.  0.
        -24    2    4    4    0    0 -0.30219103317E+03  0.42757074051E+02  0.18627052081E+03  0.36674333227E+03  0.81586622228E+02 0.  0.
         24    2    4    4    0    0  0.16589431513E+03  0.16601773167E+03 -0.61003246329E+03  0.65862829656E+03  0.81048231002E+02 0.  0.
         13    1    3    3    0    0 -0.14180751471E+02 -0.22857292972E+02 -0.74631881319E+02  0.79331376286E+02  0.00000000000E+00 0.  1.
        -13    1    3    3    0    0  0.15047746951E+03 -0.18591751275E+03 -0.63562992067E+03  0.67914224315E+03  0.00000000000E+00 0. -1.
          4    1    6    6  502    0  0.13833954828E+03  0.84404007809E+02 -0.40724370483E+03  0.43830275185E+03  0.00000000000E+00 0. -1.
          1    1    5    5  503    0 -0.29814732844E+03  0.27218119698E+02  0.18098002360E+03  0.34983771157E+03  0.00000000000E+00 0. -1.
         -2    1    5    5    0  503 -0.40437047327E+01  0.15538954352E+02  0.52904972184E+01  0.16905620697E+02  0.00000000000E+00 0.  1.
         -3    1    6    6    0  502  0.27554766854E+02  0.81613723858E+02 -0.20278875846E+03  0.22032554472E+03  0.00000000000E+00 0.  1.
<mgrwt>
<rscale>  0 0.13769873E+04</rscale>
<asrwt>0</asrwt>
<pdfrwt beam="1">  1        2 0.22445146E+00 0.13769873E+04</pdfrwt>
<pdfrwt beam="2">  1       -2 0.49986270E-01 0.13769873E+04</pdfrwt>
<totfact> 0.49424956E+01</totfact>
</mgrwt>
</event>
<event>
12    1  0.2048318E-007  0.1114031E+04  0.7818608E-02  0.9191623E-01
          2   -1    0    0  501    0  0.00000000000E+00  0.00000000000E+00  0.17509134479E+04  0.17509134479E+04  0.00000000000E+00 0. -1.
         -2   -1    0    0    0  501 -0.00000000000E+00 -0.00000000000E+00 -0.17720253832E+03  0.17720253832E+03  0.00000000000E+00 0.  1.
         23    2    1    2    0    0  0.82996337018E+02  0.60948886149E+02  0.52224855110E+03  0.53999929270E+03  0.90843427420E+02 0.  0.
        254    2    1    2    0    0 -0.82996337018E+02 -0.60948886149E+02  0.10514623584E+04  0.13881166935E+04  0.90038419846E+03 0.  0.
        -24    2    4    4    0    0 -0.25927947580E+03  0.30854688101E+03  0.80416534680E+03  0.90301686592E+03  0.79564632697E+02 0.  0.
         24    2    4    4    0    0  0.17628313879E+03 -0.36949576716E+03  0.24729701164E+03  0.48509982757E+03  0.81013355534E+02 0.  0.
         11    1    3    3    0    0 -0.16705527307E+02  0.61123848185E+01  0.30967132627E+02  0.35712731538E+02  0.00000000000E+00 0.  1.
        -11    1    3    3    0    0  0.99701864325E+02  0.54836501331E+02  0.49128141847E+03  0.50428656116E+03  0.00000000000E+00 0. -1.
          4    1    6    6  502    0  0.14700634838E+03 -0.21752619386E+03  0.15297981682E+03  0.30386071781E+03  0.00000000000E+00 0. -1.
          1    1    5    5  503    0 -0.25812742388E+03  0.27779796634E+03  0.72735528631E+03  0.82027263125E+03  0.00000000000E+00 0. -1.
         -2    1    5    5    0  503 -0.11520519275E+01  0.30748914673E+02  0.76810060495E+02  0.82744234666E+02  0.00000000000E+00 0.  1.
         -3    1    6    6    0  502  0.29276790409E+02 -0.15196957330E+03  0.94317194822E+02  0.18123910976E+03  0.00000000000E+00 0.  1.
<mgrwt>
<rscale>  0 0.11140311E+04</rscale>
<asrwt>0</asrwt>
<pdfrwt beam="1">  1        2 0.26937129E+00 0.11140311E+04</pdfrwt>
<pdfrwt beam="2">  1       -2 0.27261930E-01 0.11140311E+04</pdfrwt>
<totfact> 0.11163965E+02</totfact>
</mgrwt>
</event>
<event>
12    1  0.2048318E-007  0.1467310E+04  0.7818608E-02  0.8906487E-01
         -2   -1    0    0    0  501 -0.00000000000E+00  0.00000000000E+00  0.22190068261E+03  0.22190068261E+03  0.00000000000E+00 0.  1.
          2   -1    0    0  501    0  0.00000000000E+00 -0.00000000000E+00 -0.24256315718E+04  0.24256315718E+04  0.00000000000E+00 0. -1.
         23    2    1    2    0    0 -0.33620968259E+03 -0.29588609293E+03 -0.62709202903E+03  0.77581528900E+03  0.89774267519E+02 0.  0.
        254    2    1    2    0    0  0.33620968259E+03  0.29588609293E+03 -0.15766388601E+04  0.18717169654E+04  0.90385218513E+03 0.  0.
        -24    2    4    4    0    0  0.64596811160E+02 -0.42087313534E+02  0.92739334639E+02  0.14481107402E+03  0.80159671895E+02 0.  0.
         24    2    4    4    0    0  0.27161287143E+03  0.33797340647E+03 -0.16693781948E+04  0.17269058913E+04  0.85911728104E+02 0.  0.
         13    1    3    3    0    0 -0.11859462599E+03 -0.12996415411E+03 -0.31445666670E+03  0.36033090611E+03  0.00000000000E+00 0. -1.
        -13    1    3    3    0    0 -0.21761505660E+03 -0.16592193882E+03 -0.31263536234E+03  0.41548438289E+03  0.00000000000E+00 0.  1.
          2    1    6    6  502    0  0.54405759967E+02  0.13157220669E+03 -0.54250786520E+03  0.56087968059E+03  0.00000000000E+00 0. -1.
          3    1    5    5  503    0  0.23016406836E+02  0.20984286540E+02  0.47362787176E+02  0.56686231788E+02  0.00000000000E+00 0. -1.
         -4    1    5    5    0  503  0.41580404324E+02 -0.63071600074E+02  0.45376547463E+02  0.88124842237E+02  0.00000000000E+00 0.  1.
         -1    1    6    6    0  502  0.21720711146E+03  0.20640119978E+03 -0.11268703295E+04  0.11660262108E+04  0.00000000000E+00 0.  1.
<mgrwt>
<rscale>  0 0.14673095E+04</rscale>
<asrwt>0</asrwt>
<pdfrwt beam="1">  1        2 0.37317409E+00 0.14673095E+04</pdfrwt>
<pdfrwt beam="2">  1       -2 0.34138566E-01 0.14673095E+04</pdfrwt>
<totfact> 0.29981644E+01</totfact>
</mgrwt>
</event>
<event>
12    1  0.2048318E-007  0.2469448E+04  0.7818608E-02  0.8413951E-01
         -2   -1    0    0    0  501 -0.00000000000E+00  0.00000000000E+00  0.69104774493E+03  0.69104774493E+03  0.00000000000E+00 0.  1.
          2   -1    0    0  501    0  0.00000000000E+00 -0.00000000000E+00 -0.22061329117E+04  0.22061329117E+04  0.00000000000E+00 0. -1.
         23    2    1    2    0    0  0.10479187595E+03  0.71157622167E+03  0.26840457150E+03  0.77335181627E+03  0.93327172971E+02 0.  0.
        254    2    1    2    0    0 -0.10479187595E+03 -0.71157622167E+03 -0.17834897383E+04  0.21238288404E+04  0.90138295976E+03 0.  0.
        -24    2    4    4    0    0  0.20104812087E+03 -0.79789447037E+03 -0.13060918592E+04  0.15455964055E+04  0.77047850086E+02 0.  0.
         24    2    4    4    0    0 -0.30583999682E+03  0.86318248696E+02 -0.47739787905E+03  0.57823243488E+03  0.73858446408E+02 0.  0.
         11    1    3    3    0    0  0.35844328501E+02  0.47161661231E+03  0.20670510905E+03  0.51617249733E+03  0.00000000000E+00 0. -1.
        -11    1    3    3    0    0  0.68947547451E+02  0.23995960936E+03  0.61699462445E+02  0.25717931894E+03  0.00000000000E+00 0.  1.
          4    1    6    6  502    0 -0.22621374061E+02 -0.10878248510E+02 -0.55116600134E+02  0.60563210495E+02  0.00000000000E+00 0. -1.
          1    1    5    5  503    0  0.12223487265E+03 -0.33104730756E+03 -0.54668920636E+03  0.65069406966E+03  0.00000000000E+00 0. -1.
         -2    1    5    5    0  503  0.78813248223E+02 -0.46684716281E+03 -0.75940265289E+03  0.89490233586E+03  0.00000000000E+00 0.  1.
         -1    1    6    6    0  502 -0.28321862276E+03  0.97196497206E+02 -0.42228127892E+03  0.51766922438E+03  0.00000000000E+00 0.  1.
<mgrwt>
<rscale>  0 0.24694479E+04</rscale>
<asrwt>0</asrwt>
<pdfrwt beam="1">  1        2 0.33940506E+00 0.24694479E+04</pdfrwt>
<pdfrwt beam="2">  1       -2 0.10631504E+00 0.24694479E+04</pdfrwt>
<totfact> 0.32673256E+00</totfact>
</mgrwt>
</event>
<event>
12    1  0.2048318E-007  0.1208031E+04  0.7818608E-02  0.9105856E-01
          2   -1    0    0  501    0  0.00000000000E+00  0.00000000000E+00  0.10226596918E+04  0.10226596918E+04  0.00000000000E+00 0. -1.
         -2   -1    0    0    0  501 -0.00000000000E+00 -0.00000000000E+00 -0.35675057676E+03  0.35675057676E+03  0.00000000000E+00 0.  1.
         23    2    1    2    0    0  0.35140091775E+02 -0.19986423040E+03 -0.35306542732E+02  0.22419049461E+03  0.88511520560E+02 0.  0.
        254    2    1    2    0    0 -0.35140091775E+02  0.19986423040E+03  0.70121565774E+03  0.11552197739E+04  0.89534841864E+03 0.  0.
        -24    2    4    4    0    0 -0.32252215100E+03 -0.10200668272E+03  0.63759324384E+03  0.72607758386E+03  0.78978553905E+02 0.  0.
         24    2    4    4    0    0  0.28738205922E+03  0.30187091312E+03  0.63622413897E+02  0.42914219007E+03  0.80004447328E+02 0.  0.
         11    1    3    3    0    0  0.63882545824E+02 -0.13781665911E+03 -0.13902903964E+02  0.15253754268E+03  0.00000000000E+00 0. -1.
        -11    1    3    3    0    0 -0.28742454049E+02 -0.62047571290E+02 -0.21403638768E+02  0.71652951930E+02  0.00000000000E+00 0.  1.
          4    1    6    6  502    0  0.16056341101E+03  0.17993862792E+03 -0.25698345821E+01  0.24117446553E+03  0.00000000000E+00 0. -1.
          3    1    5    5  503    0 -0.31919988274E+03 -0.97581882007E+02  0.63848993368E+03  0.72047219534E+03  0.00000000000E+00 0. -1.
         -4    1    5    5    0  503 -0.33222682606E+01 -0.44248007163E+01 -0.89668984129E+00  0.56053885187E+01  0.00000000000E+00 0.  1.
         -1    1    6    6    0  502  0.12681864822E+03  0.12193228520E+03  0.66192248480E+02  0.18796772454E+03  0.00000000000E+00 0.  1.
<mgrwt>
<rscale>  0 0.12080305E+04</rscale>
<asrwt>0</asrwt>
<pdfrwt beam="1">  1        2 0.15733226E+00 0.12080305E+04</pdfrwt>
<pdfrwt beam="2">  1       -2 0.54884705E-01 0.12080305E+04</pdfrwt>
<totfact> 0.75019219E+01</totfact>
</mgrwt>
</event>
<event>
12    1  0.2048318E-007  0.1819085E+04  0.7818608E-02  0.8696215E-01
          1   -1    0    0  501    0  0.00000000000E+00  0.00000000000E+00  0.63046779581E+03  0.63046779581E+03  0.00000000000E+00 0. -1.
         -1   -1    0    0    0  501 -0.00000000000E+00 -0.00000000000E+00 -0.13121493825E+04  0.13121493825E+04  0.00000000000E+00 0.  1.
         23    2    1    2    0    0  0.58203508874E+02 -0.66665376959E+03 -0.39289804558E+03  0.78170303492E+03  0.94211802003E+02 0.  0.
        254    2    1    2    0    0 -0.58203508874E+02  0.66665376959E+03 -0.28878354114E+03  0.11609141434E+04  0.90360988141E+03 0.  0.
        -24    2    4    4    0    0  0.51643348834E+02  0.32854316662E+03 -0.59406177787E+03  0.68504463325E+03  0.75954629939E+02 0.  0.
         24    2    4    4    0    0 -0.10984685771E+03  0.33811060298E+03  0.30527823673E+03  0.47586951016E+03  0.82896784557E+02 0.  0.
         13    1    3    3    0    0 -0.69386018284E+01 -0.42378259651E+03 -0.23207561859E+03  0.48321726588E+03  0.00000000000E+00 0. -1.
        -13    1    3    3    0    0  0.65142110702E+02 -0.24287117308E+03 -0.16082242699E+03  0.29848576905E+03  0.00000000000E+00 0.  1.
          2    1    6    6  502    0 -0.91832080934E+02  0.22840252522E+03  0.16274732053E+03  0.29510597241E+03  0.00000000000E+00 0. -1.
          1    1    5    5  503    0  0.27369641197E+02  0.28046297351E+02 -0.57400691828E+02  0.69502024982E+02  0.00000000000E+00 0. -1.
         -2    1    5    5    0  503  0.24273707638E+02  0.30049686926E+03 -0.53666108604E+03  0.61554260826E+03  0.00000000000E+00 0.  1.
         -1    1    6    6    0  502 -0.18014776774E+02  0.10970807776E+03  0.14253091620E+03  0.18076353775E+03  0.00000000000E+00 0.  1.
<mgrwt>
<rscale>  0 0.18190854E+04</rscale>
<asrwt>0</asrwt>
<pdfrwt beam="1">  1        1 0.96995046E-01 0.18190854E+04</pdfrwt>
<pdfrwt beam="2">  1       -1 0.20186913E+00 0.18190854E+04</pdfrwt>
<totfact> 0.43845802E+00</totfact>
</mgrwt>
</event>
<event>
12    1  0.2048318E-007  0.3114383E+04  0.7818608E-02  0.8211802E-01
         -2   -1    0    0    0  501 -0.00000000000E+00  0.00000000000E+00  0.91928578684E+03  0.91928578684E+03  0.00000000000E+00 0.  1.
          2   -1    0    0  501    0  0.00000000000E+00 -0.00000000000E+00 -0.26377487209E+04  0.26377487209E+04  0.00000000000E+00 0. -1.
         23    2    1    2    0    0 -0.75965273726E+03  0.12063194052E+04 -0.78275278617E+03  0.16288690846E+04  0.90740189121E+02 0.  0.
        254    2    1    2    0    0  0.75965273726E+03 -0.12063194052E+04 -0.93571014787E+03  0.19281654231E+04  0.89999423846E+03 0.  0.
        -24    2    4    4    0    0  0.33688462516E+03 -0.10604920539E+04 -0.31548893502E+03  0.11593659274E+04  0.80383073694E+02 0.  0.
         24    2    4    4    0    0  0.42276811210E+03 -0.14582735134E+03 -0.62022121285E+03  0.76879949564E+03  0.79873766780E+02 0.  0.
         13    1    3    3    0    0 -0.11947687314E+02  0.45635270770E+02 -0.17566371382E+02  0.50337884083E+02  0.00000000000E+00 0. -1.
        -13    1    3    3    0    0 -0.74770504994E+03  0.11606841345E+04 -0.76518641479E+03  0.15785312006E+04  0.00000000000E+00 0.  1.
          4    1    6    6  502    0  0.15335370524E+03 -0.25086786955E+02 -0.26177754839E+03  0.30442435946E+03  0.00000000000E+00 0. -1.
          1    1    5    5  503    0  0.57104175326E+02 -0.28973396509E+03 -0.96218435150E+02  0.31058757965E+03  0.00000000000E+00 0. -1.
         -2    1    5    5    0  503  0.27978044983E+03 -0.77075808881E+03 -0.21927049987E+03  0.84877834780E+03  0.00000000000E+00 0.  1.
         -3    1    6    6    0  502  0.26941440686E+03 -0.12074056439E+03 -0.35844366446E+03  0.46437513618E+03  0.00000000000E+00 0.  1.
<mgrwt>
<rscale>  0 0.31143827E+04</rscale>
<asrwt>0</asrwt>
<pdfrwt beam="1">  1        2 0.40580749E+00 0.31143827E+04</pdfrwt>
<pdfrwt beam="2">  1       -2 0.14142858E+00 0.31143827E+04</pdfrwt>
<totfact> 0.85735274E-01</totfact>
</mgrwt>
</event>
<event>
12    1  0.2048318E-007  0.2215134E+04  0.7818608E-02  0.8512155E-01
         -2   -1    0    0    0  501 -0.00000000000E+00  0.00000000000E+00  0.28929909421E+04  0.28929909421E+04  0.00000000000E+00 0.  1.
          2   -1    0    0  501    0  0.00000000000E+00 -0.00000000000E+00 -0.42402660158E+03  0.42402660158E+03  0.00000000000E+00 0. -1.
         23    2    1    2    0    0 -0.86683622043E+03  0.28861397335E+03  0.84896169307E+03  0.12507186850E+04  0.94118086105E+02 0.  0.
        254    2    1    2    0    0  0.86683622043E+03 -0.28861397335E+03  0.16200026474E+04  0.20662988586E+04  0.90026625886E+03 0.  0.
        -24    2    4    4    0    0  0.81607225652E+03 -0.43399822792E+03  0.79104231776E+03  0.12191238059E+04  0.78654407638E+02 0.  0.
         24    2    4    4    0    0  0.50763963903E+02  0.14538425457E+03  0.82896032966E+03  0.84717505276E+03  0.82563795648E+02 0.  0.
         11    1    3    3    0    0 -0.43035741002E+03  0.17716671588E+03  0.47814785319E+03  0.66724876552E+03  0.00000000000E+00 0.  1.
        -11    1    3    3    0    0 -0.43647881041E+03  0.11144725746E+03  0.37081383988E+03  0.58346991952E+03  0.00000000000E+00 0. -1.
          4    1    6    6  502    0  0.57210052106E+02  0.11608623955E+03  0.48704583509E+03  0.50394707119E+03  0.00000000000E+00 0. -1.
          1    1    5    5  503    0  0.60318032746E+03 -0.34406443108E+03  0.62829191736E+03  0.93646012921E+03  0.00000000000E+00 0. -1.
         -2    1    5    5    0  503  0.21289192906E+03 -0.89933796841E+02  0.16275040039E+03  0.28266367666E+03  0.00000000000E+00 0.  1.
         -3    1    6    6    0  502 -0.64460882032E+01  0.29298015021E+02  0.34191449457E+03  0.34322798157E+03  0.00000000000E+00 0.  1.
<mgrwt>
<rscale>  0 0.22151344E+04</rscale>
<asrwt>0</asrwt>
<pdfrwt beam="1">  1        2 0.65234864E-01 0.22151344E+04</pdfrwt>
<pdfrwt beam="2">  1       -2 0.44507552E+00 0.22151344E+04</pdfrwt>
<totfact> 0.25431108E-01</totfact>
</mgrwt>
</event>
<event>
12    1  0.2048318E-007  0.1371225E+04  0.7818608E-02  0.8974915E-01
         -2   -1    0    0    0  501 -0.00000000000E+00  0.00000000000E+00  0.18649465536E+03  0.18649465536E+03  0.00000000000E+00 0.  1.
          2   -1    0    0  501    0  0.00000000000E+00 -0.00000000000E+00 -0.25205263433E+04  0.25205263433E+04  0.00000000000E+00 0. -1.
         23    2    1    2    0    0 -0.12429026289E+03  0.33839253062E+03 -0.90783750227E+03  0.98132742264E+03  0.94217862788E+02 0.  0.
        254    2    1    2    0    0  0.12429026289E+03 -0.33839253062E+03 -0.14261941857E+04  0.17256935760E+04  0.90223660359E+03 0.  0.
        -24    2    4    4    0    0  0.41503681516E+03 -0.47753324644E+03 -0.89014089646E+03  0.10950162523E+04  0.80101297148E+02 0.  0.
         24    2    4    4    0    0 -0.29074655226E+03  0.13914071581E+03 -0.53605328921E+03  0.63067732375E+03  0.80666358348E+02 0.  0.
         11    1    3    3    0    0 -0.92797166306E+01  0.71157074214E+02 -0.10310193046E+03  0.12561628244E+03  0.00000000000E+00 0.  1.
        -11    1    3    3    0    0 -0.11501054626E+03  0.26723545641E+03 -0.80473557181E+03  0.85571114020E+03  0.00000000000E+00 0. -1.
          2    1    6    6  502    0 -0.16701047608E+03  0.12177998856E+03 -0.35255285783E+03  0.40867637845E+03  0.00000000000E+00 0. -1.
          3    1    5    5  503    0  0.38829586814E+03 -0.45992624766E+03 -0.81363317726E+03  0.10120794345E+04  0.00000000000E+00 0. -1.
         -4    1    5    5    0  503  0.26740947016E+02 -0.17606998775E+02 -0.76507719197E+02  0.82936817819E+02  0.00000000000E+00 0.  1.
         -1    1    6    6    0  502 -0.12373607618E+03  0.17360727252E+02 -0.18350043137E+03  0.22200094530E+03  0.00000000000E+00 0.  1.
<mgrwt>
<rscale>  0 0.13712253E+04</rscale>
<asrwt>0</asrwt>
<pdfrwt beam="1">  1        2 0.38777326E+00 0.13712253E+04</pdfrwt>
<pdfrwt beam="2">  1       -2 0.28691487E-01 0.13712253E+04</pdfrwt>
<totfact> 0.36958440E+01</totfact>
</mgrwt>
</event>
<event>
12    1  0.2048318E-007  0.1166724E+04  0.7818608E-02  0.9142492E-01
         -4   -1    0    0    0  501 -0.00000000000E+00  0.00000000000E+00  0.76535362058E+03  0.76535362058E+03  0.00000000000E+00 0.  1.
          4   -1    0    0  501    0  0.00000000000E+00 -0.00000000000E+00 -0.44464599077E+03  0.44464599077E+03  0.00000000000E+00 0. -1.
         23    2    1    2    0    0  0.17701720936E+03  0.10925244827E+03 -0.13455290205E+02  0.22827418123E+03  0.93042286722E+02 0.  0.
        254    2    1    2    0    0 -0.17701720936E+03 -0.10925244827E+03  0.33416292001E+03  0.98172543012E+03  0.89936020213E+03 0.  0.
        -24    2    4    4    0    0  0.64407102009E+02  0.10569481720E+03 -0.26089816618E+03  0.29967063260E+03  0.80093481348E+02 0.  0.
         24    2    4    4    0    0 -0.24142431137E+03 -0.21494726548E+03  0.59506108619E+03  0.68205479752E+03  0.81320510762E+02 0.  0.
         11    1    3    3    0    0  0.14805687843E+03  0.11305404142E+03 -0.38000891512E+02  0.19012133833E+03  0.00000000000E+00 0. -1.
        -11    1    3    3    0    0  0.28960330928E+02 -0.38015931455E+01  0.24545601307E+02  0.38152842901E+02  0.00000000000E+00 0.  1.
          2    1    6    6  502    0 -0.19995774410E+03 -0.16810076141E+03  0.53479709160E+03  0.59518811698E+03  0.00000000000E+00 0. -1.
          3    1    5    5  503    0  0.25943650822E+02  0.59821763202E+02 -0.21373351974E+03  0.22345857296E+03  0.00000000000E+00 0. -1.
         -4    1    5    5    0  503  0.38463451187E+02  0.45873053999E+02 -0.47164646445E+02  0.76212059641E+02  0.00000000000E+00 0.  1.
         -1    1    6    6    0  502 -0.41466567265E+02 -0.46846504065E+02  0.60263994585E+02  0.86866680535E+02  0.00000000000E+00 0.  1.
<mgrwt>
<rscale>  0 0.11667243E+04</rscale>
<asrwt>0</asrwt>
<pdfrwt beam="1">  1        4 0.68407075E-01 0.11667243E+04</pdfrwt>
<pdfrwt beam="2">  1       -4 0.11774671E+00 0.11667243E+04</pdfrwt>
<totfact> 0.21549127E+00</totfact>
</mgrwt>
</event>
<event>
12    1  0.2048318E-007  0.3236708E+04  0.7818608E-02  0.8179189E-01
         -2   -1    0    0    0  501 -0.00000000000E+00  0.00000000000E+00  0.74095919153E+03  0.74095919153E+03  0.00000000000E+00 0.  1.
          2   -1    0    0  501    0  0.00000000000E+00 -0.00000000000E+00 -0.35347021783E+04  0.35347021783E+04  0.00000000000E+00 0. -1.
         23    2    1    2    0    0 -0.13956643844E+04  0.40923894938E+03 -0.17270505816E+04  0.22597798955E+04  0.92443891535E+02 0.  0.
        254    2    1    2    0    0  0.13956643844E+04 -0.40923894938E+03 -0.10666924052E+04  0.20158814744E+04  0.90032762926E+03 0.  0.
        -24    2    4    4    0    0 -0.65287303777E+01  0.70619704488E+02 -0.35350212976E+03  0.36922014582E+03  0.79561255371E+02 0.  0.
         24    2    4    4    0    0  0.14021931147E+04 -0.47985865387E+03 -0.71319027543E+03  0.16466613286E+04  0.80270189351E+02 0.  0.
         11    1    3    3    0    0 -0.86077578534E+03  0.21455511171E+03 -0.10102672883E+04  0.13444734443E+04  0.00000000000E+00 0.  1.
        -11    1    3    3    0    0 -0.53488859902E+03  0.19468383768E+03 -0.71678329327E+03  0.91530645116E+03  0.00000000000E+00 0. -1.
          2    1    6    6  502    0  0.90931412822E+03 -0.34213204033E+03 -0.49414409496E+03  0.10899930749E+04  0.00000000000E+00 0. -1.
          3    1    5    5  503    0 -0.31777961393E+02  0.55921209047E+02 -0.14427382722E+03  0.15796188677E+03  0.00000000000E+00 0. -1.
         -4    1    5    5    0  503  0.25249231015E+02  0.14698495441E+02 -0.20922830253E+03  0.21125825905E+03  0.00000000000E+00 0.  1.
         -1    1    6    6    0  502  0.49287898651E+03 -0.13772661355E+03 -0.21904618047E+03  0.55666825363E+03  0.00000000000E+00 0.  1.
<mgrwt>
<rscale>  0 0.32367082E+04</rscale>
<asrwt>0</asrwt>
<pdfrwt beam="1">  1        2 0.54380033E+00 0.32367082E+04</pdfrwt>
<pdfrwt beam="2">  1       -2 0.11399372E+00 0.32367082E+04</pdfrwt>
<totfact> 0.38814745E-01</totfact>
</mgrwt>
</event>
<event>
12    1  0.2048318E-007  0.1862982E+04  0.7818608E-02  0.8673505E-01
          2   -1    0    0  501    0  0.00000000000E+00  0.00000000000E+00  0.22938303450E+04  0.22938303450E+04  0.00000000000E+00 0. -1.
         -2   -1    0    0    0  501 -0.00000000000E+00 -0.00000000000E+00 -0.37826507256E+03  0.37826507256E+03  0.00000000000E+00 0.  1.
         23    2    1    2    0    0 -0.40790915454E+03 -0.27166273018E+03 -0.10240841548E+01  0.49820586070E+03  0.89540569381E+02 0.  0.
        254    2    1    2    0    0  0.40790915454E+03  0.27166273018E+03  0.19165893566E+04  0.21738895568E+04  0.90127161624E+03 0.  0.
        -24    2    4    4    0    0  0.19345691904E+02  0.11269941364E+03  0.16788535090E+04  0.16848184580E+04  0.83598552298E+02 0.  0.
         24    2    4    4    0    0  0.38856346263E+03  0.15896331655E+03  0.23773584753E+03  0.48907109884E+03  0.80133051952E+02 0.  0.
         11    1    3    3    0    0 -0.49005357142E+02 -0.71032860482E+01  0.15909184177E+02  0.52010420518E+02  0.00000000000E+00 0.  1.
        -11    1    3    3    0    0 -0.35890379740E+03 -0.26455944413E+03 -0.16933268332E+02  0.44619544019E+03  0.00000000000E+00 0. -1.
          4    1    6    6  502    0  0.37822544161E+03  0.14624562221E+03  0.20952772911E+03  0.45644729812E+03  0.00000000000E+00 0. -1.
          3    1    5    5  503    0  0.48194764322E+02  0.91563528723E+02  0.10978818894E+04  0.11027471416E+04  0.00000000000E+00 0. -1.
         -4    1    5    5    0  503 -0.28849072418E+02  0.21135884913E+02  0.58097161961E+03  0.58207131642E+03  0.00000000000E+00 0.  1.
         -3    1    6    6    0  502  0.10338021020E+02  0.12717694338E+02  0.28208118429E+02  0.32623800716E+02  0.00000000000E+00 0.  1.
<mgrwt>
<rscale>  0 0.18629824E+04</rscale>
<asrwt>0</asrwt>
<pdfrwt beam="1">  1        2 0.35289697E+00 0.18629824E+04</pdfrwt>
<pdfrwt beam="2">  1       -2 0.58194628E-01 0.18629824E+04</pdfrwt>
<totfact> 0.11863687E+01</totfact>
</mgrwt>
</event>
<event>
12    1  0.2048318E-007  0.1890808E+04  0.7818608E-02  0.8659445E-01
         -2   -1    0    0    0  501 -0.00000000000E+00  0.00000000000E+00  0.73762805278E+03  0.73762805278E+03  0.00000000000E+00 0.  1.
          2   -1    0    0  501    0  0.00000000000E+00 -0.00000000000E+00 -0.12117064779E+04  0.12117064779E+04  0.00000000000E+00 0. -1.
         23    2    1    2    0    0  0.93177662068E+01 -0.71902371064E+03 -0.69201909695E+02  0.72807850905E+03  0.90705533494E+02 0.  0.
        254    2    1    2    0    0 -0.93177662068E+01  0.71902371064E+03 -0.40487651538E+03  0.12212560216E+04  0.90025516403E+03 0.  0.
        -24    2    4    4    0    0 -0.17137240255E+03  0.88639892167E+03 -0.30037694066E+03  0.95473688545E+03  0.78896547798E+02 0.  0.
         24    2    4    4    0    0  0.16205463635E+03 -0.16737521104E+03 -0.10449957473E+03  0.26651913615E+03  0.76394518042E+02 0.  0.
         11    1    3    3    0    0  0.33285020556E+02 -0.13127045711E+03  0.27509340615E+01  0.13545254941E+03  0.00000000000E+00 0.  1.
        -11    1    3    3    0    0 -0.23967254349E+02 -0.58775325353E+03 -0.71952843757E+02  0.59262595964E+03  0.00000000000E+00 0. -1.
          4    1    6    6  502    0  0.52212190419E+02 -0.56490355703E+02 -0.75468716986E+02  0.10776270393E+03  0.00000000000E+00 0. -1.
          1    1    5    5  503    0  0.65026029767E+01  0.39691151808E+02 -0.22122847862E+02  0.45903069340E+02  0.00000000000E+00 0. -1.
         -2    1    5    5    0  503 -0.17787500553E+03  0.84670776986E+03 -0.27825409280E+03  0.90883381611E+03  0.00000000000E+00 0.  1.
         -3    1    6    6    0  502  0.10984244593E+03 -0.11088485533E+03 -0.29030857741E+02  0.15875643222E+03  0.00000000000E+00 0.  1.
<mgrwt>
<rscale>  0 0.18908080E+04</rscale>
<asrwt>0</asrwt>
<pdfrwt beam="1">  1        2 0.18641638E+00 0.18908080E+04</pdfrwt>
<pdfrwt beam="2">  1       -2 0.11348124E+00 0.18908080E+04</pdfrwt>
<totfact> 0.10641954E+01</totfact>
</mgrwt>
</event>
<event>
12    1  0.2048318E-007  0.1934676E+04  0.7818608E-02  0.8637786E-01
          2   -1    0    0  501    0  0.00000000000E+00  0.00000000000E+00  0.22877685931E+04  0.22877685931E+04  0.00000000000E+00 0. -1.
         -2   -1    0    0    0  501 -0.00000000000E+00 -0.00000000000E+00 -0.40902006821E+03  0.40902006821E+03  0.00000000000E+00 0.  1.
         23    2    1    2    0    0 -0.21226429891E+03 -0.49967040453E+03  0.14683825482E+04  0.15681495454E+04  0.90658938640E+02 0.  0.
        254    2    1    2    0    0  0.21226429891E+03  0.49967040453E+03  0.41036597674E+03  0.11286391159E+04  0.90038845696E+03 0.  0.
        -24    2    4    4    0    0 -0.29868193753E+03  0.40667056268E+03  0.10789468136E+03  0.52224902564E+03  0.80690372173E+02 0.  0.
         24    2    4    4    0    0  0.51094623644E+03  0.92999841853E+02  0.30247129539E+03  0.60639009031E+03  0.80653765983E+02 0.  0.
         13    1    3    3    0    0 -0.48080362564E+02 -0.14855282282E+03  0.53947361737E+03  0.56161503387E+03  0.00000000000E+00 0. -1.
        -13    1    3    3    0    0 -0.16418393635E+03 -0.35111758172E+03  0.92890893079E+03  0.10065345115E+04  0.00000000000E+00 0.  1.
          4    1    6    6  502    0  0.63329829869E+01 -0.62061447203E+01 -0.15104561427E+01  0.89946864070E+01  0.00000000000E+00 0. -1.
          3    1    5    5  503    0 -0.76458961681E+02  0.16901660095E+03  0.33955599489E+02  0.18858835318E+03  0.00000000000E+00 0. -1.
         -4    1    5    5    0  503 -0.22222297585E+03  0.23765396173E+03  0.73939081867E+02  0.33366067247E+03  0.00000000000E+00 0.  1.
         -3    1    6    6    0  502  0.50461325346E+03  0.99205986573E+02  0.30398175153E+03  0.59739540390E+03  0.00000000000E+00 0.  1.
<mgrwt>
<rscale>  0 0.19346765E+04</rscale>
<asrwt>0</asrwt>
<pdfrwt beam="1">  1        2 0.35196439E+00 0.19346765E+04</pdfrwt>
<pdfrwt beam="2">  1       -2 0.62926166E-01 0.19346765E+04</pdfrwt>
<totfact> 0.10071824E+01</totfact>
</mgrwt>
</event>
<event>
12    1  0.2048318E-007  0.4415473E+04  0.7818608E-02  0.7925604E-01
          1   -1    0    0  501    0  0.00000000000E+00  0.00000000000E+00  0.42362600661E+04  0.42362600661E+04  0.00000000000E+00 0. -1.
         -1   -1    0    0    0  501 -0.00000000000E+00 -0.00000000000E+00 -0.11505670879E+04  0.11505670879E+04  0.00000000000E+00 0.  1.
         23    2    1    2    0    0 -0.22414916266E+03  0.20667998893E+04  0.19538248168E+04  0.28544863528E+04  0.93575072241E+02 0.  0.
        254    2    1    2    0    0  0.22414916266E+03 -0.20667998893E+04  0.11318681614E+04  0.25323408011E+04  0.89984430242E+03 0.  0.
        -24    2    4    4    0    0 -0.23104869740E+03 -0.14472064207E+03  0.19544113838E+03  0.34456153332E+03  0.78726405121E+02 0.  0.
         24    2    4    4    0    0  0.45519786006E+03 -0.19220792473E+04  0.93642702299E+03  0.21877792678E+04  0.88819089286E+02 0.  0.
         11    1    3    3    0    0 -0.52501482092E+02  0.72320311448E+03  0.63173006874E+03  0.96169747331E+03  0.00000000000E+00 0.  1.
        -11    1    3    3    0    0 -0.17164768057E+03  0.13435967749E+04  0.13220947481E+04  0.18927888795E+04  0.00000000000E+00 0. -1.
          2    1    6    6  502    0  0.10261519224E+03 -0.54555538361E+03  0.22966003348E+03  0.60075309840E+03  0.00000000000E+00 0. -1.
          1    1    5    5  503    0 -0.10367863808E+03 -0.40556035784E+02  0.11956229067E+03  0.16336827533E+03  0.00000000000E+00 0. -1.
         -2    1    5    5    0  503 -0.12737005932E+03 -0.10416460628E+03  0.75878847708E+02  0.18119325799E+03  0.00000000000E+00 0.  1.
         -1    1    6    6    0  502  0.35258266782E+03 -0.13765238637E+04  0.70676698950E+03  0.15870261694E+04  0.00000000000E+00 0.  1.
<mgrwt>
<rscale>  0 0.44154734E+04</rscale>
<asrwt>0</asrwt>
<pdfrwt beam="1">  1        1 0.65173231E+00 0.44154734E+04</pdfrwt>
<pdfrwt beam="2">  1       -1 0.17701032E+00 0.44154734E+04</pdfrwt>
<totfact> 0.96325518E-03</totfact>
</mgrwt>
</event>
<event>
12    1  0.2048318E-007  0.1801610E+04  0.7818608E-02  0.8705444E-01
         -2   -1    0    0    0  501 -0.00000000000E+00  0.00000000000E+00  0.66815252091E+03  0.66815252091E+03  0.00000000000E+00 0.  1.
          2   -1    0    0  501    0  0.00000000000E+00 -0.00000000000E+00 -0.12144672296E+04  0.12144672296E+04  0.00000000000E+00 0. -1.
         23    2    1    2    0    0 -0.17019789656E+03 -0.23658280320E+03 -0.83840527852E+03  0.89225662467E+03  0.90883037242E+02 0.  0.
        254    2    1    2    0    0  0.17019789656E+03  0.23658280320E+03  0.29209056986E+03  0.99036312580E+03  0.90031298624E+03 0.  0.
        -24    2    4    4    0    0  0.54598077097E+02  0.40161670795E+03  0.52791202859E+03  0.67032208029E+03  0.79772496998E+02 0.  0.
         24    2    4    4    0    0  0.11559981947E+03 -0.16503390475E+03 -0.23582145873E+03  0.32004104551E+03  0.78835286742E+02 0.  0.
         11    1    3    3    0    0 -0.24741878388E+02 -0.88028808189E+02 -0.18145374969E+03  0.20319127661E+03  0.00000000000E+00 0. -1.
        -11    1    3    3    0    0 -0.14545601818E+03 -0.14855399501E+03 -0.65695152883E+03  0.68906534806E+03  0.00000000000E+00 0.  1.
          4    1    6    6  502    0 -0.21044747416E+01 -0.52986154436E+02 -0.46397751310E+02  0.70460717442E+02  0.00000000000E+00 0. -1.
          3    1    5    5  503    0  0.27897383092E+02  0.15807287279E+03  0.14844798550E+03  0.21863691705E+03  0.00000000000E+00 0. -1.
         -4    1    5    5    0  503  0.26700694005E+02  0.24354383515E+03  0.37946404309E+03  0.45168516325E+03  0.00000000000E+00 0.  1.
         -3    1    6    6    0  502  0.11770429421E+03 -0.11204775031E+03 -0.18942370742E+03  0.24958032807E+03  0.00000000000E+00 0.  1.
<mgrwt>
<rscale>  0 0.18016097E+04</rscale>
<asrwt>0</asrwt>
<pdfrwt beam="1">  1        2 0.18684111E+00 0.18016097E+04</pdfrwt>
<pdfrwt beam="2">  1       -2 0.10279270E+00 0.18016097E+04</pdfrwt>
<totfact> 0.13559374E+01</totfact>
</mgrwt>
</event>
<event>
12    1  0.2048318E-007  0.2472905E+04  0.7818608E-02  0.8412702E-01
         -1   -1    0    0    0  501 -0.00000000000E+00  0.00000000000E+00  0.13380750951E+04  0.13380750951E+04  0.00000000000E+00 0.  1.
          1   -1    0    0  501    0  0.00000000000E+00 -0.00000000000E+00 -0.11425481392E+04  0.11425481392E+04  0.00000000000E+00 0. -1.
         23    2    1    2    0    0  0.37179405846E+03  0.34782347653E+03  0.10297975625E+04  0.11530152775E+04  0.98738126524E+02 0.  0.
        254    2    1    2    0    0 -0.37179405846E+03 -0.34782347653E+03 -0.83427060663E+03  0.13276079567E+04  0.89851179678E+03 0.  0.
        -24    2    4    4    0    0  0.61740791132E+02  0.25811614591E+03 -0.29353511519E+03  0.40373675783E+03  0.80028967904E+02 0.  0.
         24    2    4    4    0    0 -0.43353484959E+03 -0.60593962245E+03 -0.54073549144E+03  0.92387119890E+03  0.77639091944E+02 0.  0.
         11    1    3    3    0    0  0.22172465690E+03  0.26074103331E+03  0.73851280036E+03  0.81397104754E+03  0.00000000000E+00 0.  1.
        -11    1    3    3    0    0  0.15006940156E+03  0.87082443226E+02  0.29128476217E+03  0.33904422997E+03  0.00000000000E+00 0. -1.
          2    1    6    6  502    0 -0.35739042345E+03 -0.53551804534E+03 -0.48551809953E+03  0.80637169880E+03  0.00000000000E+00 0. -1.
          3    1    5    5  503    0  0.17235818488E+02  0.18768307160E+03 -0.16462721011E+03  0.25024813109E+03  0.00000000000E+00 0. -1.
         -4    1    5    5    0  503  0.44504972644E+02  0.70433074309E+02 -0.12890790508E+03  0.15348862674E+03  0.00000000000E+00 0.  1.
         -1    1    6    6    0  502 -0.76144426137E+02 -0.70421577109E+02 -0.55217391908E+02  0.11749950010E+03  0.00000000000E+00 0.  1.
<mgrwt>
<rscale>  0 0.24729053E+04</rscale>
<asrwt>0</asrwt>
<pdfrwt beam="1">  1        1 0.17577664E+00 0.24729053E+04</pdfrwt>
<pdfrwt beam="2">  1       -1 0.20585771E+00 0.24729053E+04</pdfrwt>
<totfact> 0.14393016E+00</totfact>
</mgrwt>
</event>
<event>
12    1  0.2048318E-007  0.2287324E+04  0.7818608E-02  0.8482936E-01
          2   -1    0    0  501    0  0.00000000000E+00  0.00000000000E+00  0.27760873863E+04  0.27760873863E+04  0.00000000000E+00 0. -1.
         -2   -1    0    0    0  501 -0.00000000000E+00 -0.00000000000E+00 -0.47115332140E+03  0.47115332140E+03  0.00000000000E+00 0.  1.
         23    2    1    2    0    0  0.30705702455E+03  0.43334284659E+03 -0.16731258806E+03  0.56272649635E+03  0.81225418157E+02 0.  0.
        254    2    1    2    0    0 -0.30705702455E+03 -0.43334284659E+03  0.24722466530E+04  0.26845142113E+04  0.90141166998E+03 0.  0.
        -24    2    4    4    0    0 -0.44057161121E+03 -0.62452677320E+03  0.21231736324E+04  0.22579194653E+04  0.78721046800E+02 0.  0.
         24    2    4    4    0    0  0.13351458666E+03  0.19118392661E+03  0.34907302052E+03  0.42659474605E+03  0.75852917233E+02 0.  0.
         13    1    3    3    0    0  0.13067721867E+03  0.16487093501E+03 -0.26678711997E+02  0.21206299621E+03  0.00000000000E+00 0. -1.
        -13    1    3    3    0    0  0.17637980588E+03  0.26847191159E+03 -0.14063387607E+03  0.35066350014E+03  0.00000000000E+00 0.  1.
          2    1    6    6  502    0  0.16287325823E+01  0.13415592263E+02  0.65397168293E+02  0.66778892671E+02  0.00000000000E+00 0. -1.
          1    1    5    5  503    0 -0.85564241511E+02 -0.10944270889E+03  0.30533536552E+03  0.33545287507E+03  0.00000000000E+00 0. -1.
         -2    1    5    5    0  503 -0.35500736970E+03 -0.51508406431E+03  0.18178382669E+04  0.19224665902E+04  0.00000000000E+00 0.  1.
         -1    1    6    6    0  502  0.13188585408E+03  0.17776833435E+03  0.28367585223E+03  0.35981585338E+03  0.00000000000E+00 0.  1.
<mgrwt>
<rscale>  0 0.22873240E+04</rscale>
<asrwt>0</asrwt>
<pdfrwt beam="1">  1        2 0.42709036E+00 0.22873240E+04</pdfrwt>
<pdfrwt beam="2">  1       -2 0.72485128E-01 0.22873240E+04</pdfrwt>
<totfact> 0.37372345E+00</totfact>
</mgrwt>
</event>
<event>
12    1  0.2048318E-007  0.2660295E+04  0.7818608E-02  0.8348004E-01
          1   -1    0    0  501    0  0.00000000000E+00  0.00000000000E+00  0.27263620015E+04  0.27263620015E+04  0.00000000000E+00 0. -1.
         -1   -1    0    0    0  501 -0.00000000000E+00 -0.00000000000E+00 -0.64895724259E+03  0.64895724259E+03  0.00000000000E+00 0.  1.
         23    2    1    2    0    0 -0.12560181885E+03 -0.17007087082E+02 -0.56221583288E+03  0.58348418775E+03  0.91115842185E+02 0.  0.
        254    2    1    2    0    0  0.12560181885E+03  0.17007087082E+02  0.26396205918E+04  0.27918350564E+04  0.90037828456E+03 0.  0.
        -24    2    4    4    0    0  0.37256360231E+03  0.77258534987E+02  0.48817548833E+03  0.62391184262E+03  0.78601278383E+02 0.  0.
         24    2    4    4    0    0 -0.24696178346E+03 -0.60251447904E+02  0.21514451035E+04  0.21679232137E+04  0.80960903650E+02 0.  0.
         11    1    3    3    0    0  0.93126789007E+01 -0.33500402038E+01 -0.13274987079E+03  0.13311828181E+03  0.00000000000E+00 0.  1.
        -11    1    3    3    0    0 -0.13491449775E+03 -0.13657046879E+02 -0.42946596209E+03  0.45036590594E+03  0.00000000000E+00 0. -1.
          4    1    6    6  502    0 -0.84228947490E+02  0.18129458122E+02  0.69971492896E+03  0.70499941465E+03  0.00000000000E+00 0. -1.
          1    1    5    5  503    0  0.11508561097E+03  0.27826271063E+02  0.97309636268E+02  0.15325848924E+03  0.00000000000E+00 0. -1.
         -2    1    5    5    0  503  0.25747799134E+03  0.49432263924E+02  0.39086585206E+03  0.47065335338E+03  0.00000000000E+00 0.  1.
         -3    1    6    6    0  502 -0.16273283597E+03 -0.78380906026E+02  0.14517301745E+04  0.14629237991E+04  0.00000000000E+00 0.  1.
<mgrwt>
<rscale>  0 0.26602950E+04</rscale>
<asrwt>0</asrwt>
<pdfrwt beam="1">  1        1 0.41944030E+00 0.26602950E+04</pdfrwt>
<pdfrwt beam="2">  1       -1 0.99839577E-01 0.26602950E+04</pdfrwt>
<totfact> 0.78762335E-01</totfact>
</mgrwt>
</event>
<event>
12    1  0.2048318E-007  0.2592622E+04  0.7818608E-02  0.8370712E-01
         -3   -1    0    0    0  501 -0.00000000000E+00  0.00000000000E+00  0.14970008387E+04  0.14970008387E+04  0.00000000000E+00 0.  1.
          3   -1    0    0  501    0  0.00000000000E+00 -0.00000000000E+00 -0.11225262814E+04  0.11225262814E+04  0.00000000000E+00 0. -1.
         23    2    1    2    0    0  0.83787344870E+03 -0.59062241582E+03 -0.33285366052E+03  0.10816853413E+04  0.91568903993E+02 0.  0.
        254    2    1    2    0    0 -0.83787344870E+03  0.59062241582E+03  0.70732821783E+03  0.15378417788E+04  0.90209610064E+03 0.  0.
        -24    2    4    4    0    0 -0.10262995902E+03  0.20218116031E+03  0.65817295163E+03  0.70067321848E+03  0.79631619114E+02 0.  0.
         24    2    4    4    0    0 -0.73524348968E+03  0.38844125550E+03  0.49155266198E+02  0.83716856032E+03  0.83458732912E+02 0.  0.
         11    1    3    3    0    0  0.17683353274E+03 -0.17212189774E+03 -0.84352119910E+02  0.26078981214E+03  0.00000000000E+00 0. -1.
        -11    1    3    3    0    0  0.66103991596E+03 -0.41850051807E+03 -0.24850154061E+03  0.82089552916E+03  0.00000000000E+00 0.  1.
          2    1    6    6  502    0 -0.14123317024E+02  0.12100195538E+02 -0.10867285411E+02  0.21540211420E+02  0.00000000000E+00 0. -1.
          3    1    5    5  503    0 -0.77092293597E+02  0.17008454981E+03  0.42933665010E+03  0.46819006283E+03  0.00000000000E+00 0. -1.
         -4    1    5    5    0  503 -0.25537665419E+02  0.32096610502E+02  0.22883630154E+03  0.23248315565E+03  0.00000000000E+00 0.  1.
         -1    1    6    6    0  502 -0.72112017266E+03  0.37634105996E+03  0.60022551609E+02  0.81562834890E+03  0.00000000000E+00 0.  1.
<mgrwt>
<rscale>  0 0.25926224E+04</rscale>
<asrwt>0</asrwt>
<pdfrwt beam="1">  1        3 0.17269635E+00 0.25926224E+04</pdfrwt>
<pdfrwt beam="2">  1       -3 0.23030782E+00 0.25926224E+04</pdfrwt>
<totfact> 0.48925687E-02</totfact>
</mgrwt>
</event>
<event>
12    1  0.2048318E-007  0.2217414E+04  0.7818608E-02  0.8511215E-01
         -1   -1    0    0    0  501 -0.00000000000E+00  0.00000000000E+00  0.17832707820E+04  0.17832707820E+04  0.00000000000E+00 0.  1.
          1   -1    0    0  501    0  0.00000000000E+00 -0.00000000000E+00 -0.68931260671E+03  0.68931260671E+03  0.00000000000E+00 0. -1.
         23    2    1    2    0    0  0.22295207763E+03  0.83479295500E+03  0.81532856508E+03  0.11916744264E+04  0.93489908145E+02 0.  0.
        254    2    1    2    0    0 -0.22295207763E+03 -0.83479295500E+03  0.27862961018E+03  0.12809089623E+04  0.90360743870E+03 0.  0.
        -24    2    4    4    0    0  0.20415165436E+03 -0.46143613686E+03 -0.18539464564E+03  0.54366133342E+03  0.81211233542E+02 0.  0.
         24    2    4    4    0    0 -0.42710373199E+03 -0.37335681814E+03  0.46402425582E+03  0.73724762883E+03  0.80016527615E+02 0.  0.
         13    1    3    3    0    0  0.14036563848E+03  0.54101984505E+03  0.58707206447E+03  0.81059150877E+03  0.00000000000E+00 0. -1.
        -13    1    3    3    0    0  0.82586439153E+02  0.29377310995E+03  0.22825650061E+03  0.38108291766E+03  0.00000000000E+00 0.  1.
          2    1    6    6  502    0 -0.17668893444E+03 -0.10988201423E+03  0.14497262787E+03  0.25359436002E+03  0.00000000000E+00 0. -1.
          1    1    5    5  503    0  0.40910810830E+02 -0.59859238961E+02 -0.80457425809E+00  0.72508415177E+02  0.00000000000E+00 0. -1.
         -2    1    5    5    0  503  0.16324084353E+03 -0.40157689790E+03 -0.18459007138E+03  0.47115291825E+03  0.00000000000E+00 0.  1.
         -1    1    6    6    0  502 -0.25041479756E+03 -0.26347480391E+03  0.31905162795E+03  0.48365326881E+03  0.00000000000E+00 0.  1.
<mgrwt>
<rscale>  0 0.22174138E+04</rscale>
<asrwt>0</asrwt>
<pdfrwt beam="1">  1        1 0.10604809E+00 0.22174138E+04</pdfrwt>
<pdfrwt beam="2">  1       -1 0.27434935E+00 0.22174138E+04</pdfrwt>
<totfact> 0.12294110E+00</totfact>
</mgrwt>
</event>
<event>
12    1  0.2048318E-007  0.2527486E+04  0.7818608E-02  0.8393258E-01
         -2   -1    0    0    0  501 -0.00000000000E+00  0.00000000000E+00  0.11320295716E+04  0.11320295716E+04  0.00000000000E+00 0.  1.
          2   -1    0    0  501    0  0.00000000000E+00 -0.00000000000E+00 -0.14107820267E+04  0.14107820267E+04  0.00000000000E+00 0. -1.
         23    2    1    2    0    0 -0.58353680532E+03  0.49415817072E+03  0.67644957981E+03  0.10248141378E+04  0.89176690744E+02 0.  0.
        254    2    1    2    0    0  0.58353680532E+03 -0.49415817072E+03 -0.95520203496E+03  0.15179974605E+04  0.89844190770E+03 0.  0.
        -24    2    4    4    0    0 -0.99602204545E+02 -0.51678215336E+02  0.11124095257E+03  0.17416140061E+03  0.73255763211E+02 0.  0.
         24    2    4    4    0    0  0.68313900986E+03 -0.44247995539E+03 -0.10664429875E+04  0.13438360598E+04  0.78277023196E+02 0.  0.
         11    1    3    3    0    0 -0.11995879898E+02  0.20598444024E+02  0.59450041309E+01  0.24567053239E+02  0.00000000000E+00 0. -1.
        -11    1    3    3    0    0 -0.57154092542E+03  0.47355972670E+03  0.67050457568E+03  0.10002470846E+04  0.00000000000E+00 0.  1.
          2    1    6    6  502    0  0.20318591218E+03 -0.16347867452E+03 -0.38247975072E+03  0.46292607579E+03  0.00000000000E+00 0. -1.
          1    1    5    5  503    0  0.45046085350E+01 -0.26450100827E+02  0.20307981828E+02  0.33649865642E+02  0.00000000000E+00 0. -1.
         -2    1    5    5    0  503 -0.10410681308E+03 -0.25228114509E+02  0.90932970744E+02  0.14051153497E+03  0.00000000000E+00 0.  1.
         -1    1    6    6    0  502  0.47995309768E+03 -0.27900128087E+03 -0.68396323681E+03  0.88090998406E+03  0.00000000000E+00 0.  1.
<mgrwt>
<rscale>  0 0.25274865E+04</rscale>
<asrwt>0</asrwt>
<pdfrwt beam="1">  1        2 0.21704339E+00 0.25274865E+04</pdfrwt>
<pdfrwt beam="2">  1       -2 0.17415839E+00 0.25274865E+04</pdfrwt>
<totfact> 0.25288815E+00</totfact>
</mgrwt>
</event>
<event>
12    1  0.2556707E-007  0.3757193E+04  0.7818608E-02  0.8055404E-01
         -2   -1    0    0    0  501 -0.00000000000E+00  0.00000000000E+00  0.10709238204E+04  0.10709238204E+04  0.00000000000E+00 0.  1.
          2   -1    0    0  501    0  0.00000000000E+00 -0.00000000000E+00 -0.32954019414E+04  0.32954019414E+04  0.00000000000E+00 0. -1.
         23    2    1    2    0    0 -0.52954247810E+03  0.15988378294E+04 -0.16793514236E+04  0.23801712939E+04  0.91085364635E+02 0.  0.
        254    2    1    2    0    0  0.52954247810E+03 -0.15988378294E+04 -0.54512669734E+03  0.19861544679E+04  0.90052696428E+03 0.  0.
        -24    2    4    4    0    0 -0.71160545492E+02 -0.11509143945E+04 -0.35319941910E+03  0.12085654458E+04  0.78821573279E+02 0.  0.
         24    2    4    4    0    0  0.60070302359E+03 -0.44792343487E+03 -0.19192727823E+03  0.77758902208E+03  0.79555521924E+02 0.  0.
         11    1    3    3    0    0 -0.26054358503E+03  0.78200380455E+03 -0.75769926730E+03  0.11196075606E+04  0.00000000000E+00 0.  1.
        -11    1    3    3    0    0 -0.26899889307E+03  0.81683402484E+03 -0.92165215632E+03  0.12605637334E+04  0.00000000000E+00 0. -1.
          4    1    6    6  502    0  0.40178610585E+01 -0.97113139392E+01  0.48437104321E+01  0.11572137083E+02  0.00000000000E+00 0. -1.
          1    1    5    5  503    0  0.12795828730E+02 -0.10367529617E+03 -0.44563114648E+02  0.11357011692E+03  0.00000000000E+00 0. -1.
         -2    1    5    5    0  503 -0.83956374222E+02 -0.10472390984E+04 -0.30863630446E+03  0.10949953289E+04  0.00000000000E+00 0.  1.
         -3    1    6    6    0  502  0.59668516253E+03 -0.43821212093E+03 -0.19677098866E+03  0.76601688499E+03  0.00000000000E+00 0.  1.
<mgrwt>
<rscale>  0 0.37571928E+04</rscale>
<asrwt>0</asrwt>
<pdfrwt beam="1">  1        2 0.50698491E+00 0.37571928E+04</pdfrwt>
<pdfrwt beam="2">  1       -2 0.16475751E+00 0.37571928E+04</pdfrwt>
<totfact> 0.20955151E-01</totfact>
</mgrwt>
</event>
<event>
12    1  0.2048318E-007  0.1957219E+04  0.7818608E-02  0.8626887E-01
          2   -1    0    0  501    0  0.00000000000E+00  0.00000000000E+00  0.22676336164E+04  0.22676336164E+04  0.00000000000E+00 0. -1.
         -2   -1    0    0    0  501 -0.00000000000E+00 -0.00000000000E+00 -0.42232438694E+03  0.42232438694E+03  0.00000000000E+00 0.  1.
         23    2    1    2    0    0  0.75705709292E+03 -0.11990138787E+03  0.79084924320E+03  0.11049120715E+04  0.88748946694E+02 0.  0.
        254    2    1    2    0    0 -0.75705709292E+03  0.11990138787E+03  0.10544599863E+04  0.15850459318E+04  0.90165013094E+03 0.  0.
        -24    2    4    4    0    0  0.32722412263E+02 -0.18068180820E+03  0.57881947951E+03  0.61221214876E+03  0.77814222067E+02 0.  0.
         24    2    4    4    0    0 -0.78977950519E+03  0.30058319607E+03  0.47564050677E+03  0.97283378308E+03  0.77908621115E+02 0.  0.
         13    1    3    3    0    0  0.49325331587E+03 -0.46155306778E+02  0.46786839774E+03  0.68141762787E+03  0.00000000000E+00 0.  1.
        -13    1    3    3    0    0  0.26380377705E+03 -0.73746081093E+02  0.32298084546E+03  0.42349444364E+03  0.00000000000E+00 0. -1.
          4    1    6    6  502    0 -0.13603787563E+03  0.45703693184E+02  0.11503505561E+03  0.18392442795E+03  0.00000000000E+00 0. -1.
          1    1    5    5  503    0 -0.24349555251E+02 -0.69765803835E+02  0.18947386813E+03  0.20337284708E+03  0.00000000000E+00 0. -1.
         -2    1    5    5    0  503  0.57071967514E+02 -0.11091600436E+03  0.38934561138E+03  0.40883930168E+03  0.00000000000E+00 0.  1.
         -3    1    6    6    0  502 -0.65374162955E+03  0.25487950289E+03  0.36060545116E+03  0.78890935513E+03  0.00000000000E+00 0.  1.
<mgrwt>
<rscale>  0 0.19572194E+04</rscale>
<asrwt>0</asrwt>
<pdfrwt beam="1">  1        2 0.34886670E+00 0.19572194E+04</pdfrwt>
<pdfrwt beam="2">  1       -2 0.64972984E-01 0.19572194E+04</pdfrwt>
<totfact> 0.96356151E+00</totfact>
</mgrwt>
</event>
<event>
12    1  0.2048318E-007  0.1375962E+04  0.7818608E-02  0.8971405E-01
         -1   -1    0    0    0  501 -0.00000000000E+00  0.00000000000E+00  0.10460503187E+04  0.10460503187E+04  0.00000000000E+00 0.  1.
          1   -1    0    0  501    0  0.00000000000E+00 -0.00000000000E+00 -0.45248082900E+03  0.45248082900E+03  0.00000000000E+00 0. -1.
         23    2    1    2    0    0  0.25223610793E+03  0.24122151410E+03  0.35349902490E+03  0.50504922368E+03  0.91116874017E+02 0.  0.
        254    2    1    2    0    0 -0.25223610793E+03 -0.24122151410E+03  0.24007046485E+03  0.99348192407E+03  0.89864433029E+03 0.  0.
        -24    2    4    4    0    0 -0.47904747275E+03  0.62772993315E+02  0.33625977632E+03  0.59401223563E+03  0.79705514663E+02 0.  0.
         24    2    4    4    0    0  0.22681136482E+03 -0.30399450742E+03 -0.96189311469E+02  0.39946968844E+03  0.80421344150E+02 0.  0.
         13    1    3    3    0    0  0.74975535561E+02  0.22277777428E+02  0.91065791588E+02  0.12004419477E+03  0.00000000000E+00 0.  1.
        -13    1    3    3    0    0  0.17726057236E+03  0.21894373667E+03  0.26243323331E+03  0.38500502891E+03  0.00000000000E+00 0. -1.
          4    1    6    6  502    0  0.33368378978E+02 -0.94009583318E+02 -0.55059266098E+01  0.99907785979E+02  0.00000000000E+00 0. -1.
          1    1    5    5  503    0 -0.17268900064E+03  0.10447819562E+01  0.82205310801E+02  0.19125975958E+03  0.00000000000E+00 0. -1.
         -2    1    5    5    0  503 -0.30635847210E+03  0.61728211358E+02  0.25405446552E+03  0.40275247604E+03  0.00000000000E+00 0.  1.
         -3    1    6    6    0  502  0.19344298584E+03 -0.20998492410E+03 -0.90683384859E+02  0.29956190247E+03  0.00000000000E+00 0.  1.
<mgrwt>
<rscale>  0 0.13759618E+04</rscale>
<asrwt>0</asrwt>
<pdfrwt beam="1">  1        1 0.69612436E-01 0.13759618E+04</pdfrwt>
<pdfrwt beam="2">  1       -1 0.16093082E+00 0.13759618E+04</pdfrwt>
<totfact> 0.14275236E+01</totfact>
</mgrwt>
</event>
<event>
12    1  0.2048318E-007  0.1162650E+04  0.7818608E-02  0.9146192E-01
         -2   -1    0    0    0  501 -0.00000000000E+00  0.00000000000E+00  0.58051495877E+03  0.58051495877E+03  0.00000000000E+00 0.  1.
          2   -1    0    0  501    0  0.00000000000E+00 -0.00000000000E+00 -0.58213592501E+03  0.58213592501E+03  0.00000000000E+00 0. -1.
         23    2    1    2    0    0  0.17864047636E+03  0.87769691054E+02 -0.55913763021E+02  0.22619803924E+03  0.91778350385E+02 0.  0.
        254    2    1    2    0    0 -0.17864047636E+03 -0.87769691054E+02  0.54292796774E+02  0.93645284453E+03  0.91344418756E+03 0.  0.
        -24    2    4    4    0    0  0.36766521763E+03 -0.72583220622E+02  0.29376536665E+02  0.38444442615E+03  0.80551224200E+02 0.  0.
         24    2    4    4    0    0 -0.54630569399E+03 -0.15186470432E+02  0.24916260109E+02  0.55200841838E+03  0.73565846515E+02 0.  0.
         11    1    3    3    0    0  0.76052181741E+02  0.67650039392E+02  0.10526608081E+02  0.10232923167E+03  0.00000000000E+00 0.  1.
        -11    1    3    3    0    0  0.10258829462E+03  0.20119651663E+02 -0.66440371102E+02  0.12386880757E+03  0.00000000000E+00 0. -1.
          2    1    6    6  502    0 -0.48685733589E+03  0.19806372609E+01  0.46065892148E+01  0.48688315754E+03  0.00000000000E+00 0. -1.
          3    1    5    5  503    0  0.32335453517E+03 -0.89836944225E+02  0.21979037809E+02  0.33632114127E+03  0.00000000000E+00 0. -1.
         -4    1    5    5    0  503  0.44310682462E+02  0.17253723602E+02  0.73974988563E+01  0.48123284881E+02  0.00000000000E+00 0.  1.
         -1    1    6    6    0  502 -0.59448358105E+02 -0.17167107693E+02  0.20309670894E+02  0.65125260842E+02  0.00000000000E+00 0.  1.
<mgrwt>
<rscale>  0 0.11626498E+04</rscale>
<asrwt>0</asrwt>
<pdfrwt beam="1">  1        2 0.89559373E-01 0.11626498E+04</pdfrwt>
<pdfrwt beam="2">  1       -2 0.89309994E-01 0.11626498E+04</pdfrwt>
<totfact> 0.54757974E+01</totfact>
</mgrwt>
</event>
<event>
12    1  0.2048318E-007  0.2689076E+04  0.7818608E-02  0.8338558E-01
          2   -1    0    0  501    0  0.00000000000E+00  0.00000000000E+00  0.22158634767E+04  0.22158634767E+04  0.00000000000E+00 0. -1.
         -2   -1    0    0    0  501 -0.00000000000E+00 -0.00000000000E+00 -0.81583683438E+03  0.81583683438E+03  0.00000000000E+00 0.  1.
         23    2    1    2    0    0 -0.18740106118E+03 -0.11773088820E+04  0.65524053016E+03  0.13632899567E+04  0.89688305699E+02 0.  0.
        254    2    1    2    0    0  0.18740106118E+03  0.11773088820E+04  0.74478611212E+03  0.16684103543E+04  0.89872765408E+03 0.  0.
        -24    2    4    4    0    0  0.29815849342E+03  0.36781341898E+03  0.69679954933E+03  0.84624649236E+03  0.80114390158E+02 0.  0.
         24    2    4    4    0    0 -0.11075743225E+03  0.80949546306E+03  0.47986562790E+02  0.82216386198E+03  0.78106287960E+02 0.  0.
         11    1    3    3    0    0 -0.10159802545E+03 -0.87299699147E+03  0.49796932206E+03  0.10101580825E+04  0.00000000000E+00 0. -1.
        -11    1    3    3    0    0 -0.85803035729E+02 -0.30431189058E+03  0.15727120810E+03  0.35313187421E+03  0.00000000000E+00 0.  1.
          2    1    6    6  502    0  0.20857596944E+01  0.24472050122E+03  0.20037348187E+02  0.24554830366E+03  0.00000000000E+00 0. -1.
          1    1    5    5  503    0  0.87172535604E+02  0.16847566191E+03  0.28909626893E+03  0.34577413485E+03  0.00000000000E+00 0. -1.
         -2    1    5    5    0  503  0.21098595782E+03  0.19933775707E+03  0.40770328040E+03  0.50047235752E+03  0.00000000000E+00 0.  1.
         -1    1    6    6    0  502 -0.11284319194E+03  0.56477496185E+03  0.27949214604E+02  0.57661555832E+03  0.00000000000E+00 0.  1.
<mgrwt>
<rscale>  0 0.26890765E+04</rscale>
<asrwt>0</asrwt>
<pdfrwt beam="1">  1        2 0.34090207E+00 0.26890765E+04</pdfrwt>
<pdfrwt beam="2">  1       -2 0.12551336E+00 0.26890765E+04</pdfrwt>
<totfact> 0.21077960E+00</totfact>
</mgrwt>
</event>
<event>
12    1  0.2048318E-007  0.1950665E+04  0.7818608E-02  0.8630040E-01
         -1   -1    0    0    0  501 -0.00000000000E+00  0.00000000000E+00  0.16683619193E+04  0.16683619193E+04  0.00000000000E+00 0.  1.
          1   -1    0    0  501    0  0.00000000000E+00 -0.00000000000E+00 -0.57018405508E+03  0.57018405508E+03  0.00000000000E+00 0. -1.
         23    2    1    2    0    0 -0.18905989219E+03  0.31420770992E+03  0.12018150506E+04  0.12599207041E+04  0.92577734050E+02 0.  0.
        254    2    1    2    0    0  0.18905989219E+03 -0.31420770992E+03 -0.10363718642E+03  0.97862527029E+03  0.90138594699E+03 0.  0.
        -24    2    4    4    0    0  0.70474331625E+01  0.30537073090E+03 -0.89182564957E+02  0.32778026812E+03  0.78647470839E+02 0.  0.
         24    2    4    4    0    0  0.18201245903E+03 -0.61957844083E+03 -0.14454621459E+02  0.65084500217E+03  0.79901822234E+02 0.  0.
         11    1    3    3    0    0 -0.15710447864E+03  0.26563374739E+03  0.11020804831E+04  0.11444756425E+04  0.00000000000E+00 0.  1.
        -11    1    3    3    0    0 -0.31955413549E+02  0.48573962528E+02  0.99734567502E+02  0.11544506159E+03  0.00000000000E+00 0. -1.
          4    1    6    6  502    0  0.42348999959E+02 -0.60951940796E+02 -0.10881625435E+02  0.75013243207E+02  0.00000000000E+00 0. -1.
          3    1    5    5  503    0 -0.33029764134E+02  0.17201253541E+03 -0.62667701541E+02  0.18602827332E+03  0.00000000000E+00 0. -1.
         -4    1    5    5    0  503  0.40077197296E+02  0.13335819549E+03 -0.26514863415E+02  0.14175199480E+03  0.00000000000E+00 0.  1.
         -3    1    6    6    0  502  0.13966345907E+03 -0.55862650003E+03 -0.35729960238E+01  0.57583175897E+03  0.00000000000E+00 0.  1.
<mgrwt>
<rscale>  0 0.19506649E+04</rscale>
<asrwt>0</asrwt>
<pdfrwt beam="1">  1        1 0.87720624E-01 0.19506649E+04</pdfrwt>
<pdfrwt beam="2">  1       -1 0.25667106E+00 0.19506649E+04</pdfrwt>
<totfact> 0.21655111E+00</totfact>
</mgrwt>
</event>
<event>
12    1  0.2048318E-007  0.1430315E+04  0.7818608E-02  0.8932163E-01
          1   -1    0    0  501    0  0.00000000000E+00  0.00000000000E+00  0.18222266634E+04  0.18222266634E+04  0.00000000000E+00 0. -1.
         -1   -1    0    0    0  501 -0.00000000000E+00 -0.00000000000E+00 -0.28067324296E+03  0.28067324296E+03  0.00000000000E+00 0.  1.
         23    2    1    2    0    0 -0.25980080425E+03 -0.13018644016E+03  0.92819722129E+03  0.97700167450E+03  0.92397095610E+02 0.  0.
        254    2    1    2    0    0  0.25980080425E+03  0.13018644016E+03  0.61335619917E+03  0.11258982319E+04  0.89832958004E+03 0.  0.
        -24    2    4    4    0    0  0.10261126258E+03 -0.37714086897E+03  0.19107813182E+03  0.44242726570E+03  0.80415960594E+02 0.  0.
         24    2    4    4    0    0  0.15718954167E+03  0.50732730913E+03  0.42227806734E+03  0.68347096617E+03  0.82001492928E+02 0.  0.
         13    1    3    3    0    0 -0.19542531853E+03 -0.52936155464E+02  0.66961119337E+03  0.69955160065E+03  0.00000000000E+00 0. -1.
        -13    1    3    3    0    0 -0.64375485718E+02 -0.77250284699E+02  0.25858602792E+03  0.27745007385E+03  0.00000000000E+00 0.  1.
          2    1    6    6  502    0  0.57611441209E+02  0.10766000712E+03  0.65584965765E+02  0.13860426770E+03  0.00000000000E+00 0. -1.
          1    1    5    5  503    0 -0.54887083588E+01 -0.11745398970E+03  0.62206515872E+02  0.13302336724E+03  0.00000000000E+00 0. -1.
         -2    1    5    5    0  503  0.10809997094E+03 -0.25968687927E+03  0.12887161595E+03  0.30940389846E+03  0.00000000000E+00 0.  1.
         -1    1    6    6    0  502  0.99578100458E+02  0.39966730202E+03  0.35669310158E+03  0.54486669847E+03  0.00000000000E+00 0.  1.
<mgrwt>
<rscale>  0 0.14303150E+04</rscale>
<asrwt>0</asrwt>
<pdfrwt beam="1">  1        1 0.28034256E+00 0.14303150E+04</pdfrwt>
<pdfrwt beam="2">  1       -1 0.43180500E-01 0.14303150E+04</pdfrwt>
<totfact> 0.20250400E+01</totfact>
</mgrwt>
</event>
<event>
12    1  0.2048318E-007  0.2078260E+04  0.7818608E-02  0.8570881E-01
         -1   -1    0    0    0  501 -0.00000000000E+00  0.00000000000E+00  0.87421058498E+03  0.87421058498E+03  0.00000000000E+00 0.  1.
          1   -1    0    0  501    0  0.00000000000E+00 -0.00000000000E+00 -0.12351619227E+04  0.12351619227E+04  0.00000000000E+00 0. -1.
         23    2    1    2    0    0  0.67766721604E+03  0.27563605976E+03 -0.56839953470E+03  0.93054666383E+03  0.87355419881E+02 0.  0.
        254    2    1    2    0    0 -0.67766721604E+03 -0.27563605976E+03  0.20744819693E+03  0.11788258439E+04  0.90077051609E+03 0.  0.
        -24    2    4    4    0    0 -0.27160229995E+03  0.31649237754E+03  0.16233282365E+03  0.45503765749E+03  0.82292707612E+02 0.  0.
         24    2    4    4    0    0 -0.40606491610E+03 -0.59212843729E+03  0.45115373279E+02  0.72378818640E+03  0.79555889305E+02 0.  0.
         11    1    3    3    0    0  0.36270465047E+03  0.18787755202E+03 -0.28771038229E+03  0.49962976503E+03  0.00000000000E+00 0.  1.
        -11    1    3    3    0    0  0.31496256557E+03  0.87758507735E+02 -0.28068915241E+03  0.43091689880E+03  0.00000000000E+00 0. -1.
          2    1    6    6  502    0 -0.28396798579E+03 -0.45958336735E+03  0.56715169577E+02  0.54320465660E+03  0.00000000000E+00 0. -1.
          1    1    5    5  503    0 -0.12413888767E+03  0.14396432159E+03  0.30384678116E+02  0.19250822836E+03  0.00000000000E+00 0. -1.
         -2    1    5    5    0  503 -0.14746341228E+03  0.17252805594E+03  0.13194814554E+03  0.26252942913E+03  0.00000000000E+00 0.  1.
         -1    1    6    6    0  502 -0.12209693031E+03 -0.13254506994E+03 -0.11599796298E+02  0.18058352979E+03  0.00000000000E+00 0.  1.
<mgrwt>
<rscale>  0 0.20782605E+04</rscale>
<asrwt>0</asrwt>
<pdfrwt beam="1">  1        1 0.19002491E+00 0.20782605E+04</pdfrwt>
<pdfrwt beam="2">  1       -1 0.13449394E+00 0.20782605E+04</pdfrwt>
<totfact> 0.43172100E+00</totfact>
</mgrwt>
</event>
<event>
12    1  0.2048318E-007  0.1851290E+04  0.7818608E-02  0.8679490E-01
          1   -1    0    0  501    0  0.00000000000E+00  0.00000000000E+00  0.21676229382E+04  0.21676229382E+04  0.00000000000E+00 0. -1.
         -1   -1    0    0    0  501 -0.00000000000E+00 -0.00000000000E+00 -0.39528029917E+03  0.39528029917E+03  0.00000000000E+00 0.  1.
         23    2    1    2    0    0  0.51233881729E+03  0.19662610817E+03  0.70540682973E+02  0.56091063181E+03  0.92151282172E+02 0.  0.
        254    2    1    2    0    0 -0.51233881729E+03 -0.19662610817E+03  0.17018019560E+04  0.20019926055E+04  0.90038414297E+03 0.  0.
        -24    2    4    4    0    0 -0.68969027839E+03 -0.14804065419E+03  0.16486995773E+04  0.17949503549E+04  0.77767378657E+02 0.  0.
         24    2    4    4    0    0  0.17735146110E+03 -0.48585453980E+02  0.53102378760E+02  0.20704225059E+03  0.78946461646E+02 0.  0.
         11    1    3    3    0    0  0.26708026845E+03  0.13599135526E+03  0.72115052859E+02  0.30826303597E+03  0.00000000000E+00 0.  1.
        -11    1    3    3    0    0  0.24525854884E+03  0.60634752915E+02 -0.15743698859E+01  0.25264759583E+03  0.00000000000E+00 0. -1.
          4    1    6    6  502    0  0.17816157130E+03 -0.55428046510E+02  0.61241618266E+02  0.19637807830E+03  0.00000000000E+00 0. -1.
          3    1    5    5  503    0 -0.27090435685E+03 -0.44015326597E+02  0.73217647340E+03  0.78192640813E+03  0.00000000000E+00 0. -1.
         -4    1    5    5    0  503 -0.41878592154E+03 -0.10402532760E+03  0.91652310386E+03  0.10130239468E+04  0.00000000000E+00 0.  1.
         -3    1    6    6    0  502 -0.81011019390E+00  0.68425925307E+01 -0.81392395052E+01  0.10664172297E+02  0.00000000000E+00 0.  1.
<mgrwt>
<rscale>  0 0.18512900E+04</rscale>
<asrwt>0</asrwt>
<pdfrwt beam="1">  1        1 0.33348044E+00 0.18512900E+04</pdfrwt>
<pdfrwt beam="2">  1       -1 0.60812355E-01 0.18512900E+04</pdfrwt>
<totfact> 0.59068403E+00</totfact>
</mgrwt>
</event>
<event>
12    1  0.2048318E-007  0.1648545E+04  0.7818608E-02  0.8791268E-01
          2   -1    0    0  501    0  0.00000000000E+00  0.00000000000E+00  0.20211927646E+04  0.20211927646E+04  0.00000000000E+00 0. -1.
         -2   -1    0    0    0  501 -0.00000000000E+00 -0.00000000000E+00 -0.33615048639E+03  0.33615048639E+03  0.00000000000E+00 0.  1.
         23    2    1    2    0    0 -0.26013676933E+03  0.20548515504E+03  0.12677102400E+04  0.13140688133E+04  0.98956079652E+02 0.  0.
        254    2    1    2    0    0  0.26013676933E+03 -0.20548515504E+03  0.41733203819E+03  0.10432744377E+04  0.89686132405E+03 0.  0.
        -24    2    4    4    0    0 -0.26087800297E+03  0.15081834657E+03  0.72779359455E+02  0.31988235330E+03  0.78894731716E+02 0.  0.
         24    2    4    4    0    0  0.52101477230E+03 -0.35630350161E+03  0.34455267874E+03  0.72339208441E+03  0.78555592644E+02 0.  0.
         13    1    3    3    0    0 -0.37821156011E+02  0.63012907863E+02  0.41343964356E+03  0.41992071307E+03  0.00000000000E+00 0. -1.
        -13    1    3    3    0    0 -0.22231561332E+03  0.14247224717E+03  0.85427059646E+03  0.89414810021E+03  0.00000000000E+00 0.  1.
          2    1    6    6  502    0  0.30630116154E+03 -0.25525252757E+03  0.22019099105E+03  0.45547593453E+03  0.00000000000E+00 0. -1.
          3    1    5    5  503    0 -0.11060323973E+02  0.32741226577E+02  0.14547850039E+02  0.37496114798E+02  0.00000000000E+00 0. -1.
         -4    1    5    5    0  503 -0.24981767900E+03  0.11807712000E+03  0.58231509416E+02  0.28238623850E+03  0.00000000000E+00 0.  1.
         -1    1    6    6    0  502  0.21471361077E+03 -0.10105097404E+03  0.12436168769E+03  0.26791614988E+03  0.00000000000E+00 0.  1.
<mgrwt>
<rscale>  0 0.16485447E+04</rscale>
<asrwt>0</asrwt>
<pdfrwt beam="1">  1        2 0.31095273E+00 0.16485447E+04</pdfrwt>
<pdfrwt beam="2">  1       -2 0.51715461E-01 0.16485447E+04</pdfrwt>
<totfact> 0.21941189E+01</totfact>
</mgrwt>
</event>
<event>
12    1  0.2048318E-007  0.1819123E+04  0.7818608E-02  0.8696196E-01
         -2   -1    0    0    0  501 -0.00000000000E+00  0.00000000000E+00  0.44044625639E+03  0.44044625639E+03  0.00000000000E+00 0.  1.
          2   -1    0    0  501    0  0.00000000000E+00 -0.00000000000E+00 -0.18783266459E+04  0.18783266459E+04  0.00000000000E+00 0. -1.
         23    2    1    2    0    0 -0.54347026541E+03  0.35932922142E+03 -0.28393014504E+03  0.71649391528E+03  0.90938356181E+02 0.  0.
        254    2    1    2    0    0  0.54347026541E+03 -0.35932922142E+03 -0.11539502445E+04  0.16022789870E+04  0.90067717122E+03 0.  0.
        -24    2    4    4    0    0  0.49331865158E+03  0.20351680024E+03 -0.52363320229E+03  0.75175866968E+03  0.78530165711E+02 0.  0.
         24    2    4    4    0    0  0.50151613832E+02 -0.56284602166E+03 -0.63031704218E+03  0.85052031733E+03  0.82306792314E+02 0.  0.
         13    1    3    3    0    0 -0.25224027256E+03  0.12017550371E+03 -0.96380982377E+02  0.29556150046E+03  0.00000000000E+00 0. -1.
        -13    1    3    3    0    0 -0.29122999285E+03  0.23915371771E+03 -0.18754916266E+03  0.42093241482E+03  0.00000000000E+00 0.  1.
          4    1    6    6  502    0 -0.16755554611E+02 -0.17839743559E+03 -0.16918885803E+03  0.24643713867E+03  0.00000000000E+00 0. -1.
          3    1    5    5  503    0  0.29289525704E+02  0.11495579943E+02 -0.90557530418E+01  0.32741889642E+02  0.00000000000E+00 0. -1.
         -4    1    5    5    0  503  0.46402912587E+03  0.19202122030E+03 -0.51457744925E+03  0.71901678004E+03  0.00000000000E+00 0.  1.
         -3    1    6    6    0  502  0.66907168442E+02 -0.38444858607E+03 -0.46112818415E+03  0.60408317866E+03  0.00000000000E+00 0.  1.
<mgrwt>
<rscale>  0 0.18191228E+04</rscale>
<asrwt>0</asrwt>
<pdfrwt beam="1">  1        2 0.28897333E+00 0.18191228E+04</pdfrwt>
<pdfrwt beam="2">  1       -2 0.67760964E-01 0.18191228E+04</pdfrwt>
<totfact> 0.14682400E+01</totfact>
</mgrwt>
</event>
<event>
12    1  0.2048318E-007  0.2720834E+04  0.7818608E-02  0.8328276E-01
          1   -1    0    0  501    0  0.00000000000E+00  0.00000000000E+00  0.20682062087E+04  0.20682062087E+04  0.00000000000E+00 0. -1.
         -1   -1    0    0    0  501 -0.00000000000E+00 -0.00000000000E+00 -0.89485030516E+03  0.89485030516E+03  0.00000000000E+00 0.  1.
         23    2    1    2    0    0 -0.30842406456E+03 -0.11574226125E+04  0.70552862750E+03  0.13930373774E+04  0.89610172676E+02 0.  0.
        254    2    1    2    0    0  0.30842406456E+03  0.11574226125E+04  0.46782727606E+03  0.15700191365E+04  0.90074703507E+03 0.  0.
        -24    2    4    4    0    0  0.45151978077E+02  0.90440506553E+03  0.68441797103E+03  0.11379448662E+04  0.80643262036E+02 0.  0.
         24    2    4    4    0    0  0.26327208648E+03  0.25301754698E+03 -0.21659069496E+03  0.43207427032E+03  0.80290568113E+02 0.  0.
         13    1    3    3    0    0 -0.11681619573E+03 -0.46633341260E+03  0.33377703579E+03  0.58525206955E+03  0.00000000000E+00 0. -1.
        -13    1    3    3    0    0 -0.19160786883E+03 -0.69108919991E+03  0.37175159171E+03  0.80778530784E+03  0.00000000000E+00 0.  1.
          4    1    6    6  502    0  0.22181455724E+03  0.23438340546E+03 -0.16214134412E+03  0.36114691475E+03  0.00000000000E+00 0. -1.
          1    1    5    5  503    0 -0.14567143598E+02  0.49502119550E+03  0.36215651939E+03  0.61352712263E+03  0.00000000000E+00 0. -1.
         -2    1    5    5    0  503  0.59719121675E+02  0.40938387003E+03  0.32226145163E+03  0.52441774354E+03  0.00000000000E+00 0.  1.
         -3    1    6    6    0  502  0.41457529237E+02  0.18634141517E+02 -0.54449350846E+02  0.70927355569E+02  0.00000000000E+00 0.  1.
<mgrwt>
<rscale>  0 0.27208344E+04</rscale>
<asrwt>0</asrwt>
<pdfrwt beam="1">  1        1 0.31818557E+00 0.27208344E+04</pdfrwt>
<pdfrwt beam="2">  1       -1 0.13766928E+00 0.27208344E+04</pdfrwt>
<totfact> 0.10222225E+00</totfact>
</mgrwt>
</event>
<event>
12    1  0.2048318E-007  0.2891072E+04  0.7818608E-02  0.8275539E-01
         -1   -1    0    0    0  501 -0.00000000000E+00  0.00000000000E+00  0.20905705293E+04  0.20905705293E+04  0.00000000000E+00 0.  1.
          1   -1    0    0  501    0  0.00000000000E+00 -0.00000000000E+00 -0.99952320765E+03  0.99952320765E+03  0.00000000000E+00 0. -1.
         23    2    1    2    0    0 -0.34354878454E+03  0.76095159934E+03  0.15620937981E+04  0.17735142217E+04  0.90236116138E+02 0.  0.
        254    2    1    2    0    0  0.34354878454E+03 -0.76095159934E+03 -0.47104647645E+03  0.13165795152E+04  0.90245428307E+03 0.  0.
        -24    2    4    4    0    0  0.32054763717E+03 -0.92527167120E+02 -0.54017268416E+03  0.63988531676E+03  0.79715905198E+02 0.  0.
         24    2    4    4    0    0  0.23001147371E+02 -0.66842443222E+03  0.69126207708E+02  0.67669419846E+03  0.76264875766E+02 0.  0.
         13    1    3    3    0    0 -0.12336165928E+03  0.22228777183E+03  0.55327998335E+03  0.60889136343E+03  0.00000000000E+00 0.  1.
        -13    1    3    3    0    0 -0.22018712526E+03  0.53866382751E+03  0.10088138147E+04  0.11646228583E+04  0.00000000000E+00 0. -1.
          2    1    6    6  502    0  0.51095389779E+02 -0.40251876468E+03  0.39132771392E+02  0.40763153530E+03  0.00000000000E+00 0. -1.
          1    1    5    5  503    0  0.23606258965E+03 -0.44148592755E+02 -0.43266432971E+03  0.49484650820E+03  0.00000000000E+00 0. -1.
         -2    1    5    5    0  503  0.84485047516E+02 -0.48378574366E+02 -0.10750835446E+03  0.14503880856E+03  0.00000000000E+00 0.  1.
         -1    1    6    6    0  502 -0.28094242407E+02 -0.26590566754E+03  0.29993436316E+02  0.26906266316E+03  0.00000000000E+00 0.  1.
<mgrwt>
<rscale>  0 0.28910716E+04</rscale>
<asrwt>0</asrwt>
<pdfrwt beam="1">  1        1 0.15377280E+00 0.28910716E+04</pdfrwt>
<pdfrwt beam="2">  1       -1 0.32162623E+00 0.28910716E+04</pdfrwt>
<totfact> 0.31066651E-01</totfact>
</mgrwt>
</event>
<event>
12    1  0.2048318E-007  0.1872963E+04  0.7818608E-02  0.8668433E-01
          2   -1    0    0  501    0  0.00000000000E+00  0.00000000000E+00  0.27909411397E+04  0.27909411397E+04  0.00000000000E+00 0.  1.
         -2   -1    0    0    0  501 -0.00000000000E+00 -0.00000000000E+00 -0.31423011847E+03  0.31423011847E+03  0.00000000000E+00 0. -1.
         23    2    1    2    0    0  0.68805828065E+03 -0.16502033023E+03  0.11448633687E+04  0.13490294904E+04  0.92263351042E+02 0.  0.
        254    2    1    2    0    0 -0.68805828065E+03  0.16502033023E+03  0.13318476525E+04  0.17561417678E+04  0.89975542905E+03 0.  0.
        -24    2    4    4    0    0 -0.17577299892E+03 -0.16209211025E+03 -0.39014160187E+02  0.25468503361E+03  0.78564383122E+02 0.  0.
         24    2    4    4    0    0 -0.51228528173E+03  0.32711244048E+03  0.13708618127E+04  0.15014567342E+04  0.75309073102E+02 0.  0.
         13    1    3    3    0    0  0.41448557876E+02 -0.14275120299E+02  0.12135735468E+03  0.12903243602E+03  0.00000000000E+00 0.  1.
        -13    1    3    3    0    0  0.64660972277E+03 -0.15074520994E+03  0.10235060140E+04  0.12199970544E+04  0.00000000000E+00 0. -1.
          4    1    6    6  502    0 -0.19337791350E+03  0.15842560088E+03  0.61679779941E+03  0.66553227855E+03  0.00000000000E+00 0. -1.
          3    1    5    5  503    0 -0.14096139306E+03 -0.82844968306E+02 -0.11700505646E+02  0.16392164268E+03  0.00000000000E+00 0. -1.
         -4    1    5    5    0  503 -0.34811605862E+02 -0.79247141939E+02 -0.27313654541E+02  0.90763390927E+02  0.00000000000E+00 0.  1.
         -3    1    6    6    0  502 -0.31890736823E+03  0.16868683960E+03  0.75406401333E+03  0.83592445565E+03  0.00000000000E+00 0.  1.
<mgrwt>
<rscale>  0 0.18729632E+04</rscale>
<asrwt>0</asrwt>
<pdfrwt beam="1">  1        2 0.42937554E+00 0.18729632E+04</pdfrwt>
<pdfrwt beam="2">  1       -2 0.48343097E-01 0.18729632E+04</pdfrwt>
<totfact> 0.89273143E+00</totfact>
</mgrwt>
</event>
<event>
12    1  0.2048318E-007  0.1606753E+04  0.7818608E-02  0.8816410E-01
          1   -1    0    0  501    0  0.00000000000E+00  0.00000000000E+00  0.10157013980E+04  0.10157013980E+04  0.00000000000E+00 0. -1.
         -1   -1    0    0    0  501 -0.00000000000E+00 -0.00000000000E+00 -0.63543653639E+03  0.63543653639E+03  0.00000000000E+00 0.  1.
         23    2    1    2    0    0 -0.10881600894E+03 -0.49862627272E+03 -0.70349771787E+02  0.52328652388E+03  0.91709389062E+02 0.  0.
        254    2    1    2    0    0  0.10881600894E+03  0.49862627272E+03  0.45061463342E+03  0.11278514105E+04  0.89918083428E+03 0.  0.
        -24    2    4    4    0    0  0.30711142716E+02 -0.19803918400E+03 -0.95810883702E+02  0.23551555021E+03  0.78263377586E+02 0.  0.
         24    2    4    4    0    0  0.78104866221E+02  0.69666545671E+03  0.54642551712E+03  0.89233586032E+03  0.78989323002E+02 0.  0.
         11    1    3    3    0    0 -0.50316358910E+02 -0.24613841368E+03  0.11503612880E+02  0.25149192387E+03  0.00000000000E+00 0. -1.
        -11    1    3    3    0    0 -0.58499650026E+02 -0.25248785904E+03 -0.81853384667E+02  0.27179460001E+03  0.00000000000E+00 0.  1.
          2    1    6    6  502    0  0.48652544365E+02  0.54874568210E+03  0.38951906750E+03  0.67469548511E+03  0.00000000000E+00 0. -1.
          1    1    5    5  503    0 -0.20089850256E+02 -0.33258713087E+02 -0.12943020089E+01  0.38876976441E+02  0.00000000000E+00 0. -1.
         -2    1    5    5    0  503  0.50800992971E+02 -0.16478047091E+03 -0.94516581693E+02  0.19663857377E+03  0.00000000000E+00 0.  1.
         -1    1    6    6    0  502  0.29452321856E+02  0.14791977462E+03  0.15690644963E+03  0.21764037521E+03  0.00000000000E+00 0.  1.
<mgrwt>
<rscale>  0 0.16067530E+04</rscale>
<asrwt>0</asrwt>
<pdfrwt beam="1">  1        1 0.15626175E+00 0.16067530E+04</pdfrwt>
<pdfrwt beam="2">  1       -1 0.97759467E-01 0.16067530E+04</pdfrwt>
<totfact> 0.14161802E+01</totfact>
</mgrwt>
</event>
<event>
12    1  0.2048318E-007  0.1671033E+04  0.7818608E-02  0.8778060E-01
         -2   -1    0    0    0  501 -0.00000000000E+00  0.00000000000E+00  0.36506665320E+03  0.36506665320E+03  0.00000000000E+00 0.  1.
          2   -1    0    0  501    0  0.00000000000E+00 -0.00000000000E+00 -0.19122205317E+04  0.19122205317E+04  0.00000000000E+00 0. -1.
         23    2    1    2    0    0 -0.11221327721E+03 -0.18447247396E+03 -0.12947770881E+04  0.13185490834E+04  0.12450728604E+03 0.  0.
        254    2    1    2    0    0  0.11221327721E+03  0.18447247396E+03 -0.25237679039E+03  0.95873810146E+03  0.89936799456E+03 0.  0.
        -24    2    4    4    0    0 -0.24324094573E+03  0.41036060995E+03 -0.58074417091E+02  0.48768933166E+03  0.83103901320E+02 0.  0.
         24    2    4    4    0    0  0.35545422294E+03 -0.22588813598E+03 -0.19430237330E+03  0.47104876981E+03  0.82221509843E+02 0.  0.
         11    1    3    3    0    0 -0.42776959685E+02  0.40237008732E+01 -0.14049487124E+03  0.14691789303E+03  0.00000000000E+00 0.  1.
        -11    1    3    3    0    0 -0.69436317526E+02 -0.18849617484E+03 -0.11542822168E+04  0.11716311904E+04  0.00000000000E+00 0. -1.
          4    1    6    6  502    0  0.56135831308E+02 -0.54916332430E+02 -0.68165528249E+02  0.10398833764E+03  0.00000000000E+00 0. -1.
          1    1    5    5  503    0 -0.64969343117E+01  0.74221334774E+01  0.11552350834E+02  0.15190623114E+02  0.00000000000E+00 0. -1.
         -2    1    5    5    0  503 -0.23674401142E+03  0.40293847647E+03 -0.69626767924E+02  0.47249870854E+03  0.00000000000E+00 0.  1.
         -3    1    6    6    0  502  0.29931839164E+03 -0.17097180355E+03 -0.12613684505E+03  0.36706043216E+03  0.00000000000E+00 0.  1.
<mgrwt>
<rscale>  0 0.16710332E+04</rscale>
<asrwt>0</asrwt>
<pdfrwt beam="1">  1        2 0.29418777E+00 0.16710332E+04</pdfrwt>
<pdfrwt beam="2">  1       -2 0.56164101E-01 0.16710332E+04</pdfrwt>
<totfact> 0.21218518E+01</totfact>
</mgrwt>
</event>
<event>
12    1  0.2048318E-007  0.1258816E+04  0.7818608E-02  0.9062877E-01
          1   -1    0    0  501    0  0.00000000000E+00  0.00000000000E+00  0.10862636298E+04  0.10862636298E+04  0.00000000000E+00 0. -1.
         -1   -1    0    0    0  501 -0.00000000000E+00 -0.00000000000E+00 -0.36469470995E+03  0.36469470995E+03  0.00000000000E+00 0.  1.
         23    2    1    2    0    0 -0.14678195242E+03 -0.24061004268E+03  0.30379040143E+03  0.42118452588E+03  0.75297162274E+02 0.  0.
        254    2    1    2    0    0  0.14678195242E+03  0.24061004268E+03  0.41777851841E+03  0.10297738139E+04  0.89802955580E+03 0.  0.
        -24    2    4    4    0    0 -0.33503017489E+03  0.27695978690E+03  0.27186785188E+03  0.51865363923E+03  0.78342370136E+02 0.  0.
         24    2    4    4    0    0  0.48181212731E+03 -0.36349744220E+02  0.14591066654E+03  0.51112017464E+03  0.80558552560E+02 0.  0.
         11    1    3    3    0    0 -0.90140870558E+02 -0.18701198246E+03  0.25649425099E+03  0.32998205848E+03  0.00000000000E+00 0. -1.
        -11    1    3    3    0    0 -0.56641081857E+02 -0.53598060216E+02  0.47296150442E+02  0.91202467398E+02  0.00000000000E+00 0.  1.
          2    1    6    6  502    0  0.45141612378E+03 -0.53816555756E+02  0.13183287326E+03  0.47334199577E+03  0.00000000000E+00 0. -1.
          3    1    5    5  503    0 -0.19185045478E+03  0.20328608291E+03  0.19029344421E+03  0.33814704407E+03  0.00000000000E+00 0. -1.
         -2    1    5    5    0  503 -0.14317972011E+03  0.73673703984E+02  0.81574407664E+02  0.18050659516E+03  0.00000000000E+00 0.  1.
         -1    1    6    6    0  502  0.30396003523E+02  0.17466811535E+02  0.14077793280E+02  0.37778178874E+02  0.00000000000E+00 0.  1.
<mgrwt>
<rscale>  0 0.12588163E+04</rscale>
<asrwt>0</asrwt>
<pdfrwt beam="1">  1        1 0.16711748E+00 0.12588163E+04</pdfrwt>
<pdfrwt beam="2">  1       -1 0.56106879E-01 0.12588163E+04</pdfrwt>
<totfact> 0.41125444E+01</totfact>
</mgrwt>
</event>
<event>
12    1  0.2048318E-007  0.2020719E+04  0.7818608E-02  0.8596995E-01
          2   -1    0    0  501    0  0.00000000000E+00  0.00000000000E+00  0.29521284340E+04  0.29521284340E+04  0.00000000000E+00 0.  1.
         -2   -1    0    0    0  501 -0.00000000000E+00 -0.00000000000E+00 -0.34579333228E+03  0.34579333228E+03  0.00000000000E+00 0. -1.
         23    2    1    2    0    0 -0.58857359906E+03 -0.48979601132E+03  0.63224031389E+03  0.99730546807E+03  0.92581682440E+02 0.  0.
        254    2    1    2    0    0  0.58857359906E+03  0.48979601132E+03  0.19740947878E+04  0.23006162982E+04  0.89970334332E+03 0.  0.
        -24    2    4    4    0    0  0.73077502004E+03  0.60289977868E+03  0.13921489532E+04  0.16856644383E+04  0.76587320128E+02 0.  0.
         24    2    4    4    0    0 -0.14220142099E+03 -0.11310376736E+03  0.58194583468E+03  0.61495185993E+03  0.80567544452E+02 0.  0.
         11    1    3    3    0    0 -0.29745650855E+03 -0.22688640768E+03  0.25251762649E+03  0.45135680803E+03  0.00000000000E+00 0. -1.
        -11    1    3    3    0    0 -0.29111709051E+03 -0.26290960365E+03  0.37972268740E+03  0.54594866004E+03  0.00000000000E+00 0.  1.
          4    1    6    6  502    0 -0.62213571634E+02 -0.96056815757E+02  0.28993845911E+03  0.31170779654E+03  0.00000000000E+00 0. -1.
          3    1    5    5  503    0  0.23427223742E+02  0.25988601057E+02  0.30715210514E+02  0.46558203939E+02  0.00000000000E+00 0. -1.
         -4    1    5    5    0  503  0.70734779630E+03  0.57691117762E+03  0.13614337426E+04  0.16391062343E+04  0.00000000000E+00 0.  1.
         -3    1    6    6    0  502 -0.79987849353E+02 -0.17046951601E+02  0.29200737556E+03  0.30324406340E+03  0.00000000000E+00 0.  1.
<mgrwt>
<rscale>  0 0.20207190E+04</rscale>
<asrwt>0</asrwt>
<pdfrwt beam="1">  1        2 0.45417359E+00 0.20207190E+04</pdfrwt>
<pdfrwt beam="2">  1       -2 0.53198976E-01 0.20207190E+04</pdfrwt>
<totfact> 0.57750363E+00</totfact>
</mgrwt>
</event>
<event>
12    1  0.2048318E-007  0.1170649E+04  0.7818608E-02  0.9138943E-01
         -2   -1    0    0    0  501 -0.00000000000E+00  0.00000000000E+00  0.19899178308E+03  0.19899178308E+03  0.00000000000E+00 0. -1.
          2   -1    0    0  501    0  0.00000000000E+00 -0.00000000000E+00 -0.17217017040E+04  0.17217017040E+04  0.00000000000E+00 0.  1.
         23    2    1    2    0    0 -0.10165518575E+03 -0.18237029149E+03 -0.44836885106E+03  0.50316729710E+03  0.92466222258E+02 0.  0.
        254    2    1    2    0    0  0.10165518575E+03  0.18237029149E+03 -0.10743410698E+04  0.14175261899E+04  0.90087683113E+03 0.  0.
        -24    2    4    4    0    0  0.58618166155E+02  0.38980846736E+03 -0.11170408825E+04  0.11872458254E+04  0.79909862048E+02 0.  0.
         24    2    4    4    0    0  0.43037019598E+02 -0.20743817587E+03  0.42699812687E+02  0.23028036457E+03  0.79517233601E+02 0.  0.
         11    1    3    3    0    0 -0.48540844027E+02 -0.67588464819E+02 -0.28298460361E+03  0.29496559121E+03  0.00000000000E+00 0.  1.
        -11    1    3    3    0    0 -0.53114341726E+02 -0.11478182667E+03 -0.16538424745E+03  0.20820170589E+03  0.00000000000E+00 0. -1.
          2    1    6    6  502    0 -0.21951525269E+02 -0.69053317083E+02  0.23609766301E+02  0.76207946611E+02  0.00000000000E+00 0. -1.
          3    1    5    5  503    0  0.34120105200E+02  0.11580630271E+03 -0.25027196130E+03  0.27786927851E+03  0.00000000000E+00 0. -1.
         -4    1    5    5    0  503  0.24498060956E+02  0.27400216466E+03 -0.86676892119E+03  0.90937654686E+03  0.00000000000E+00 0.  1.
         -1    1    6    6    0  502  0.64988544867E+02 -0.13838485879E+03  0.19090046386E+02  0.15407241796E+03  0.00000000000E+00 0.  1.
<mgrwt>
<rscale>  0 0.11706485E+04</rscale>
<asrwt>0</asrwt>
<pdfrwt beam="1">  1        2 0.26487718E+00 0.11706485E+04</pdfrwt>
<pdfrwt beam="2">  1       -2 0.30614121E-01 0.11706485E+04</pdfrwt>
<totfact> 0.93088919E+01</totfact>
</mgrwt>
</event>
<event>
12    1  0.2048318E-007  0.1331275E+04  0.7818608E-02  0.9005125E-01
          2   -1    0    0  501    0  0.00000000000E+00  0.00000000000E+00  0.25334893557E+04  0.25334893557E+04  0.00000000000E+00 0. -1.
         -2   -1    0    0    0  501 -0.00000000000E+00 -0.00000000000E+00 -0.17488645039E+03  0.17488645039E+03  0.00000000000E+00 0.  1.
         23    2    1    2    0    0  0.14590880918E+03  0.29430839911E+03  0.37801679212E+03  0.50835623622E+03  0.87307235673E+02 0.  0.
        254    2    1    2    0    0 -0.14590880918E+03 -0.29430839911E+03  0.19805861132E+04  0.22000195699E+04  0.89969880608E+03 0.  0.
        -24    2    4    4    0    0 -0.49913927275E+03 -0.19109720501E+03  0.83918714183E+03  0.99806616954E+03  0.79011799123E+02 0.  0.
         24    2    4    4    0    0  0.35323046357E+03 -0.10321119410E+03  0.11413989714E+04  0.12019534003E+04  0.80473932174E+02 0.  0.
         11    1    3    3    0    0  0.41512421176E+02  0.87525313002E+02  0.17645945502E+03  0.20130052358E+03  0.00000000000E+00 0. -1.
        -11    1    3    3    0    0  0.10439638800E+03  0.20678308611E+03  0.20155733710E+03  0.30705571264E+03  0.00000000000E+00 0.  1.
          4    1    6    6  502    0  0.24647707458E+03 -0.62161369143E+02  0.66266011410E+03  0.70974179173E+03  0.00000000000E+00 0. -1.
          3    1    5    5  503    0 -0.16194775093E+02 -0.25487188770E+01  0.59708599579E+02  0.61918362154E+02  0.00000000000E+00 0. -1.
         -4    1    5    5    0  503 -0.48294449766E+03 -0.18854848613E+03  0.77947854225E+03  0.93614780738E+03  0.00000000000E+00 0.  1.
         -3    1    6    6    0  502  0.10675338899E+03 -0.41049824953E+02  0.47873885728E+03  0.49221160861E+03  0.00000000000E+00 0.  1.
<mgrwt>
<rscale>  0 0.13312745E+04</rscale>
<asrwt>0</asrwt>
<pdfrwt beam="1">  1        2 0.38976757E+00 0.13312745E+04</pdfrwt>
<pdfrwt beam="2">  1       -2 0.26905610E-01 0.13312745E+04</pdfrwt>
<totfact> 0.41035551E+01</totfact>
</mgrwt>
</event>
<event>
12    1  0.2048318E-007  0.1149061E+04  0.7818608E-02  0.9158650E-01
          2   -1    0    0  501    0  0.00000000000E+00  0.00000000000E+00  0.10704347466E+04  0.10704347466E+04  0.00000000000E+00 0. -1.
         -2   -1    0    0    0  501 -0.00000000000E+00 -0.00000000000E+00 -0.30836554954E+03  0.30836554954E+03  0.00000000000E+00 0.  1.
         23    2    1    2    0    0  0.13154277489E+03 -0.16138901771E+03  0.13608951900E+03  0.26487283332E+03  0.91034850386E+02 0.  0.
        254    2    1    2    0    0 -0.13154277489E+03  0.16138901771E+03  0.62597967807E+03  0.11139274628E+04  0.89757112166E+03 0.  0.
        -24    2    4    4    0    0 -0.50761032770E+03  0.15388135668E+03  0.35051195094E+03  0.64077031542E+03  0.79876483669E+02 0.  0.
         24    2    4    4    0    0  0.37606755281E+03  0.75076610371E+01  0.27546772713E+03  0.47315714742E+03  0.80697262749E+02 0.  0.
         11    1    3    3    0    0  0.72188553670E+01 -0.59200662413E+02  0.67111356829E+02  0.89781760500E+02  0.00000000000E+00 0. -1.
        -11    1    3    3    0    0  0.12432391953E+03 -0.10218835530E+03  0.68978162172E+02  0.17509107282E+03  0.00000000000E+00 0.  1.
          2    1    6    6  502    0  0.10248401175E+03  0.20648617532E+02  0.39924461912E+02  0.11190755439E+03  0.00000000000E+00 0. -1.
          3    1    5    5  503    0 -0.62689442378E+02 -0.74465006556E+01  0.40274919643E+02  0.74883147036E+02  0.00000000000E+00 0. -1.
         -4    1    5    5    0  503 -0.44492088532E+03  0.16132785733E+03  0.31023703130E+03  0.56588716838E+03  0.00000000000E+00 0.  1.
         -1    1    6    6    0  502  0.27358354105E+03 -0.13140956495E+02  0.23554326521E+03  0.36124959303E+03  0.00000000000E+00 0.  1.
<mgrwt>
<rscale>  0 0.11490608E+04</rscale>
<asrwt>0</asrwt>
<pdfrwt beam="1">  1        2 0.16468227E+00 0.11490608E+04</pdfrwt>
<pdfrwt beam="2">  1       -2 0.47440854E-01 0.11490608E+04</pdfrwt>
<totfact> 0.94704615E+01</totfact>
</mgrwt>
</event>
<event>
12    1  0.2048318E-007  0.1602888E+04  0.7818608E-02  0.8818776E-01
          1   -1    0    0  501    0  0.00000000000E+00  0.00000000000E+00  0.14353504531E+04  0.14353504531E+04  0.00000000000E+00 0. -1.
         -1   -1    0    0    0  501 -0.00000000000E+00 -0.00000000000E+00 -0.44749511931E+03  0.44749511931E+03  0.00000000000E+00 0.  1.
         23    2    1    2    0    0 -0.47365850694E+02 -0.51319923219E+03  0.54402281434E+03  0.75432989373E+03  0.86231028749E+02 0.  0.
        254    2    1    2    0    0  0.47365850694E+02  0.51319923219E+03  0.44383251941E+03  0.11285156786E+04  0.90052393413E+03 0.  0.
        -24    2    4    4    0    0  0.29121649295E+03  0.67088010534E+03  0.30749667442E+03  0.79749417275E+03  0.80966593629E+02 0.  0.
         24    2    4    4    0    0 -0.24385064225E+03 -0.15768087315E+03  0.13633584499E+03  0.33102150590E+03  0.81617285239E+02 0.  0.
         11    1    3    3    0    0 -0.33959802034E+02 -0.24612851539E+03  0.20221185151E+03  0.32034691685E+03  0.00000000000E+00 0.  1.
        -11    1    3    3    0    0 -0.13406048660E+02 -0.26707071680E+03  0.34181096283E+03  0.43398297688E+03  0.00000000000E+00 0. -1.
          2    1    6    6  502    0 -0.79465061061E+02 -0.95871307038E+02  0.72907436278E+02  0.14429656166E+03  0.00000000000E+00 0. -1.
          1    1    5    5  503    0  0.14173120209E+03  0.42144646036E+03  0.19858016813E+03  0.48696913225E+03  0.00000000000E+00 0. -1.
         -2    1    5    5    0  503  0.14948529086E+03  0.24943364499E+03  0.10891650629E+03  0.31052504050E+03  0.00000000000E+00 0.  1.
         -1    1    6    6    0  502 -0.16438558119E+03 -0.61809566114E+02  0.63428408716E+02  0.18672494424E+03  0.00000000000E+00 0.  1.
<mgrwt>
<rscale>  0 0.16028878E+04</rscale>
<asrwt>0</asrwt>
<pdfrwt beam="1">  1        1 0.22082315E+00 0.16028878E+04</pdfrwt>
<pdfrwt beam="2">  1       -1 0.68845403E-01 0.16028878E+04</pdfrwt>
<totfact> 0.14860984E+01</totfact>
</mgrwt>
</event>
<event>
12    1  0.2048318E-007  0.1474598E+04  0.7818608E-02  0.8901523E-01
          2   -1    0    0  501    0  0.00000000000E+00  0.00000000000E+00  0.81327714941E+03  0.81327714941E+03  0.00000000000E+00 0. -1.
         -2   -1    0    0    0  501 -0.00000000000E+00 -0.00000000000E+00 -0.66841844541E+03  0.66841844541E+03  0.00000000000E+00 0.  1.
         23    2    1    2    0    0  0.38957717547E+03 -0.16166050218E+03  0.22158381854E+03  0.48510757192E+03  0.91244035882E+02 0.  0.
        254    2    1    2    0    0 -0.38957717547E+03  0.16166050218E+03 -0.76725114541E+02  0.99658802290E+03  0.89966463228E+03 0.  0.
        -24    2    4    4    0    0 -0.41039294464E+03  0.45435482436E+03  0.12702530162E+03  0.63039025981E+03  0.79973601797E+02 0.  0.
         24    2    4    4    0    0  0.20815769175E+02 -0.29269432217E+03 -0.20375041617E+03  0.36619776309E+03  0.80518986099E+02 0.  0.
         13    1    3    3    0    0  0.51925697424E+02 -0.28109788397E+02  0.70147106207E+02  0.91689992725E+02  0.00000000000E+00 0. -1.
        -13    1    3    3    0    0  0.33765147804E+03 -0.13355071379E+03  0.15143671234E+03  0.39341757920E+03  0.00000000000E+00 0.  1.
          2    1    6    6  502    0  0.31101175770E+02 -0.10814206277E+03 -0.11591907319E+03  0.16155253140E+03  0.00000000000E+00 0. -1.
          1    1    5    5  503    0 -0.16473060531E+03  0.16053545137E+03  0.84506552952E+02  0.24504930313E+03  0.00000000000E+00 0. -1.
         -2    1    5    5    0  503 -0.24566233933E+03  0.29381937298E+03  0.42518748672E+02  0.38534095668E+03  0.00000000000E+00 0.  1.
         -1    1    6    6    0  502 -0.10285406595E+02 -0.18455225941E+03 -0.87831342974E+02  0.20464523168E+03  0.00000000000E+00 0.  1.
<mgrwt>
<rscale>  0 0.14745975E+04</rscale>
<asrwt>0</asrwt>
<pdfrwt beam="1">  1        2 0.12511956E+00 0.14745975E+04</pdfrwt>
<pdfrwt beam="2">  1       -2 0.10283361E+00 0.14745975E+04</pdfrwt>
<totfact> 0.25210936E+01</totfact>
</mgrwt>
</event>
<event>
12    1  0.2048318E-007  0.4441140E+04  0.7818608E-02  0.7921023E-01
          1   -1    0    0  501    0  0.00000000000E+00  0.00000000000E+00  0.29601937970E+04  0.29601937970E+04  0.00000000000E+00 0. -1.
         -1   -1    0    0    0  501 -0.00000000000E+00 -0.00000000000E+00 -0.16657460179E+04  0.16657460179E+04  0.00000000000E+00 0.  1.
         23    2    1    2    0    0  0.39674188086E+03 -0.17373351039E+04 -0.59081528817E+03  0.18800703980E+04  0.99320760715E+02 0.  0.
        254    2    1    2    0    0 -0.39674188086E+03  0.17373351039E+04  0.18852630673E+04  0.27458694169E+04  0.89991368379E+03 0.  0.
        -24    2    4    4    0    0 -0.63311694661E+03  0.78664475395E+03  0.98587381613E+03  0.14135966784E+04  0.81617098269E+02 0.  0.
         24    2    4    4    0    0  0.23637506575E+03  0.95069034994E+03  0.89938925120E+03  0.13322727385E+04  0.79776634791E+02 0.  0.
         13    1    3    3    0    0  0.20326665980E+03 -0.10244069280E+04 -0.38674248812E+03  0.11136860605E+04  0.00000000000E+00 0. -1.
        -13    1    3    3    0    0  0.19347522106E+03 -0.71292817587E+03 -0.20407280005E+03  0.76638433754E+03  0.00000000000E+00 0.  1.
          4    1    6    6  502    0  0.86474999857E+02  0.41596860388E+03  0.43889268133E+03  0.61084743655E+03  0.00000000000E+00 0. -1.
          1    1    5    5  503    0 -0.21626371751E+03  0.25929906732E+03  0.27755170855E+03  0.43708231804E+03  0.00000000000E+00 0. -1.
         -2    1    5    5    0  503 -0.41685322910E+03  0.52734568663E+03  0.70832210758E+03  0.97651436031E+03  0.00000000000E+00 0.  1.
         -3    1    6    6    0  502  0.14990006589E+03  0.53472174606E+03  0.46049656986E+03  0.72142530197E+03  0.00000000000E+00 0.  1.
<mgrwt>
<rscale>  0 0.44411400E+04</rscale>
<asrwt>0</asrwt>
<pdfrwt beam="1">  1        1 0.45541443E+00 0.44411400E+04</pdfrwt>
<pdfrwt beam="2">  1       -1 0.25626862E+00 0.44411400E+04</pdfrwt>
<totfact> 0.30607229E-02</totfact>
</mgrwt>
</event>
<event>
12    1  0.2048318E-007  0.1418592E+04  0.7818608E-02  0.8940470E-01
         -1   -1    0    0    0  501 -0.00000000000E+00  0.00000000000E+00  0.57907148827E+03  0.57907148827E+03  0.00000000000E+00 0.  1.
          1   -1    0    0  501    0  0.00000000000E+00 -0.00000000000E+00 -0.86880605220E+03  0.86880605220E+03  0.00000000000E+00 0. -1.
         23    2    1    2    0    0 -0.17593710395E+03  0.37500902245E+03 -0.12829439608E+03  0.44392300915E+03  0.94987128210E+02 0.  0.
        254    2    1    2    0    0  0.17593710395E+03 -0.37500902245E+03 -0.16144016785E+03  0.10039545313E+04  0.90015339898E+03 0.  0.
        -24    2    4    4    0    0 -0.30105747972E+03 -0.26057227189E+03 -0.27854218243E+03  0.49231934458E+03  0.79114314009E+02 0.  0.
         24    2    4    4    0    0  0.47699458367E+03 -0.11443675056E+03  0.11710201458E+03  0.51163518674E+03  0.86244302775E+02 0.  0.
         11    1    3    3    0    0 -0.13213926345E+03  0.26446574706E+03 -0.45708330923E+02  0.29915241572E+03  0.00000000000E+00 0.  1.
        -11    1    3    3    0    0 -0.43797840497E+02  0.11054327539E+03 -0.82586065154E+02  0.14477059344E+03  0.00000000000E+00 0. -1.
          2    1    6    6  502    0  0.39925607246E+02  0.11590100031E+02  0.21567799993E+02  0.46835398250E+02  0.00000000000E+00 0. -1.
          1    1    5    5  503    0 -0.45789858531E+02 -0.33873316646E+02 -0.77310975817E+02  0.96026557299E+02  0.00000000000E+00 0. -1.
         -2    1    5    5    0  503 -0.25526762119E+03 -0.22669895524E+03 -0.20123120662E+03  0.39629278728E+03  0.00000000000E+00 0.  1.
         -1    1    6    6    0  502  0.43706897642E+03 -0.12602685060E+03  0.95534214585E+02  0.46479978849E+03  0.00000000000E+00 0.  1.
<mgrwt>
<rscale>  0 0.14185920E+04</rscale>
<asrwt>0</asrwt>
<pdfrwt beam="1">  1        1 0.13366247E+00 0.14185920E+04</pdfrwt>
<pdfrwt beam="2">  1       -1 0.89087922E-01 0.14185920E+04</pdfrwt>
<totfact> 0.23237798E+01</totfact>
</mgrwt>
</event>
<event>
12    1  0.2048318E-007  0.4104349E+04  0.7818608E-02  0.7983821E-01
         -2   -1    0    0    0  501 -0.00000000000E+00  0.00000000000E+00  0.19212028850E+04  0.19212028850E+04  0.00000000000E+00 0.  1.
          2   -1    0    0  501    0  0.00000000000E+00 -0.00000000000E+00 -0.21920742978E+04  0.21920742978E+04  0.00000000000E+00 0. -1.
         23    2    1    2    0    0 -0.46392269387E+03  0.16001650514E+04  0.89009478379E+03  0.18910943667E+04  0.90646135921E+02 0.  0.
        254    2    1    2    0    0  0.46392269387E+03 -0.16001650514E+04 -0.11609661965E+04  0.22221828161E+04  0.90249736899E+03 0.  0.
        -24    2    4    4    0    0  0.70113297165E+03 -0.11467846066E+04 -0.65185239389E+03  0.14959850652E+04  0.79733267513E+02 0.  0.
         24    2    4    4    0    0 -0.23721027778E+03 -0.45338044476E+03 -0.50911380265E+03  0.72619775088E+03  0.79647760585E+02 0.  0.
         11    1    3    3    0    0 -0.25182011608E+03  0.10252719989E+04  0.56579358348E+03  0.11977973208E+04  0.00000000000E+00 0. -1.
        -11    1    3    3    0    0 -0.21210257779E+03  0.57489305253E+03  0.32430120032E+03  0.69329704592E+03  0.00000000000E+00 0.  1.
          4    1    6    6  502    0 -0.18409691761E+03 -0.34483210561E+03 -0.43317019966E+03  0.58347003180E+03  0.00000000000E+00 0. -1.
          1    1    5    5  503    0  0.69957627858E+03 -0.11408806682E+04 -0.64180239704E+03  0.14842257192E+04  0.00000000000E+00 0. -1.
         -2    1    5    5    0  503  0.15566930696E+01 -0.59039384465E+01 -0.10049996851E+02  0.11759346036E+02  0.00000000000E+00 0.  1.
         -3    1    6    6    0  502 -0.53113360165E+02 -0.10854833915E+03 -0.75943602988E+02  0.14272771908E+03  0.00000000000E+00 0.  1.
<mgrwt>
<rscale>  0 0.41043487E+04</rscale>
<asrwt>0</asrwt>
<pdfrwt beam="1">  1        2 0.33724220E+00 0.41043487E+04</pdfrwt>
<pdfrwt beam="2">  1       -2 0.29556967E+00 0.41043487E+04</pdfrwt>
<totfact> 0.13807731E-01</totfact>
</mgrwt>
</event>
<event>
12    1  0.2048318E-007  0.1055299E+04  0.7818608E-02  0.9249891E-01
         -2   -1    0    0    0  501 -0.00000000000E+00  0.00000000000E+00  0.15296966133E+03  0.15296966133E+03  0.00000000000E+00 0.  1.
          2   -1    0    0  501    0  0.00000000000E+00 -0.00000000000E+00 -0.18200590138E+04  0.18200590138E+04  0.00000000000E+00 0. -1.
         23    2    1    2    0    0 -0.21336254381E+02 -0.96023460752E+02 -0.36030445445E+03  0.38481099379E+03  0.92652362506E+02 0.  0.
        254    2    1    2    0    0  0.21336254381E+02  0.96023460752E+02 -0.13067848980E+04  0.15882176813E+04  0.89725854292E+03 0.  0.
        -24    2    4    4    0    0  0.11281754770E+02 -0.33937846813E+03 -0.21470553725E+03  0.40956550475E+03  0.79626706173E+02 0.  0.
         24    2    4    4    0    0  0.10054499611E+02  0.43540192888E+03 -0.10920793608E+04  0.11786521766E+04  0.83112517178E+02 0.  0.
         11    1    3    3    0    0 -0.51670433616E+01 -0.55440686655E+02 -0.62033097747E+02  0.83357502901E+02  0.00000000000E+00 0.  1.
        -11    1    3    3    0    0 -0.16169211020E+02 -0.40582774098E+02 -0.29827135670E+03  0.30145349089E+03  0.00000000000E+00 0. -1.
          4    1    6    6  502    0 -0.13082928988E+02  0.99288105381E+01 -0.56435254351E+02  0.58776545009E+02  0.00000000000E+00 0. -1.
          3    1    5    5  503    0 -0.11146870325E+02 -0.76559712068E+02 -0.15213891466E+02  0.78848619033E+02  0.00000000000E+00 0. -1.
         -4    1    5    5    0  503  0.22428625095E+02 -0.26281875606E+03 -0.19949164579E+03  0.33071688572E+03  0.00000000000E+00 0.  1.
         -3    1    6    6    0  502  0.23137428599E+02  0.42547311834E+03 -0.10356441064E+04  0.11198756316E+04  0.00000000000E+00 0.  1.
<mgrwt>
<rscale>  0 0.10552987E+04</rscale>
<asrwt>0</asrwt>
<pdfrwt beam="1">  1        2 0.28000906E+00 0.10552987E+04</pdfrwt>
<pdfrwt beam="2">  1       -2 0.23533795E-01 0.10552987E+04</pdfrwt>
<totfact> 0.13410026E+02</totfact>
</mgrwt>
</event>
<event>
12    1  0.2048318E-007  0.1697867E+04  0.7818608E-02  0.8762582E-01
          1   -1    0    0  501    0  0.00000000000E+00  0.00000000000E+00  0.10584098235E+04  0.10584098235E+04  0.00000000000E+00 0. -1.
         -1   -1    0    0    0  501 -0.00000000000E+00 -0.00000000000E+00 -0.68091556799E+03  0.68091556799E+03  0.00000000000E+00 0.  1.
         23    2    1    2    0    0  0.30471704932E+03  0.46975824542E+03 -0.12698355839E+03  0.58156314748E+03  0.92550424711E+02 0.  0.
        254    2    1    2    0    0 -0.30471704932E+03 -0.46975824542E+03  0.50447781391E+03  0.11577622440E+04  0.87885736026E+03 0.  0.
        -24    2    4    4    0    0 -0.21899924506E+03  0.65479763854E+02  0.55726840359E+03  0.60742245460E+03  0.78521945331E+02 0.  0.
         24    2    4    4    0    0 -0.85717804265E+02 -0.53523800927E+03 -0.52790589688E+02  0.55033978943E+03  0.79118701512E+02 0.  0.
         13    1    3    3    0    0  0.22742372423E+03  0.36015655908E+03 -0.13602670037E+03  0.44714378069E+03  0.00000000000E+00 0.  1.
        -13    1    3    3    0    0  0.77293325094E+02  0.10960168633E+03  0.90431419767E+01  0.13441936679E+03  0.00000000000E+00 0. -1.
          4    1    6    6  502    0 -0.78355878466E+02 -0.35427186361E+03 -0.65822402451E+02  0.36875572633E+03  0.00000000000E+00 0. -1.
          1    1    5    5  503    0 -0.16198157924E+03  0.14612109419E+02  0.41878080168E+03  0.44925372076E+03  0.00000000000E+00 0. -1.
         -2    1    5    5    0  503 -0.57017665815E+02  0.50867654434E+02  0.13848760191E+03  0.15816873384E+03  0.00000000000E+00 0.  1.
         -3    1    6    6    0  502 -0.73619257994E+01 -0.18096614566E+03  0.13031812763E+02  0.18158406309E+03  0.00000000000E+00 0.  1.
<mgrwt>
<rscale>  0 0.16978666E+04</rscale>
<asrwt>0</asrwt>
<pdfrwt beam="1">  1        1 0.16283228E+00 0.16978666E+04</pdfrwt>
<pdfrwt beam="2">  1       -1 0.10475624E+00 0.16978666E+04</pdfrwt>
<totfact> 0.11110990E+01</totfact>
</mgrwt>
</event>
<event>
12    1  0.2048318E-007  0.3979743E+04  0.7818608E-02  0.8008646E-01
         -1   -1    0    0    0  501 -0.00000000000E+00  0.00000000000E+00  0.51362342119E+04  0.51362342119E+04  0.00000000000E+00 0.  1.
          1   -1    0    0  501    0  0.00000000000E+00 -0.00000000000E+00 -0.77091261965E+03  0.77091261965E+03  0.00000000000E+00 0. -1.
         23    2    1    2    0    0 -0.27275982603E+02 -0.16342683210E+04  0.34710276029E+04  0.38377323277E+04  0.92627612713E+02 0.  0.
        254    2    1    2    0    0  0.27275982603E+02  0.16342683210E+04  0.89429398938E+03  0.20694145039E+04  0.90063184781E+03 0.  0.
        -24    2    4    4    0    0  0.38019900280E+02  0.65563160916E+03 -0.10330358365E+03  0.66972170009E+03  0.80976573316E+02 0.  0.
         24    2    4    4    0    0 -0.10743917676E+02  0.97863671183E+03  0.99759757303E+03  0.13996928038E+04  0.78062678802E+02 0.  0.
         11    1    3    3    0    0 -0.13794772574E+02 -0.10642976641E+04  0.23617282418E+04  0.25904980412E+04  0.00000000000E+00 0.  1.
        -11    1    3    3    0    0 -0.13481210029E+02 -0.56997065690E+03  0.11092993611E+04  0.12472342864E+04  0.00000000000E+00 0. -1.
          2    1    6    6  502    0 -0.24811953885E+02  0.10709078148E+03  0.10260992114E+03  0.15037574422E+03  0.00000000000E+00 0. -1.
          1    1    5    5  503    0  0.45639574339E+02  0.21898773125E+03 -0.15170097206E+02  0.22420688891E+03  0.00000000000E+00 0. -1.
         -2    1    5    5    0  503 -0.76196740592E+01  0.43664387791E+03 -0.88133486439E+02  0.44551481118E+03  0.00000000000E+00 0.  1.
         -1    1    6    6    0  502  0.14068036208E+02  0.87154593035E+03  0.89498765189E+03  0.12493170596E+04  0.00000000000E+00 0.  1.
<mgrwt>
<rscale>  0 0.39797426E+04</rscale>
<asrwt>0</asrwt>
<pdfrwt beam="1">  1        1 0.11860194E+00 0.39797426E+04</pdfrwt>
<pdfrwt beam="2">  1       -1 0.79018986E+00 0.39797426E+04</pdfrwt>
<totfact> 0.14736613E-03</totfact>
</mgrwt>
</event>
<event>
12    1  0.2048318E-007  0.2024279E+04  0.7818608E-02  0.8595353E-01
         -1   -1    0    0    0  501 -0.00000000000E+00  0.00000000000E+00  0.43166628295E+03  0.43166628295E+03  0.00000000000E+00 0.  1.
          1   -1    0    0  501    0  0.00000000000E+00 -0.00000000000E+00 -0.23731913511E+04  0.23731913511E+04  0.00000000000E+00 0. -1.
         23    2    1    2    0    0  0.62167925194E+03 -0.51504186753E+03 -0.70826728669E+03  0.10771530398E+04  0.82842647128E+02 0.  0.
        254    2    1    2    0    0 -0.62167925194E+03  0.51504186753E+03 -0.12332577815E+04  0.17277045943E+04  0.90126865688E+03 0.  0.
        -24    2    4    4    0    0 -0.54991875669E+03  0.20654309411E+02 -0.22530287167E+03  0.59995377387E+03  0.79661203473E+02 0.  0.
         24    2    4    4    0    0 -0.71760495242E+02  0.49438755812E+03 -0.10079549098E+04  0.11277508204E+04  0.79247626925E+02 0.  0.
         11    1    3    3    0    0  0.19945461881E+03 -0.21357281694E+03 -0.27388889711E+03  0.40051294743E+03  0.00000000000E+00 0. -1.
        -11    1    3    3    0    0  0.42222463312E+03 -0.30146905059E+03 -0.43437838958E+03  0.67664009238E+03  0.00000000000E+00 0.  1.
          2    1    6    6  502    0 -0.71941918650E+02  0.28011318515E+03 -0.63182734938E+03  0.69487037322E+03  0.00000000000E+00 0. -1.
          3    1    5    5  503    0 -0.25665887391E+03 -0.84821738749E+01 -0.14319943386E+03  0.29402687409E+03  0.00000000000E+00 0. -1.
         -4    1    5    5    0  503 -0.29325988278E+03  0.29136483286E+02 -0.82103437810E+02  0.30592689978E+03  0.00000000000E+00 0.  1.
         -1    1    6    6    0  502  0.18142340801E+00  0.21427437297E+03 -0.37612756046E+03  0.43288044720E+03  0.00000000000E+00 0.  1.
<mgrwt>
<rscale>  0 0.20242793E+04</rscale>
<asrwt>0</asrwt>
<pdfrwt beam="1">  1        1 0.36510636E+00 0.20242793E+04</pdfrwt>
<pdfrwt beam="2">  1       -1 0.66410197E-01 0.20242793E+04</pdfrwt>
<totfact> 0.35266332E+00</totfact>
</mgrwt>
</event>
<event>
12    1  0.2048318E-007  0.3536254E+04  0.7818608E-02  0.8105252E-01
          2   -1    0    0  501    0  0.00000000000E+00  0.00000000000E+00  0.26888930171E+04  0.26888930171E+04  0.00000000000E+00 0. -1.
         -2   -1    0    0    0  501 -0.00000000000E+00 -0.00000000000E+00 -0.11626617224E+04  0.11626617224E+04  0.00000000000E+00 0.  1.
         23    2    1    2    0    0 -0.12102764643E+04  0.28952976371E+03 -0.46819999429E+03  0.13327980464E+04  0.92427233779E+02 0.  0.
        254    2    1    2    0    0  0.12102764643E+04 -0.28952976371E+03  0.19944312890E+04  0.25187566932E+04  0.90431328034E+03 0.  0.
        -24    2    4    4    0    0  0.22171177685E+03 -0.42644167045E+03  0.37422707670E+03  0.61432631108E+03  0.79638566416E+02 0.  0.
         24    2    4    4    0    0  0.98856468749E+03  0.13691190674E+03  0.16202042123E+04  0.19044303821E+04  0.76081399657E+02 0.  0.
         11    1    3    3    0    0 -0.51514331032E+03  0.10521669990E+03 -0.24293476998E+03  0.57918950834E+03  0.00000000000E+00 0. -1.
        -11    1    3    3    0    0 -0.69513315401E+03  0.18431306381E+03 -0.22526522431E+03  0.75360853802E+03  0.00000000000E+00 0.  1.
          4    1    6    6  502    0  0.61011081304E+03  0.12170838328E+03  0.10040949316E+04  0.11812090274E+04  0.00000000000E+00 0. -1.
          1    1    5    5  503    0  0.12586181550E+03 -0.21583289147E+03  0.24191027156E+03  0.34777235820E+03  0.00000000000E+00 0. -1.
         -2    1    5    5    0  503  0.95849961342E+02 -0.21060877898E+03  0.13231680514E+03  0.26655395288E+03  0.00000000000E+00 0.  1.
         -3    1    6    6    0  502  0.37845387445E+03  0.15203523457E+02  0.61610928071E+03  0.72322135476E+03  0.00000000000E+00 0.  1.
<mgrwt>
<rscale>  0 0.35362539E+04</rscale>
<asrwt>0</asrwt>
<pdfrwt beam="1">  1        2 0.41367585E+00 0.35362539E+04</pdfrwt>
<pdfrwt beam="2">  1       -2 0.17887104E+00 0.35362539E+04</pdfrwt>
<totfact> 0.40772025E-01</totfact>
</mgrwt>
</event>
<event>
12    1  0.2048318E-007  0.1605969E+04  0.7818608E-02  0.8816890E-01
         -2   -1    0    0    0  501 -0.00000000000E+00  0.00000000000E+00  0.38580744559E+03  0.38580744559E+03  0.00000000000E+00 0.  1.
          2   -1    0    0  501    0  0.00000000000E+00 -0.00000000000E+00 -0.16712584941E+04  0.16712584941E+04  0.00000000000E+00 0. -1.
         23    2    1    2    0    0 -0.40398698441E+03 -0.74088337477E+02  0.17753916152E+02  0.42091166978E+03  0.90315374619E+02 0.  0.
        254    2    1    2    0    0  0.40398698441E+03  0.74088337477E+02 -0.13032049646E+04  0.16361542699E+04  0.89997947182E+03 0.  0.
        -24    2    4    4    0    0 -0.14020050361E+03 -0.22713792619E+03 -0.12935115204E+03  0.30567407222E+03  0.73872181288E+02 0.  0.
         24    2    4    4    0    0  0.54418748802E+03  0.30122626367E+03 -0.11738538126E+04  0.13304801977E+04  0.73263217177E+02 0.  0.
         13    1    3    3    0    0 -0.32458270647E+03 -0.53919197015E+02 -0.22168004152E+02  0.32977664192E+03  0.00000000000E+00 0. -1.
        -13    1    3    3    0    0 -0.79404277938E+02 -0.20169140461E+02  0.39921920304E+02  0.91135027857E+02  0.00000000000E+00 0.  1.
          2    1    6    6  502    0  0.33375084683E+03  0.14343296095E+03 -0.68274560033E+03  0.77337196537E+03  0.00000000000E+00 0. -1.
          3    1    5    5  503    0 -0.72281454743E+02 -0.66466897792E+02 -0.21288004208E+02  0.10047704377E+03  0.00000000000E+00 0. -1.
         -4    1    5    5    0  503 -0.67919048866E+02 -0.16067102840E+03 -0.10806314783E+03  0.20519702845E+03  0.00000000000E+00 0.  1.
         -1    1    6    6    0  502  0.21043664118E+03  0.15779330272E+03 -0.49110821227E+03  0.55710823230E+03  0.00000000000E+00 0.  1.
<mgrwt>
<rscale>  0 0.16059688E+04</rscale>
<asrwt>0</asrwt>
<pdfrwt beam="1">  1        2 0.25711669E+00 0.16059688E+04</pdfrwt>
<pdfrwt beam="2">  1       -2 0.59354993E-01 0.16059688E+04</pdfrwt>
<totfact> 0.25840255E+01</totfact>
</mgrwt>
</event>
<event>
12    1  0.2048318E-007  0.1396449E+04  0.7818608E-02  0.8956393E-01
          2   -1    0    0  501    0  0.00000000000E+00  0.00000000000E+00  0.10388889500E+04  0.10388889500E+04  0.00000000000E+00 0. -1.
         -2   -1    0    0    0  501 -0.00000000000E+00 -0.00000000000E+00 -0.46926839909E+03  0.46926839909E+03  0.00000000000E+00 0.  1.
         23    2    1    2    0    0 -0.22742503388E+03  0.26451596682E+03  0.37488597249E+03  0.52100312372E+03  0.95989165146E+02 0.  0.
        254    2    1    2    0    0  0.22742503388E+03 -0.26451596682E+03  0.19473457845E+03  0.98715422539E+03  0.90269655252E+03 0.  0.
        -24    2    4    4    0    0  0.16182773588E+03  0.32177103711E+03  0.32182220093E+02  0.37007835973E+03  0.78724079102E+02 0.  0.
         24    2    4    4    0    0  0.65597297996E+02 -0.58628700392E+03  0.16255235835E+03  0.61707586566E+03  0.79522941987E+02 0.  0.
         11    1    3    3    0    0 -0.21453389958E+03  0.22596703794E+03  0.36354884680E+03  0.47880440716E+03  0.00000000000E+00 0. -1.
        -11    1    3    3    0    0 -0.12891134299E+02  0.38548928873E+02  0.11337125688E+02  0.42198716564E+02  0.00000000000E+00 0.  1.
          2    1    6    6  502    0  0.47502227913E+02 -0.14790709327E+03  0.59732409764E+02  0.16643596568E+03  0.00000000000E+00 0. -1.
          1    1    5    5  503    0  0.12133195601E+03  0.26502269946E+03 -0.40606431894E+01  0.29150465451E+03  0.00000000000E+00 0. -1.
         -2    1    5    5    0  503  0.40495779875E+02  0.56748337642E+02  0.36242863283E+02  0.78573705218E+02  0.00000000000E+00 0.  1.
         -1    1    6    6    0  502  0.18095070083E+02 -0.43837991065E+03  0.10281994859E+03  0.45063989998E+03  0.00000000000E+00 0.  1.
<mgrwt>
<rscale>  0 0.13964494E+04</rscale>
<asrwt>0</asrwt>
<pdfrwt beam="1">  1        2 0.15982907E+00 0.13964494E+04</pdfrwt>
<pdfrwt beam="2">  1       -2 0.72195139E-01 0.13964494E+04</pdfrwt>
<totfact> 0.40242171E+01</totfact>
</mgrwt>
</event>
<event>
12    1  0.2048318E-007  0.1395356E+04  0.7818608E-02  0.8957187E-01
          1   -1    0    0  501    0  0.00000000000E+00  0.00000000000E+00  0.18017192999E+04  0.18017192999E+04  0.00000000000E+00 0. -1.
         -1   -1    0    0    0  501 -0.00000000000E+00 -0.00000000000E+00 -0.27016102855E+03  0.27016102855E+03  0.00000000000E+00 0.  1.
         23    2    1    2    0    0 -0.31573764457E+03 -0.19740441710E+03  0.67601855556E+03  0.77418491811E+03  0.60847644762E+02 0.  0.
        254    2    1    2    0    0  0.31573764457E+03  0.19740441710E+03  0.85553971575E+03  0.12976954103E+04  0.90189046375E+03 0.  0.
        -24    2    4    4    0    0  0.61961345730E+03  0.46333628542E+02  0.53368022477E+03  0.82296372452E+03  0.79919133813E+02 0.  0.
         24    2    4    4    0    0 -0.30387581273E+03  0.15107078856E+03  0.32185949097E+03  0.47473168578E+03  0.81324958251E+02 0.  0.
         11    1    3    3    0    0 -0.65403443942E+02 -0.61472354646E+02  0.12497557603E+03  0.15386798065E+03  0.00000000000E+00 0. -1.
        -11    1    3    3    0    0 -0.25033420063E+03 -0.13593206246E+03  0.55104297953E+03  0.62031693745E+03  0.00000000000E+00 0.  1.
          2    1    6    6  502    0 -0.90802569986E+02  0.34650104903E+02  0.14410244411E+03  0.17381383974E+03  0.00000000000E+00 0. -1.
          1    1    5    5  503    0  0.15572491895E+03 -0.21645867139E+02  0.14689475400E+03  0.21516705766E+03  0.00000000000E+00 0. -1.
         -2    1    5    5    0  503  0.46388853835E+03  0.67979495681E+02  0.38678547077E+03  0.60779666686E+03  0.00000000000E+00 0.  1.
         -1    1    6    6    0  502 -0.21307324275E+03  0.11642068366E+03  0.17775704686E+03  0.30091784604E+03  0.00000000000E+00 0.  1.
<mgrwt>
<rscale>  0 0.13953556E+04</rscale>
<asrwt>0</asrwt>
<pdfrwt beam="1">  1        1 0.27718758E+00 0.13953556E+04</pdfrwt>
<pdfrwt beam="2">  1       -1 0.41563236E-01 0.13953556E+04</pdfrwt>
<totfact> 0.22503650E+01</totfact>
</mgrwt>
</event>
<event>
12    1  0.2048318E-007  0.1562645E+04  0.7818608E-02  0.8843831E-01
          2   -1    0    0  501    0  0.00000000000E+00  0.00000000000E+00  0.16508313186E+04  0.16508313186E+04  0.00000000000E+00 0. -1.
         -2   -1    0    0    0  501 -0.00000000000E+00 -0.00000000000E+00 -0.36979260519E+03  0.36979260519E+03  0.00000000000E+00 0.  1.
         23    2    1    2    0    0 -0.73171826800E+02  0.49883001146E+03  0.25317107908E+03  0.57234417123E+03  0.96419699724E+02 0.  0.
        254    2    1    2    0    0  0.73171826800E+02 -0.49883001146E+03  0.10278676343E+04  0.14482797525E+04  0.88702698459E+03 0.  0.
        -24    2    4    4    0    0  0.26569083236E+03 -0.65951204980E+03  0.91672387043E+03  0.11627889701E+04  0.78407730181E+02 0.  0.
         24    2    4    4    0    0 -0.19251900556E+03  0.16068203835E+03  0.11114376387E+03  0.28549078242E+03  0.79181851781E+02 0.  0.
         11    1    3    3    0    0 -0.86192450015E+02  0.32415903273E+03  0.19388600879E+03  0.38742741430E+03  0.00000000000E+00 0. -1.
        -11    1    3    3    0    0  0.13020623215E+02  0.17467097873E+03  0.59285070284E+02  0.18491675694E+03  0.00000000000E+00 0.  1.
          4    1    6    6  502    0 -0.18188823261E+03  0.14046547307E+03  0.12201412504E+03  0.26019478280E+03  0.00000000000E+00 0. -1.
          1    1    5    5  503    0  0.11290430420E+03 -0.25216667977E+03  0.29744741219E+03  0.40596844621E+03  0.00000000000E+00 0. -1.
         -2    1    5    5    0  503  0.15278652816E+03 -0.40734537003E+03  0.61927645824E+03  0.75682052391E+03  0.00000000000E+00 0.  1.
         -3    1    6    6    0  502 -0.10630772951E+02  0.20216565270E+02 -0.10870361168E+02  0.25295999620E+02  0.00000000000E+00 0.  1.
<mgrwt>
<rscale>  0 0.15626455E+04</rscale>
<asrwt>0</asrwt>
<pdfrwt beam="1">  1        2 0.25397404E+00 0.15626455E+04</pdfrwt>
<pdfrwt beam="2">  1       -2 0.56891171E-01 0.15626455E+04</pdfrwt>
<totfact> 0.29096992E+01</totfact>
</mgrwt>
</event>
<event>
12    1  0.2048318E-007  0.1249527E+04  0.7818608E-02  0.9070577E-01
         -2   -1    0    0    0  501 -0.00000000000E+00  0.00000000000E+00  0.67821001041E+03  0.67821001041E+03  0.00000000000E+00 0. -1.
          2   -1    0    0  501    0  0.00000000000E+00 -0.00000000000E+00 -0.57552914324E+03  0.57552914324E+03  0.00000000000E+00 0.  1.
         23    2    1    2    0    0  0.15604889576E+03  0.24233221437E+03  0.25919158706E+02  0.30335934537E+03  0.90988623729E+02 0.  0.
        254    2    1    2    0    0 -0.15604889576E+03 -0.24233221437E+03  0.76761708462E+02  0.95037980828E+03  0.90235982851E+03 0.  0.
        -24    2    4    4    0    0  0.31783310661E+03 -0.30165947702E+03  0.12822556305E+03  0.46380334884E+03  0.81580804396E+02 0.  0.
         24    2    4    4    0    0 -0.47388200237E+03  0.59327262646E+02 -0.51463854585E+02  0.48657645944E+03  0.77616018218E+02 0.  0.
         13    1    3    3    0    0  0.10146840042E+03  0.80406276040E+02  0.28052919471E+02  0.13246875783E+03  0.00000000000E+00 0.  1.
        -13    1    3    3    0    0  0.54580495338E+02  0.16192593833E+03 -0.21337607642E+01  0.17089058754E+03  0.00000000000E+00 0. -1.
          4    1    6    6  502    0 -0.23349747689E+03  0.63635735490E+02 -0.44379219719E+02  0.24604896604E+03  0.00000000000E+00 0. -1.
          1    1    5    5  503    0  0.13734700700E+03 -0.18655020654E+03  0.66683614573E+02  0.24106406689E+03  0.00000000000E+00 0. -1.
         -2    1    5    5    0  503  0.18048609962E+03 -0.11510927047E+03  0.61541948474E+02  0.22273928196E+03  0.00000000000E+00 0.  1.
         -3    1    6    6    0  502 -0.24038452548E+03 -0.43084728447E+01 -0.70846348655E+01  0.24052749340E+03  0.00000000000E+00 0.  1.
<mgrwt>
<rscale>  0 0.12495273E+04</rscale>
<asrwt>0</asrwt>
<pdfrwt beam="1">  1        2 0.88542945E-01 0.12495273E+04</pdfrwt>
<pdfrwt beam="2">  1       -2 0.10434000E+00 0.12495273E+04</pdfrwt>
<totfact> 0.38284376E+01</totfact>
</mgrwt>
</event>
<event>
12    1  0.2048318E-007  0.1409377E+04  0.7818608E-02  0.8947059E-01
          1   -1    0    0  501    0  0.00000000000E+00  0.00000000000E+00  0.23864399628E+04  0.23864399628E+04  0.00000000000E+00 0. -1.
         -1   -1    0    0    0  501 -0.00000000000E+00 -0.00000000000E+00 -0.20808653180E+03  0.20808653180E+03  0.00000000000E+00 0.  1.
         23    2    1    2    0    0  0.39807918178E+03 -0.48891023131E+02  0.46500489511E+03  0.62090239718E+03  0.91830644319E+02 0.  0.
        254    2    1    2    0    0 -0.39807918178E+03  0.48891023131E+02  0.17133485359E+04  0.19736240974E+04  0.89374017780E+03 0.  0.
        -24    2    4    4    0    0 -0.57872247576E+03  0.30081697281E+03  0.11458008298E+04  0.13208473076E+04  0.79796700533E+02 0.  0.
         24    2    4    4    0    0  0.18064329399E+03 -0.25192594968E+03  0.56754770611E+03  0.65277678981E+03  0.88929493590E+02 0.  0.
         11    1    3    3    0    0  0.26111338199E+03 -0.67913145833E+02  0.34377453821E+03  0.43700495049E+03  0.00000000000E+00 0.  1.
        -11    1    3    3    0    0  0.13696579979E+03  0.19022122702E+02  0.12123035690E+03  0.18389744669E+03  0.00000000000E+00 0. -1.
          2    1    6    6  502    0  0.17850367939E+03 -0.25931164212E+03  0.55379129872E+03  0.63701718488E+03  0.00000000000E+00 0. -1.
          3    1    5    5  503    0 -0.54070745924E+03  0.27041476878E+03  0.10928406347E+04  0.12489152720E+04  0.00000000000E+00 0. -1.
         -4    1    5    5    0  503 -0.38015016518E+02  0.30402204032E+02  0.52960195044E+02  0.71932035630E+02  0.00000000000E+00 0.  1.
         -1    1    6    6    0  502  0.21396145935E+01  0.73856924425E+01  0.13756407383E+02  0.15759604930E+02  0.00000000000E+00 0.  1.
<mgrwt>
<rscale>  0 0.14093772E+04</rscale>
<asrwt>0</asrwt>
<pdfrwt beam="1">  1        1 0.36714459E+00 0.14093772E+04</pdfrwt>
<pdfrwt beam="2">  1       -1 0.32013314E-01 0.14093772E+04</pdfrwt>
<totfact> 0.14429010E+01</totfact>
</mgrwt>
</event>
<event>
12    1  0.2048318E-007  0.2947434E+04  0.7818608E-02  0.8258903E-01
         -2   -1    0    0    0  501 -0.00000000000E+00  0.00000000000E+00  0.14599776449E+04  0.14599776449E+04  0.00000000000E+00 0.  1.
          2   -1    0    0  501    0  0.00000000000E+00 -0.00000000000E+00 -0.14875852005E+04  0.14875852005E+04  0.00000000000E+00 0. -1.
         23    2    1    2    0    0  0.79424148194E+03 -0.39704628698E+03  0.98388670707E+03  0.13286004851E+04  0.93171406888E+02 0.  0.
        254    2    1    2    0    0 -0.79424148194E+03  0.39704628698E+03 -0.10114942627E+04  0.16189623603E+04  0.89969616819E+03 0.  0.
        -24    2    4    4    0    0  0.12152276558E+03  0.11473334815E+03 -0.49441726673E+03  0.52700572851E+03  0.73178415611E+02 0.  0.
         24    2    4    4    0    0 -0.91576424751E+03  0.28231293883E+03 -0.51707699596E+03  0.10919566318E+04  0.81706263850E+02 0.  0.
         11    1    3    3    0    0  0.38698301349E+03 -0.14186573318E+03  0.46211386568E+03  0.61921802609E+03  0.00000000000E+00 0.  1.
        -11    1    3    3    0    0  0.40725846845E+03 -0.25518055380E+03  0.52177284139E+03  0.70938245902E+03  0.00000000000E+00 0. -1.
          4    1    6    6  502    0 -0.34416376230E+03  0.14262286592E+03 -0.22228324812E+03  0.43382003130E+03  0.00000000000E+00 0. -1.
          3    1    5    5  503    0  0.10518015306E+03  0.54643394499E+02 -0.35633958056E+03  0.37553516724E+03  0.00000000000E+00 0. -1.
         -4    1    5    5    0  503  0.16342612512E+02  0.60089953649E+02 -0.13807768617E+03  0.15147056127E+03  0.00000000000E+00 0.  1.
         -3    1    6    6    0  502 -0.57160048521E+03  0.13969007291E+03 -0.29479374784E+03  0.65813660051E+03  0.00000000000E+00 0.  1.
<mgrwt>
<rscale>  0 0.29474336E+04</rscale>
<asrwt>0</asrwt>
<pdfrwt beam="1">  1        2 0.22885926E+00 0.29474336E+04</pdfrwt>
<pdfrwt beam="2">  1       -2 0.22461195E+00 0.29474336E+04</pdfrwt>
<totfact> 0.10251158E+00</totfact>
</mgrwt>
</event>
<event>
12    1  0.2048318E-007  0.1258261E+04  0.7818608E-02  0.9063336E-01
          1   -1    0    0  501    0  0.00000000000E+00  0.00000000000E+00  0.21721121115E+04  0.21721121115E+04  0.00000000000E+00 0. -1.
         -1   -1    0    0    0  501 -0.00000000000E+00 -0.00000000000E+00 -0.18222127688E+03  0.18222127688E+03  0.00000000000E+00 0.  1.
         23    2    1    2    0    0 -0.13544300966E+03 -0.85164198456E+02  0.70785933538E+01  0.18257386016E+03  0.87666175714E+02 0.  0.
        254    2    1    2    0    0  0.13544300966E+03  0.85164198456E+02  0.19828122413E+04  0.21717595283E+04  0.87143405646E+03 0.  0.
        -24    2    4    4    0    0  0.98571485110E+02  0.28753315259E+03  0.19154410034E+04  0.19410302135E+04  0.79324652881E+02 0.  0.
         24    2    4    4    0    0  0.36871524550E+02 -0.20236895414E+03  0.67371237887E+02  0.23072931478E+03  0.79902628765E+02 0.  0.
         11    1    3    3    0    0 -0.11663088384E+03 -0.89266773639E+02 -0.21167733603E+02  0.14838932875E+03  0.00000000000E+00 0.  1.
        -11    1    3    3    0    0 -0.18812125822E+02  0.41025751824E+01  0.28246326956E+02  0.34184531408E+02  0.00000000000E+00 0. -1.
          2    1    6    6  502    0 -0.15037190139E+02 -0.13845909835E+02  0.21931271068E+02  0.29980109357E+02  0.00000000000E+00 0. -1.
          3    1    5    5  503    0 -0.12674788227E+02  0.16893739098E+02  0.15600503685E+03  0.15742814297E+03  0.00000000000E+00 0. -1.
         -4    1    5    5    0  503  0.11124627334E+03  0.27063941350E+03  0.17594359666E+04  0.17836020705E+04  0.00000000000E+00 0.  1.
         -1    1    6    6    0  502  0.51908714689E+02 -0.18852304430E+03  0.45439966819E+02  0.20074920542E+03  0.00000000000E+00 0.  1.
<mgrwt>
<rscale>  0 0.12582608E+04</rscale>
<asrwt>0</asrwt>
<pdfrwt beam="1">  1        1 0.33417107E+00 0.12582608E+04</pdfrwt>
<pdfrwt beam="2">  1       -1 0.28034044E-01 0.12582608E+04</pdfrwt>
<totfact> 0.25838088E+01</totfact>
</mgrwt>
</event>
<event>
12    1  0.2048318E-007  0.1666836E+04  0.7818608E-02  0.8780508E-01
         -1   -1    0    0    0  501 -0.00000000000E+00  0.00000000000E+00  0.49426932906E+03  0.49426932906E+03  0.00000000000E+00 0.  1.
          1   -1    0    0  501    0  0.00000000000E+00 -0.00000000000E+00 -0.14052782391E+04  0.14052782391E+04  0.00000000000E+00 0. -1.
         23    2    1    2    0    0 -0.30048058377E+03  0.49774955919E+03 -0.24586019255E+03  0.63781096420E+03  0.91172292317E+02 0.  0.
        254    2    1    2    0    0  0.30048058377E+03 -0.49774955919E+03 -0.66514871746E+03  0.12617366039E+04  0.90084029463E+03 0.  0.
        -24    2    4    4    0    0  0.10040931608E+03 -0.45417179605E+03 -0.85177343243E+03  0.97360216730E+03  0.77647594405E+02 0.  0.
         24    2    4    4    0    0  0.20007126769E+03 -0.43577763142E+02  0.18662471497E+03  0.28813443661E+03  0.79152610382E+02 0.  0.
         11    1    3    3    0    0 -0.23633193991E+03  0.39651480547E+03 -0.23357909141E+03  0.51733545086E+03  0.00000000000E+00 0. -1.
        -11    1    3    3    0    0 -0.64148643856E+02  0.10123475372E+03 -0.12281101139E+02  0.12047551334E+03  0.00000000000E+00 0.  1.
          4    1    6    6  502    0  0.84927975471E+02 -0.32205843526E+02  0.34847646150E+02  0.97284818019E+02  0.00000000000E+00 0. -1.
          1    1    5    5  503    0 -0.11960628226E+01 -0.63449537931E+02 -0.75540214429E+02  0.98659000734E+02  0.00000000000E+00 0. -1.
         -2    1    5    5    0  503  0.10160537890E+03 -0.39072225811E+03 -0.77623321800E+03  0.87494316657E+03  0.00000000000E+00 0.  1.
         -3    1    6    6    0  502  0.11514329222E+03 -0.11371919616E+02  0.15177706882E+03  0.19084961859E+03  0.00000000000E+00 0.  1.
<mgrwt>
<rscale>  0 0.16668364E+04</rscale>
<asrwt>0</asrwt>
<pdfrwt beam="1">  1        1 0.21619665E+00 0.16668364E+04</pdfrwt>
<pdfrwt beam="2">  1       -1 0.76041436E-01 0.16668364E+04</pdfrwt>
<totfact> 0.12625308E+01</totfact>
</mgrwt>
</event>
<event>
12    1  0.2048318E-007  0.2377140E+04  0.7818608E-02  0.8448112E-01
         -1   -1    0    0    0  501 -0.00000000000E+00  0.00000000000E+00  0.18661633127E+04  0.18661633127E+04  0.00000000000E+00 0.  1.
          1   -1    0    0  501    0  0.00000000000E+00 -0.00000000000E+00 -0.75700694966E+03  0.75700694966E+03  0.00000000000E+00 0. -1.
         23    2    1    2    0    0 -0.85089610517E+03  0.28233718681E+03  0.10034666256E+04  0.13499621301E+04  0.10823130398E+03 0.  0.
        254    2    1    2    0    0  0.85089610517E+03 -0.28233718681E+03  0.10568973748E+03  0.12732081323E+04  0.89785865185E+03 0.  0.
        -24    2    4    4    0    0  0.27716363101E+03 -0.55688689134E+03  0.73374722661E+02  0.63130172825E+03  0.78837390065E+02 0.  0.
         24    2    4    4    0    0  0.57373247416E+03  0.27454970453E+03  0.32315014822E+02  0.64190640405E+03  0.80331060066E+02 0.  0.
         13    1    3    3    0    0 -0.59275176928E+03  0.24433666864E+03  0.68450561947E+03  0.93787153209E+03  0.00000000000E+00 0. -1.
        -13    1    3    3    0    0 -0.25814433589E+03  0.38000518166E+02  0.31896100611E+03  0.41209059799E+03  0.00000000000E+00 0.  1.
          4    1    6    6  502    0  0.92122515144E+02  0.18491322465E+02  0.21313221479E+02  0.96346978224E+02  0.00000000000E+00 0. -1.
          3    1    5    5  503    0  0.21162943559E+02 -0.35808836679E+02  0.25441637264E+02  0.48758792756E+02  0.00000000000E+00 0. -1.
         -4    1    5    5    0  503  0.25600068745E+03 -0.52107805466E+03  0.47933085397E+02  0.58254293550E+03  0.00000000000E+00 0.  1.
         -3    1    6    6    0  502  0.48160995902E+03  0.25605838206E+03  0.11001793343E+02  0.54555942582E+03  0.00000000000E+00 0.  1.
<mgrwt>
<rscale>  0 0.23771400E+04</rscale>
<asrwt>0</asrwt>
<pdfrwt beam="1">  1        1 0.11646261E+00 0.23771400E+04</pdfrwt>
<pdfrwt beam="2">  1       -1 0.28710205E+00 0.23771400E+04</pdfrwt>
<totfact> 0.86778297E-01</totfact>
</mgrwt>
</event>
<event>
12    1  0.2048318E-007  0.2671348E+04  0.7818608E-02  0.8344362E-01
          2   -1    0    0  501    0  0.00000000000E+00  0.00000000000E+00  0.13203541574E+04  0.13203541574E+04  0.00000000000E+00 0. -1.
         -2   -1    0    0    0  501 -0.00000000000E+00 -0.00000000000E+00 -0.13511715081E+04  0.13511715081E+04  0.00000000000E+00 0.  1.
         23    2    1    2    0    0  0.95190454388E+03  0.20586931837E+03  0.65444461578E+03  0.11768473698E+04  0.90374442134E+02 0.  0.
        254    2    1    2    0    0 -0.95190454388E+03 -0.20586931837E+03 -0.68526196641E+03  0.14946782957E+04  0.90331323918E+03 0.  0.
        -24    2    4    4    0    0 -0.10076909594E+04 -0.35937871108E+03 -0.37754821151E+03  0.11374558040E+04  0.81663495858E+02 0.  0.
         24    2    4    4    0    0  0.55786415469E+02  0.15350939270E+03 -0.30771375490E+03  0.35722249166E+03  0.79011997799E+02 0.  0.
         13    1    3    3    0    0  0.59296803385E+03  0.16522651997E+03  0.38281333796E+03  0.72488408990E+03  0.00000000000E+00 0. -1.
        -13    1    3    3    0    0  0.35893651003E+03  0.40642798402E+02  0.27163127782E+03  0.45196327991E+03  0.00000000000E+00 0.  1.
          4    1    6    6  502    0  0.39566159119E+02  0.16214443066E+02 -0.62628953758E+02  0.75833864205E+02  0.00000000000E+00 0. -1.
          3    1    5    5  503    0 -0.37165009616E+03 -0.91040935897E+02 -0.13580550986E+03  0.40602386936E+03  0.00000000000E+00 0. -1.
         -2    1    5    5    0  503 -0.63604086320E+03 -0.26833777518E+03 -0.24174270165E+03  0.73143193467E+03  0.00000000000E+00 0.  1.
         -3    1    6    6    0  502  0.16220256350E+02  0.13729494964E+03 -0.24508480114E+03  0.28138862746E+03  0.00000000000E+00 0.  1.
<mgrwt>
<rscale>  0 0.26713479E+04</rscale>
<asrwt>0</asrwt>
<pdfrwt beam="1">  1        2 0.20313141E+00 0.26713479E+04</pdfrwt>
<pdfrwt beam="2">  1       -2 0.20787254E+00 0.26713479E+04</pdfrwt>
<totfact> 0.16718468E+00</totfact>
</mgrwt>
</event>
<event>
12    1  0.2048318E-007  0.1289092E+04  0.7818608E-02  0.9038260E-01
          2   -1    0    0  501    0  0.00000000000E+00  0.00000000000E+00  0.22044983871E+04  0.22044983871E+04  0.00000000000E+00 0. -1.
         -2   -1    0    0    0  501 -0.00000000000E+00 -0.00000000000E+00 -0.18845088247E+03  0.18845088247E+03  0.00000000000E+00 0.  1.
         23    2    1    2    0    0  0.10829943318E+03 -0.30318805683E+03  0.46133944121E+03  0.56982372041E+03  0.90626857460E+02 0.  0.
        254    2    1    2    0    0 -0.10829943318E+03  0.30318805683E+03  0.15547080634E+04  0.18231255491E+04  0.89611262712E+03 0.  0.
        -24    2    4    4    0    0 -0.10922517155E+03  0.53944393491E+03  0.14492395788E+04  0.15522813547E+04  0.79700378721E+02 0.  0.
         24    2    4    4    0    0  0.92573836891E+00 -0.23625587808E+03  0.10546848454E+03  0.27084419439E+03  0.80095439841E+02 0.  0.
         13    1    3    3    0    0  0.41856321067E+02 -0.14198390032E+03  0.13752704853E+03  0.20205214338E+03  0.00000000000E+00 0.  1.
        -13    1    3    3    0    0  0.66443112115E+02 -0.16120415651E+03  0.32381239268E+03  0.36777157704E+03  0.00000000000E+00 0. -1.
          4    1    6    6  502    0  0.16704898121E+02 -0.20461150918E+03  0.61267520439E+02  0.21423966106E+03  0.00000000000E+00 0. -1.
          3    1    5    5  503    0 -0.11541949708E+03  0.41633102083E+03  0.10910988138E+04  0.11735202600E+04  0.00000000000E+00 0. -1.
         -4    1    5    5    0  503  0.61943255326E+01  0.12311291408E+03  0.35814076506E+03  0.37876109473E+03  0.00000000000E+00 0.  1.
         -3    1    6    6    0  502 -0.15779159752E+02 -0.31644368896E+02  0.44200964103E+02  0.56604533325E+02  0.00000000000E+00 0.  1.
<mgrwt>
<rscale>  0 0.12890922E+04</rscale>
<asrwt>0</asrwt>
<pdfrwt beam="1">  1        2 0.33915358E+00 0.12890922E+04</pdfrwt>
<pdfrwt beam="2">  1       -2 0.28992445E-01 0.12890922E+04</pdfrwt>
<totfact> 0.55155035E+01</totfact>
</mgrwt>
</event>
<event>
12    1  0.2048318E-007  0.3053977E+04  0.7818608E-02  0.8228483E-01
         -1   -1    0    0    0  501 -0.00000000000E+00  0.00000000000E+00  0.96662809064E+03  0.96662809064E+03  0.00000000000E+00 0.  1.
          1   -1    0    0  501    0  0.00000000000E+00 -0.00000000000E+00 -0.24121926348E+04  0.24121926348E+04  0.00000000000E+00 0. -1.
         23    2    1    2    0    0 -0.62385612888E+03  0.11624739139E+04 -0.11581070747E+04  0.17578290916E+04  0.90603799981E+02 0.  0.
        254    2    1    2    0    0  0.62385612888E+03 -0.11624739139E+04 -0.28745746941E+03  0.16209916338E+04  0.89690579774E+03 0.  0.
        -24    2    4    4    0    0  0.42516755594E+02 -0.66672340769E+03 -0.48309020231E+03  0.82827960539E+03  0.79644110038E+02 0.  0.
         24    2    4    4    0    0  0.58133937329E+03 -0.49575050625E+03  0.19563273290E+03  0.79271202842E+03  0.79976011624E+02 0.  0.
         11    1    3    3    0    0 -0.32020368566E+03  0.60922160268E+03 -0.66365799408E+03  0.95609795240E+03  0.00000000000E+00 0. -1.
        -11    1    3    3    0    0 -0.30365244322E+03  0.55325231127E+03 -0.49444908066E+03  0.80173113920E+03  0.00000000000E+00 0.  1.
          2    1    6    6  502    0  0.17087854329E+02 -0.37509995726E+02  0.13213003292E+02  0.43284847244E+02  0.00000000000E+00 0. -1.
          3    1    5    5  503    0 -0.53327359307E+01 -0.18046632700E+03 -0.93211677271E+02  0.20318698293E+03  0.00000000000E+00 0. -1.
         -4    1    5    5    0  503  0.47849491525E+02 -0.48625708069E+03 -0.38987852504E+03  0.62509262246E+03  0.00000000000E+00 0.  1.
         -1    1    6    6    0  502  0.56425151896E+03 -0.45824051053E+03  0.18241972961E+03  0.74942718118E+03  0.00000000000E+00 0.  1.
<mgrwt>
<rscale>  0 0.30539765E+04</rscale>
<asrwt>0</asrwt>
<pdfrwt beam="1">  1        1 0.37110656E+00 0.30539765E+04</pdfrwt>
<pdfrwt beam="2">  1       -1 0.14871202E+00 0.30539765E+04</pdfrwt>
<totfact> 0.47124952E-01</totfact>
</mgrwt>
</event>
<event>
12    1  0.2048318E-007  0.1457964E+04  0.7818608E-02  0.8912898E-01
          2   -1    0    0  501    0  0.00000000000E+00  0.00000000000E+00  0.86400569766E+03  0.86400569766E+03  0.00000000000E+00 0. -1.
         -2   -1    0    0    0  501 -0.00000000000E+00 -0.00000000000E+00 -0.61505956263E+03  0.61505956263E+03  0.00000000000E+00 0.  1.
         23    2    1    2    0    0 -0.31741326253E+03 -0.24563589287E+03  0.27098681041E+03  0.49293453338E+03  0.91991476162E+02 0.  0.
        254    2    1    2    0    0  0.31741326253E+03  0.24563589287E+03 -0.22040675370E+02  0.98613072691E+03  0.90048867183E+03 0.  0.
        -24    2    4    4    0    0  0.52862095833E+03  0.43628892992E+03 -0.16696703390E+02  0.69043221448E+03  0.81423061399E+02 0.  0.
         24    2    4    4    0    0 -0.21120769580E+03 -0.19065303705E+03 -0.53439719796E+01  0.29569851243E+03  0.80322978751E+02 0.  0.
         11    1    3    3    0    0 -0.99610953743E+02 -0.43722712213E+02  0.37222714191E+02  0.11497629373E+03  0.00000000000E+00 0.  1.
        -11    1    3    3    0    0 -0.21780230878E+03 -0.20191318066E+03  0.23376409622E+03  0.37795823965E+03  0.00000000000E+00 0. -1.
          2    1    6    6  502    0 -0.90361054851E+02 -0.31913064712E+02  0.46457044639E+01  0.95943454717E+02  0.00000000000E+00 0. -1.
          3    1    5    5  503    0  0.23660718310E+03  0.17385721041E+03 -0.43914704100E+02  0.29688009354E+03  0.00000000000E+00 0. -1.
         -4    1    5    5    0  503  0.29201377523E+03  0.26243171951E+03  0.27218000710E+02  0.39355212094E+03  0.00000000000E+00 0.  1.
         -1    1    6    6    0  502 -0.12084664095E+03 -0.15873997234E+03 -0.99896764435E+01  0.19975505771E+03  0.00000000000E+00 0.  1.
<mgrwt>
<rscale>  0 0.14579643E+04</rscale>
<asrwt>0</asrwt>
<pdfrwt beam="1">  1        2 0.13292395E+00 0.14579643E+04</pdfrwt>
<pdfrwt beam="2">  1       -2 0.94624548E-01 0.14579643E+04</pdfrwt>
<totfact> 0.28302051E+01</totfact>
</mgrwt>
</event>
<event>
12    1  0.2048318E-007  0.1553529E+04  0.7818608E-02  0.8849617E-01
          1   -1    0    0  501    0  0.00000000000E+00  0.00000000000E+00  0.88926309497E+03  0.88926309497E+03  0.00000000000E+00 0. -1.
         -1   -1    0    0    0  501 -0.00000000000E+00 -0.00000000000E+00 -0.67849791251E+03  0.67849791251E+03  0.00000000000E+00 0.  1.
         23    2    1    2    0    0  0.45189433291E+03 -0.22414638817E+03 -0.10933038179E+02  0.51317074695E+03  0.93672796234E+02 0.  0.
        254    2    1    2    0    0 -0.45189433291E+03  0.22414638817E+03  0.22169822064E+03  0.10545902605E+04  0.89919988052E+03 0.  0.
        -24    2    4    4    0    0 -0.35395177283E+03 -0.29781611458E+03  0.21434907946E+03  0.51621153785E+03  0.80947688954E+02 0.  0.
         24    2    4    4    0    0 -0.97942560082E+02  0.52196250275E+03  0.73491411812E+01  0.53837872268E+03  0.88091088147E+02 0.  0.
         13    1    3    3    0    0  0.18752999779E+03 -0.78885583861E+02  0.39763992910E+02  0.20729594918E+03  0.00000000000E+00 0. -1.
        -13    1    3    3    0    0  0.26436433512E+03 -0.14526080431E+03 -0.50697031089E+02  0.30587479777E+03  0.00000000000E+00 0.  1.
          2    1    6    6  502    0 -0.22211644169E+02  0.33937448221E+03 -0.71673800738E+01  0.34017608330E+03  0.00000000000E+00 0. -1.
          3    1    5    5  503    0 -0.35260331235E+03 -0.27992885545E+03  0.19758540559E+03  0.49165969176E+03  0.00000000000E+00 0. -1.
         -4    1    5    5    0  503 -0.13484604772E+01 -0.17887259134E+02  0.16763673865E+02  0.24551846090E+02  0.00000000000E+00 0.  1.
         -1    1    6    6    0  502 -0.75730915914E+02  0.18258802054E+03  0.14516521255E+02  0.19820263939E+03  0.00000000000E+00 0.  1.
<mgrwt>
<rscale>  0 0.15535291E+04</rscale>
<asrwt>0</asrwt>
<pdfrwt beam="1">  1        1 0.13680971E+00 0.15535291E+04</pdfrwt>
<pdfrwt beam="2">  1       -1 0.10438429E+00 0.15535291E+04</pdfrwt>
<totfact> 0.15443240E+01</totfact>
</mgrwt>
</event>
<event>
12    1  0.2048318E-007  0.2663325E+04  0.7818608E-02  0.8347004E-01
          2   -1    0    0  501    0  0.00000000000E+00  0.00000000000E+00  0.28613247646E+04  0.28613247646E+04  0.00000000000E+00 0. -1.
         -2   -1    0    0    0  501 -0.00000000000E+00 -0.00000000000E+00 -0.61975654879E+03  0.61975654879E+03  0.00000000000E+00 0.  1.
         23    2    1    2    0    0 -0.80165857418E+03  0.28897327846E+03  0.20577025987E+04  0.22290745255E+04  0.92039286905E+02 0.  0.
        254    2    1    2    0    0  0.80165857418E+03 -0.28897327846E+03  0.18386561708E+03  0.12520067879E+04  0.89863919706E+03 0.  0.
        -24    2    4    4    0    0 -0.18094786406E+03 -0.65709550591E+02 -0.52484681309E+02  0.21400281497E+03  0.77347840934E+02 0.  0.
         24    2    4    4    0    0  0.98260643824E+03 -0.22326372786E+03  0.23635029839E+03  0.10380039729E+04  0.78921983902E+02 0.  0.
         13    1    3    3    0    0 -0.32670099921E+03  0.16583538310E+03  0.89339097285E+03  0.96559947573E+03  0.00000000000E+00 0. -1.
        -13    1    3    3    0    0 -0.47495757497E+03  0.12313789536E+03  0.11643116259E+04  0.12634750498E+04  0.00000000000E+00 0.  1.
          2    1    6    6  502    0  0.35710294421E+02 -0.12213110413E+02  0.24545141586E+02  0.45020541634E+02  0.00000000000E+00 0. -1.
          1    1    5    5  503    0  0.21621824749E+00  0.45421454684E+01 -0.15568194928E+02  0.16218709230E+02  0.00000000000E+00 0. -1.
         -2    1    5    5    0  503 -0.18116408231E+03 -0.70251696060E+02 -0.36916486382E+02  0.19778410574E+03  0.00000000000E+00 0.  1.
         -1    1    6    6    0  502  0.94689614381E+03 -0.21105061745E+03  0.21180515680E+03  0.99298343125E+03  0.00000000000E+00 0.  1.
<mgrwt>
<rscale>  0 0.26633248E+04</rscale>
<asrwt>0</asrwt>
<pdfrwt beam="1">  1        2 0.44020380E+00 0.26633248E+04</pdfrwt>
<pdfrwt beam="2">  1       -2 0.95347163E-01 0.26633248E+04</pdfrwt>
<totfact> 0.17249957E+00</totfact>
</mgrwt>
</event>
<event>
12    1  0.2341238E-007  0.3345283E+04  0.7818608E-02  0.8151468E-01
         -2   -1    0    0    0  501 -0.00000000000E+00  0.00000000000E+00  0.12306808487E+04  0.12306808487E+04  0.00000000000E+00 0.  1.
          2   -1    0    0  501    0  0.00000000000E+00 -0.00000000000E+00 -0.22733185151E+04  0.22733185151E+04  0.00000000000E+00 0. -1.
         23    2    1    2    0    0 -0.61619459267E+03 -0.14222893706E+04 -0.52461905543E+03  0.16389234715E+04  0.90786356731E+02 0.  0.
        254    2    1    2    0    0  0.61619459267E+03  0.14222893706E+04 -0.51801861101E+03  0.18650758923E+04  0.89864451981E+03 0.  0.
        -24    2    4    4    0    0  0.28358497743E+03  0.89736892878E+03 -0.74059597600E+03  0.12001702400E+04  0.78960569829E+02 0.  0.
         24    2    4    4    0    0  0.33260961524E+03  0.52492044179E+03  0.22257736499E+03  0.66490565228E+03  0.79926320255E+02 0.  0.
         13    1    3    3    0    0 -0.33621416639E+03 -0.71001814252E+03 -0.22664390989E+03  0.81763878961E+03  0.00000000000E+00 0.  1.
        -13    1    3    3    0    0 -0.27998042628E+03 -0.71227122805E+03 -0.29797514554E+03  0.82128468193E+03  0.00000000000E+00 0. -1.
          4    1    6    6  502    0  0.33542299320E+02  0.96543363174E+02  0.56041503905E+02  0.11656052924E+03  0.00000000000E+00 0. -1.
          1    1    5    5  503    0  0.36719708531E+02  0.76362611799E+02 -0.92560064108E+02  0.12548685566E+03  0.00000000000E+00 0. -1.
         -2    1    5    5    0  503  0.24686526890E+03  0.82100631698E+03 -0.64803591189E+03  0.10746833844E+04  0.00000000000E+00 0.  1.
         -3    1    6    6    0  502  0.29906731592E+03  0.42837707861E+03  0.16653586108E+03  0.54834512304E+03  0.00000000000E+00 0.  1.
<mgrwt>
<rscale>  0 0.33452830E+04</rscale>
<asrwt>0</asrwt>
<pdfrwt beam="1">  1        2 0.34974131E+00 0.33452830E+04</pdfrwt>
<pdfrwt beam="2">  1       -2 0.18933552E+00 0.33452830E+04</pdfrwt>
<totfact> 0.61173390E-01</totfact>
</mgrwt>
</event>
<event>
12    1  0.2048318E-007  0.4817803E+04  0.7818608E-02  0.7857244E-01
          1   -1    0    0  501    0  0.00000000000E+00  0.00000000000E+00  0.37607338981E+04  0.37607338981E+04  0.00000000000E+00 0. -1.
         -1   -1    0    0    0  501 -0.00000000000E+00 -0.00000000000E+00 -0.15429983543E+04  0.15429983543E+04  0.00000000000E+00 0.  1.
         23    2    1    2    0    0 -0.16959328239E+04  0.67552513497E+03  0.26526930300E+04  0.32213931458E+04  0.89839509253E+02 0.  0.
        254    2    1    2    0    0  0.16959328239E+04 -0.67552513497E+03 -0.43495748617E+03  0.20823391067E+04  0.90245542236E+03 0.  0.
        -24    2    4    4    0    0  0.27433160849E+03 -0.30200367312E+02  0.24627510715E+03  0.37712055886E+03  0.73475124471E+02 0.  0.
         24    2    4    4    0    0  0.14216012154E+04 -0.64532476766E+03 -0.68123259332E+03  0.17052185478E+04  0.79362322699E+02 0.  0.
         11    1    3    3    0    0 -0.10884354176E+04  0.39092586837E+03  0.16478096548E+04  0.20131545771E+04  0.00000000000E+00 0. -1.
        -11    1    3    3    0    0 -0.60749740629E+03  0.28459926660E+03  0.10048833751E+04  0.12082385687E+04  0.00000000000E+00 0.  1.
          4    1    6    6  502    0  0.53002565590E+02 -0.38442710471E+02 -0.38560173352E+02  0.75986846997E+02  0.00000000000E+00 0. -1.
          1    1    5    5  503    0  0.21030117321E+02 -0.10433506359E+02  0.52754191017E+02  0.57741913367E+02  0.00000000000E+00 0. -1.
         -2    1    5    5    0  503  0.25330149117E+03 -0.19766860954E+02  0.19352091613E+03  0.31937864550E+03  0.00000000000E+00 0.  1.
         -3    1    6    6    0  502  0.13685986498E+04 -0.60688205719E+03 -0.64267241997E+03  0.16292317008E+04  0.00000000000E+00 0.  1.
<mgrwt>
<rscale>  0 0.48178029E+04</rscale>
<asrwt>0</asrwt>
<pdfrwt beam="1">  1        1 0.57857444E+00 0.48178029E+04</pdfrwt>
<pdfrwt beam="2">  1       -1 0.23738436E+00 0.48178029E+04</pdfrwt>
<totfact> 0.94755092E-03</totfact>
</mgrwt>
</event>
<event>
12    1  0.2419034E-007  0.2792292E+04  0.7818608E-02  0.8305665E-01
         -2   -1    0    0    0  501 -0.00000000000E+00  0.00000000000E+00  0.82993948791E+03  0.82993948791E+03  0.00000000000E+00 0. -1.
          2   -1    0    0  501    0  0.00000000000E+00 -0.00000000000E+00 -0.23486333277E+04  0.23486333277E+04  0.00000000000E+00 0.  1.
         23    2    1    2    0    0  0.12275866966E+04 -0.21452306085E+03 -0.77983835035E+03  0.14727190673E+04  0.88115590056E+02 0.  0.
        254    2    1    2    0    0 -0.12275866966E+04  0.21452306085E+03 -0.73885548946E+03  0.17058537483E+04  0.90057777845E+03 0.  0.
        -24    2    4    4    0    0 -0.33734552259E+02  0.32433901317E+03 -0.14510646961E+03  0.36563350909E+03  0.79360947379E+02 0.  0.
         24    2    4    4    0    0 -0.11938521444E+04 -0.10981595232E+03 -0.59374901985E+03  0.13402202392E+04  0.79434911225E+02 0.  0.
         11    1    3    3    0    0  0.84108792075E+03 -0.14873604950E+03 -0.58199094508E+03  0.10335689445E+04  0.00000000000E+00 0.  1.
        -11    1    3    3    0    0  0.38649877586E+03 -0.65787011348E+02 -0.19784740527E+03  0.43915012282E+03  0.00000000000E+00 0. -1.
          4    1    6    6  502    0 -0.10527945442E+03  0.22062378339E+01 -0.31518325228E+02  0.10991831437E+03  0.00000000000E+00 0. -1.
          1    1    5    5  503    0  0.19482804205E+02  0.34001413208E+02 -0.72454473048E+01  0.39851879083E+02  0.00000000000E+00 0. -1.
         -2    1    5    5    0  503 -0.53217356465E+02  0.29033759996E+03 -0.13786102231E+03  0.32578163001E+03  0.00000000000E+00 0.  1.
         -3    1    6    6    0  502 -0.10885726899E+04 -0.11202219015E+03 -0.56223069462E+03  0.12303019249E+04  0.00000000000E+00 0.  1.
<mgrwt>
<rscale>  0 0.27922919E+04</rscale>
<asrwt>0</asrwt>
<pdfrwt beam="1">  1        2 0.36132821E+00 0.27922919E+04</pdfrwt>
<pdfrwt beam="2">  1       -2 0.12768300E+00 0.27922919E+04</pdfrwt>
<totfact> 0.16831525E+00</totfact>
</mgrwt>
</event>
<event>
12    1  0.2048318E-007  0.1716449E+04  0.7818608E-02  0.8752038E-01
         -2   -1    0    0    0  501 -0.00000000000E+00  0.00000000000E+00  0.11333341415E+04  0.11333341415E+04  0.00000000000E+00 0.  1.
          2   -1    0    0  501    0  0.00000000000E+00 -0.00000000000E+00 -0.64989607064E+03  0.64989607064E+03  0.00000000000E+00 0. -1.
         23    2    1    2    0    0  0.31670971166E+03  0.71599747467E+02  0.72239149885E+03  0.79720024229E+03  0.90814004443E+02 0.  0.
        254    2    1    2    0    0 -0.31670971166E+03 -0.71599747467E+02 -0.23895342801E+03  0.98602996984E+03  0.89984709555E+03 0.  0.
        -24    2    4    4    0    0 -0.15052338758E+03  0.37683387692E+03  0.57828799713E+02  0.41767962032E+03  0.80318330105E+02 0.  0.
         24    2    4    4    0    0 -0.16618632407E+03 -0.44843362438E+03 -0.29678222772E+03  0.56835034952E+03  0.78941873059E+02 0.  0.
         11    1    3    3    0    0  0.28050093741E+03  0.33302527590E+02  0.63751629891E+03  0.69729252513E+03  0.00000000000E+00 0.  1.
        -11    1    3    3    0    0  0.36208774241E+02  0.38297219877E+02  0.84875199949E+02  0.99907717163E+02  0.00000000000E+00 0. -1.
          2    1    6    6  502    0 -0.10494741541E+03 -0.33357752989E+03 -0.17917801340E+03  0.39292835089E+03  0.00000000000E+00 0. -1.
          1    1    5    5  503    0 -0.12759855697E+03  0.27695750606E+03  0.11325040743E+02  0.30514768302E+03  0.00000000000E+00 0. -1.
         -2    1    5    5    0  503 -0.22924830617E+02  0.99876370857E+02  0.46503758970E+02  0.11253193730E+03  0.00000000000E+00 0.  1.
         -1    1    6    6    0  502 -0.61238908663E+02 -0.11485609450E+03 -0.11760421433E+03  0.17542199863E+03  0.00000000000E+00 0.  1.
<mgrwt>
<rscale>  0 0.17164491E+04</rscale>
<asrwt>0</asrwt>
<pdfrwt beam="1">  1        2 0.99984011E-01 0.17164491E+04</pdfrwt>
<pdfrwt beam="2">  1       -2 0.17435910E+00 0.17164491E+04</pdfrwt>
<totfact> 0.84777194E+00</totfact>
</mgrwt>
</event>
<event>
12    1  0.2048318E-007  0.1481671E+04  0.7818608E-02  0.8896734E-01
          2   -1    0    0  501    0  0.00000000000E+00  0.00000000000E+00  0.35383097378E+04  0.35383097378E+04  0.00000000000E+00 0. -1.
         -2   -1    0    0    0  501 -0.00000000000E+00 -0.00000000000E+00 -0.15511281238E+03  0.15511281238E+03  0.00000000000E+00 0.  1.
         23    2    1    2    0    0 -0.39019185693E+03 -0.25041115609E+03  0.10885498391E+04  0.11850762831E+04  0.67153646738E+02 0.  0.
        254    2    1    2    0    0  0.39019185693E+03  0.25041115609E+03  0.22946470863E+04  0.25083462670E+04  0.90079981821E+03 0.  0.
        -24    2    4    4    0    0  0.13645560377E+03 -0.31539289570E+03  0.11669393586E+04  0.12190850193E+04  0.79548772825E+02 0.  0.
         24    2    4    4    0    0  0.25373625316E+03  0.56580405180E+03  0.11277077277E+04  0.12892612477E+04  0.77159150878E+02 0.  0.
         11    1    3    3    0    0 -0.85512900665E+02 -0.82502150489E+02  0.23433862141E+03  0.26274255556E+03  0.00000000000E+00 0.  1.
        -11    1    3    3    0    0 -0.30467895627E+03 -0.16790900560E+03  0.85421121771E+03  0.92233372757E+03  0.00000000000E+00 0. -1.
          4    1    6    6  502    0  0.42021562792E+02  0.47390677834E+02  0.14445683319E+03  0.15773225650E+03  0.00000000000E+00 0. -1.
          1    1    5    5  503    0  0.53528201265E+02 -0.21115358993E+03  0.78078762171E+03  0.81060496981E+03  0.00000000000E+00 0. -1.
         -2    1    5    5    0  503  0.82927402504E+02 -0.10423930578E+03  0.38615173689E+03  0.40848004953E+03  0.00000000000E+00 0.  1.
         -3    1    6    6    0  502  0.21171469037E+03  0.51841337396E+03  0.98325089449E+03  0.11315289912E+04  0.00000000000E+00 0.  1.
<mgrwt>
<rscale>  0 0.14816709E+04</rscale>
<asrwt>0</asrwt>
<pdfrwt beam="1">  1        2 0.54435528E+00 0.14816709E+04</pdfrwt>
<pdfrwt beam="2">  1       -2 0.23863512E-01 0.14816709E+04</pdfrwt>
<totfact> 0.11714869E+01</totfact>
</mgrwt>
</event>
<event>
12    1  0.2048318E-007  0.2316485E+04  0.7818608E-02  0.8471450E-01
         -2   -1    0    0    0  501 -0.00000000000E+00  0.00000000000E+00  0.14134639764E+04  0.14134639764E+04  0.00000000000E+00 0.  1.
          2   -1    0    0  501    0  0.00000000000E+00 -0.00000000000E+00 -0.94910500184E+03  0.94910500184E+03  0.00000000000E+00 0. -1.
         23    2    1    2    0    0  0.66003530403E+03  0.44025632682E+03 -0.39382103538E+03  0.88915054443E+03  0.77597982463E+02 0.  0.
        254    2    1    2    0    0 -0.66003530403E+03 -0.44025632682E+03  0.85818000991E+03  0.14734184338E+04  0.89722723751E+03 0.  0.
        -24    2    4    4    0    0  0.87484638992E+02 -0.41722758265E+03  0.21591590873E+03  0.48432827827E+03  0.78878284076E+02 0.  0.
         24    2    4    4    0    0 -0.74751994302E+03 -0.23028744170E+02  0.64226410119E+03  0.98909015552E+03  0.80497029741E+02 0.  0.
         13    1    3    3    0    0  0.24093232895E+03  0.16896628954E+03 -0.18762505360E+03  0.34900022188E+03  0.00000000000E+00 0.  1.
        -13    1    3    3    0    0  0.41910297508E+03  0.27129003728E+03 -0.20619598178E+03  0.54015032255E+03  0.00000000000E+00 0. -1.
          2    1    6    6  502    0 -0.73399472535E+03 -0.33995223718E+02  0.62749780041E+03  0.96625950013E+03  0.00000000000E+00 0. -1.
          1    1    5    5  503    0  0.88795266708E+02 -0.42009527389E+03  0.21083165470E+03  0.47834571719E+03  0.00000000000E+00 0. -1.
         -4    1    5    5    0  503 -0.13106277158E+01  0.28676912325E+01  0.50842540219E+01  0.59825610715E+01  0.00000000000E+00 0.  1.
         -1    1    6    6    0  502 -0.13525217675E+02  0.10966479548E+02  0.14766300774E+02  0.22830655387E+02  0.00000000000E+00 0.  1.
<mgrwt>
<rscale>  0 0.23164850E+04</rscale>
<asrwt>0</asrwt>
<pdfrwt beam="1">  1        2 0.14601615E+00 0.23164850E+04</pdfrwt>
<pdfrwt beam="2">  1       -2 0.21745600E+00 0.23164850E+04</pdfrwt>
<totfact> 0.25243984E+00</totfact>
</mgrwt>
</event>
<event>
12    1  0.2048318E-007  0.2740636E+04  0.7818608E-02  0.8321939E-01
         -2   -1    0    0    0  501 -0.00000000000E+00  0.00000000000E+00  0.13362574282E+04  0.13362574282E+04  0.00000000000E+00 0. -1.
          2   -1    0    0  501    0  0.00000000000E+00 -0.00000000000E+00 -0.14052469703E+04  0.14052469703E+04  0.00000000000E+00 0.  1.
         23    2    1    2    0    0 -0.94378246557E+03  0.75258971507E+03 -0.21880821609E+03  0.12302853385E+04  0.92781233124E+02 0.  0.
        254    2    1    2    0    0  0.94378246557E+03 -0.75258971507E+03  0.14981867406E+03  0.15112190600E+04  0.89678358064E+03 0.  0.
        -24    2    4    4    0    0  0.81538985230E+02 -0.91129348509E+02 -0.29729211654E+03  0.33334476939E+03  0.88221133835E+02 0.  0.
         24    2    4    4    0    0  0.86224348034E+03 -0.66146036657E+03  0.44711079060E+03  0.11778742906E+04  0.80536633685E+02 0.  0.
         13    1    3    3    0    0 -0.42219941935E+03  0.27862367468E+03 -0.85504073222E+02  0.51302480284E+03  0.00000000000E+00 0. -1.
        -13    1    3    3    0    0 -0.52158304622E+03  0.47396604040E+03 -0.13330414287E+03  0.71726053569E+03  0.00000000000E+00 0.  1.
          2    1    6    6  502    0  0.27074481917E+03 -0.18706126828E+03  0.17158366011E+03  0.37112750857E+03  0.00000000000E+00 0. -1.
          3    1    5    5  503    0  0.74740682658E+02 -0.10776605970E+03 -0.24266052928E+03  0.27583296709E+03  0.00000000000E+00 0. -1.
         -4    1    5    5    0  503  0.67983025726E+01  0.16636711191E+02 -0.54631587259E+02  0.57511802298E+02  0.00000000000E+00 0.  1.
         -1    1    6    6    0  502  0.59149866117E+03 -0.47439909829E+03  0.27552713049E+03  0.80674678199E+03  0.00000000000E+00 0.  1.
<mgrwt>
<rscale>  0 0.27406362E+04</rscale>
<asrwt>0</asrwt>
<pdfrwt beam="1">  1        2 0.21619184E+00 0.27406362E+04</pdfrwt>
<pdfrwt beam="2">  1       -2 0.20557807E+00 0.27406362E+04</pdfrwt>
<totfact> 0.15368780E+00</totfact>
</mgrwt>
</event>
<event>
12    1  0.2048318E-007  0.2881494E+04  0.7818608E-02  0.8278405E-01
         -2   -1    0    0    0  501 -0.00000000000E+00  0.00000000000E+00  0.74212181807E+03  0.74212181807E+03  0.00000000000E+00 0.  1.
          2   -1    0    0  501    0  0.00000000000E+00 -0.00000000000E+00 -0.27970495829E+04  0.27970495829E+04  0.00000000000E+00 0. -1.
         23    2    1    2    0    0 -0.11467940849E+04 -0.16744792026E+03 -0.16508084778E+04  0.20191128474E+04  0.92046625076E+02 0.  0.
        254    2    1    2    0    0  0.11467940849E+04  0.16744792026E+03 -0.40411928706E+03  0.15200585536E+04  0.89671072761E+03 0.  0.
        -24    2    4    4    0    0  0.25561469292E+03 -0.17809990191E+03 -0.45710249610E+03  0.55948025614E+03  0.83767647534E+02 0.  0.
         24    2    4    4    0    0  0.89117939195E+03  0.34554782217E+03  0.52983209036E+02  0.96057829743E+03  0.79369005395E+02 0.  0.
         13    1    3    3    0    0 -0.65382560026E+03 -0.13485827038E+03 -0.98929612575E+03  0.11934745465E+04  0.00000000000E+00 0.  1.
        -13    1    3    3    0    0 -0.49296848461E+03 -0.32589649874E+02 -0.66151235204E+03  0.82563830095E+03  0.00000000000E+00 0. -1.
          4    1    6    6  502    0  0.14512172700E+03  0.39885777523E+02  0.33036747503E+02  0.15408639648E+03  0.00000000000E+00 0. -1.
          1    1    5    5  503    0  0.11068203969E+01 -0.19090472991E+02 -0.11717096307E+02  0.22426804415E+02  0.00000000000E+00 0. -1.
         -2    1    5    5    0  503  0.25450787252E+03 -0.15900942892E+03 -0.44538539979E+03  0.53705345173E+03  0.00000000000E+00 0.  1.
         -3    1    6    6    0  502  0.74605766495E+03  0.30566204464E+03  0.19946461534E+02  0.80649190095E+03  0.00000000000E+00 0.  1.
<mgrwt>
<rscale>  0 0.28814937E+04</rscale>
<asrwt>0</asrwt>
<pdfrwt beam="1">  1        2 0.43031532E+00 0.28814937E+04</pdfrwt>
<pdfrwt beam="2">  1       -2 0.11417259E+00 0.28814937E+04</pdfrwt>
<totfact> 0.12039983E+00</totfact>
</mgrwt>
</event>
<event>
12    1  0.2048318E-007  0.4025198E+04  0.7818608E-02  0.7999482E-01
          2   -1    0    0  501    0  0.00000000000E+00  0.00000000000E+00  0.46576665579E+04  0.46576665579E+04  0.00000000000E+00 0. -1.
         -2   -1    0    0    0  501 -0.00000000000E+00 -0.00000000000E+00 -0.86965330784E+03  0.86965330784E+03  0.00000000000E+00 0.  1.
         23    2    1    2    0    0 -0.25058564173E+03 -0.93653237544E+03  0.40621780374E+04  0.41775279132E+04  0.10277647556E+03 0.  0.
        254    2    1    2    0    0  0.25058564173E+03  0.93653237544E+03 -0.27416478732E+03  0.13497919526E+04  0.89826829540E+03 0.  0.
        -24    2    4    4    0    0  0.55460175386E+03  0.74436089020E+03 -0.30396385926E+03  0.98018031733E+03  0.81872990058E+02 0.  0.
         24    2    4    4    0    0 -0.30401611212E+03  0.19217148524E+03  0.29799071934E+02  0.36961163524E+03  0.79806641630E+02 0.  0.
         11    1    3    3    0    0 -0.21674868163E+03 -0.62454352071E+03  0.27610939553E+04  0.28391326898E+04  0.00000000000E+00 0. -1.
        -11    1    3    3    0    0 -0.33836960107E+02 -0.31198885473E+03  0.13010840821E+04  0.13383952234E+04  0.00000000000E+00 0.  1.
          2    1    6    6  502    0 -0.11419918897E+03  0.11879373166E+03  0.18011982664E+02  0.16576440198E+03  0.00000000000E+00 0. -1.
          3    1    5    5  503    0  0.71605247218E+02  0.73316288774E+02 -0.57119944956E+02  0.11732552041E+03  0.00000000000E+00 0. -1.
         -4    1    5    5    0  503  0.48299650664E+03  0.67104460143E+03 -0.24684391430E+03  0.86285479691E+03  0.00000000000E+00 0.  1.
         -1    1    6    6    0  502 -0.18981692316E+03  0.73377753577E+02  0.11787089271E+02  0.20384723327E+03  0.00000000000E+00 0.  1.
<mgrwt>
<rscale>  0 0.40251982E+04</rscale>
<asrwt>0</asrwt>
<pdfrwt beam="1">  1        2 0.71656407E+00 0.40251982E+04</pdfrwt>
<pdfrwt beam="2">  1       -2 0.13379282E+00 0.40251982E+04</pdfrwt>
<totfact> 0.26822279E-02</totfact>
</mgrwt>
</event>
<event>
12    1  0.2048318E-007  0.2375992E+04  0.7818608E-02  0.8448547E-01
         -2   -1    0    0    0  501 -0.00000000000E+00  0.00000000000E+00  0.10619604638E+04  0.10619604638E+04  0.00000000000E+00 0.  1.
          2   -1    0    0  501    0  0.00000000000E+00 -0.00000000000E+00 -0.13289899511E+04  0.13289899511E+04  0.00000000000E+00 0. -1.
         23    2    1    2    0    0 -0.41720016063E+03 -0.86529503202E+03  0.21642243543E+03  0.98740232476E+03  0.73028856684E+02 0.  0.
        254    2    1    2    0    0  0.41720016063E+03  0.86529503202E+03 -0.48345192275E+03  0.14035480902E+04  0.90190354995E+03 0.  0.
        -24    2    4    4    0    0  0.18609994883E+03  0.80301025135E+02  0.22916391437E+03  0.31590334234E+03  0.78723417466E+02 0.  0.
         24    2    4    4    0    0  0.23110021180E+03  0.78499400689E+03 -0.71261583712E+03  0.10876447479E+04  0.74342904752E+02 0.  0.
         11    1    3    3    0    0 -0.30204470703E+03 -0.67986538391E+03  0.18760469724E+03  0.76723103933E+03  0.00000000000E+00 0.  1.
        -11    1    3    3    0    0 -0.11515545360E+03 -0.18542964811E+03  0.28817738193E+02  0.22017128543E+03  0.00000000000E+00 0. -1.
          4    1    6    6  502    0 -0.35729050909E+01  0.11549065011E+02 -0.39880810711E+01  0.12729938886E+02  0.00000000000E+00 0. -1.
          1    1    5    5  503    0  0.74419331242E+02 -0.79068587192E+01  0.71385367685E+02  0.10342449418E+03  0.00000000000E+00 0. -1.
         -2    1    5    5    0  503  0.11168061759E+03  0.88207883854E+02  0.15777854669E+03  0.21247884816E+03  0.00000000000E+00 0.  1.
         -3    1    6    6    0  502  0.23467311689E+03  0.77344494188E+03 -0.70862775605E+03  0.10749148090E+04  0.00000000000E+00 0.  1.
<mgrwt>
<rscale>  0 0.23759922E+04</rscale>
<asrwt>0</asrwt>
<pdfrwt beam="1">  1        2 0.20445999E+00 0.23759922E+04</pdfrwt>
<pdfrwt beam="2">  1       -2 0.16337853E+00 0.23759922E+04</pdfrwt>
<totfact> 0.34087289E+00</totfact>
</mgrwt>
</event>
<event>
12    1  0.2048318E-007  0.1535314E+04  0.7818608E-02  0.8861303E-01
          2   -1    0    0  501    0  0.00000000000E+00  0.00000000000E+00  0.30362717880E+03  0.30362717880E+03  0.00000000000E+00 0. -1.
         -2   -1    0    0    0  501 -0.00000000000E+00 -0.00000000000E+00 -0.19408585575E+04  0.19408585575E+04  0.00000000000E+00 0.  1.
         23    2    1    2    0    0  0.43418598261E+03 -0.24213727871E+03 -0.64028212583E+03  0.81586706833E+03  0.92357692069E+02 0.  0.
        254    2    1    2    0    0 -0.43418598261E+03  0.24213727871E+03 -0.99694925284E+03  0.14286186679E+04  0.89436880335E+03 0.  0.
        -24    2    4    4    0    0 -0.68046658428E+03  0.45065888153E+02 -0.57356810225E+03  0.89460796215E+03  0.79229612092E+02 0.  0.
         24    2    4    4    0    0  0.24628060167E+03  0.19707139056E+03 -0.42338115059E+03  0.53401070578E+03  0.80153399667E+02 0.  0.
         13    1    3    3    0    0  0.19575966340E+02 -0.14006075116E+02 -0.74361189202E+02  0.78159932560E+02  0.00000000000E+00 0.  1.
        -13    1    3    3    0    0  0.41461001627E+03 -0.22813120360E+03 -0.56592093663E+03  0.73770713577E+03  0.00000000000E+00 0. -1.
          4    1    6    6  502    0  0.22583570189E+03  0.16379224193E+03 -0.40247494834E+03  0.48970985982E+03  0.00000000000E+00 0. -1.
          3    1    5    5  503    0 -0.36600135711E+03  0.63518419856E+02 -0.30419055738E+03  0.48012860596E+03  0.00000000000E+00 0. -1.
         -4    1    5    5    0  503 -0.31446522718E+03 -0.18452531703E+02 -0.26937754486E+03  0.41447935619E+03  0.00000000000E+00 0.  1.
         -3    1    6    6    0  502  0.20444899788E+02  0.33279148625E+02 -0.20906202252E+02  0.44300845964E+02  0.00000000000E+00 0.  1.
<mgrwt>
<rscale>  0 0.15353142E+04</rscale>
<asrwt>0</asrwt>
<pdfrwt beam="1">  1        2 0.46711875E-01 0.15353142E+04</pdfrwt>
<pdfrwt beam="2">  1       -2 0.29859361E+00 0.15353142E+04</pdfrwt>
<totfact> 0.33954561E+00</totfact>
</mgrwt>
</event>
<event>
12    1  0.2048318E-007  0.1445798E+04  0.7818608E-02  0.8921319E-01
         -1   -1    0    0    0  501 -0.00000000000E+00  0.00000000000E+00  0.79429020478E+03  0.79429020478E+03  0.00000000000E+00 0.  1.
          1   -1    0    0  501    0  0.00000000000E+00 -0.00000000000E+00 -0.65792459790E+03  0.65792459790E+03  0.00000000000E+00 0. -1.
         23    2    1    2    0    0  0.21323079972E+03  0.38217183494E+03  0.43339175926E+00  0.44735303424E+03  0.92746234679E+02 0.  0.
        254    2    1    2    0    0 -0.21323079972E+03 -0.38217183494E+03  0.13593221512E+03  0.10048617684E+04  0.89428570446E+03 0.  0.
        -24    2    4    4    0    0  0.79656474490E+02  0.26024269536E+03  0.79163983096E+01  0.28288142380E+03  0.76732106376E+02 0.  0.
         24    2    4    4    0    0 -0.29288727421E+03 -0.64241453030E+03  0.12801581681E+03  0.72198034465E+03  0.79926119436E+02 0.  0.
         11    1    3    3    0    0  0.13806246908E+03  0.23875257185E+03  0.44915054510E+02  0.27943048877E+03  0.00000000000E+00 0.  1.
        -11    1    3    3    0    0  0.75168330643E+02  0.14341926308E+03 -0.44481662751E+02  0.16792254547E+03  0.00000000000E+00 0. -1.
          4    1    6    6  502    0 -0.21588058206E+03 -0.42240474346E+03  0.54121946539E+02  0.47745091696E+03  0.00000000000E+00 0. -1.
          1    1    5    5  503    0  0.69645574737E+02  0.18907290385E+03 -0.26443482437E+02  0.20321989769E+03  0.00000000000E+00 0. -1.
         -2    1    5    5    0  503  0.10010899754E+02  0.71169791508E+02  0.34359880746E+02  0.79661526110E+02  0.00000000000E+00 0.  1.
         -3    1    6    6    0  502 -0.77006692146E+02 -0.22000978684E+03  0.73893870271E+02  0.24452942769E+03  0.00000000000E+00 0.  1.
<mgrwt>
<rscale>  0 0.14457981E+04</rscale>
<asrwt>0</asrwt>
<pdfrwt beam="1">  1        1 0.10121917E+00 0.14457981E+04</pdfrwt>
<pdfrwt beam="2">  1       -1 0.12219849E+00 0.14457981E+04</pdfrwt>
<totfact> 0.17210257E+01</totfact>
</mgrwt>
</event>
<event>
12    1  0.2048318E-007  0.3325909E+04  0.7818608E-02  0.8156334E-01
          2   -1    0    0  501    0  0.00000000000E+00  0.00000000000E+00  0.14529043094E+04  0.14529043094E+04  0.00000000000E+00 0. -1.
         -2   -1    0    0    0  501 -0.00000000000E+00 -0.00000000000E+00 -0.19033722305E+04  0.19033722305E+04  0.00000000000E+00 0.  1.
         23    2    1    2    0    0 -0.14040868994E+04  0.49220954572E+03  0.19755914901E+03  0.15030436064E+04  0.79876200784E+02 0.  0.
        254    2    1    2    0    0  0.14040868994E+04 -0.49220954572E+03 -0.64802707014E+03  0.18532329335E+04  0.89487594893E+03 0.  0.
        -24    2    4    4    0    0  0.10725316337E+04  0.67590988743E+02 -0.34584619503E+03  0.11315838763E+04  0.77329369755E+02 0.  0.
         24    2    4    4    0    0  0.33155526576E+03 -0.55980053446E+03 -0.30218087511E+03  0.72164905719E+03  0.78476415731E+02 0.  0.
         11    1    3    3    0    0 -0.11718887606E+04  0.41842286132E+03  0.19398577553E+03  0.12593774014E+04  0.00000000000E+00 0. -1.
        -11    1    3    3    0    0 -0.23219813885E+03  0.73786684396E+02  0.35733734793E+01  0.24366620504E+03  0.00000000000E+00 0.  1.
          2    1    6    6  502    0  0.95702872478E+02 -0.22535399695E+03 -0.91631490957E+02  0.26141880934E+03  0.00000000000E+00 0. -1.
          3    1    5    5  503    0  0.42034082081E+03  0.92317750855E+01 -0.17065276250E+03  0.45375543706E+03  0.00000000000E+00 0. -1.
         -4    1    5    5    0  503  0.65219081287E+03  0.58359213657E+02 -0.17519343253E+03  0.67782843922E+03  0.00000000000E+00 0.  1.
         -1    1    6    6    0  502  0.23585239328E+03 -0.33444653752E+03 -0.21054938415E+03  0.46023024786E+03  0.00000000000E+00 0.  1.
<mgrwt>
<rscale>  0 0.33259090E+04</rscale>
<asrwt>0</asrwt>
<pdfrwt beam="1">  1        2 0.22352374E+00 0.33259090E+04</pdfrwt>
<pdfrwt beam="2">  1       -2 0.29282649E+00 0.33259090E+04</pdfrwt>
<totfact> 0.39556671E-01</totfact>
</mgrwt>
</event>
<event>
12    1  0.2048318E-007  0.1903525E+04  0.7818608E-02  0.8653104E-01
         -2   -1    0    0    0  501 -0.00000000000E+00  0.00000000000E+00  0.53377451969E+03  0.53377451969E+03  0.00000000000E+00 0. -1.
          2   -1    0    0  501    0  0.00000000000E+00 -0.00000000000E+00 -0.16970691101E+04  0.16970691101E+04  0.00000000000E+00 0.  1.
         23    2    1    2    0    0 -0.35119380445E+03  0.62860703037E+03 -0.27181151306E+03  0.77520598983E+03  0.92622573482E+02 0.  0.
        254    2    1    2    0    0  0.35119380445E+03 -0.62860703037E+03 -0.89148307735E+03  0.14556376400E+04  0.89758285120E+03 0.  0.
        -24    2    4    4    0    0  0.33769215992E+01 -0.56802291434E+03 -0.96372885350E+02  0.58198037357E+03  0.82170477510E+02 0.  0.
         24    2    4    4    0    0  0.34781688285E+03 -0.60584116037E+02 -0.79511019200E+03  0.87365726640E+03  0.80185925199E+02 0.  0.
         11    1    3    3    0    0 -0.24941497340E+03  0.51104051576E+03 -0.19042180975E+03  0.59969217382E+03  0.00000000000E+00 0. -1.
        -11    1    3    3    0    0 -0.10177883105E+03  0.11756651461E+03 -0.81389703302E+02  0.17551381601E+03  0.00000000000E+00 0.  1.
          2    1    6    6  502    0  0.14310588578E+03 -0.38521506146E+02 -0.42546110326E+03  0.45053340760E+03  0.00000000000E+00 0. -1.
          3    1    5    5  503    0  0.95004631397E+01 -0.56709857882E+03 -0.97987987095E+02  0.57558031804E+03  0.00000000000E+00 0. -1.
         -4    1    5    5    0  503 -0.61235415405E+01 -0.92433552160E+00  0.16151017452E+01  0.64000555312E+01  0.00000000000E+00 0.  1.
         -1    1    6    6    0  502  0.20471099706E+03 -0.22062609890E+02 -0.36964908874E+03  0.42312385879E+03  0.00000000000E+00 0.  1.
<mgrwt>
<rscale>  0 0.19035254E+04</rscale>
<asrwt>0</asrwt>
<pdfrwt beam="1">  1        2 0.26108755E+00 0.19035254E+04</pdfrwt>
<pdfrwt beam="2">  1       -2 0.82119157E-01 0.19035254E+04</pdfrwt>
<totfact> 0.12009447E+01</totfact>
</mgrwt>
</event>
<event>
12    1  0.2048318E-007  0.1425457E+04  0.7818608E-02  0.8935595E-01
          1   -1    0    0  501    0  0.00000000000E+00  0.00000000000E+00  0.47866654649E+03  0.47866654649E+03  0.00000000000E+00 0. -1.
         -1   -1    0    0    0  501 -0.00000000000E+00 -0.00000000000E+00 -0.10612436699E+04  0.10612436699E+04  0.00000000000E+00 0.  1.
         23    2    1    2    0    0 -0.23498938092E+03 -0.25969555812E+03 -0.43402875775E+03  0.56529953100E+03  0.92308207304E+02 0.  0.
        254    2    1    2    0    0  0.23498938092E+03  0.25969555812E+03 -0.14854836564E+03  0.97461068536E+03  0.89729458877E+03 0.  0.
        -24    2    4    4    0    0  0.50402968671E+03  0.30024563716E+03  0.95434270515E+02  0.60075753550E+03  0.87226995527E+02 0.  0.
         24    2    4    4    0    0 -0.26904030579E+03 -0.40550079040E+02 -0.24398263615E+03  0.37385314986E+03  0.78814058843E+02 0.  0.
         13    1    3    3    0    0 -0.91874953299E+02 -0.82677211557E+02 -0.90469561963E+02  0.15317072173E+03  0.00000000000E+00 0. -1.
        -13    1    3    3    0    0 -0.14311442762E+03 -0.17701834657E+03 -0.34355919579E+03  0.41212880926E+03  0.00000000000E+00 0.  1.
          4    1    6    6  502    0 -0.18899438631E+03  0.57458236739E+01 -0.14405249854E+03  0.23770362825E+03  0.00000000000E+00 0. -1.
          3    1    5    5  503    0  0.36814426245E+03  0.17953542984E+03  0.87475109421E+02  0.41882581500E+03  0.00000000000E+00 0. -1.
         -4    1    5    5    0  503  0.13588542426E+03  0.12071020732E+03  0.79591610942E+01  0.18193172050E+03  0.00000000000E+00 0.  1.
         -3    1    6    6    0  502 -0.80045919474E+02 -0.46295902714E+02 -0.99930137614E+02  0.13614952162E+03  0.00000000000E+00 0.  1.
<mgrwt>
<rscale>  0 0.14254569E+04</rscale>
<asrwt>0</asrwt>
<pdfrwt beam="1">  1        1 0.73641007E-01 0.14254569E+04</pdfrwt>
<pdfrwt beam="2">  1       -1 0.16326826E+00 0.14254569E+04</pdfrwt>
<totfact> 0.12645566E+01</totfact>
</mgrwt>
</event>
<event>
12    1  0.2048318E-007  0.1748541E+04  0.7818608E-02  0.8734154E-01
          2   -1    0    0  501    0  0.00000000000E+00  0.00000000000E+00  0.97657532302E+03  0.97657532302E+03  0.00000000000E+00 0. -1.
         -2   -1    0    0    0  501 -0.00000000000E+00 -0.00000000000E+00 -0.78268297109E+03  0.78268297109E+03  0.00000000000E+00 0.  1.
         23    2    1    2    0    0 -0.39109884904E+02 -0.16564603578E+03 -0.54776016015E+03  0.58079221744E+03  0.91160378064E+02 0.  0.
        254    2    1    2    0    0  0.39109884904E+02  0.16564603578E+03  0.74165251208E+03  0.11784660767E+04  0.89986979775E+03 0.  0.
        -24    2    4    4    0    0 -0.38402425238E+03  0.18052457333E+02  0.56961842865E+03  0.69190995992E+03  0.80459435438E+02 0.  0.
         24    2    4    4    0    0  0.42313413728E+03  0.14759357845E+03  0.17203408343E+03  0.48655611674E+03  0.79465504120E+02 0.  0.
         13    1    3    3    0    0 -0.48285686526E+02 -0.16671263948E+03 -0.54364591126E+03  0.57067984765E+03  0.00000000000E+00 0.  1.
        -13    1    3    3    0    0  0.91758016218E+01  0.10666037016E+01 -0.41142488884E+01  0.10112369790E+02  0.00000000000E+00 0. -1.
          2    1    6    6  502    0  0.29659734800E+03  0.67088064563E+02  0.13070318449E+03  0.33098960359E+03  0.00000000000E+00 0. -1.
          1    1    5    5  503    0 -0.36333732432E+03  0.24185485517E+02  0.49679975763E+03  0.61596180737E+03  0.00000000000E+00 0. -1.
         -2    1    5    5    0  503 -0.20686928056E+02 -0.61330281850E+01  0.72818671023E+02  0.75948152556E+02  0.00000000000E+00 0.  1.
         -1    1    6    6    0  502  0.12653678928E+03  0.80505513888E+02  0.41330898941E+02  0.15556651316E+03  0.00000000000E+00 0.  1.
<mgrwt>
<rscale>  0 0.17485410E+04</rscale>
<asrwt>0</asrwt>
<pdfrwt beam="1">  1        2 0.15024236E+00 0.17485410E+04</pdfrwt>
<pdfrwt beam="2">  1       -2 0.12041276E+00 0.17485410E+04</pdfrwt>
<totfact> 0.13017914E+01</totfact>
</mgrwt>
</event>
<event>
12    1  0.2048318E-007  0.1582205E+04  0.7818608E-02  0.8831555E-01
          2   -1    0    0  501    0  0.00000000000E+00  0.00000000000E+00  0.26381875829E+04  0.26381875829E+04  0.00000000000E+00 0. -1.
         -2   -1    0    0    0  501 -0.00000000000E+00 -0.00000000000E+00 -0.23722472871E+03  0.23722472871E+03  0.00000000000E+00 0.  1.
         23    2    1    2    0    0 -0.51987984697E+03  0.99826824480E+02  0.77305185926E+03  0.94133889013E+03  0.90935574956E+02 0.  0.
        254    2    1    2    0    0  0.51987984697E+03 -0.99826824480E+02  0.16279109949E+04  0.19340734215E+04  0.90016961851E+03 0.  0.
        -24    2    4    4    0    0  0.32626873262E+03  0.37030294642E+03  0.10322576767E+04  0.11468518599E+04  0.78343598322E+02 0.  0.
         24    2    4    4    0    0  0.19361111435E+03 -0.47012977090E+03  0.59565331820E+03  0.78722156157E+03  0.80047775939E+02 0.  0.
         13    1    3    3    0    0 -0.44057886533E+03  0.79541644197E+02  0.70375339870E+03  0.83408959706E+03  0.00000000000E+00 0. -1.
        -13    1    3    3    0    0 -0.79300981639E+02  0.20285180283E+02  0.69298460554E+02  0.10724929307E+03  0.00000000000E+00 0.  1.
          4    1    6    6  502    0  0.17917924927E+03 -0.34518659807E+03  0.45153270991E+03  0.59593689177E+03  0.00000000000E+00 0. -1.
          1    1    5    5  503    0  0.20229441125E+03  0.24413271659E+03  0.74264898778E+03  0.80749695429E+03  0.00000000000E+00 0. -1.
         -2    1    5    5    0  503  0.12397432137E+03  0.12617022983E+03  0.28960868895E+03  0.33935490562E+03  0.00000000000E+00 0.  1.
         -3    1    6    6    0  502  0.14431865083E+02 -0.12494317283E+03  0.14412060828E+03  0.19128466979E+03  0.00000000000E+00 0.  1.
<mgrwt>
<rscale>  0 0.15822052E+04</rscale>
<asrwt>0</asrwt>
<pdfrwt beam="1">  1        2 0.40587499E+00 0.15822052E+04</pdfrwt>
<pdfrwt beam="2">  1       -2 0.36496114E-01 0.15822052E+04</pdfrwt>
<totfact> 0.19674409E+01</totfact>
</mgrwt>
</event>
<event>
12    1  0.2048318E-007  0.2688791E+04  0.7818608E-02  0.8338651E-01
          2   -1    0    0  501    0  0.00000000000E+00  0.00000000000E+00  0.20874029918E+04  0.20874029918E+04  0.00000000000E+00 0. -1.
         -2   -1    0    0    0  501 -0.00000000000E+00 -0.00000000000E+00 -0.86586032914E+03  0.86586032914E+03  0.00000000000E+00 0.  1.
         23    2    1    2    0    0 -0.79109164895E+03 -0.80758731214E+03  0.95822350004E+03  0.14848402907E+04  0.92385870991E+02 0.  0.
        254    2    1    2    0    0  0.79109164895E+03  0.80758731214E+03  0.26331916261E+03  0.14684230302E+04  0.89939198933E+03 0.  0.
        -24    2    4    4    0    0  0.62501939877E+02 -0.71786190518E+02  0.29830733429E+03  0.32317986036E+03  0.79988791775E+02 0.  0.
         24    2    4    4    0    0  0.72858970907E+03  0.87937350266E+03 -0.34988171688E+02  0.11452431698E+04  0.78848110791E+02 0.  0.
         11    1    3    3    0    0 -0.67122265385E+03 -0.64299658091E+03  0.81103266468E+03  0.12335957349E+04  0.00000000000E+00 0. -1.
        -11    1    3    3    0    0 -0.11986899510E+03 -0.16459073123E+03  0.14719083536E+03  0.25124455578E+03  0.00000000000E+00 0.  1.
          4    1    6    6  502    0  0.17666295174E+03  0.19019593980E+03  0.21643483194E+02  0.26048557426E+03  0.00000000000E+00 0. -1.
          1    1    5    5  503    0 -0.18697406145E+02 -0.58146792905E+01  0.41886811052E+02  0.46237521905E+02  0.00000000000E+00 0. -1.
         -2    1    5    5    0  503  0.81199346021E+02 -0.65971511228E+02  0.25642052324E+03  0.27694233845E+03  0.00000000000E+00 0.  1.
         -3    1    6    6    0  502  0.55192675733E+03  0.68917756287E+03 -0.56631654881E+02  0.88475759559E+03  0.00000000000E+00 0.  1.
<mgrwt>
<rscale>  0 0.26887911E+04</rscale>
<asrwt>0</asrwt>
<pdfrwt beam="1">  1        2 0.32113892E+00 0.26887911E+04</pdfrwt>
<pdfrwt beam="2">  1       -2 0.13320928E+00 0.26887911E+04</pdfrwt>
<totfact> 0.21405609E+00</totfact>
</mgrwt>
</event>
<event>
12    1  0.2048318E-007  0.1959803E+04  0.7818608E-02  0.8625648E-01
          2   -1    0    0  501    0  0.00000000000E+00  0.00000000000E+00  0.11536395606E+04  0.11536395606E+04  0.00000000000E+00 0. -1.
         -2   -1    0    0    0  501 -0.00000000000E+00 -0.00000000000E+00 -0.83232804849E+03  0.83232804849E+03  0.00000000000E+00 0.  1.
         23    2    1    2    0    0 -0.51212868339E+03  0.37862436906E+03 -0.31025194377E+03  0.71464154623E+03  0.93936520011E+02 0.  0.
        254    2    1    2    0    0  0.51212868339E+03 -0.37862436906E+03  0.63156345592E+03  0.12713260629E+04  0.90098022072E+03 0.  0.
        -24    2    4    4    0    0  0.54039429873E+03 -0.63158603243E+03  0.50932726135E+03  0.97799725697E+03  0.78341949312E+02 0.  0.
         24    2    4    4    0    0 -0.28265615336E+02  0.25296166337E+03  0.12223619457E+03  0.29332880593E+03  0.79445282912E+02 0.  0.
         11    1    3    3    0    0 -0.18764986664E+03  0.14190941564E+03 -0.65176208565E+02  0.24412843518E+03  0.00000000000E+00 0. -1.
        -11    1    3    3    0    0 -0.32447881675E+03  0.23671495342E+03 -0.24507573520E+03  0.47051311106E+03  0.00000000000E+00 0.  1.
          4    1    6    6  502    0 -0.62125595925E+01  0.24086961682E+03  0.10497184193E+03  0.26282286012E+03  0.00000000000E+00 0. -1.
          1    1    5    5  503    0  0.26408445832E+03 -0.31546026521E+03  0.29768439626E+03  0.50781077168E+03  0.00000000000E+00 0. -1.
         -2    1    5    5    0  503  0.27630984041E+03 -0.31612576722E+03  0.21164286508E+03  0.47018648529E+03  0.00000000000E+00 0.  1.
         -3    1    6    6    0  502 -0.22053055744E+02  0.12092046552E+02  0.17264352638E+02  0.30505945805E+02  0.00000000000E+00 0.  1.
<mgrwt>
<rscale>  0 0.19598026E+04</rscale>
<asrwt>0</asrwt>
<pdfrwt beam="1">  1        2 0.17748301E+00 0.19598026E+04</pdfrwt>
<pdfrwt beam="2">  1       -2 0.12805047E+00 0.19598026E+04</pdfrwt>
<totfact> 0.84964593E+00</totfact>
</mgrwt>
</event>
<event>
12    1  0.2048318E-007  0.2117390E+04  0.7818608E-02  0.8553621E-01
          2   -1    0    0  501    0  0.00000000000E+00  0.00000000000E+00  0.28229961768E+04  0.28229961768E+04  0.00000000000E+00 0. -1.
         -2   -1    0    0    0  501 -0.00000000000E+00 -0.00000000000E+00 -0.39703739349E+03  0.39703739349E+03  0.00000000000E+00 0.  1.
         23    2    1    2    0    0  0.83399736172E+03 -0.22449516977E+03  0.10785202254E+04  0.13839206646E+04  0.77979796317E+02 0.  0.
        254    2    1    2    0    0 -0.83399736172E+03  0.22449516977E+03  0.13474385579E+04  0.18361129057E+04  0.89987235459E+03 0.  0.
        -24    2    4    4    0    0 -0.71238094512E+03  0.11192976525E+03  0.14539973807E+04  0.16248584509E+04  0.77728495688E+02 0.  0.
         24    2    4    4    0    0 -0.12161641660E+03  0.11256540452E+03 -0.10655882286E+03  0.21125445476E+03  0.76237384822E+02 0.  0.
         11    1    3    3    0    0  0.71199861665E+03 -0.19070416831E+03  0.96152708341E+03  0.12115463021E+04  0.00000000000E+00 0. -1.
        -11    1    3    3    0    0  0.12199874507E+03 -0.33791001456E+02  0.11699314203E+03  0.17237436254E+03  0.00000000000E+00 0.  1.
          2    1    6    6  502    0  0.12155122634E+01  0.36987254760E+02 -0.12452855063E+02  0.39046230086E+02  0.00000000000E+00 0. -1.
          3    1    5    5  503    0 -0.36807356970E+03  0.40275506573E+02  0.66765891077E+03  0.76345837494E+03  0.00000000000E+00 0. -1.
         -4    1    5    5    0  503 -0.34430737542E+03  0.71654258679E+02  0.78633846996E+03  0.86140007597E+03  0.00000000000E+00 0.  1.
         -1    1    6    6    0  502 -0.12283192887E+03  0.75578149759E+02 -0.94105967795E+02  0.17220822467E+03  0.00000000000E+00 0.  1.
<mgrwt>
<rscale>  0 0.21173899E+04</rscale>
<asrwt>0</asrwt>
<pdfrwt beam="1">  1        2 0.43430709E+00 0.21173899E+04</pdfrwt>
<pdfrwt beam="2">  1       -2 0.61082678E-01 0.21173899E+04</pdfrwt>
<totfact> 0.51438565E+00</totfact>
</mgrwt>
</event>
<event>
12    1  0.2048318E-007  0.3512373E+04  0.7818608E-02  0.8110864E-01
          1   -1    0    0  501    0  0.00000000000E+00  0.00000000000E+00  0.26248128092E+04  0.26248128092E+04  0.00000000000E+00 0. -1.
         -1   -1    0    0    0  501 -0.00000000000E+00 -0.00000000000E+00 -0.11750140244E+04  0.11750140244E+04  0.00000000000E+00 0.  1.
         23    2    1    2    0    0 -0.12517238366E+04 -0.10589912918E+04  0.68281273666E+03  0.17784336437E+04  0.91202369944E+02 0.  0.
        254    2    1    2    0    0  0.12517238366E+04  0.10589912918E+04  0.76698604808E+03  0.20213931899E+04  0.89971534996E+03 0.  0.
        -24    2    4    4    0    0  0.11035704559E+04  0.41845891739E+03  0.32880113048E+03  0.12277004960E+04  0.78502916020E+02 0.  0.
         24    2    4    4    0    0  0.14815338076E+03  0.64053237445E+03  0.43818491760E+03  0.79369269394E+03  0.75570652090E+02 0.  0.
         11    1    3    3    0    0 -0.46335724712E+03 -0.34201456887E+03  0.26226996626E+03  0.63281864620E+03  0.00000000000E+00 0. -1.
        -11    1    3    3    0    0 -0.78836658951E+03 -0.71697672297E+03  0.42054277040E+03  0.11456149975E+04  0.00000000000E+00 0.  1.
          2    1    6    6  502    0 -0.54911653439E+01  0.10282109563E+02  0.15636915184E+02  0.19503532766E+02  0.00000000000E+00 0. -1.
          1    1    5    5  503    0  0.59368125816E+03  0.24695807954E+03  0.14437440898E+03  0.65900660035E+03  0.00000000000E+00 0. -1.
         -2    1    5    5    0  503  0.50988919771E+03  0.17150083785E+03  0.18442672151E+03  0.56869389564E+03  0.00000000000E+00 0.  1.
         -1    1    6    6    0  502  0.15364454610E+03  0.63025026488E+03  0.42254800242E+03  0.77418916117E+03  0.00000000000E+00 0.  1.
<mgrwt>
<rscale>  0 0.35123735E+04</rscale>
<asrwt>0</asrwt>
<pdfrwt beam="1">  1        1 0.40381735E+00 0.35123735E+04</pdfrwt>
<pdfrwt beam="2">  1       -1 0.18077139E+00 0.35123735E+04</pdfrwt>
<totfact> 0.18558692E-01</totfact>
</mgrwt>
</event>
<event>
12    1  0.2048318E-007  0.1541282E+04  0.7818608E-02  0.8857456E-01
         -1   -1    0    0    0  501 -0.00000000000E+00  0.00000000000E+00  0.12203751053E+04  0.12203751053E+04  0.00000000000E+00 0.  1.
          1   -1    0    0  501    0  0.00000000000E+00 -0.00000000000E+00 -0.48664333892E+03  0.48664333892E+03  0.00000000000E+00 0. -1.
         23    2    1    2    0    0 -0.26936153084E+03 -0.30234872579E+03 -0.86761350270E+02  0.42407028528E+03  0.91310944992E+02 0.  0.
        254    2    1    2    0    0  0.26936153084E+03  0.30234872579E+03  0.82049311660E+03  0.12829481589E+04  0.89932009747E+03 0.  0.
        -24    2    4    4    0    0  0.48974539998E+03  0.40850790455E+03  0.79757391126E+03  0.10246032514E+04  0.83417108098E+02 0.  0.
         24    2    4    4    0    0 -0.22038386914E+03 -0.10615917876E+03  0.22919205341E+02  0.25834490751E+03  0.79862257977E+02 0.  0.
         11    1    3    3    0    0 -0.21262970929E+03 -0.23792823003E+03 -0.28581852127E+02  0.32037190605E+03  0.00000000000E+00 0.  1.
        -11    1    3    3    0    0 -0.56731821547E+02 -0.64420495767E+02 -0.58179498143E+02  0.10369837923E+03  0.00000000000E+00 0. -1.
          2    1    6    6  502    0 -0.13227133130E+03 -0.99945913788E+02 -0.45279526877E+01  0.16584749960E+03  0.00000000000E+00 0. -1.
          3    1    5    5  503    0  0.46890664079E+03  0.38392455876E+03  0.78042770685E+03  0.98809863385E+03  0.00000000000E+00 0. -1.
         -4    1    5    5    0  503  0.20838759196E+02  0.24583345792E+02  0.17146204406E+02  0.36504617526E+02  0.00000000000E+00 0.  1.
         -1    1    6    6    0  502 -0.88112537845E+02 -0.62132649715E+01  0.27447158029E+02  0.92497407915E+02  0.00000000000E+00 0.  1.
<mgrwt>
<rscale>  0 0.15412818E+04</rscale>
<asrwt>0</asrwt>
<pdfrwt beam="1">  1        1 0.74868206E-01 0.15412818E+04</pdfrwt>
<pdfrwt beam="2">  1       -1 0.18775002E+00 0.15412818E+04</pdfrwt>
<totfact> 0.81281039E+00</totfact>
</mgrwt>
</event>
<event>
12    1  0.2048318E-007  0.1820896E+04  0.7818608E-02  0.8695266E-01
         -2   -1    0    0    0  501 -0.00000000000E+00  0.00000000000E+00  0.31533477253E+03  0.31533477253E+03  0.00000000000E+00 0.  1.
          2   -1    0    0  501    0  0.00000000000E+00 -0.00000000000E+00 -0.26286838847E+04  0.26286838847E+04  0.00000000000E+00 0. -1.
         23    2    1    2    0    0  0.48111559512E+03  0.37827911558E+03 -0.38278920239E+03  0.72789655400E+03  0.93480022993E+02 0.  0.
        254    2    1    2    0    0 -0.48111559512E+03 -0.37827911558E+03 -0.19305599098E+04  0.22161221032E+04  0.89976013806E+03 0.  0.
        -24    2    4    4    0    0 -0.18324741521E+03 -0.58804316612E+03 -0.16081065900E+04  0.17238928084E+04  0.80157530111E+02 0.  0.
         24    2    4    4    0    0 -0.29786817991E+03  0.20976405054E+03 -0.32245331972E+03  0.49222929478E+03  0.74747078478E+02 0.  0.
         13    1    3    3    0    0  0.48120992703E+03  0.36619676864E+03 -0.36476984552E+03  0.70620118057E+03  0.00000000000E+00 0.  1.
        -13    1    3    3    0    0 -0.94331908622E-01  0.12082346937E+02 -0.18019356875E+02  0.21695373428E+02  0.00000000000E+00 0. -1.
          2    1    6    6  502    0 -0.57200797986E+02  0.19622904284E+02 -0.26549373749E+02  0.66044370761E+02  0.00000000000E+00 0. -1.
          1    1    5    5  503    0 -0.50565780890E+01 -0.99766553085E+02 -0.30528832140E+03  0.32121627182E+03  0.00000000000E+00 0. -1.
         -2    1    5    5    0  503 -0.17819083712E+03 -0.48827661303E+03 -0.13028182686E+04  0.14026765366E+04  0.00000000000E+00 0.  1.
         -1    1    6    6    0  502 -0.24066738193E+03  0.19014114625E+03 -0.29590394597E+03  0.42618492402E+03  0.00000000000E+00 0.  1.
<mgrwt>
<rscale>  0 0.18208959E+04</rscale>
<asrwt>0</asrwt>
<pdfrwt beam="1">  1        2 0.40441291E+00 0.18208959E+04</pdfrwt>
<pdfrwt beam="2">  1       -2 0.48513042E-01 0.18208959E+04</pdfrwt>
<totfact> 0.11120279E+01</totfact>
</mgrwt>
</event>
<event>
12    1  0.2048318E-007  0.1169557E+04  0.7818608E-02  0.9139928E-01
          2   -1    0    0  501    0  0.00000000000E+00  0.00000000000E+00  0.23900856271E+04  0.23900856271E+04  0.00000000000E+00 0. -1.
         -2   -1    0    0    0  501 -0.00000000000E+00 -0.00000000000E+00 -0.14307689020E+03  0.14307689020E+03  0.00000000000E+00 0.  1.
         23    2    1    2    0    0  0.10388966409E+03  0.97342708250E+02  0.85117600084E+03  0.86782834260E+03  0.91415439994E+02 0.  0.
        254    2    1    2    0    0 -0.10388966409E+03 -0.97342708250E+02  0.13958327361E+04  0.16653341747E+04  0.89706199406E+03 0.  0.
        -24    2    4    4    0    0 -0.75148981932E+02  0.29719241735E+03  0.14065397388E+03  0.34693774369E+03  0.81311470369E+02 0.  0.
         24    2    4    4    0    0 -0.28740682156E+02 -0.39453512560E+03  0.12551787622E+04  0.13183964310E+04  0.78812639307E+02 0.  0.
         13    1    3    3    0    0  0.61264699858E+02  0.98437243231E+00  0.38884685500E+03  0.39364477525E+03  0.00000000000E+00 0. -1.
        -13    1    3    3    0    0  0.42624964229E+02  0.96358335818E+02  0.46232914584E+03  0.47418356735E+03  0.00000000000E+00 0.  1.
          4    1    6    6  502    0  0.20334887627E+02 -0.84983319933E+02  0.33947839896E+03  0.35054422786E+03  0.00000000000E+00 0. -1.
          1    1    5    5  503    0 -0.85030475834E+02  0.18162166253E+03  0.78642051210E+02  0.21540933670E+03  0.00000000000E+00 0. -1.
         -2    1    5    5    0  503  0.98814939023E+01  0.11557075482E+03  0.62011922669E+02  0.13152840699E+03  0.00000000000E+00 0.  1.
         -3    1    6    6    0  502 -0.49075569782E+02 -0.30955180566E+03  0.91570036322E+03  0.96785220315E+03  0.00000000000E+00 0.  1.
<mgrwt>
<rscale>  0 0.11695572E+04</rscale>
<asrwt>0</asrwt>
<pdfrwt beam="1">  1        2 0.36770545E+00 0.11695572E+04</pdfrwt>
<pdfrwt beam="2">  1       -2 0.22011831E-01 0.11695572E+04</pdfrwt>
<totfact> 0.72231827E+01</totfact>
</mgrwt>
</event>
<event>
12    1  0.2048318E-007  0.2409761E+04  0.7818608E-02  0.8435858E-01
          1   -1    0    0  501    0  0.00000000000E+00  0.00000000000E+00  0.16149454667E+04  0.16149454667E+04  0.00000000000E+00 0. -1.
         -1   -1    0    0    0  501 -0.00000000000E+00 -0.00000000000E+00 -0.89893878151E+03  0.89893878151E+03  0.00000000000E+00 0.  1.
         23    2    1    2    0    0 -0.89990211833E+03 -0.47660900260E+03  0.11578390949E+03  0.10283835645E+04  0.84775457361E+02 0.  0.
        254    2    1    2    0    0  0.89990211833E+03  0.47660900260E+03  0.60022277573E+03  0.14855006837E+04  0.89970269359E+03 0.  0.
        -24    2    4    4    0    0 -0.15336592382E+03  0.11876899836E+03 -0.17993809089E+02  0.21033474091E+03  0.79307909488E+02 0.  0.
         24    2    4    4    0    0  0.10532680421E+04  0.35784000424E+03  0.61821658482E+03  0.12751659428E+04  0.80208470218E+02 0.  0.
         13    1    3    3    0    0 -0.89845791122E+02 -0.43323772274E+02 -0.13575328902E+02  0.10066531171E+03  0.00000000000E+00 0.  1.
        -13    1    3    3    0    0 -0.81005632721E+03 -0.43328523033E+03  0.12935923839E+03  0.92771825283E+03  0.00000000000E+00 0. -1.
          4    1    6    6  502    0  0.51194775166E+03  0.21558953510E+03  0.29966256090E+03  0.63116321066E+03  0.00000000000E+00 0. -1.
          3    1    5    5  503    0 -0.38145508296E+02  0.32485168727E+02 -0.40772494578E+02  0.64596921788E+02  0.00000000000E+00 0. -1.
         -4    1    5    5    0  503 -0.11522041552E+03  0.86283829634E+02  0.22778685490E+02  0.14573781912E+03  0.00000000000E+00 0.  1.
         -3    1    6    6    0  502  0.54132029048E+03  0.14225046914E+03  0.31855402392E+03  0.64400273215E+03  0.00000000000E+00 0.  1.
<mgrwt>
<rscale>  0 0.24097611E+04</rscale>
<asrwt>0</asrwt>
<pdfrwt beam="1">  1        1 0.24845315E+00 0.24097611E+04</pdfrwt>
<pdfrwt beam="2">  1       -1 0.13829827E+00 0.24097611E+04</pdfrwt>
<totfact> 0.21116917E+00</totfact>
</mgrwt>
</event>
<event>
12    1  0.2048318E-007  0.2064195E+04  0.7818608E-02  0.8577182E-01
          1   -1    0    0  501    0  0.00000000000E+00  0.00000000000E+00  0.19641058719E+04  0.19641058719E+04  0.00000000000E+00 0. -1.
         -1   -1    0    0    0  501 -0.00000000000E+00 -0.00000000000E+00 -0.54234637699E+03  0.54234637699E+03  0.00000000000E+00 0.  1.
         23    2    1    2    0    0 -0.78207725399E+03 -0.31486619048E+03  0.67692249124E+03  0.10871141477E+04  0.11317049932E+03 0.  0.
        254    2    1    2    0    0  0.78207725399E+03  0.31486619048E+03  0.74483700363E+03  0.14193381011E+04  0.86542066894E+03 0.  0.
        -24    2    4    4    0    0  0.22956874062E+03 -0.27922928979E+03  0.11077292455E+03  0.38658724759E+03  0.80673764268E+02 0.  0.
         24    2    4    4    0    0  0.55250851338E+03  0.59409548027E+03  0.63406407908E+03  0.10327508535E+04  0.79510830062E+02 0.  0.
         11    1    3    3    0    0 -0.38320089253E+03 -0.17071478622E+03  0.26699972150E+03  0.49726784890E+03  0.00000000000E+00 0.  1.
        -11    1    3    3    0    0 -0.39887636146E+03 -0.14415140427E+03  0.40992276975E+03  0.58984629883E+03  0.00000000000E+00 0. -1.
          4    1    6    6  502    0  0.20020622811E+03  0.16254283982E+03  0.21174031347E+03  0.33367149848E+03  0.00000000000E+00 0. -1.
          3    1    5    5  503    0 -0.22304508092E+01 -0.12753134368E+02 -0.64389908788E+01  0.14459528020E+02  0.00000000000E+00 0. -1.
         -4    1    5    5    0  503  0.23179919142E+03 -0.26647615542E+03  0.11721191543E+03  0.37212771957E+03  0.00000000000E+00 0.  1.
         -3    1    6    6    0  502  0.35230228527E+03  0.43155264045E+03  0.42232376561E+03  0.69907935507E+03  0.00000000000E+00 0.  1.
<mgrwt>
<rscale>  0 0.20641954E+04</rscale>
<asrwt>0</asrwt>
<pdfrwt beam="1">  1        1 0.30217013E+00 0.20641954E+04</pdfrwt>
<pdfrwt beam="2">  1       -1 0.83437905E-01 0.20641954E+04</pdfrwt>
<totfact> 0.41437100E+00</totfact>
</mgrwt>
</event>
<event>
12    1  0.2048318E-007  0.1787231E+04  0.7818608E-02  0.8713119E-01
          1   -1    0    0  501    0  0.00000000000E+00  0.00000000000E+00  0.19005017796E+04  0.19005017796E+04  0.00000000000E+00 0. -1.
         -1   -1    0    0    0  501 -0.00000000000E+00 -0.00000000000E+00 -0.42017794621E+03  0.42017794621E+03  0.00000000000E+00 0.  1.
         23    2    1    2    0    0  0.58815743639E+03 -0.24178166038E+03  0.68988333354E+03  0.94230429438E+03  0.87240059793E+02 0.  0.
        254    2    1    2    0    0 -0.58815743639E+03  0.24178166038E+03  0.79044049982E+03  0.13783754314E+04  0.93313187966E+03 0.  0.
        -24    2    4    4    0    0  0.10581851967E+03  0.23121187785E+03  0.59760308288E+03  0.65377753707E+03  0.75094152518E+02 0.  0.
         24    2    4    4    0    0 -0.69397595606E+03  0.10569782529E+02  0.19283741694E+03  0.72459789433E+03  0.78367666805E+02 0.  0.
         13    1    3    3    0    0  0.47867036963E+03 -0.15892718035E+03  0.53241165271E+03  0.73337939660E+03  0.00000000000E+00 0. -1.
        -13    1    3    3    0    0  0.10948706676E+03 -0.82854480032E+02  0.15747168083E+03  0.20892489778E+03  0.00000000000E+00 0.  1.
          4    1    6    6  502    0 -0.52651147703E+03 -0.67179048893E+01  0.17696787771E+03  0.55549716059E+03  0.00000000000E+00 0. -1.
          3    1    5    5  503    0  0.80676572249E+02  0.13816256100E+03  0.28724330675E+03  0.32879525521E+03  0.00000000000E+00 0. -1.
         -4    1    5    5    0  503  0.25141947422E+02  0.93049316856E+02  0.31035977613E+03  0.32498228186E+03  0.00000000000E+00 0.  1.
         -3    1    6    6    0  502 -0.16746447903E+03  0.17287687418E+02  0.15869539232E+02  0.16910073373E+03  0.00000000000E+00 0.  1.
<mgrwt>
<rscale>  0 0.17872313E+04</rscale>
<asrwt>0</asrwt>
<pdfrwt beam="1">  1        1 0.29238488E+00 0.17872313E+04</pdfrwt>
<pdfrwt beam="2">  1       -1 0.64642762E-01 0.17872313E+04</pdfrwt>
<totfact> 0.79802338E+00</totfact>
</mgrwt>
</event>
<event>
12    1  0.2048318E-007  0.2538017E+04  0.7818608E-02  0.8389565E-01
          1   -1    0    0  501    0  0.00000000000E+00  0.00000000000E+00  0.15134989524E+04  0.15134989524E+04  0.00000000000E+00 0. -1.
         -1   -1    0    0    0  501 -0.00000000000E+00 -0.00000000000E+00 -0.10640134182E+04  0.10640134182E+04  0.00000000000E+00 0.  1.
         23    2    1    2    0    0  0.47791602495E+03  0.62944117690E+02  0.12100669044E+04  0.13057443672E+04  0.91327708755E+02 0.  0.
        254    2    1    2    0    0 -0.47791602495E+03 -0.62944117690E+02 -0.76058137021E+03  0.12717680034E+04  0.89807802829E+03 0.  0.
        -24    2    4    4    0    0 -0.32136086252E+03  0.69563192784E+02  0.12391803184E+03  0.36023353340E+03  0.79376811591E+02 0.  0.
         24    2    4    4    0    0 -0.15655516243E+03 -0.13250731047E+03 -0.88449940205E+03  0.91153447000E+03  0.80549311407E+02 0.  0.
         11    1    3    3    0    0  0.18939245558E+03  0.29474347449E+02  0.60375663506E+03  0.63345111395E+03  0.00000000000E+00 0. -1.
        -11    1    3    3    0    0  0.28852356937E+03  0.33469770241E+02  0.60631026939E+03  0.67229325325E+03  0.00000000000E+00 0.  1.
          2    1    6    6  502    0 -0.90029584556E+02 -0.37097133890E+02 -0.51624510920E+03  0.52534801438E+03  0.00000000000E+00 0. -1.
          3    1    5    5  503    0 -0.26110777090E+03  0.84951611167E+02  0.11380300363E+03  0.29722915048E+03  0.00000000000E+00 0. -1.
         -4    1    5    5    0  503 -0.60253091626E+02 -0.15388418382E+02  0.10115028211E+02  0.63004382915E+02  0.00000000000E+00 0.  1.
         -1    1    6    6    0  502 -0.66525577874E+02 -0.95410176583E+02 -0.36825429285E+03  0.38618645562E+03  0.00000000000E+00 0.  1.
<mgrwt>
<rscale>  0 0.25380175E+04</rscale>
<asrwt>0</asrwt>
<pdfrwt beam="1">  1        1 0.23284599E+00 0.25380175E+04</pdfrwt>
<pdfrwt beam="2">  1       -1 0.16369437E+00 0.25380175E+04</pdfrwt>
<totfact> 0.15538587E+00</totfact>
</mgrwt>
</event>
<event>
12    1  0.2048318E-007  0.1439088E+04  0.7818608E-02  0.8926000E-01
         -2   -1    0    0    0  501 -0.00000000000E+00  0.00000000000E+00  0.47679224177E+03  0.47679224177E+03  0.00000000000E+00 0.  1.
          2   -1    0    0  501    0  0.00000000000E+00 -0.00000000000E+00 -0.10858899322E+04  0.10858899322E+04  0.00000000000E+00 0. -1.
         23    2    1    2    0    0 -0.32015288731E+02 -0.79171074386E+02 -0.64661276920E+03  0.65873516531E+03  0.92362909182E+02 0.  0.
        254    2    1    2    0    0  0.32015288731E+02  0.79171074386E+02  0.37515078718E+02  0.90394700870E+03  0.89912166901E+03 0.  0.
        -24    2    4    4    0    0  0.10188256800E+02  0.40700855657E+03  0.26884300048E+03  0.49443336075E+03  0.80174956300E+02 0.  0.
         24    2    4    4    0    0  0.21827031931E+02 -0.32783748218E+03 -0.23132792176E+03  0.40951364796E+03  0.78961930262E+02 0.  0.
         13    1    3    3    0    0 -0.39414574227E+02  0.30909715045E+01 -0.14171971141E+03  0.14713102789E+03  0.00000000000E+00 0.  1.
        -13    1    3    3    0    0  0.73992854953E+01 -0.82262045891E+02 -0.50489305779E+03  0.51160413742E+03  0.00000000000E+00 0. -1.
          4    1    6    6  502    0 -0.15545577791E+02 -0.25763868960E+03 -0.16961422638E+03  0.30885003668E+03  0.00000000000E+00 0. -1.
          3    1    5    5  503    0  0.88694230096E+01  0.41082318774E+03  0.26625576674E+03  0.48963914424E+03  0.00000000000E+00 0. -1.
         -4    1    5    5    0  503  0.13188337903E+01 -0.38146311697E+01  0.25872337358E+01  0.47942165086E+01  0.00000000000E+00 0.  1.
         -1    1    6    6    0  502  0.37372609722E+02 -0.70198792579E+02 -0.61713695383E+02  0.10066361128E+03  0.00000000000E+00 0.  1.
<mgrwt>
<rscale>  0 0.14390885E+04</rscale>
<asrwt>0</asrwt>
<pdfrwt beam="1">  1        2 0.16705999E+00 0.14390885E+04</pdfrwt>
<pdfrwt beam="2">  1       -2 0.73352653E-01 0.14390885E+04</pdfrwt>
<totfact> 0.36193551E+01</totfact>
</mgrwt>
</event>
<event>
12    1  0.2048318E-007  0.2524406E+04  0.7818608E-02  0.8394342E-01
          2   -1    0    0  501    0  0.00000000000E+00  0.00000000000E+00  0.10806337364E+04  0.10806337364E+04  0.00000000000E+00 0. -1.
         -2   -1    0    0    0  501 -0.00000000000E+00 -0.00000000000E+00 -0.14742797816E+04  0.14742797816E+04  0.00000000000E+00 0.  1.
         23    2    1    2    0    0 -0.63771576821E+03  0.83107221467E+03 -0.50944585527E+03  0.11684343683E+04  0.91331081978E+02 0.  0.
        254    2    1    2    0    0  0.63771576821E+03 -0.83107221467E+03  0.11579981012E+03  0.13864791497E+04  0.90086203685E+03 0.  0.
        -24    2    4    4    0    0  0.59637632967E+03 -0.87110334163E+03  0.36424248715E+03  0.11196518477E+04  0.80386019438E+02 0.  0.
         24    2    4    4    0    0  0.41339438539E+02  0.40031126968E+02 -0.24844267703E+03  0.26682730201E+03  0.78495891771E+02 0.  0.
         11    1    3    3    0    0 -0.42429183838E+03  0.52713942059E+03 -0.28312593329E+03  0.73352561438E+03  0.00000000000E+00 0.  1.
        -11    1    3    3    0    0 -0.21342392983E+03  0.30393279407E+03 -0.22631992198E+03  0.43490875390E+03  0.00000000000E+00 0. -1.
          2    1    6    6  502    0 -0.18937016984E+02 -0.51256364391E+01 -0.79012124837E+02  0.81411293027E+02  0.00000000000E+00 0. -1.
          1    1    5    5  503    0  0.50200429817E+03 -0.67592934224E+03  0.29003408503E+03  0.89051028155E+03  0.00000000000E+00 0. -1.
         -2    1    5    5    0  503  0.94372031498E+02 -0.19517399940E+03  0.74208402127E+02  0.22914156610E+03  0.00000000000E+00 0.  1.
         -1    1    6    6    0  502  0.60276455523E+02  0.45156763407E+02 -0.16943055219E+03  0.18541600899E+03  0.00000000000E+00 0.  1.
<mgrwt>
<rscale>  0 0.25244060E+04</rscale>
<asrwt>0</asrwt>
<pdfrwt beam="1">  1        2 0.16625134E+00 0.25244060E+04</pdfrwt>
<pdfrwt beam="2">  1       -2 0.22681227E+00 0.25244060E+04</pdfrwt>
<totfact> 0.17845148E+00</totfact>
</mgrwt>
</event>
<event>
12    1  0.2048318E-007  0.2245652E+04  0.7818608E-02  0.8499663E-01
         -2   -1    0    0    0  501 -0.00000000000E+00  0.00000000000E+00  0.61227905049E+03  0.61227905049E+03  0.00000000000E+00 0.  1.
          2   -1    0    0  501    0  0.00000000000E+00 -0.00000000000E+00 -0.20590911910E+04  0.20590911910E+04  0.00000000000E+00 0. -1.
         23    2    1    2    0    0 -0.90768203935E+03  0.24090416615E+03 -0.63648570220E+03  0.11380846740E+04  0.90560334354E+02 0.  0.
        254    2    1    2    0    0  0.90768203935E+03 -0.24090416615E+03 -0.81032643829E+03  0.15332855675E+04  0.90134022052E+03 0.  0.
        -24    2    4    4    0    0  0.42404533681E+03  0.11760830966E+03 -0.81116425041E+03  0.92629378383E+03  0.79916022441E+02 0.  0.
         24    2    4    4    0    0  0.48363670254E+03 -0.35851247580E+03  0.83781212024E+00  0.60699178369E+03  0.77476888059E+02 0.  0.
         13    1    3    3    0    0 -0.13133737143E+03  0.12036755363E+02 -0.11726733475E+03  0.17648234023E+03  0.00000000000E+00 0. -1.
        -13    1    3    3    0    0 -0.77634466792E+03  0.22886741078E+03 -0.51921836745E+03  0.96160233373E+03  0.00000000000E+00 0.  1.
          4    1    6    6  502    0  0.25013407301E+03 -0.22310826665E+03  0.24264818369E+02  0.33605525519E+03  0.00000000000E+00 0. -1.
          1    1    5    5  503    0  0.40977050392E+03  0.12293233208E+03 -0.80065793133E+03  0.90778706046E+03  0.00000000000E+00 0. -1.
         -2    1    5    5    0  503  0.14274832897E+02 -0.53240224203E+01 -0.10506319080E+02  0.18506723362E+02  0.00000000000E+00 0.  1.
         -3    1    6    6    0  502  0.23350262953E+03 -0.13540420915E+03 -0.23427006249E+02  0.27093652850E+03  0.00000000000E+00 0.  1.
<mgrwt>
<rscale>  0 0.22456522E+04</rscale>
<asrwt>0</asrwt>
<pdfrwt beam="1">  1        2 0.31678326E+00 0.22456522E+04</pdfrwt>
<pdfrwt beam="2">  1       -2 0.94196777E-01 0.22456522E+04</pdfrwt>
<totfact> 0.53612019E+00</totfact>
</mgrwt>
</event>
<event>
12    1  0.2048318E-007  0.1560688E+04  0.7818608E-02  0.8845069E-01
          1   -1    0    0  501    0  0.00000000000E+00  0.00000000000E+00  0.82165334506E+03  0.82165334506E+03  0.00000000000E+00 0. -1.
         -1   -1    0    0    0  501 -0.00000000000E+00 -0.00000000000E+00 -0.74111198907E+03  0.74111198907E+03  0.00000000000E+00 0.  1.
         23    2    1    2    0    0 -0.35134435776E+03  0.36611181140E+03 -0.61904779025E+02  0.52003489894E+03  0.95516376997E+02 0.  0.
        254    2    1    2    0    0  0.35134435776E+03 -0.36611181140E+03  0.14244613502E+03  0.10427304352E+04  0.89973059464E+03 0.  0.
        -24    2    4    4    0    0  0.93542289090E+02 -0.41071171895E+03  0.45655536423E+03  0.62639498694E+03  0.80582896014E+02 0.  0.
         24    2    4    4    0    0  0.25780206867E+03  0.44599907553E+02 -0.31410922921E+03  0.41633544825E+03  0.78864055383E+02 0.  0.
         11    1    3    3    0    0 -0.16411490446E+03  0.13124455833E+03  0.12774783796E+02  0.21052798165E+03  0.00000000000E+00 0. -1.
        -11    1    3    3    0    0 -0.18722945330E+03  0.23486725306E+03 -0.74679562821E+02  0.30950691728E+03  0.00000000000E+00 0.  1.
          2    1    6    6  502    0  0.75329749946E+02  0.30309214836E+02 -0.51212832771E+02  0.95999864434E+02  0.00000000000E+00 0. -1.
          1    1    5    5  503    0  0.80187492989E+02 -0.18725148989E+03  0.24201836892E+03  0.31633217572E+03  0.00000000000E+00 0. -1.
         -2    1    5    5    0  503  0.13354796101E+02 -0.22346022906E+03  0.21453699531E+03  0.31006281123E+03  0.00000000000E+00 0.  1.
         -1    1    6    6    0  502  0.18247231872E+03  0.14290692718E+02 -0.26289639644E+03  0.32033558382E+03  0.00000000000E+00 0.  1.
<mgrwt>
<rscale>  0 0.15606885E+04</rscale>
<asrwt>0</asrwt>
<pdfrwt beam="1">  1        1 0.12640821E+00 0.15606885E+04</pdfrwt>
<pdfrwt beam="2">  1       -1 0.11401723E+00 0.15606885E+04</pdfrwt>
<totfact> 0.14286027E+01</totfact>
</mgrwt>
</event>
<event>
12    1  0.2048318E-007  0.3798978E+04  0.7818608E-02  0.8046374E-01
         -2   -1    0    0    0  501 -0.00000000000E+00  0.00000000000E+00  0.20932705925E+04  0.20932705925E+04  0.00000000000E+00 0.  1.
          2   -1    0    0  501    0  0.00000000000E+00 -0.00000000000E+00 -0.17236468943E+04  0.17236468943E+04  0.00000000000E+00 0. -1.
         23    2    1    2    0    0 -0.13088841386E+04 -0.79676648777E+03  0.11072922602E+04  0.18926409906E+04  0.89326622662E+02 0.  0.
        254    2    1    2    0    0  0.13088841386E+04  0.79676648777E+03 -0.73766856203E+03  0.19242764962E+04  0.90037247955E+03 0.  0.
        -24    2    4    4    0    0  0.10571184004E+04  0.85985974229E+03 -0.28165941965E+03  0.13936593413E+04  0.78078434674E+02 0.  0.
         24    2    4    4    0    0  0.25176573820E+03 -0.63093254527E+02 -0.45600914238E+03  0.53061715488E+03  0.79015703621E+02 0.  0.
         11    1    3    3    0    0 -0.10075227644E+04 -0.64921760354E+03  0.89011697697E+03  0.14929480400E+04  0.00000000000E+00 0. -1.
        -11    1    3    3    0    0 -0.30136137421E+03 -0.14754888422E+03  0.21717528324E+03  0.39969295059E+03  0.00000000000E+00 0.  1.
          2    1    6    6  502    0  0.16822578742E+03 -0.79567686737E+02 -0.30724935256E+03  0.35921177176E+03  0.00000000000E+00 0. -1.
          1    1    5    5  503    0  0.66789187577E+03  0.51377175497E+03 -0.14309812321E+03  0.85470348472E+03  0.00000000000E+00 0. -1.
         -2    1    5    5    0  503  0.38922652467E+03  0.34608798732E+03 -0.13856129644E+03  0.53895585658E+03  0.00000000000E+00 0.  1.
         -1    1    6    6    0  502  0.83539950783E+02  0.16474432210E+02 -0.14875978982E+03  0.17140538312E+03  0.00000000000E+00 0.  1.
<mgrwt>
<rscale>  0 0.37989785E+04</rscale>
<asrwt>0</asrwt>
<pdfrwt beam="1">  1        2 0.26517644E+00 0.37989785E+04</pdfrwt>
<pdfrwt beam="2">  1       -2 0.32204163E+00 0.37989785E+04</pdfrwt>
<totfact> 0.17741588E-01</totfact>
</mgrwt>
</event>
<event>
12    1  0.2048318E-007  0.2203728E+04  0.7818608E-02  0.8516878E-01
         -1   -1    0    0    0  501 -0.00000000000E+00  0.00000000000E+00  0.72246954894E+03  0.72246954894E+03  0.00000000000E+00 0.  1.
          1   -1    0    0  501    0  0.00000000000E+00 -0.00000000000E+00 -0.16804923288E+04  0.16804923288E+04  0.00000000000E+00 0. -1.
         23    2    1    2    0    0  0.11409389099E+03 -0.84946344868E+03 -0.51684470014E+02  0.86372908516E+03  0.93547215364E+02 0.  0.
        254    2    1    2    0    0 -0.11409389099E+03  0.84946344868E+03 -0.90633830988E+03  0.15392327926E+04  0.90176653925E+03 0.  0.
        -24    2    4    4    0    0  0.20367480341E+03  0.72260203585E+03 -0.91677679080E+03  0.11876272953E+04  0.79635297211E+02 0.  0.
         24    2    4    4    0    0 -0.31776869440E+03  0.12686141283E+03  0.10438480915E+02  0.35160549735E+03  0.80291361179E+02 0.  0.
         11    1    3    3    0    0  0.67008354198E+02 -0.26776182426E+03  0.14405310370E+02  0.27639469429E+03  0.00000000000E+00 0.  1.
        -11    1    3    3    0    0  0.47085536791E+02 -0.58170162442E+03 -0.66089780384E+02  0.58733439087E+03  0.00000000000E+00 0. -1.
          2    1    6    6  502    0 -0.18647116585E+03  0.40264769447E+02 -0.18566427204E+02  0.19167018436E+03  0.00000000000E+00 0. -1.
          3    1    5    5  503    0  0.11257806185E+02  0.39806412463E+02 -0.25871028760E+02  0.48791380411E+02  0.00000000000E+00 0. -1.
         -4    1    5    5    0  503  0.19241699722E+03  0.68279562339E+03 -0.89090576203E+03  0.11388359149E+04  0.00000000000E+00 0.  1.
         -1    1    6    6    0  502 -0.13129752854E+03  0.86596643382E+02  0.29004908119E+02  0.15993531299E+03  0.00000000000E+00 0.  1.
<mgrwt>
<rscale>  0 0.22037282E+04</rscale>
<asrwt>0</asrwt>
<pdfrwt beam="1">  1        1 0.25853728E+00 0.22037282E+04</pdfrwt>
<pdfrwt beam="2">  1       -1 0.11114916E+00 0.22037282E+04</pdfrwt>
<totfact> 0.33349220E+00</totfact>
</mgrwt>
</event>
<event>
12    1  0.2048318E-007  0.1516559E+04  0.7818608E-02  0.8873515E-01
          1   -1    0    0  501    0  0.00000000000E+00  0.00000000000E+00  0.98503548444E+03  0.98503548444E+03  0.00000000000E+00 0. -1.
         -1   -1    0    0    0  501 -0.00000000000E+00 -0.00000000000E+00 -0.58372319960E+03  0.58372319960E+03  0.00000000000E+00 0.  1.
         23    2    1    2    0    0 -0.25880594651E+03  0.41008549765E+03  0.12459259393E+03  0.50928187593E+03  0.93242057924E+02 0.  0.
        254    2    1    2    0    0  0.25880594651E+03 -0.41008549765E+03  0.27671969091E+03  0.10594768081E+04  0.90042583606E+03 0.  0.
        -24    2    4    4    0    0 -0.96469804656E+01 -0.62117555593E+03  0.25493610238E+02  0.62637878263E+03  0.75817673745E+02 0.  0.
         24    2    4    4    0    0  0.26845292697E+03  0.21109005828E+03  0.25122608068E+03  0.43309802547E+03  0.88506323793E+02 0.  0.
         13    1    3    3    0    0 -0.14140550668E+03  0.27544791170E+03  0.41935162189E+02  0.31245099969E+03  0.00000000000E+00 0.  1.
        -13    1    3    3    0    0 -0.11740043983E+03  0.13463758594E+03  0.82657431740E+02  0.19683087624E+03  0.00000000000E+00 0. -1.
          4    1    6    6  502    0  0.25320804168E+03  0.21623280694E+03  0.22345349574E+03  0.40100175052E+03  0.00000000000E+00 0. -1.
          3    1    5    5  503    0  0.27044923653E+02 -0.39997352337E+03  0.16513449863E+01  0.40089022716E+03  0.00000000000E+00 0. -1.
         -4    1    5    5    0  503 -0.36691904118E+02 -0.22120203255E+03  0.23842265252E+02  0.22548855547E+03  0.00000000000E+00 0.  1.
         -3    1    6    6    0  502  0.15244885299E+02 -0.51427486567E+01  0.27772584940E+02  0.32096274951E+02  0.00000000000E+00 0.  1.
<mgrwt>
<rscale>  0 0.15165593E+04</rscale>
<asrwt>0</asrwt>
<pdfrwt beam="1">  1        1 0.15154392E+00 0.15165593E+04</pdfrwt>
<pdfrwt beam="2">  1       -1 0.89803570E-01 0.15165593E+04</pdfrwt>
<totfact> 0.18233832E+01</totfact>
</mgrwt>
</event>
<event>
12    1  0.2048318E-007  0.2187521E+04  0.7818608E-02  0.8523640E-01
         -2   -1    0    0    0  501 -0.00000000000E+00  0.00000000000E+00  0.66984136995E+03  0.66984136995E+03  0.00000000000E+00 0.  1.
          2   -1    0    0  501    0  0.00000000000E+00 -0.00000000000E+00 -0.17859628899E+04  0.17859628899E+04  0.00000000000E+00 0. -1.
         23    2    1    2    0    0 -0.15271356506E+03 -0.79922394277E+03 -0.91270018795E+03  0.12261237097E+04  0.90980078964E+02 0.  0.
        254    2    1    2    0    0  0.15271356506E+03  0.79922394277E+03 -0.20342133200E+03  0.12296805501E+04  0.89925172974E+03 0.  0.
        -24    2    4    4    0    0  0.48729610856E+03  0.69177417707E+03 -0.17020513529E+03  0.86743357250E+03  0.86384056155E+02 0.  0.
         24    2    4    4    0    0 -0.33458254350E+03  0.10744976570E+03 -0.33216196713E+02  0.36224697764E+03  0.81416377465E+02 0.  0.
         11    1    3    3    0    0 -0.79461744411E+02 -0.34499953364E+03 -0.46211496388E+03  0.58214180994E+03  0.00000000000E+00 0. -1.
        -11    1    3    3    0    0 -0.73251820646E+02 -0.45422440913E+03 -0.45058522407E+03  0.64398189976E+03  0.00000000000E+00 0.  1.
          4    1    6    6  502    0 -0.26149999875E+02  0.26748340632E+02 -0.21652395136E+02  0.43221781953E+02  0.00000000000E+00 0. -1.
          1    1    5    5  503    0  0.25508390066E+03  0.34721815104E+03 -0.43467625694E+02  0.43303311106E+03  0.00000000000E+00 0. -1.
         -2    1    5    5    0  503  0.23221220789E+03  0.34455602603E+03 -0.12673750960E+03  0.43440046145E+03  0.00000000000E+00 0.  1.
         -3    1    6    6    0  502 -0.30843254362E+03  0.80701425068E+02 -0.11563801577E+02  0.31902519568E+03  0.00000000000E+00 0.  1.
<mgrwt>
<rscale>  0 0.21875208E+04</rscale>
<asrwt>0</asrwt>
<pdfrwt beam="1">  1        2 0.27476352E+00 0.21875208E+04</pdfrwt>
<pdfrwt beam="2">  1       -2 0.10305252E+00 0.21875208E+04</pdfrwt>
<totfact> 0.61801616E+00</totfact>
</mgrwt>
</event>
<event>
12    1  0.2048318E-007  0.4274893E+04  0.7818608E-02  0.7951277E-01
          1   -1    0    0  501    0  0.00000000000E+00  0.00000000000E+00  0.44070076030E+04  0.44070076030E+04  0.00000000000E+00 0. -1.
         -1   -1    0    0    0  501 -0.00000000000E+00 -0.00000000000E+00 -0.10366848433E+04  0.10366848433E+04  0.00000000000E+00 0.  1.
         23    2    1    2    0    0  0.19618662379E+04  0.43113131429E+03  0.11460196880E+04  0.23143548775E+04  0.89911222609E+02 0.  0.
        254    2    1    2    0    0 -0.19618662379E+04 -0.43113131429E+03  0.22243030717E+04  0.31293375689E+04  0.90024225583E+03 0.  0.
        -24    2    4    4    0    0 -0.35007080791E+03  0.26196308653E+03  0.48388715373E+03  0.65676567068E+03  0.77589557182E+02 0.  0.
         24    2    4    4    0    0 -0.16117954300E+04 -0.69309440081E+03  0.17404159180E+04  0.24725718982E+04  0.79371703355E+02 0.  0.
         13    1    3    3    0    0  0.13522081371E+04  0.30147587024E+03  0.74234668134E+03  0.15717611592E+04  0.00000000000E+00 0. -1.
        -13    1    3    3    0    0  0.60965810087E+03  0.12965544405E+03  0.40367300667E+03  0.74259371829E+03  0.00000000000E+00 0.  1.
          4    1    6    6  502    0 -0.13665477629E+04 -0.56359069934E+03  0.14386246240E+04  0.20626992203E+04  0.00000000000E+00 0. -1.
          3    1    5    5  503    0 -0.34170074796E+03  0.25909219187E+03  0.44942309749E+03  0.62118377763E+03  0.00000000000E+00 0. -1.
         -4    1    5    5    0  503 -0.83700599478E+01  0.28708946576E+01  0.34464056243E+02  0.35581893041E+02  0.00000000000E+00 0.  1.
         -3    1    6    6    0  502 -0.24524766715E+03 -0.12950370147E+03  0.30179129399E+03  0.40987267788E+03  0.00000000000E+00 0.  1.
<mgrwt>
<rscale>  0 0.42748932E+04</rscale>
<asrwt>0</asrwt>
<pdfrwt beam="1">  1        1 0.67800116E+00 0.42748932E+04</pdfrwt>
<pdfrwt beam="2">  1       -1 0.15948998E+00 0.42748932E+04</pdfrwt>
<totfact> 0.89726137E-03</totfact>
</mgrwt>
</event>
<event>
12    1  0.2048318E-007  0.1171467E+04  0.7818608E-02  0.9138204E-01
          2   -1    0    0  501    0  0.00000000000E+00  0.00000000000E+00  0.10336463159E+04  0.10336463159E+04  0.00000000000E+00 0. -1.
         -2   -1    0    0    0  501 -0.00000000000E+00 -0.00000000000E+00 -0.33191607721E+03  0.33191607721E+03  0.00000000000E+00 0.  1.
         23    2    1    2    0    0  0.14662888519E+03 -0.10030706224E+03  0.31320584371E+03  0.37140285069E+03  0.90998023396E+02 0.  0.
        254    2    1    2    0    0 -0.14662888519E+03  0.10030706224E+03  0.38852439502E+03  0.99415954245E+03  0.89768616655E+03 0.  0.
        -24    2    4    4    0    0  0.12725238439E+03 -0.22241278205E+03  0.48328611953E+03  0.55273645546E+03  0.79318982103E+02 0.  0.
         24    2    4    4    0    0 -0.27388126957E+03  0.32271984429E+03 -0.94761724506E+02  0.44142308699E+03  0.81948212747E+02 0.  0.
         11    1    3    3    0    0  0.48348627527E+02 -0.18405635482E+02  0.28015356691E+02  0.58832112080E+02  0.00000000000E+00 0.  1.
        -11    1    3    3    0    0  0.98280257659E+02 -0.81901426762E+02  0.28519048702E+03  0.31257073861E+03  0.00000000000E+00 0. -1.
          4    1    6    6  502    0 -0.22598498962E+03  0.21094648073E+03 -0.59538839968E+02  0.31482138861E+03  0.00000000000E+00 0. -1.
          1    1    5    5  503    0  0.10040200091E+03 -0.13854882518E+03  0.24613445219E+03  0.29976408607E+03  0.00000000000E+00 0. -1.
         -2    1    5    5    0  503  0.26850383478E+02 -0.83863956871E+02  0.23715166734E+03  0.25297236939E+03  0.00000000000E+00 0.  1.
         -3    1    6    6    0  502 -0.47896279953E+02  0.11177336357E+03 -0.35222884538E+02  0.12660169837E+03  0.00000000000E+00 0.  1.
<mgrwt>
<rscale>  0 0.11714672E+04</rscale>
<asrwt>0</asrwt>
<pdfrwt beam="1">  1        2 0.15902251E+00 0.11714672E+04</pdfrwt>
<pdfrwt beam="2">  1       -2 0.51064012E-01 0.11714672E+04</pdfrwt>
<totfact> 0.85879081E+01</totfact>
</mgrwt>
</event>
<event>
12    1  0.2048318E-007  0.1565128E+04  0.7818608E-02  0.8842263E-01
          2   -1    0    0  501    0  0.00000000000E+00  0.00000000000E+00  0.21742767032E+04  0.21742767032E+04  0.00000000000E+00 0. -1.
         -2   -1    0    0    0  501 -0.00000000000E+00 -0.00000000000E+00 -0.28165971379E+03  0.28165971379E+03  0.00000000000E+00 0.  1.
         23    2    1    2    0    0 -0.37038702709E+03 -0.36013633728E+03  0.70393795823E+03  0.87777264650E+03  0.89841185681E+02 0.  0.
        254    2    1    2    0    0  0.37038702709E+03  0.36013633728E+03  0.11886790311E+04  0.15781637704E+04  0.90042118810E+03 0.  0.
        -24    2    4    4    0    0  0.36280704182E+03 -0.18921798869E+03  0.79393396363E+03  0.89672473767E+03  0.79697676925E+02 0.  0.
         24    2    4    4    0    0  0.75799852759E+01  0.54935432597E+03  0.39474506751E+03  0.68143903277E+03  0.81779309244E+02 0.  0.
         11    1    3    3    0    0 -0.17881055179E+03 -0.14565599661E+03  0.38083149355E+03  0.44522074217E+03  0.00000000000E+00 0. -1.
        -11    1    3    3    0    0 -0.19157647530E+03 -0.21448034067E+03  0.32310646468E+03  0.43255190433E+03  0.00000000000E+00 0.  1.
          4    1    6    6  502    0 -0.30139519401E+02  0.31524928357E+03  0.25152101395E+03  0.40441726209E+03  0.00000000000E+00 0. -1.
          3    1    5    5  503    0  0.21190624454E+03 -0.84077594476E+02  0.36970857795E+03  0.43434747724E+03  0.00000000000E+00 0. -1.
         -4    1    5    5    0  503  0.15090079727E+03 -0.10514039421E+03  0.42422538568E+03  0.46237726043E+03  0.00000000000E+00 0.  1.
         -3    1    6    6    0  502  0.37719504677E+02  0.23410504240E+03  0.14322405356E+03  0.27702177068E+03  0.00000000000E+00 0.  1.
<mgrwt>
<rscale>  0 0.15651277E+04</rscale>
<asrwt>0</asrwt>
<pdfrwt beam="1">  1        2 0.33450410E+00 0.15651277E+04</pdfrwt>
<pdfrwt beam="2">  1       -2 0.43332265E-01 0.15651277E+04</pdfrwt>
<totfact> 0.25941195E+01</totfact>
</mgrwt>
</event>
<event>
12    1  0.2048318E-007  0.2481373E+04  0.7818608E-02  0.8409652E-01
          1   -1    0    0  501    0  0.00000000000E+00  0.00000000000E+00  0.78587213755E+03  0.78587213755E+03  0.00000000000E+00 0. -1.
         -1   -1    0    0    0  501 -0.00000000000E+00 -0.00000000000E+00 -0.19587191884E+04  0.19587191884E+04  0.00000000000E+00 0.  1.
         23    2    1    2    0    0  0.70179385147E+03  0.81382218963E+03 -0.49865021346E+03  0.11882648814E+04  0.92196673426E+02 0.  0.
        254    2    1    2    0    0 -0.70179385147E+03 -0.81382218963E+03 -0.67419683741E+03  0.15563264446E+04  0.90154836826E+03 0.  0.
        -24    2    4    4    0    0 -0.17503907824E+03  0.15456265123E+03  0.26514140004E+02  0.24758706493E+03  0.77897772945E+02 0.  0.
         24    2    4    4    0    0 -0.52675477323E+03 -0.96838484086E+03 -0.70071097742E+03  0.13087393797E+04  0.81012955292E+02 0.  0.
         13    1    3    3    0    0  0.34380893594E+03  0.34125807235E+03 -0.19521185279E+03  0.52227322720E+03  0.00000000000E+00 0. -1.
        -13    1    3    3    0    0  0.35798491553E+03  0.47256411728E+03 -0.30343836067E+03  0.66599165416E+03  0.00000000000E+00 0.  1.
          2    1    6    6  502    0 -0.49196134999E+02 -0.14791450400E+03 -0.91710476779E+02  0.18085843012E+03  0.00000000000E+00 0. -1.
          3    1    5    5  503    0 -0.21495329764E+02  0.25381287733E+02 -0.23579852009E+02  0.40770925786E+02  0.00000000000E+00 0. -1.
         -4    1    5    5    0  503 -0.15354374848E+03  0.12918136350E+03  0.50093992013E+02  0.20681613914E+03  0.00000000000E+00 0.  1.
         -1    1    6    6    0  502 -0.47755863823E+03 -0.82047033686E+03 -0.60900050064E+03  0.11278809496E+04  0.00000000000E+00 0.  1.
<mgrwt>
<rscale>  0 0.24813729E+04</rscale>
<asrwt>0</asrwt>
<pdfrwt beam="1">  1        1 0.12090341E+00 0.24813729E+04</pdfrwt>
<pdfrwt beam="2">  1       -1 0.30134141E+00 0.24813729E+04</pdfrwt>
<totfact> 0.65536842E-01</totfact>
</mgrwt>
</event>
<event>
12    1  0.2048318E-007  0.2003004E+04  0.7818608E-02  0.8605218E-01
         -2   -1    0    0    0  501 -0.00000000000E+00  0.00000000000E+00  0.34066587095E+03  0.34066587095E+03  0.00000000000E+00 0. -1.
          2   -1    0    0  501    0  0.00000000000E+00 -0.00000000000E+00 -0.29442515755E+04  0.29442515755E+04  0.00000000000E+00 0.  1.
         23    2    1    2    0    0 -0.68160755593E+03 -0.17044151567E+03 -0.16587855296E+04  0.18037357817E+04  0.90852443090E+02 0.  0.
        254    2    1    2    0    0  0.68160755593E+03  0.17044151567E+03 -0.94480017500E+03  0.14811816648E+04  0.89867267838E+03 0.  0.
        -24    2    4    4    0    0 -0.28586862916E+02 -0.24074895302E+03 -0.45597062063E+03  0.52261812828E+03  0.80269757794E+02 0.  0.
         24    2    4    4    0    0  0.71019441885E+03  0.41119046869E+03 -0.48882955437E+03  0.95856353652E+03  0.80224723178E+02 0.  0.
         13    1    3    3    0    0 -0.15523883149E+03 -0.32579676077E+01 -0.40262414989E+03  0.43152742118E+03  0.00000000000E+00 0. -1.
        -13    1    3    3    0    0 -0.52636872444E+03 -0.16718354806E+03 -0.12561613797E+04  0.13722083605E+04  0.00000000000E+00 0.  1.
          2    1    6    6  502    0  0.58234393486E+03  0.30657089925E+03 -0.41139496395E+03  0.77611596498E+03  0.00000000000E+00 0. -1.
          3    1    5    5  503    0  0.13838168141E+02 -0.17378544959E+03 -0.28370865465E+03  0.33299170877E+03  0.00000000000E+00 0. -1.
         -4    1    5    5    0  503 -0.42425031057E+02 -0.66963503424E+02 -0.17226196598E+03  0.18962641951E+03  0.00000000000E+00 0.  1.
         -1    1    6    6    0  502  0.12785048399E+03  0.10461956944E+03 -0.77434590424E+02  0.18244757154E+03  0.00000000000E+00 0.  1.
<mgrwt>
<rscale>  0 0.20030038E+04</rscale>
<asrwt>0</asrwt>
<pdfrwt beam="1">  1        2 0.45296181E+00 0.20030038E+04</pdfrwt>
<pdfrwt beam="2">  1       -2 0.52410131E-01 0.20030038E+04</pdfrwt>
<totfact> 0.60325096E+00</totfact>
</mgrwt>
</event>
<event>
12    1  0.2048318E-007  0.2229334E+04  0.7818608E-02  0.8506317E-01
          1   -1    0    0  501    0  0.00000000000E+00  0.00000000000E+00  0.95536026051E+03  0.95536026051E+03  0.00000000000E+00 0. -1.
         -1   -1    0    0    0  501 -0.00000000000E+00 -0.00000000000E+00 -0.13005376465E+04  0.13005376465E+04  0.00000000000E+00 0.  1.
         23    2    1    2    0    0  0.28889523292E+03  0.56393905059E+03 -0.83382144982E+03  0.10511894259E+04  0.90847623092E+02 0.  0.
        254    2    1    2    0    0 -0.28889523292E+03 -0.56393905059E+03  0.48864406384E+03  0.12047084811E+04  0.90058969286E+03 0.  0.
        -24    2    4    4    0    0 -0.52980017212E+03 -0.34710865281E+03  0.57607076316E+03  0.85976314962E+03  0.78501656306E+02 0.  0.
         24    2    4    4    0    0  0.24090493920E+03 -0.21683039778E+03 -0.87426699315E+02  0.34494533146E+03  0.79329961642E+02 0.  0.
         13    1    3    3    0    0  0.94293210081E+02  0.24569964890E+03 -0.28862088252E+03  0.39059127072E+03  0.00000000000E+00 0. -1.
        -13    1    3    3    0    0  0.19460202284E+03  0.31823940169E+03 -0.54520056730E+03  0.66059815521E+03  0.00000000000E+00 0.  1.
          2    1    6    6  502    0  0.16646390312E+03 -0.19433540736E+03 -0.69093438247E+02  0.26504789153E+03  0.00000000000E+00 0. -1.
          1    1    5    5  503    0 -0.13097887470E+03 -0.80686654619E+02  0.18720150643E+03  0.24230188992E+03  0.00000000000E+00 0. -1.
         -2    1    5    5    0  503 -0.39882129742E+03 -0.26642199819E+03  0.38886925673E+03  0.61746125969E+03  0.00000000000E+00 0.  1.
         -1    1    6    6    0  502  0.74441036079E+02 -0.22494990417E+02 -0.18333261069E+02  0.79897439932E+02  0.00000000000E+00 0.  1.
<mgrwt>
<rscale>  0 0.22293335E+04</rscale>
<asrwt>0</asrwt>
<pdfrwt beam="1">  1        1 0.14697850E+00 0.22293335E+04</pdfrwt>
<pdfrwt beam="2">  1       -1 0.20008271E+00 0.22293335E+04</pdfrwt>
<totfact> 0.22432409E+00</totfact>
</mgrwt>
</event>
<event>
12    1  0.2048318E-007  0.2184463E+04  0.7818608E-02  0.8524923E-01
         -1   -1    0    0    0  501 -0.00000000000E+00  0.00000000000E+00  0.54879929362E+03  0.54879929362E+03  0.00000000000E+00 0.  1.
          1   -1    0    0  501    0  0.00000000000E+00 -0.00000000000E+00 -0.21737805342E+04  0.21737805342E+04  0.00000000000E+00 0. -1.
         23    2    1    2    0    0  0.62117647547E+03 -0.64059921681E+03 -0.48466958946E+03  0.10187640915E+04  0.82146776243E+02 0.  0.
        254    2    1    2    0    0 -0.62117647547E+03  0.64059921681E+03 -0.11403116511E+04  0.17038157363E+04  0.89802551829E+03 0.  0.
        -24    2    4    4    0    0 -0.68664099868E+03  0.19166677079E+03 -0.98340387470E+03  0.12172090446E+04  0.79389327420E+02 0.  0.
         24    2    4    4    0    0  0.65464523208E+02  0.44893244602E+03 -0.15690777642E+03  0.48660669178E+03  0.79624602345E+02 0.  0.
         11    1    3    3    0    0  0.48872728240E+03 -0.45741485662E+03 -0.37897132485E+03  0.76922166680E+03  0.00000000000E+00 0.  1.
        -11    1    3    3    0    0  0.13244919307E+03 -0.18318436019E+03 -0.10569826461E+03  0.24954242466E+03  0.00000000000E+00 0. -1.
          4    1    6    6  502    0  0.49933226939E+01  0.57608073798E+00 -0.95593037513E+01  0.10800251328E+02  0.00000000000E+00 0. -1.
          1    1    5    5  503    0 -0.12184997573E+03  0.66287908757E+01 -0.14496406181E+03  0.18948861884E+03  0.00000000000E+00 0. -1.
         -2    1    5    5    0  503 -0.56479102295E+03  0.18503797992E+03 -0.83843981289E+03  0.10277204257E+04  0.00000000000E+00 0.  1.
         -3    1    6    6    0  502  0.60471200515E+02  0.44835636528E+03 -0.14734847267E+03  0.47580644045E+03  0.00000000000E+00 0.  1.
<mgrwt>
<rscale>  0 0.21844626E+04</rscale>
<asrwt>0</asrwt>
<pdfrwt beam="1">  1        1 0.33442777E+00 0.21844626E+04</pdfrwt>
<pdfrwt beam="2">  1       -1 0.84430661E-01 0.21844626E+04</pdfrwt>
<totfact> 0.28787034E+00</totfact>
</mgrwt>
</event>
<event>
12    1  0.2048318E-007  0.2149237E+04  0.7818608E-02  0.8539859E-01
          1   -1    0    0  501    0  0.00000000000E+00  0.00000000000E+00  0.16650561344E+04  0.16650561344E+04  0.00000000000E+00 0. -1.
         -1   -1    0    0    0  501 -0.00000000000E+00 -0.00000000000E+00 -0.69355331701E+03  0.69355331701E+03  0.00000000000E+00 0.  1.
         23    2    1    2    0    0  0.60627722626E+03  0.50529195028E+03 -0.34842531918E+02  0.79767935888E+03  0.11039170008E+03 0.  0.
        254    2    1    2    0    0 -0.60627722626E+03 -0.50529195028E+03  0.10063453493E+04  0.15609300926E+04  0.89491885757E+03 0.  0.
        -24    2    4    4    0    0 -0.32497809175E+03  0.22034216425E+03  0.24829411049E+03  0.47156905629E+03  0.81030735412E+02 0.  0.
         24    2    4    4    0    0 -0.28129913451E+03 -0.72563411453E+03  0.75805123884E+03  0.10893610363E+04  0.79948204456E+02 0.  0.
         13    1    3    3    0    0  0.26732559807E+03  0.15288331911E+03 -0.12101497764E+02  0.30819268468E+03  0.00000000000E+00 0.  1.
        -13    1    3    3    0    0  0.33895162820E+03  0.35240863117E+03 -0.22741034153E+02  0.48948667420E+03  0.00000000000E+00 0. -1.
          2    1    6    6  502    0 -0.17295453680E+03 -0.44267417451E+03  0.51631528987E+03  0.70175150526E+03  0.00000000000E+00 0. -1.
          1    1    5    5  503    0 -0.29957625216E+03  0.18986265176E+03  0.19382325135E+03  0.40417967558E+03  0.00000000000E+00 0. -1.
         -2    1    5    5    0  503 -0.25401839593E+02  0.30479512486E+02  0.54470859146E+02  0.67389380709E+02  0.00000000000E+00 0.  1.
         -1    1    6    6    0  502 -0.10834459771E+03 -0.28295994001E+03  0.24173594897E+03  0.38760953101E+03  0.00000000000E+00 0.  1.
<mgrwt>
<rscale>  0 0.21492373E+04</rscale>
<asrwt>0</asrwt>
<pdfrwt beam="1">  1        1 0.25616248E+00 0.21492373E+04</pdfrwt>
<pdfrwt beam="2">  1       -1 0.10670051E+00 0.21492373E+04</pdfrwt>
<totfact> 0.37807184E+00</totfact>
</mgrwt>
</event>
<event>
12    1  0.2048318E-007  0.2709457E+04  0.7818608E-02  0.8331943E-01
          2   -1    0    0  501    0  0.00000000000E+00  0.00000000000E+00  0.10874760737E+04  0.10874760737E+04  0.00000000000E+00 0.  1.
         -2   -1    0    0    0  501 -0.00000000000E+00 -0.00000000000E+00 -0.16876595399E+04  0.16876595399E+04  0.00000000000E+00 0. -1.
         23    2    1    2    0    0 -0.10861955899E+04  0.36801867122E+03  0.10498075009E+03  0.11553408949E+04  0.92374366841E+02 0.  0.
        254    2    1    2    0    0  0.10861955899E+04 -0.36801867122E+03 -0.70516421633E+03  0.16197947187E+04  0.90067738777E+03 0.  0.
        -24    2    4    4    0    0  0.41070407446E+03  0.28056220779E+03 -0.35746377036E+03  0.61776298944E+03  0.80360281129E+02 0.  0.
         24    2    4    4    0    0  0.67549151547E+03 -0.64858087901E+03 -0.34770044598E+03  0.10020317293E+04  0.78905273931E+02 0.  0.
         13    1    3    3    0    0 -0.25479417435E+03  0.59498621414E+02 -0.53569463070E+01  0.26170375257E+03  0.00000000000E+00 0. -1.
        -13    1    3    3    0    0 -0.83140141558E+03  0.30852004980E+03  0.11033769640E+03  0.89363714236E+03  0.00000000000E+00 0.  1.
          4    1    6    6  502    0  0.33219600940E+03 -0.30366870783E+03 -0.20746401372E+03  0.49559074827E+03  0.00000000000E+00 0. -1.
          1    1    5    5  503    0  0.16930844235E+03  0.98213164082E+02 -0.18605143577E+03  0.27004871968E+03  0.00000000000E+00 0. -1.
         -2    1    5    5    0  503  0.24139563211E+03  0.18234904371E+03 -0.17141233459E+03  0.34771426976E+03  0.00000000000E+00 0.  1.
         -3    1    6    6    0  502  0.34329550607E+03 -0.34491217118E+03 -0.14023643226E+03  0.50644098101E+03  0.00000000000E+00 0.  1.
<mgrwt>
<rscale>  0 0.27094570E+04</rscale>
<asrwt>0</asrwt>
<pdfrwt beam="1">  1        2 0.16730401E+00 0.27094570E+04</pdfrwt>
<pdfrwt beam="2">  1       -2 0.25963993E+00 0.27094570E+04</pdfrwt>
<totfact> 0.10902141E+00</totfact>
</mgrwt>
</event>
<event>
12    1  0.2048318E-007  0.1084807E+04  0.7818608E-02  0.9220128E-01
         -2   -1    0    0    0  501 -0.00000000000E+00  0.00000000000E+00  0.40590415028E+03  0.40590415028E+03  0.00000000000E+00 0.  1.
          2   -1    0    0  501    0  0.00000000000E+00 -0.00000000000E+00 -0.72480531191E+03  0.72480531191E+03  0.00000000000E+00 0. -1.
         23    2    1    2    0    0 -0.10555930710E+03 -0.33150861576E+02 -0.15723384899E+03  0.21247205420E+03  0.90444146355E+02 0.  0.
        254    2    1    2    0    0  0.10555930710E+03  0.33150861576E+02 -0.16166731264E+03  0.91823740799E+03  0.89709635520E+03 0.  0.
        -24    2    4    4    0    0 -0.13742293319E+03 -0.37112661279E+03 -0.17518812809E+03  0.43978657087E+03  0.78110962156E+02 0.  0.
         24    2    4    4    0    0  0.24298224029E+03  0.40427747436E+03  0.13520815452E+02  0.47845083712E+03  0.79067981627E+02 0.  0.
         11    1    3    3    0    0 -0.28096760456E+02 -0.32189505601E+02 -0.68023278718E+01  0.43265042280E+02  0.00000000000E+00 0.  1.
        -11    1    3    3    0    0 -0.77462546645E+02 -0.96135597425E+00 -0.15043152112E+03  0.16920701192E+03  0.00000000000E+00 0. -1.
          4    1    6    6  502    0  0.16546052128E+03  0.25460765294E+03  0.45052347470E+02  0.30697223824E+03  0.00000000000E+00 0. -1.
          1    1    5    5  503    0 -0.84027069202E+02 -0.31382810304E+03 -0.13586090660E+03  0.35214601028E+03  0.00000000000E+00 0. -1.
         -2    1    5    5    0  503 -0.53395863983E+02 -0.57298509750E+02 -0.39327221491E+02  0.87640560588E+02  0.00000000000E+00 0.  1.
         -3    1    6    6    0  502  0.77521719010E+02  0.14966982142E+03 -0.31531532018E+02  0.17147859888E+03  0.00000000000E+00 0.  1.
<mgrwt>
<rscale>  0 0.10848069E+04</rscale>
<asrwt>0</asrwt>
<pdfrwt beam="1">  1        2 0.11150851E+00 0.10848069E+04</pdfrwt>
<pdfrwt beam="2">  1       -2 0.62446793E-01 0.10848069E+04</pdfrwt>
<totfact> 0.92698766E+01</totfact>
</mgrwt>
</event>
<event>
12    1  0.2048318E-007  0.2110700E+04  0.7818608E-02  0.8556544E-01
          2   -1    0    0  501    0  0.00000000000E+00  0.00000000000E+00  0.33888459999E+04  0.33888459999E+04  0.00000000000E+00 0.  1.
         -2   -1    0    0    0  501 -0.00000000000E+00 -0.00000000000E+00 -0.32865575407E+03  0.32865575407E+03  0.00000000000E+00 0. -1.
         23    2    1    2    0    0 -0.37061328853E+03  0.77454478664E+03  0.11621377290E+04  0.14477752754E+04  0.90638351171E+02 0.  0.
        254    2    1    2    0    0  0.37061328853E+03 -0.77454478664E+03  0.18980525168E+04  0.22697264786E+04  0.90098895374E+03 0.  0.
        -24    2    4    4    0    0  0.57052919547E+03 -0.20862221146E+03  0.11865011708E+04  0.13355569837E+04  0.83070081835E+02 0.  0.
         24    2    4    4    0    0 -0.19991590693E+03 -0.56592257518E+03  0.71155134605E+03  0.93416949486E+03  0.78310894015E+02 0.  0.
         13    1    3    3    0    0 -0.30193281489E+03  0.55665057055E+03  0.89296105059E+03  0.10947158171E+04  0.00000000000E+00 0. -1.
        -13    1    3    3    0    0 -0.68680473645E+02  0.21789421609E+03  0.26917667843E+03  0.35305945828E+03  0.00000000000E+00 0.  1.
          2    1    6    6  502    0 -0.17657183492E+03 -0.41785118326E+03  0.56453527527E+03  0.72420805109E+03  0.00000000000E+00 0. -1.
          1    1    5    5  503    0  0.50404348164E+03 -0.20167205888E+03  0.10071235168E+04  0.11441281523E+04  0.00000000000E+00 0. -1.
         -2    1    5    5    0  503  0.66485713830E+02 -0.69501525809E+01  0.17937765394E+03  0.19142883141E+03  0.00000000000E+00 0.  1.
         -1    1    6    6    0  502 -0.23344072014E+02 -0.14807139192E+03  0.14701607077E+03  0.20996144377E+03  0.00000000000E+00 0.  1.
<mgrwt>
<rscale>  0 0.21107001E+04</rscale>
<asrwt>0</asrwt>
<pdfrwt beam="1">  1        2 0.52136090E+00 0.21107001E+04</pdfrwt>
<pdfrwt beam="2">  1       -2 0.50562426E-01 0.21107001E+04</pdfrwt>
<totfact> 0.33165184E+00</totfact>
</mgrwt>
</event>
<event>
12    1  0.2048318E-007  0.2177436E+04  0.7818608E-02  0.8527879E-01
          1   -1    0    0  501    0  0.00000000000E+00  0.00000000000E+00  0.13841588074E+04  0.13841588074E+04  0.00000000000E+00 0. -1.
         -1   -1    0    0    0  501 -0.00000000000E+00 -0.00000000000E+00 -0.85633755558E+03  0.85633755558E+03  0.00000000000E+00 0.  1.
         23    2    1    2    0    0  0.21813260142E+03  0.87342998315E+03  0.17842693759E+03  0.92202503953E+03  0.88499910650E+02 0.  0.
        254    2    1    2    0    0 -0.21813260142E+03 -0.87342998315E+03  0.34939431421E+03  0.13184713234E+04  0.89767949552E+03 0.  0.
        -24    2    4    4    0    0  0.27694063949E+03 -0.24575030282E+03 -0.10797055514E+03  0.39404580056E+03  0.80778233597E+02 0.  0.
         24    2    4    4    0    0 -0.49507324092E+03 -0.62767968033E+03  0.45736486936E+03  0.92442552288E+03  0.79376499416E+02 0.  0.
         13    1    3    3    0    0  0.57683554746E+02  0.37396262383E+03  0.47732063181E+02  0.38138404053E+03  0.00000000000E+00 0. -1.
        -13    1    3    3    0    0  0.16044904668E+03  0.49946735932E+03  0.13069487441E+03  0.54064099900E+03  0.00000000000E+00 0.  1.
          4    1    6    6  502    0 -0.16775801170E+03 -0.21689679161E+03  0.20084884639E+03  0.33989296520E+03  0.00000000000E+00 0. -1.
          3    1    5    5  503    0  0.31684049047E+02 -0.22404208008E+02 -0.39434500976E+02  0.55325467623E+02  0.00000000000E+00 0. -1.
         -4    1    5    5    0  503  0.24525659045E+03 -0.22334609481E+03 -0.68536054169E+02  0.33872033294E+03  0.00000000000E+00 0.  1.
         -3    1    6    6    0  502 -0.32731522922E+03 -0.41078288873E+03  0.25651602297E+03  0.58453255768E+03  0.00000000000E+00 0.  1.
<mgrwt>
<rscale>  0 0.21774363E+04</rscale>
<asrwt>0</asrwt>
<pdfrwt beam="1">  1        1 0.21294751E+00 0.21774363E+04</pdfrwt>
<pdfrwt beam="2">  1       -1 0.13174424E+00 0.21774363E+04</pdfrwt>
<totfact> 0.35307270E+00</totfact>
</mgrwt>
</event>
<event>
12    1  0.2048318E-007  0.1464183E+04  0.7818608E-02  0.8908626E-01
          1   -1    0    0  501    0  0.00000000000E+00  0.00000000000E+00  0.27176687207E+04  0.27176687207E+04  0.00000000000E+00 0. -1.
         -1   -1    0    0    0  501 -0.00000000000E+00 -0.00000000000E+00 -0.19721247183E+03  0.19721247183E+03  0.00000000000E+00 0.  1.
         23    2    1    2    0    0 -0.26792755869E+03  0.31136284291E+03  0.11491087787E+04  0.12235512740E+04  0.88852339476E+02 0.  0.
        254    2    1    2    0    0  0.26792755869E+03 -0.31136284291E+03  0.13713474701E+04  0.16913299185E+04  0.90070584134E+03 0.  0.
        -24    2    4    4    0    0 -0.49763078226E+02 -0.16504668502E+03  0.13153657456E+04  0.13289855776E+04  0.79365285521E+02 0.  0.
         24    2    4    4    0    0  0.31769063691E+03 -0.14631615789E+03  0.55981724470E+02  0.36234434082E+03  0.76313229581E+02 0.  0.
         11    1    3    3    0    0 -0.24333548230E+03  0.29084967915E+03  0.11100788856E+04  0.11730647148E+04  0.00000000000E+00 0. -1.
        -11    1    3    3    0    0 -0.24592076387E+02  0.20513163761E+02  0.39029893081E+02  0.50486559225E+02  0.00000000000E+00 0.  1.
          2    1    6    6  502    0  0.11688133064E+02 -0.22918656710E+02 -0.64972546628E+01  0.26534724383E+02  0.00000000000E+00 0. -1.
          1    1    5    5  503    0  0.13332214413E+02 -0.27957504389E+00  0.95585171033E+02  0.96510885525E+02  0.00000000000E+00 0. -1.
         -2    1    5    5    0  503 -0.63095292639E+02 -0.16476710997E+03  0.12197805746E+04  0.12324746921E+04  0.00000000000E+00 0.  1.
         -1    1    6    6    0  502  0.30600250385E+03 -0.12339750118E+03  0.62478979132E+02  0.33580961644E+03  0.00000000000E+00 0.  1.
<mgrwt>
<rscale>  0 0.14641833E+04</rscale>
<asrwt>0</asrwt>
<pdfrwt beam="1">  1        1 0.41810285E+00 0.14641833E+04</pdfrwt>
<pdfrwt beam="2">  1       -1 0.30340382E-01 0.14641833E+04</pdfrwt>
<totfact> 0.92946851E+00</totfact>
</mgrwt>
</event>
<event>
12    1  0.2048318E-007  0.1904044E+04  0.7818608E-02  0.8652846E-01
          2   -1    0    0  501    0  0.00000000000E+00  0.00000000000E+00  0.32388088953E+04  0.32388088953E+04  0.00000000000E+00 0. -1.
         -2   -1    0    0    0  501 -0.00000000000E+00 -0.00000000000E+00 -0.27983923408E+03  0.27983923408E+03  0.00000000000E+00 0.  1.
         23    2    1    2    0    0  0.66203693438E+03 -0.19400624447E+03  0.16225001158E+04  0.17654720248E+04  0.91943020876E+02 0.  0.
        254    2    1    2    0    0 -0.66203693438E+03  0.19400624447E+03  0.13364695454E+04  0.17531761046E+04  0.90085752623E+03 0.  0.
        -24    2    4    4    0    0 -0.29133759305E+03  0.53940399966E+03  0.66220606978E+03  0.90633770856E+03  0.84243071708E+02 0.  0.
         24    2    4    4    0    0 -0.37069934133E+03 -0.34539775519E+03  0.67426347558E+03  0.84683839600E+03  0.76068544677E+02 0.  0.
         13    1    3    3    0    0  0.53284000158E+03 -0.16059803375E+03  0.13920819536E+04  0.14992005741E+04  0.00000000000E+00 0. -1.
        -13    1    3    3    0    0  0.12919693280E+03 -0.33408210723E+02  0.23041816219E+03  0.26627145070E+03  0.00000000000E+00 0.  1.
          2    1    6    6  502    0 -0.13998287005E+02 -0.26046909383E+02  0.18434824617E+02  0.34845893390E+02  0.00000000000E+00 0. -1.
          1    1    5    5  503    0  0.60211698913E+00  0.27560724158E+02  0.46819058765E+02  0.54332129764E+02  0.00000000000E+00 0. -1.
         -2    1    5    5    0  503 -0.29193971004E+03  0.51184327550E+03  0.61538701102E+03  0.85200557880E+03  0.00000000000E+00 0.  1.
         -1    1    6    6    0  502 -0.35670105432E+03 -0.31935084581E+03  0.65582865096E+03  0.81199250261E+03  0.00000000000E+00 0.  1.
<mgrwt>
<rscale>  0 0.19040439E+04</rscale>
<asrwt>0</asrwt>
<pdfrwt beam="1">  1        2 0.49827827E+00 0.19040439E+04</pdfrwt>
<pdfrwt beam="2">  1       -2 0.43052192E-01 0.19040439E+04</pdfrwt>
<totfact> 0.58841919E+00</totfact>
</mgrwt>
</event>
<event>
12    1  0.2048318E-007  0.2369008E+04  0.7818608E-02  0.8451199E-01
          2   -1    0    0  501    0  0.00000000000E+00  0.00000000000E+00  0.12579573219E+04  0.12579573219E+04  0.00000000000E+00 0. -1.
         -2   -1    0    0    0  501 -0.00000000000E+00 -0.00000000000E+00 -0.11153392551E+04  0.11153392551E+04  0.00000000000E+00 0.  1.
         23    2    1    2    0    0 -0.36623411957E+03 -0.52389981123E+03 -0.72354317794E+03  0.96973676575E+03  0.90973743305E+02 0.  0.
        254    2    1    2    0    0  0.36623411957E+03  0.52389981123E+03  0.86616124468E+03  0.14035598112E+04  0.90063666333E+03 0.  0.
        -24    2    4    4    0    0  0.27723443866E+03 -0.10121056979E+03  0.66898331236E+03  0.73601743100E+03  0.84145547129E+02 0.  0.
         24    2    4    4    0    0  0.88999680906E+02  0.62511038102E+03  0.19717793233E+03  0.66754238022E+03  0.89720458839E+02 0.  0.
         11    1    3    3    0    0 -0.33021541638E+03 -0.50780603992E+03 -0.66987672373E+03  0.90313012373E+03  0.00000000000E+00 0.  1.
        -11    1    3    3    0    0 -0.36018703188E+02 -0.16093771310E+02 -0.53666454209E+02  0.66606642023E+02  0.00000000000E+00 0. -1.
          2    1    6    6  502    0  0.20372890216E+02  0.20398282814E+02  0.13508040430E+02  0.31837269885E+02  0.00000000000E+00 0. -1.
          1    1    5    5  503    0  0.13494932156E+03 -0.27794488077E+02  0.39911149032E+03  0.42222486268E+03  0.00000000000E+00 0. -1.
         -2    1    5    5    0  503  0.14228511710E+03 -0.73416081717E+02  0.26987182203E+03  0.31379256832E+03  0.00000000000E+00 0.  1.
         -1    1    6    6    0  502  0.68626790690E+02  0.60471209821E+03  0.18366989190E+03  0.63570511034E+03  0.00000000000E+00 0.  1.
<mgrwt>
<rscale>  0 0.23690075E+04</rscale>
<asrwt>0</asrwt>
<pdfrwt beam="1">  1        2 0.19353190E+00 0.23690075E+04</pdfrwt>
<pdfrwt beam="2">  1       -2 0.17159065E+00 0.23690075E+04</pdfrwt>
<totfact> 0.32759061E+00</totfact>
</mgrwt>
</event>
<event>
12    1  0.2048318E-007  0.2406974E+04  0.7818608E-02  0.8436897E-01
          2   -1    0    0  501    0  0.00000000000E+00  0.00000000000E+00  0.69771303515E+03  0.69771303515E+03  0.00000000000E+00 0. -1.
         -2   -1    0    0    0  501 -0.00000000000E+00 -0.00000000000E+00 -0.20758975325E+04  0.20758975325E+04  0.00000000000E+00 0.  1.
         23    2    1    2    0    0  0.40417794375E+03  0.86854378433E+03 -0.10374607689E+04  0.14157852804E+04  0.10195586138E+03 0.  0.
        254    2    1    2    0    0 -0.40417794375E+03 -0.86854378433E+03 -0.34072372847E+03  0.13578252873E+04  0.89992707267E+03 0.  0.
        -24    2    4    4    0    0 -0.52986658732E+03 -0.11858301215E+03 -0.11757669969E+03  0.56130074296E+03  0.80085657961E+02 0.  0.
         24    2    4    4    0    0  0.12568864357E+03 -0.74996077218E+03 -0.22314702878E+03  0.79652454432E+03  0.80112160803E+02 0.  0.
         13    1    3    3    0    0  0.20581007586E+03  0.40918683725E+03 -0.56803591589E+03  0.72969614007E+03  0.00000000000E+00 0.  1.
        -13    1    3    3    0    0  0.19836786789E+03  0.45935694708E+03 -0.46942485304E+03  0.68608914034E+03  0.00000000000E+00 0. -1.
          4    1    6    6  502    0  0.16976028048E+02 -0.13799840537E+03 -0.73282037634E+02  0.15716870698E+03  0.00000000000E+00 0. -1.
          3    1    5    5  503    0 -0.18104585521E+03 -0.75059473108E+02 -0.23415233163E+02  0.19738236836E+03  0.00000000000E+00 0. -1.
         -4    1    5    5    0  503 -0.34882073211E+03 -0.43523539038E+02 -0.94161466527E+02  0.36391837461E+03  0.00000000000E+00 0.  1.
         -3    1    6    6    0  502  0.10871261553E+03 -0.61196236681E+03 -0.14986499115E+03  0.63935583733E+03  0.00000000000E+00 0.  1.
<mgrwt>
<rscale>  0 0.24069738E+04</rscale>
<asrwt>0</asrwt>
<pdfrwt beam="1">  1        2 0.10734047E+00 0.24069738E+04</pdfrwt>
<pdfrwt beam="2">  1       -2 0.31936886E+00 0.24069738E+04</pdfrwt>
<totfact> 0.89377593E-01</totfact>
</mgrwt>
</event>
<event>
12    1  0.2048318E-007  0.2446746E+04  0.7818608E-02  0.8422207E-01
         -2   -1    0    0    0  501 -0.00000000000E+00  0.00000000000E+00  0.93134312007E+03  0.93134312007E+03  0.00000000000E+00 0.  1.
          2   -1    0    0  501    0  0.00000000000E+00 -0.00000000000E+00 -0.16069708812E+04  0.16069708812E+04  0.00000000000E+00 0. -1.
         23    2    1    2    0    0 -0.39829196178E+03  0.92836786493E+03 -0.61176947653E+03  0.11841752941E+04  0.86636339029E+02 0.  0.
        254    2    1    2    0    0  0.39829196178E+03 -0.92836786493E+03 -0.63858284575E+02  0.13541387072E+04  0.89950562992E+03 0.  0.
        -24    2    4    4    0    0 -0.63954635119E+02  0.10097903535E+03 -0.16511116223E+03  0.21843480811E+03  0.78518205325E+02 0.  0.
         24    2    4    4    0    0  0.46224659690E+03 -0.10293469003E+04  0.10125287765E+03  0.11357038990E+04  0.79650760248E+02 0.  0.
         11    1    3    3    0    0 -0.32320816429E+03  0.81744588385E+03 -0.51317052202E+03  0.10178532680E+04  0.00000000000E+00 0. -1.
        -11    1    3    3    0    0 -0.75083797488E+02  0.11092198108E+03 -0.98598954509E+02  0.16632202609E+03  0.00000000000E+00 0.  1.
          4    1    6    6  502    0  0.32611044914E+02 -0.64833841607E+02 -0.12775966761E+02  0.73689433398E+02  0.00000000000E+00 0. -1.
          1    1    5    5  503    0  0.84207398694E+01 -0.81518708487E+01 -0.18055881261E+02  0.21526186527E+02  0.00000000000E+00 0. -1.
         -2    1    5    5    0  503 -0.72375374988E+02  0.10913090620E+03 -0.14705528097E+03  0.19690862158E+03  0.00000000000E+00 0.  1.
         -3    1    6    6    0  502  0.42963555198E+03 -0.96451305868E+03  0.11402884441E+03  0.10620144657E+04  0.00000000000E+00 0.  1.
<mgrwt>
<rscale>  0 0.24467458E+04</rscale>
<asrwt>0</asrwt>
<pdfrwt beam="1">  1        2 0.24722629E+00 0.24467458E+04</pdfrwt>
<pdfrwt beam="2">  1       -2 0.14328356E+00 0.24467458E+04</pdfrwt>
<totfact> 0.33476299E+00</totfact>
</mgrwt>
</event>
<event>
12    1  0.2048318E-007  0.1509510E+04  0.7818608E-02  0.8878153E-01
          1   -1    0    0  501    0  0.00000000000E+00  0.00000000000E+00  0.74262038074E+03  0.74262038074E+03  0.00000000000E+00 0. -1.
         -1   -1    0    0    0  501 -0.00000000000E+00 -0.00000000000E+00 -0.76708799716E+03  0.76708799716E+03  0.00000000000E+00 0.  1.
         23    2    1    2    0    0  0.32313269835E+03 -0.11696680783E+02 -0.36560768314E+03  0.49452385040E+03  0.79582080635E+02 0.  0.
        254    2    1    2    0    0 -0.32313269835E+03  0.11696680783E+02  0.34114006672E+03  0.10151845275E+04  0.89981749631E+03 0.  0.
        -24    2    4    4    0    0  0.16158871518E+03  0.13178009278E+03 -0.18183090897E+03  0.28788619547E+03  0.79618316733E+02 0.  0.
         24    2    4    4    0    0 -0.48472141352E+03 -0.12008341200E+03  0.52297097568E+03  0.72729833203E+03  0.78034273222E+02 0.  0.
         11    1    3    3    0    0  0.23582289735E+03  0.10402432637E+02 -0.30622804760E+03  0.38664747077E+03  0.00000000000E+00 0.  1.
        -11    1    3    3    0    0  0.87309800993E+02 -0.22099113420E+02 -0.59379635546E+02  0.10787637962E+03  0.00000000000E+00 0. -1.
          2    1    6    6  502    0 -0.16253586742E+02  0.22354644767E+01  0.40858167992E+02  0.44029152559E+02  0.00000000000E+00 0. -1.
          3    1    5    5  503    0 -0.18767361714E+01  0.27601026933E+02 -0.11937253924E+02  0.30130331191E+02  0.00000000000E+00 0. -1.
         -2    1    5    5    0  503  0.16346545135E+03  0.10417906585E+03 -0.16989365504E+03  0.25775586428E+03  0.00000000000E+00 0.  1.
         -1    1    6    6    0  502 -0.46846782678E+03 -0.12231887647E+03  0.48211280769E+03  0.68326917947E+03  0.00000000000E+00 0.  1.
<mgrwt>
<rscale>  0 0.15095101E+04</rscale>
<asrwt>0</asrwt>
<pdfrwt beam="1">  1        1 0.11424929E+00 0.15095101E+04</pdfrwt>
<pdfrwt beam="2">  1       -1 0.11801354E+00 0.15095101E+04</pdfrwt>
<totfact> 0.15509192E+01</totfact>
</mgrwt>
</event>
<event>
12    1  0.2048318E-007  0.2002745E+04  0.7818608E-02  0.8605338E-01
         -2   -1    0    0    0  501 -0.00000000000E+00  0.00000000000E+00  0.26184234489E+04  0.26184234489E+04  0.00000000000E+00 0.  1.
          2   -1    0    0  501    0  0.00000000000E+00 -0.00000000000E+00 -0.38295841569E+03  0.38295841569E+03  0.00000000000E+00 0. -1.
         23    2    1    2    0    0  0.78620166998E+03  0.82014440263E+02  0.10391823300E+04  0.13088329669E+04  0.91128403652E+02 0.  0.
        254    2    1    2    0    0 -0.78620166998E+03 -0.82014440263E+02  0.11962827032E+04  0.16925488977E+04  0.89932754364E+03 0.  0.
        -24    2    4    4    0    0 -0.62941143565E+03 -0.29612684594E+03  0.12273974965E+04  0.14131037752E+04  0.80670941841E+02 0.  0.
         24    2    4    4    0    0 -0.15679023432E+03  0.21411240568E+03 -0.31114793353E+02  0.27944512243E+03  0.81817762382E+02 0.  0.
         11    1    3    3    0    0  0.20836470433E+03 -0.45984886958E+01  0.22506516307E+03  0.30674309077E+03  0.00000000000E+00 0. -1.
        -11    1    3    3    0    0  0.57783696565E+03  0.86612928959E+02  0.81411716695E+03  0.10020898761E+04  0.00000000000E+00 0.  1.
          4    1    6    6  502    0  0.74834820248E+01  0.13358531056E+02 -0.11793732342E+02  0.19327311705E+02  0.00000000000E+00 0. -1.
          1    1    5    5  503    0 -0.38693739845E+02 -0.39642671523E+02  0.79496211265E+02  0.96893727940E+02  0.00000000000E+00 0. -1.
         -2    1    5    5    0  503 -0.59071769581E+03 -0.25648417442E+03  0.11479012853E+04  0.13162100473E+04  0.00000000000E+00 0.  1.
         -3    1    6    6    0  502 -0.16427371635E+03  0.20075387462E+03 -0.19321061011E+02  0.26011781073E+03  0.00000000000E+00 0.  1.
<mgrwt>
<rscale>  0 0.20027454E+04</rscale>
<asrwt>0</asrwt>
<pdfrwt beam="1">  1        2 0.58916681E-01 0.20027454E+04</pdfrwt>
<pdfrwt beam="2">  1       -2 0.40283436E+00 0.20027454E+04</pdfrwt>
<totfact> 0.55334494E-01</totfact>
</mgrwt>
</event>
<event>
12    1  0.2048318E-007  0.2719614E+04  0.7818608E-02  0.8328669E-01
          2   -1    0    0  501    0  0.00000000000E+00  0.00000000000E+00  0.17282066901E+04  0.17282066901E+04  0.00000000000E+00 0. -1.
         -2   -1    0    0    0  501 -0.00000000000E+00 -0.00000000000E+00 -0.10699389321E+04  0.10699389321E+04  0.00000000000E+00 0.  1.
         23    2    1    2    0    0  0.19078290903E+03 -0.61713181859E+03  0.13444454437E+04  0.14945028443E+04  0.93570297916E+02 0.  0.
        254    2    1    2    0    0 -0.19078290903E+03  0.61713181859E+03 -0.68617768568E+03  0.13036427779E+04  0.90077459778E+03 0.  0.
        -24    2    4    4    0    0 -0.63218363824E+02 -0.20432123340E+03 -0.31674172154E+03  0.39038791443E+03  0.79584405665E+02 0.  0.
         24    2    4    4    0    0 -0.12756454520E+03  0.82145305200E+03 -0.36943596414E+03  0.91325486342E+03  0.80583398615E+02 0.  0.
         13    1    3    3    0    0  0.17469868512E+03 -0.47507180384E+03  0.11089170005E+04  0.12189789840E+04  0.00000000000E+00 0. -1.
        -13    1    3    3    0    0  0.16084223903E+02 -0.14206001476E+03  0.23552844316E+03  0.27552386029E+03  0.00000000000E+00 0.  1.
          4    1    6    6  502    0 -0.10953322309E+03  0.74483966281E+03 -0.35830076119E+03  0.83376440660E+03  0.00000000000E+00 0. -1.
          3    1    5    5  503    0 -0.56448581644E+02 -0.20944358791E+03 -0.28883409204E+03  0.36121765130E+03  0.00000000000E+00 0. -1.
         -4    1    5    5    0  503 -0.67697821796E+01  0.51223545133E+01 -0.27907629503E+02  0.29170263129E+02  0.00000000000E+00 0.  1.
         -3    1    6    6    0  502 -0.18031322113E+02  0.76613389188E+02 -0.11135202956E+02  0.79490456816E+02  0.00000000000E+00 0.  1.
<mgrwt>
<rscale>  0 0.27196144E+04</rscale>
<asrwt>0</asrwt>
<pdfrwt beam="1">  1        2 0.26587795E+00 0.27196144E+04</pdfrwt>
<pdfrwt beam="2">  1       -2 0.16460599E+00 0.27196144E+04</pdfrwt>
<totfact> 0.19310904E+00</totfact>
</mgrwt>
</event>
<event>
12    1  0.2048318E-007  0.1773081E+04  0.7818608E-02  0.8720747E-01
          1   -1    0    0  501    0  0.00000000000E+00  0.00000000000E+00  0.87423085871E+03  0.87423085871E+03  0.00000000000E+00 0. -1.
         -1   -1    0    0    0  501 -0.00000000000E+00 -0.00000000000E+00 -0.89902364649E+03  0.89902364649E+03  0.00000000000E+00 0.  1.
         23    2    1    2    0    0 -0.19293033002E+03  0.30389545058E+03  0.53900191148E+03  0.65449882691E+03  0.90945570137E+02 0.  0.
        254    2    1    2    0    0  0.19293033002E+03 -0.30389545058E+03 -0.56379469926E+03  0.11187556783E+04  0.89675818795E+03 0.  0.
        -24    2    4    4    0    0  0.28105223135E+03 -0.31400519750E+03  0.10358789986E+03  0.44098670927E+03  0.78416860111E+02 0.  0.
         24    2    4    4    0    0 -0.88121901325E+02  0.10109746929E+02 -0.66738259913E+03  0.67776896902E+03  0.78125317736E+02 0.  0.
         13    1    3    3    0    0 -0.12137952427E+03  0.26073882322E+03  0.41090498087E+03  0.50155819817E+03  0.00000000000E+00 0.  1.
        -13    1    3    3    0    0 -0.71550805753E+02  0.43156627351E+02  0.12809693060E+03  0.15294062874E+03  0.00000000000E+00 0. -1.
          2    1    6    6  502    0 -0.96734494267E+02  0.25638466107E+02 -0.58454266264E+03  0.59304723065E+03  0.00000000000E+00 0. -1.
          1    1    5    5  503    0  0.25060736616E+03 -0.23330786896E+03  0.82767780951E+02  0.35226001654E+03  0.00000000000E+00 0. -1.
         -2    1    5    5    0  503  0.30444865189E+02 -0.80697328548E+02  0.20820118913E+02  0.88726692730E+02  0.00000000000E+00 0.  1.
         -1    1    6    6    0  502  0.86125929423E+01 -0.15528719178E+02 -0.82839936485E+02  0.84721738375E+02  0.00000000000E+00 0.  1.
<mgrwt>
<rscale>  0 0.17730812E+04</rscale>
<asrwt>0</asrwt>
<pdfrwt beam="1">  1        1 0.13449706E+00 0.17730812E+04</pdfrwt>
<pdfrwt beam="2">  1       -1 0.13831133E+00 0.17730812E+04</pdfrwt>
<totfact> 0.78216454E+00</totfact>
</mgrwt>
</event>
<event>
12    1  0.2048318E-007  0.1979296E+04  0.7818608E-02  0.8616362E-01
          2   -1    0    0  501    0  0.00000000000E+00  0.00000000000E+00  0.43008334290E+03  0.43008334290E+03  0.00000000000E+00 0. -1.
         -2   -1    0    0    0  501 -0.00000000000E+00 -0.00000000000E+00 -0.22772413518E+04  0.22772413518E+04  0.00000000000E+00 0.  1.
         23    2    1    2    0    0  0.16963504226E+03  0.12859868144E+03  0.29370073506E+03  0.37391910080E+03  0.90783829690E+02 0.  0.
        254    2    1    2    0    0 -0.16963504226E+03 -0.12859868144E+03 -0.21408587440E+04  0.23334055939E+04  0.90343335981E+03 0.  0.
        -24    2    4    4    0    0 -0.38954738334E+03  0.12667705940E+03 -0.17984728928E+04  0.18462770473E+04  0.80249285896E+02 0.  0.
         24    2    4    4    0    0  0.21991234108E+03 -0.25527574084E+03 -0.34238585120E+03  0.48712854667E+03  0.80864134545E+02 0.  0.
         11    1    3    3    0    0  0.10256840016E+03  0.12805575935E+03  0.19993921375E+03  0.25863921476E+03  0.00000000000E+00 0.  1.
        -11    1    3    3    0    0  0.67066642094E+02  0.54292209100E+00  0.93761521318E+02  0.11527988604E+03  0.00000000000E+00 0. -1.
          2    1    6    6  502    0  0.16693923834E+03 -0.20047456374E+03 -0.30764333686E+03  0.40336482583E+03  0.00000000000E+00 0. -1.
          1    1    5    5  503    0 -0.36941039375E+03  0.99658144809E+02 -0.16121895222E+04  0.16569703801E+04  0.00000000000E+00 0. -1.
         -2    1    5    5    0  503 -0.20136989596E+02  0.27018914587E+02 -0.18628337058E+03  0.18930666721E+03  0.00000000000E+00 0.  1.
         -1    1    6    6    0  502  0.52973102746E+02 -0.54801177100E+02 -0.34742514342E+02  0.83763720840E+02  0.00000000000E+00 0.  1.
<mgrwt>
<rscale>  0 0.19792964E+04</rscale>
<asrwt>0</asrwt>
<pdfrwt beam="1">  1        2 0.66166669E-01 0.19792964E+04</pdfrwt>
<pdfrwt beam="2">  1       -2 0.35034482E+00 0.19792964E+04</pdfrwt>
<totfact> 0.10577623E+00</totfact>
</mgrwt>
</event>
<event>
12    1  0.2048318E-007  0.1259196E+04  0.7818608E-02  0.9062564E-01
         -2   -1    0    0    0  501 -0.00000000000E+00  0.00000000000E+00  0.15945076690E+04  0.15945076690E+04  0.00000000000E+00 0.  1.
          2   -1    0    0  501    0  0.00000000000E+00 -0.00000000000E+00 -0.24859940050E+03  0.24859940050E+03  0.00000000000E+00 0. -1.
         23    2    1    2    0    0  0.21396050445E+03 -0.11490068080E+03  0.84677183886E+02  0.27446143789E+03  0.95799746891E+02 0.  0.
        254    2    1    2    0    0 -0.21396050445E+03  0.11490068080E+03  0.12612310846E+04  0.15686456316E+04  0.90053539900E+03 0.  0.
        -24    2    4    4    0    0  0.21531345482E+01 -0.37573418206E+03  0.43234371851E+03  0.57848930564E+03  0.80919554180E+02 0.  0.
         24    2    4    4    0    0 -0.21611363900E+03  0.49063486286E+03  0.82888736608E+03  0.99015632595E+03  0.76990977179E+02 0.  0.
         13    1    3    3    0    0  0.26626498555E+02 -0.35496973865E+02  0.52045429458E+02  0.68393949340E+02  0.00000000000E+00 0.  1.
        -13    1    3    3    0    0  0.18733400590E+03 -0.79403706938E+02  0.32631754428E+02  0.20606748855E+03  0.00000000000E+00 0. -1.
          2    1    6    6  502    0 -0.16820167850E+03  0.29944441271E+03  0.55614313196E+03  0.65364665086E+03  0.00000000000E+00 0. -1.
          1    1    5    5  503    0  0.22095870679E+02 -0.29285505106E+03  0.29107368142E+03  0.41349268004E+03  0.00000000000E+00 0. -1.
         -2    1    5    5    0  503 -0.19942736131E+02 -0.82879131000E+02  0.14127003709E+03  0.16499662560E+03  0.00000000000E+00 0.  1.
         -1    1    6    6    0  502 -0.47911960502E+02  0.19119045015E+03  0.27274423412E+03  0.33650967509E+03  0.00000000000E+00 0.  1.
<mgrwt>
<rscale>  0 0.12591960E+04</rscale>
<asrwt>0</asrwt>
<pdfrwt beam="1">  1        2 0.38246063E-01 0.12591960E+04</pdfrwt>
<pdfrwt beam="2">  1       -2 0.24530887E+00 0.12591960E+04</pdfrwt>
<totfact> 0.91600410E+00</totfact>
</mgrwt>
</event>
<event>
12    1  0.2048318E-007  0.1810594E+04  0.7818608E-02  0.8700686E-01
         -2   -1    0    0    0  501 -0.00000000000E+00  0.00000000000E+00  0.38984462738E+03  0.38984462738E+03  0.00000000000E+00 0.  1.
          2   -1    0    0  501    0  0.00000000000E+00 -0.00000000000E+00 -0.21022792394E+04  0.21022792394E+04  0.00000000000E+00 0. -1.
         23    2    1    2    0    0 -0.27922351063E+03 -0.57300293492E+03 -0.35274234050E+03  0.73448674752E+03  0.93517330969E+02 0.  0.
        254    2    1    2    0    0  0.27922351063E+03  0.57300293492E+03 -0.13596922715E+04  0.17576371193E+04  0.91336029990E+03 0.  0.
        -24    2    4    4    0    0  0.37049847896E+03  0.78318152599E+03 -0.10889069512E+04  0.13938264348E+04  0.79945959445E+02 0.  0.
         24    2    4    4    0    0 -0.91274968330E+02 -0.21017859107E+03 -0.27078532038E+03  0.36381068450E+03  0.80792106261E+02 0.  0.
         13    1    3    3    0    0 -0.58011872339E+02 -0.76533112539E+02 -0.86545203025E+02  0.12927786668E+03  0.00000000000E+00 0. -1.
        -13    1    3    3    0    0 -0.22121163829E+03 -0.49646982238E+03 -0.26619713747E+03  0.60520888084E+03  0.00000000000E+00 0.  1.
          2    1    6    6  502    0 -0.20459829652E+02 -0.13616208325E+03 -0.18225110547E+03  0.22841668720E+03  0.00000000000E+00 0. -1.
          1    1    5    5  503    0  0.22748687403E+03  0.55825611179E+03 -0.72875832059E+03  0.94577420881E+03  0.00000000000E+00 0. -1.
         -2    1    5    5    0  503  0.14301160493E+03  0.22492541419E+03 -0.36014863057E+03  0.44805222597E+03  0.00000000000E+00 0.  1.
         -1    1    6    6    0  502 -0.70815138678E+02 -0.74016507815E+02 -0.88534214911E+02  0.13539399730E+03  0.00000000000E+00 0.  1.
<mgrwt>
<rscale>  0 0.18105936E+04</rscale>
<asrwt>0</asrwt>
<pdfrwt beam="1">  1        2 0.32342757E+00 0.18105936E+04</pdfrwt>
<pdfrwt beam="2">  1       -2 0.59976097E-01 0.18105936E+04</pdfrwt>
<totfact> 0.14326382E+01</totfact>
</mgrwt>
</event>
<event>
12    1  0.2048318E-007  0.3022100E+04  0.7818608E-02  0.8237448E-01
          2   -1    0    0  501    0  0.00000000000E+00  0.00000000000E+00  0.20168240026E+04  0.20168240026E+04  0.00000000000E+00 0. -1.
         -2   -1    0    0    0  501 -0.00000000000E+00 -0.00000000000E+00 -0.11321126933E+04  0.11321126933E+04  0.00000000000E+00 0.  1.
         23    2    1    2    0    0 -0.11416938297E+03 -0.93872035438E+03  0.14453642667E+04  0.17296183131E+04  0.90945554289E+02 0.  0.
        254    2    1    2    0    0  0.11416938297E+03  0.93872035438E+03 -0.56065295739E+03  0.14193183827E+04  0.89772065874E+03 0.  0.
        -24    2    4    4    0    0  0.73903710013E+01  0.10862043229E+04 -0.39177506873E+03  0.11575110620E+04  0.80310058631E+02 0.  0.
         24    2    4    4    0    0  0.10677901197E+03 -0.14748396848E+03 -0.16887788866E+03  0.26180732074E+03  0.82885786242E+02 0.  0.
         11    1    3    3    0    0 -0.11141542859E+03 -0.86962317684E+03  0.13767174224E+04  0.16321791349E+04  0.00000000000E+00 0. -1.
        -11    1    3    3    0    0 -0.27539543765E+01 -0.69097177544E+02  0.68646844351E+02  0.97439178201E+02  0.00000000000E+00 0.  1.
          4    1    6    6  502    0  0.10306402038E+03 -0.14496213415E+03 -0.17800308822E+03  0.25163726284E+03  0.00000000000E+00 0. -1.
          1    1    5    5  503    0 -0.28518824799E+02  0.78651112670E+03 -0.27037804395E+03  0.83217628087E+03  0.00000000000E+00 0. -1.
         -2    1    5    5    0  503  0.35909195800E+02  0.29969319616E+03 -0.12139702478E+03  0.32533478110E+03  0.00000000000E+00 0.  1.
         -3    1    6    6    0  502  0.37149915880E+01 -0.25218343284E+01  0.91251995547E+01  0.10170057905E+02  0.00000000000E+00 0.  1.
<mgrwt>
<rscale>  0 0.30221000E+04</rscale>
<asrwt>0</asrwt>
<pdfrwt beam="1">  1        2 0.31028062E+00 0.30221000E+04</pdfrwt>
<pdfrwt beam="2">  1       -2 0.17417118E+00 0.30221000E+04</pdfrwt>
<totfact> 0.11126627E+00</totfact>
</mgrwt>
</event>
<event>
12    1  0.2048318E-007  0.2448948E+04  0.7818608E-02  0.8421402E-01
          2   -1    0    0  501    0  0.00000000000E+00  0.00000000000E+00  0.23230953081E+04  0.23230953081E+04  0.00000000000E+00 0.  1.
         -2   -1    0    0    0  501 -0.00000000000E+00 -0.00000000000E+00 -0.64540455696E+03  0.64540455696E+03  0.00000000000E+00 0. -1.
         23    2    1    2    0    0 -0.58367522344E+03  0.25334634925E+03 -0.29616302116E+03  0.70772618050E+03  0.91119000909E+02 0.  0.
        254    2    1    2    0    0  0.58367522344E+03 -0.25334634925E+03  0.19738537723E+04  0.22607736845E+04  0.90007655187E+03 0.  0.
        -24    2    4    4    0    0  0.43548749423E+03 -0.38980254807E+03  0.50666826621E+03  0.77766262681E+03  0.80318397815E+02 0.  0.
         24    2    4    4    0    0  0.14818772921E+03  0.13645619883E+03  0.14671855061E+04  0.14831110577E+04  0.80032512519E+02 0.  0.
         11    1    3    3    0    0 -0.31084293827E+03  0.99455309450E+02 -0.18619083817E+03  0.37574155888E+03  0.00000000000E+00 0. -1.
        -11    1    3    3    0    0 -0.27283228517E+03  0.15389103980E+03 -0.10997218299E+03  0.33198462162E+03  0.00000000000E+00 0.  1.
          4    1    6    6  502    0  0.12387607364E+03  0.14487458801E+03  0.13204279883E+04  0.13341154374E+04  0.00000000000E+00 0. -1.
          1    1    5    5  503    0  0.43247758410E+03 -0.36917907615E+03  0.48246982219E+03  0.74572594184E+03  0.00000000000E+00 0. -1.
         -2    1    5    5    0  503  0.30099101328E+01 -0.20623471928E+02  0.24198444028E+02  0.31936684968E+02  0.00000000000E+00 0.  1.
         -3    1    6    6    0  502  0.24311655567E+02 -0.84183891881E+01  0.14675751775E+03  0.14899562037E+03  0.00000000000E+00 0.  1.
<mgrwt>
<rscale>  0 0.24489478E+04</rscale>
<asrwt>0</asrwt>
<pdfrwt beam="1">  1        2 0.35739928E+00 0.24489478E+04</pdfrwt>
<pdfrwt beam="2">  1       -2 0.99293010E-01 0.24489478E+04</pdfrwt>
<totfact> 0.33087126E+00</totfact>
</mgrwt>
</event>
<event>
12    1  0.2048318E-007  0.1691927E+04  0.7818608E-02  0.8765982E-01
         -1   -1    0    0    0  501 -0.00000000000E+00  0.00000000000E+00  0.74670363190E+03  0.74670363190E+03  0.00000000000E+00 0.  1.
          1   -1    0    0  501    0  0.00000000000E+00 -0.00000000000E+00 -0.95841844459E+03  0.95841844459E+03  0.00000000000E+00 0. -1.
         23    2    1    2    0    0 -0.58312875819E+03  0.88140471109E+02  0.50110280069E+02  0.59867705760E+03  0.89973817577E+02 0.  0.
        254    2    1    2    0    0  0.58312875819E+03 -0.88140471109E+02 -0.26182509276E+03  0.11064450189E+04  0.89881049690E+03 0.  0.
        -24    2    4    4    0    0  0.79841059879E+03 -0.63856659742E+02 -0.73309496309E+02  0.80812971016E+03  0.78499611101E+02 0.  0.
         24    2    4    4    0    0 -0.21528184060E+03 -0.24283811367E+02 -0.18851559645E+03  0.29831530873E+03  0.80733629496E+02 0.  0.
         13    1    3    3    0    0 -0.44750544308E+03  0.90948530155E+02  0.68573899734E+02  0.46177390187E+03  0.00000000000E+00 0.  1.
        -13    1    3    3    0    0 -0.13562331511E+03 -0.28080590457E+01 -0.18463619665E+02  0.13690315573E+03  0.00000000000E+00 0. -1.
          2    1    6    6  502    0 -0.51422451831E+02 -0.32411254718E+02 -0.84385715446E+02  0.10399859113E+03  0.00000000000E+00 0. -1.
          3    1    5    5  503    0  0.21155283440E+03 -0.39612168494E+01  0.12775560344E+02  0.21197525310E+03  0.00000000000E+00 0. -1.
         -4    1    5    5    0  503  0.58685776438E+03 -0.59895442893E+02 -0.86085056653E+02  0.59615445706E+03  0.00000000000E+00 0.  1.
         -1    1    6    6    0  502 -0.16385938877E+03  0.81274433515E+01 -0.10412988101E+03  0.19431671760E+03  0.00000000000E+00 0.  1.
<mgrwt>
<rscale>  0 0.16919273E+04</rscale>
<asrwt>0</asrwt>
<pdfrwt beam="1">  1        1 0.14744899E+00 0.16919273E+04</pdfrwt>
<pdfrwt beam="2">  1       -1 0.11487748E+00 0.16919273E+04</pdfrwt>
<totfact> 0.10696916E+01</totfact>
</mgrwt>
</event>
<event>
12    1  0.2048318E-007  0.1624360E+04  0.7818608E-02  0.8805721E-01
          1   -1    0    0  501    0  0.00000000000E+00  0.00000000000E+00  0.65729858076E+03  0.65729858076E+03  0.00000000000E+00 0. -1.
         -1   -1    0    0    0  501 -0.00000000000E+00 -0.00000000000E+00 -0.10035568566E+04  0.10035568566E+04  0.00000000000E+00 0.  1.
         23    2    1    2    0    0 -0.61449421577E+02  0.45274534056E+03  0.20723179114E+03  0.51004821873E+03  0.91922768500E+02 0.  0.
        254    2    1    2    0    0  0.61449421577E+02 -0.45274534056E+03 -0.55349006695E+03  0.11508072186E+04  0.89958414023E+03 0.  0.
        -24    2    4    4    0    0 -0.13285548732E+03 -0.68145079280E+03 -0.38166369038E+03  0.79619307206E+03  0.78933338474E+02 0.  0.
         24    2    4    4    0    0  0.19430490889E+03  0.22870545225E+03 -0.17182637657E+03  0.35461414653E+03  0.78525841149E+02 0.  0.
         13    1    3    3    0    0 -0.84054802906E+02  0.36319667967E+03  0.17848057705E+03  0.41331870802E+03  0.00000000000E+00 0. -1.
        -13    1    3    3    0    0  0.22605381330E+02  0.89548660889E+02  0.28751214086E+02  0.96729510716E+02  0.00000000000E+00 0.  1.
          4    1    6    6  502    0  0.81319763729E+02  0.62518138492E+02 -0.93942381385E+02  0.13909202937E+03  0.00000000000E+00 0. -1.
          3    1    5    5  503    0 -0.33421692895E+02 -0.12161554764E+03 -0.37636779234E+02  0.13162020413E+03  0.00000000000E+00 0. -1.
         -4    1    5    5    0  503 -0.99433794422E+02 -0.55983524516E+03 -0.34402691115E+03  0.66457286793E+03  0.00000000000E+00 0.  1.
         -3    1    6    6    0  502  0.11298514517E+03  0.16618731376E+03 -0.77883995183E+02  0.21552211716E+03  0.00000000000E+00 0.  1.
<mgrwt>
<rscale>  0 0.16243602E+04</rscale>
<asrwt>0</asrwt>
<pdfrwt beam="1">  1        1 0.10112286E+00 0.16243602E+04</pdfrwt>
<pdfrwt beam="2">  1       -1 0.15439336E+00 0.16243602E+04</pdfrwt>
<totfact> 0.92533123E+00</totfact>
</mgrwt>
</event>
<event>
12    1  0.2048318E-007  0.1891809E+04  0.7818608E-02  0.8658944E-01
         -2   -1    0    0    0  501 -0.00000000000E+00  0.00000000000E+00  0.10341988046E+04  0.10341988046E+04  0.00000000000E+00 0.  1.
          2   -1    0    0  501    0  0.00000000000E+00 -0.00000000000E+00 -0.86514813851E+03  0.86514813851E+03  0.00000000000E+00 0. -1.
         23    2    1    2    0    0  0.12380215622E+03  0.42751376104E+03  0.64412360594E+03  0.78798769686E+03  0.89075254201E+02 0.  0.
        254    2    1    2    0    0 -0.12380215622E+03 -0.42751376104E+03 -0.47507293981E+03  0.11113592463E+04  0.90073863380E+03 0.  0.
        -24    2    4    4    0    0 -0.45689482399E+03 -0.41137603392E+03 -0.45365555471E+03  0.76783521421E+03  0.76055456024E+02 0.  0.
         24    2    4    4    0    0  0.33309266777E+03 -0.16137727117E+02 -0.21417385099E+02  0.34352403208E+03  0.79617238568E+02 0.  0.
         11    1    3    3    0    0  0.68768472522E+02  0.11181349997E+03  0.22348510372E+03  0.25918517159E+03  0.00000000000E+00 0.  1.
        -11    1    3    3    0    0  0.55033683696E+02  0.31570026106E+03  0.42063850222E+03  0.52880252527E+03  0.00000000000E+00 0. -1.
          2    1    6    6  502    0  0.51863145372E+02 -0.13484205103E+02 -0.31391766328E+02  0.62105173925E+02  0.00000000000E+00 0. -1.
          1    1    5    5  503    0 -0.53502769928E+01 -0.23865460586E+02 -0.17307818857E+02  0.29962414230E+02  0.00000000000E+00 0. -1.
         -2    1    5    5    0  503 -0.45154454699E+03 -0.38751057333E+03 -0.43634773586E+03  0.73787279998E+03  0.00000000000E+00 0.  1.
         -1    1    6    6    0  502  0.28122952240E+03 -0.26535220145E+01  0.99743812289E+01  0.28141885816E+03  0.00000000000E+00 0.  1.
<mgrwt>
<rscale>  0 0.18918088E+04</rscale>
<asrwt>0</asrwt>
<pdfrwt beam="1">  1        2 0.13309971E+00 0.18918088E+04</pdfrwt>
<pdfrwt beam="2">  1       -2 0.15910751E+00 0.18918088E+04</pdfrwt>
<totfact> 0.74226219E+00</totfact>
</mgrwt>
</event>
<event>
12    1  0.2283433E-007  0.1996767E+04  0.7818608E-02  0.8608134E-01
          2   -1    0    0  501    0  0.00000000000E+00  0.00000000000E+00  0.24508008254E+04  0.24508008254E+04  0.00000000000E+00 0. -1.
         -2   -1    0    0    0  501 -0.00000000000E+00 -0.00000000000E+00 -0.40671180710E+03  0.40671180710E+03  0.00000000000E+00 0.  1.
         23    2    1    2    0    0  0.66079470987E+03  0.35150745231E+03  0.46940178634E+03  0.88823449811E+03  0.91735211322E+02 0.  0.
        254    2    1    2    0    0 -0.66079470987E+03 -0.35150745231E+03  0.15746872320E+04  0.19692781344E+04  0.91553774062E+03 0.  0.
        -24    2    4    4    0    0 -0.83674034119E+02 -0.47708022373E+03  0.11103264057E+04  0.12140306574E+04  0.80242294604E+02 0.  0.
         24    2    4    4    0    0 -0.57712067575E+03  0.12557277142E+03  0.46436082622E+03  0.75524747705E+03  0.77012851925E+02 0.  0.
         13    1    3    3    0    0  0.41285668297E+03  0.18386556089E+03  0.31966783024E+03  0.55357448175E+03  0.00000000000E+00 0. -1.
        -13    1    3    3    0    0  0.24793802690E+03  0.16764189142E+03  0.14973395609E+03  0.33466001636E+03  0.00000000000E+00 0.  1.
          4    1    6    6  502    0 -0.21809933613E+02 -0.50294899713E+01  0.33795881970E+02  0.40535547507E+02  0.00000000000E+00 0. -1.
          3    1    5    5  503    0 -0.98394533437E+01 -0.32378115397E+01  0.37392657179E+02  0.38800890151E+02  0.00000000000E+00 0. -1.
         -2    1    5    5    0  503 -0.73834580775E+02 -0.47384241219E+03  0.10729337486E+04  0.11752297672E+04  0.00000000000E+00 0.  1.
         -3    1    6    6    0  502 -0.55531074213E+03  0.13060226139E+03  0.43056494425E+03  0.71471192954E+03  0.00000000000E+00 0.  1.
<mgrwt>
<rscale>  0 0.19967670E+04</rscale>
<asrwt>0</asrwt>
<pdfrwt beam="1">  1        2 0.37704627E+00 0.19967670E+04</pdfrwt>
<pdfrwt beam="2">  1       -2 0.62571049E-01 0.19967670E+04</pdfrwt>
<totfact> 0.81859751E+00</totfact>
</mgrwt>
</event>
<event>
12    1  0.2048318E-007  0.1728743E+04  0.7818608E-02  0.8745139E-01
          2   -1    0    0  501    0  0.00000000000E+00  0.00000000000E+00  0.16692699339E+04  0.16692699339E+04  0.00000000000E+00 0. -1.
         -2   -1    0    0    0  501 -0.00000000000E+00 -0.00000000000E+00 -0.44758368416E+03  0.44758368416E+03  0.00000000000E+00 0.  1.
         23    2    1    2    0    0  0.31194418071E+02  0.54989665956E+03  0.82042044090E+02  0.56425406911E+03  0.91062229237E+02 0.  0.
        254    2    1    2    0    0 -0.31194418071E+02 -0.54989665956E+03  0.11396442057E+04  0.15525995490E+04  0.89912013437E+03 0.  0.
        -24    2    4    4    0    0 -0.53650999031E+01 -0.44589506356E+03  0.51122212081E+02  0.45585493812E+03  0.79618164026E+02 0.  0.
         24    2    4    4    0    0 -0.25829318168E+02 -0.10400159600E+03  0.10885219936E+04  0.10967446109E+04  0.80530275348E+02 0.  0.
         11    1    3    3    0    0 -0.70572810431E+01  0.27366276647E+03  0.66879733780E+00  0.27375456573E+03  0.00000000000E+00 0.  1.
        -11    1    3    3    0    0  0.38251699114E+02  0.27623389308E+03  0.81373246752E+02  0.29049950337E+03  0.00000000000E+00 0. -1.
          4    1    6    6  502    0 -0.83899487372E+01 -0.86611538091E+02  0.10238627707E+04  0.10275538540E+04  0.00000000000E+00 0. -1.
          3    1    5    5  503    0 -0.14027663815E+02 -0.43613791676E+03  0.59422579299E+02  0.44039084995E+03  0.00000000000E+00 0. -1.
         -4    1    5    5    0  503  0.86625639119E+01 -0.97571467956E+01 -0.83003672177E+01  0.15464088174E+02  0.00000000000E+00 0.  1.
         -3    1    6    6    0  502 -0.17439369431E+02 -0.17390057912E+02  0.64659222921E+02  0.69190756819E+02  0.00000000000E+00 0.  1.
<mgrwt>
<rscale>  0 0.17287429E+04</rscale>
<asrwt>0</asrwt>
<pdfrwt beam="1">  1        2 0.25681076E+00 0.17287429E+04</pdfrwt>
<pdfrwt beam="2">  1       -2 0.68859029E-01 0.17287429E+04</pdfrwt>
<totfact> 0.18659473E+01</totfact>
</mgrwt>
</event>
<event>
12    1  0.2048318E-007  0.1169402E+04  0.7818608E-02  0.9140069E-01
          1   -1    0    0  501    0  0.00000000000E+00  0.00000000000E+00  0.50733669804E+03  0.50733669804E+03  0.00000000000E+00 0. -1.
         -1   -1    0    0    0  501 -0.00000000000E+00 -0.00000000000E+00 -0.67386215882E+03  0.67386215882E+03  0.00000000000E+00 0.  1.
         23    2    1    2    0    0 -0.71762349810E+02 -0.18357804542E+03  0.70107346169E+02  0.22700981435E+03  0.88134455326E+02 0.  0.
        254    2    1    2    0    0  0.71762349810E+02  0.18357804542E+03 -0.23663280696E+03  0.95418904251E+03  0.90312286534E+03 0.  0.
        -24    2    4    4    0    0  0.40400087594E+03  0.18872360528E+03 -0.37185567665E+03  0.58635650555E+03  0.81877960348E+02 0.  0.
         24    2    4    4    0    0 -0.33223852613E+03 -0.51455598677E+01  0.13522286969E+03  0.36783253696E+03  0.81281213849E+02 0.  0.
         13    1    3    3    0    0 -0.37271657507E+02 -0.10066673198E+02  0.73416544159E+01  0.39299036275E+02  0.00000000000E+00 0. -1.
        -13    1    3    3    0    0 -0.34490692303E+02 -0.17351137222E+03  0.62765691753E+02  0.18771077808E+03  0.00000000000E+00 0.  1.
          2    1    6    6  502    0 -0.91538717486E+02 -0.31898017763E+02  0.17307707499E+02  0.98470183685E+02  0.00000000000E+00 0. -1.
          3    1    5    5  503    0  0.66553961154E+02  0.15251408744E+02 -0.93501381534E+02  0.11577799257E+03  0.00000000000E+00 0. -1.
         -4    1    5    5    0  503  0.33744691479E+03  0.17347219654E+03 -0.27835429512E+03  0.47057851298E+03  0.00000000000E+00 0.  1.
         -1    1    6    6    0  502 -0.24069980865E+03  0.26752457895E+02  0.11791516219E+03  0.26936235327E+03  0.00000000000E+00 0.  1.
<mgrwt>
<rscale>  0 0.11694016E+04</rscale>
<asrwt>0</asrwt>
<pdfrwt beam="1">  1        1 0.78051800E-01 0.11694016E+04</pdfrwt>
<pdfrwt beam="2">  1       -1 0.10367110E+00 0.11694016E+04</pdfrwt>
<totfact> 0.37803191E+01</totfact>
</mgrwt>
</event>
<event>
12    1  0.2048318E-007  0.1564782E+04  0.7818608E-02  0.8842481E-01
         -2   -1    0    0    0  501 -0.00000000000E+00  0.00000000000E+00  0.35788723088E+03  0.35788723088E+03  0.00000000000E+00 0.  1.
          2   -1    0    0  501    0  0.00000000000E+00 -0.00000000000E+00 -0.17104144171E+04  0.17104144171E+04  0.00000000000E+00 0. -1.
         23    2    1    2    0    0 -0.16385994718E+02 -0.27066933976E+03 -0.10316463420E+04  0.10706291573E+04  0.91772682359E+02 0.  0.
        254    2    1    2    0    0  0.16385994718E+02  0.27066933976E+03 -0.32088084421E+03  0.99767249066E+03  0.90490634329E+03 0.  0.
        -24    2    4    4    0    0  0.42867542304E+03  0.25524089382E+02 -0.46990957072E+02  0.43963917702E+03  0.81611019290E+02 0.  0.
         24    2    4    4    0    0 -0.41228942832E+03  0.24514525038E+03 -0.27388988714E+03  0.55803331364E+03  0.79415000870E+02 0.  0.
         11    1    3    3    0    0  0.25798853390E+02 -0.17634203824E+03 -0.55506079522E+03  0.58297048096E+03  0.00000000000E+00 0. -1.
        -11    1    3    3    0    0 -0.42184848109E+02 -0.94327301523E+02 -0.47658554679E+03  0.48765867636E+03  0.00000000000E+00 0.  1.
          2    1    6    6  502    0 -0.97396065992E+01 -0.59315081243E+01 -0.98917735349E+01  0.15096022953E+02  0.00000000000E+00 0. -1.
          3    1    5    5  503    0  0.19943220960E+02 -0.43192504269E+01 -0.20560373525E+02  0.28967515358E+02  0.00000000000E+00 0. -1.
         -4    1    5    5    0  503  0.40873220208E+03  0.29843339809E+02 -0.26430583547E+02  0.41067166166E+03  0.00000000000E+00 0.  1.
         -1    1    6    6    0  502 -0.40254982172E+03  0.25107675850E+03 -0.26399811360E+03  0.54293729068E+03  0.00000000000E+00 0.  1.
<mgrwt>
<rscale>  0 0.15647817E+04</rscale>
<asrwt>0</asrwt>
<pdfrwt beam="1">  1        2 0.26314067E+00 0.15647817E+04</pdfrwt>
<pdfrwt beam="2">  1       -2 0.55059575E-01 0.15647817E+04</pdfrwt>
<totfact> 0.28858465E+01</totfact>
</mgrwt>
</event>
<event>
12    1  0.2048318E-007  0.1265191E+04  0.7818608E-02  0.9057634E-01
         -2   -1    0    0    0  501 -0.00000000000E+00  0.00000000000E+00  0.62334541571E+03  0.62334541571E+03  0.00000000000E+00 0.  1.
          2   -1    0    0  501    0  0.00000000000E+00 -0.00000000000E+00 -0.64198275486E+03  0.64198275486E+03  0.00000000000E+00 0. -1.
         23    2    1    2    0    0  0.18100237785E+03  0.17352924260E+03 -0.17970189360E+03  0.32210268674E+03  0.92645083073E+02 0.  0.
        254    2    1    2    0    0 -0.18100237785E+03 -0.17352924260E+03  0.16106455446E+03  0.94322548383E+03  0.89490684645E+03 0.  0.
        -24    2    4    4    0    0  0.72507511133E+02  0.27273719312E+03 -0.15783917574E+03  0.33369576975E+03  0.82442377898E+02 0.  0.
         24    2    4    4    0    0 -0.25350988898E+03 -0.44626643572E+03  0.31890373020E+03  0.60952971408E+03  0.80036789995E+02 0.  0.
         13    1    3    3    0    0  0.50184259048E+02  0.31128530235E+02 -0.13922685853E+01  0.59071005262E+02  0.00000000000E+00 0.  1.
        -13    1    3    3    0    0  0.13081811880E+03  0.14240071236E+03 -0.17830962502E+03  0.26303168148E+03  0.00000000000E+00 0. -1.
          4    1    6    6  502    0 -0.70868819280E+02 -0.15404667519E+03  0.65457437285E+02  0.18176205264E+03  0.00000000000E+00 0. -1.
          1    1    5    5  503    0  0.20335827176E+02  0.12820283763E+03 -0.28620562153E+02  0.13292347430E+03  0.00000000000E+00 0. -1.
         -2    1    5    5    0  503  0.52171683957E+02  0.14453435549E+03 -0.12921861359E+03  0.20077229545E+03  0.00000000000E+00 0.  1.
         -3    1    6    6    0  502 -0.18264106970E+03 -0.29221976053E+03  0.25344629291E+03  0.42776766144E+03  0.00000000000E+00 0.  1.
<mgrwt>
<rscale>  0 0.12651909E+04</rscale>
<asrwt>0</asrwt>
<pdfrwt beam="1">  1        2 0.98766577E-01 0.12651909E+04</pdfrwt>
<pdfrwt beam="2">  1       -2 0.95899295E-01 0.12651909E+04</pdfrwt>
<totfact> 0.40909716E+01</totfact>
</mgrwt>
</event>
<event>
12    1  0.2048318E-007  0.1426784E+04  0.7818608E-02  0.8934656E-01
          2   -1    0    0  501    0  0.00000000000E+00  0.00000000000E+00  0.19564320242E+04  0.19564320242E+04  0.00000000000E+00 0. -1.
         -2   -1    0    0    0  501 -0.00000000000E+00 -0.00000000000E+00 -0.26013083249E+03  0.26013083249E+03  0.00000000000E+00 0.  1.
         23    2    1    2    0    0  0.28479727236E+03 -0.27897695049E+03  0.29584179646E+03  0.50486410156E+03  0.91802871739E+02 0.  0.
        254    2    1    2    0    0 -0.28479727236E+03  0.27897695049E+03  0.14004593953E+04  0.17116987552E+04  0.89982691966E+03 0.  0.
        -24    2    4    4    0    0  0.17927516435E+03  0.23135483340E+03  0.86843037650E+02  0.31547312329E+03  0.79479147204E+02 0.  0.
         24    2    4    4    0    0 -0.46407243671E+03  0.47622117090E+02  0.13136163576E+04  0.13962256319E+04  0.78911263454E+02 0.  0.
         11    1    3    3    0    0  0.19648106008E+03 -0.16583502850E+03  0.13907009391E+03  0.29231242648E+03  0.00000000000E+00 0.  1.
        -11    1    3    3    0    0  0.88316212281E+02 -0.11314192199E+03  0.15677170254E+03  0.21255167508E+03  0.00000000000E+00 0. -1.
          2    1    6    6  502    0 -0.15695986039E+03 -0.16954671421E+02  0.49226252658E+03  0.51695865766E+03  0.00000000000E+00 0. -1.
          3    1    5    5  503    0  0.59270259749E+02  0.13893516578E+03  0.54573606857E+02  0.16060579861E+03  0.00000000000E+00 0. -1.
         -4    1    5    5    0  503  0.12000490460E+03  0.92419667626E+02  0.32269430792E+02  0.15486732469E+03  0.00000000000E+00 0.  1.
         -1    1    6    6    0  502 -0.30711257632E+03  0.64576788511E+02  0.82135383107E+03  0.87926697422E+03  0.00000000000E+00 0.  1.
<mgrwt>
<rscale>  0 0.14267842E+04</rscale>
<asrwt>0</asrwt>
<pdfrwt beam="1">  1        2 0.30098953E+00 0.14267842E+04</pdfrwt>
<pdfrwt beam="2">  1       -2 0.40020129E-01 0.14267842E+04</pdfrwt>
<totfact> 0.40564360E+01</totfact>
</mgrwt>
</event>
<event>
12    1  0.2048318E-007  0.3191813E+04  0.7818608E-02  0.8190983E-01
          2   -1    0    0  501    0  0.00000000000E+00  0.00000000000E+00  0.13118201705E+04  0.13118201705E+04  0.00000000000E+00 0.  1.
         -2   -1    0    0    0  501 -0.00000000000E+00 -0.00000000000E+00 -0.19415142503E+04  0.19415142503E+04  0.00000000000E+00 0. -1.
         23    2    1    2    0    0  0.58926522989E+03 -0.12218702239E+04 -0.86336750665E+03  0.16108915214E+04  0.96786812156E+02 0.  0.
        254    2    1    2    0    0 -0.58926522989E+03  0.12218702239E+04  0.23367342693E+03  0.16424428994E+04  0.89599947113E+03 0.  0.
        -24    2    4    4    0    0  0.19714944777E+03  0.50206396825E+03  0.17182834104E+03  0.57164616869E+03  0.79487297292E+02 0.  0.
         24    2    4    4    0    0 -0.78641467766E+03  0.71980625561E+03  0.61845085887E+02  0.10707967307E+04  0.78814548256E+02 0.  0.
         11    1    3    3    0    0  0.53374089594E+03 -0.10689177280E+04 -0.72685396955E+03  0.13984924549E+04  0.00000000000E+00 0.  1.
        -11    1    3    3    0    0  0.55524333952E+02 -0.15295249585E+03 -0.13651353710E+03  0.21239906652E+03  0.00000000000E+00 0. -1.
          4    1    6    6  502    0 -0.83435045986E+02  0.62442914755E+02 -0.14989199477E+02  0.10528627927E+03  0.00000000000E+00 0. -1.
          1    1    5    5  503    0  0.25058767104E+02  0.58223195335E+02  0.48727328912E+02  0.79951453187E+02  0.00000000000E+00 0. -1.
         -2    1    5    5    0  503  0.17209068067E+03  0.44384077291E+03  0.12310101213E+03  0.49169471550E+03  0.00000000000E+00 0.  1.
         -3    1    6    6    0  502 -0.70297963167E+03  0.65736334085E+03  0.76834285365E+02  0.96551045145E+03  0.00000000000E+00 0.  1.
<mgrwt>
<rscale>  0 0.31918130E+04</rscale>
<asrwt>0</asrwt>
<pdfrwt beam="1">  1        2 0.20181849E+00 0.31918130E+04</pdfrwt>
<pdfrwt beam="2">  1       -2 0.29869450E+00 0.31918130E+04</pdfrwt>
<totfact> 0.44381666E-01</totfact>
</mgrwt>
</event>
<event>
12    1  0.2048318E-007  0.1806108E+04  0.7818608E-02  0.8703058E-01
          2   -1    0    0  501    0  0.00000000000E+00  0.00000000000E+00  0.13656917619E+04  0.13656917619E+04  0.00000000000E+00 0.  1.
         -2   -1    0    0    0  501 -0.00000000000E+00 -0.00000000000E+00 -0.59713809444E+03  0.59713809444E+03  0.00000000000E+00 0. -1.
         23    2    1    2    0    0  0.17684365235E+03 -0.27370774721E+03  0.93233584788E+03  0.99197715046E+03  0.92622489245E+02 0.  0.
        254    2    1    2    0    0 -0.17684365235E+03  0.27370774721E+03 -0.16378218041E+03  0.97085270591E+03  0.89974483365E+03 0.  0.
        -24    2    4    4    0    0  0.16454268422E+03  0.11284697097E+01 -0.41959367086E+03  0.45774489415E+03  0.79974815506E+02 0.  0.
         24    2    4    4    0    0 -0.34138633657E+03  0.27257927750E+03  0.25581149045E+03  0.51310781176E+03  0.83642181434E+02 0.  0.
         13    1    3    3    0    0  0.12451918898E+03 -0.10743467191E+03  0.45464932982E+03  0.48348035147E+03  0.00000000000E+00 0. -1.
        -13    1    3    3    0    0  0.52324463376E+02 -0.16627307530E+03  0.47768651807E+03  0.50849679899E+03  0.00000000000E+00 0.  1.
          4    1    6    6  502    0 -0.29195091312E+03  0.23021666990E+03  0.17969519032E+03  0.41294722689E+03  0.00000000000E+00 0. -1.
          1    1    5    5  503    0  0.14359568111E+03 -0.22355726274E+02 -0.28987577948E+03  0.32426449954E+03  0.00000000000E+00 0. -1.
         -2    1    5    5    0  503  0.20947003106E+02  0.23484195984E+02 -0.12971789138E+03  0.13348039460E+03  0.00000000000E+00 0.  1.
         -1    1    6    6    0  502 -0.49435423454E+02  0.42362607603E+02  0.76116300135E+02  0.10016058487E+03  0.00000000000E+00 0.  1.
<mgrwt>
<rscale>  0 0.18061081E+04</rscale>
<asrwt>0</asrwt>
<pdfrwt beam="1">  1        2 0.21010642E+00 0.18061081E+04</pdfrwt>
<pdfrwt beam="2">  1       -2 0.91867400E-01 0.18061081E+04</pdfrwt>
<totfact> 0.14400972E+01</totfact>
</mgrwt>
</event>
<event>
12    1  0.2048318E-007  0.2011145E+04  0.7818608E-02  0.8601428E-01
          2   -1    0    0  501    0  0.00000000000E+00  0.00000000000E+00  0.24008693109E+04  0.24008693109E+04  0.00000000000E+00 0. -1.
         -2   -1    0    0    0  501 -0.00000000000E+00 -0.00000000000E+00 -0.42117095865E+03  0.42117095865E+03  0.00000000000E+00 0.  1.
         23    2    1    2    0    0 -0.24225658269E+03  0.47056957635E+03 -0.42481711719E+02  0.53879535191E+03  0.91497307982E+02 0.  0.
        254    2    1    2    0    0  0.24225658269E+03 -0.47056957635E+03  0.20221800640E+04  0.22832449177E+04  0.91862460494E+03 0.  0.
        -24    2    4    4    0    0 -0.15451091359E+03 -0.54349903447E+03  0.15786957045E+04  0.16787750521E+04  0.82101920366E+02 0.  0.
         24    2    4    4    0    0  0.39676749627E+03  0.72929458128E+02  0.44348435953E+03  0.60446986558E+03  0.77215861621E+02 0.  0.
         11    1    3    3    0    0 -0.74684685390E+02  0.12030001144E+03 -0.50749270411E+02  0.15041736413E+03  0.00000000000E+00 0.  1.
        -11    1    3    3    0    0 -0.16757189730E+03  0.35026956491E+03  0.82675586928E+01  0.38837798778E+03  0.00000000000E+00 0. -1.
          4    1    6    6  502    0  0.17546870608E+02 -0.53347687628E+00  0.17075440179E+01  0.17637827879E+02  0.00000000000E+00 0. -1.
          1    1    5    5  503    0 -0.34033699882E+01 -0.15408150728E+02  0.16523866734E+02  0.22848024160E+02  0.00000000000E+00 0. -1.
         -2    1    5    5    0  503 -0.15110754360E+03 -0.52809088375E+03  0.15621718377E+04  0.16559270279E+04  0.00000000000E+00 0.  1.
         -3    1    6    6    0  502  0.37922062566E+03  0.73462935005E+02  0.44177681551E+03  0.58683203770E+03  0.00000000000E+00 0.  1.
<mgrwt>
<rscale>  0 0.20111454E+04</rscale>
<asrwt>0</asrwt>
<pdfrwt beam="1">  1        2 0.36936450E+00 0.20111454E+04</pdfrwt>
<pdfrwt beam="2">  1       -2 0.64795534E-01 0.20111454E+04</pdfrwt>
<totfact> 0.81041339E+00</totfact>
</mgrwt>
</event>
<event>
12    1  0.2048318E-007  0.1389826E+04  0.7818608E-02  0.8961216E-01
          2   -1    0    0  501    0  0.00000000000E+00  0.00000000000E+00  0.12594485489E+04  0.12594485489E+04  0.00000000000E+00 0. -1.
         -2   -1    0    0    0  501 -0.00000000000E+00 -0.00000000000E+00 -0.38342523826E+03  0.38342523826E+03  0.00000000000E+00 0.  1.
         23    2    1    2    0    0  0.33374838925E+03 -0.16403313184E+03  0.41254193508E+03  0.56310273492E+03  0.92730718818E+02 0.  0.
        254    2    1    2    0    0 -0.33374838925E+03  0.16403313184E+03  0.46348137557E+03  0.10797710523E+04  0.90155181999E+03 0.  0.
        -24    2    4    4    0    0 -0.84109971224E+02  0.28151174282E+03  0.66313361236E+03  0.72987988428E+03  0.81578851645E+02 0.  0.
         24    2    4    4    0    0 -0.24963841802E+03 -0.11747861098E+03 -0.19965223679E+03  0.34989116797E+03  0.80263627962E+02 0.  0.
         13    1    3    3    0    0  0.17277422506E+03 -0.59076355065E+02  0.26019592274E+03  0.31787240646E+03  0.00000000000E+00 0.  1.
        -13    1    3    3    0    0  0.16097416418E+03 -0.10495677677E+03  0.15234601234E+03  0.24523032847E+03  0.00000000000E+00 0. -1.
          4    1    6    6  502    0 -0.11190185323E+03 -0.82804010106E+02 -0.63019804647E+02  0.15280714847E+03  0.00000000000E+00 0. -1.
          1    1    5    5  503    0 -0.14551523834E+02  0.70042329151E+02  0.89584851359E+02  0.11464344862E+03  0.00000000000E+00 0. -1.
         -2    1    5    5    0  503 -0.69558447390E+02  0.21146941367E+03  0.57354876100E+03  0.61523643566E+03  0.00000000000E+00 0.  1.
         -3    1    6    6    0  502 -0.13773656480E+03 -0.34674600876E+02 -0.13663243215E+03  0.19708401950E+03  0.00000000000E+00 0.  1.
<mgrwt>
<rscale>  0 0.13898264E+04</rscale>
<asrwt>0</asrwt>
<pdfrwt beam="1">  1        2 0.19376131E+00 0.13898264E+04</pdfrwt>
<pdfrwt beam="2">  1       -2 0.58988499E-01 0.13898264E+04</pdfrwt>
<totfact> 0.45659769E+01</totfact>
</mgrwt>
</event>
<event>
12    1  0.2048318E-007  0.2836830E+04  0.7818608E-02  0.8291924E-01
          2   -1    0    0  501    0  0.00000000000E+00  0.00000000000E+00  0.45030883624E+04  0.45030883624E+04  0.00000000000E+00 0. -1.
         -2   -1    0    0    0  501 -0.00000000000E+00 -0.00000000000E+00 -0.44678264745E+03  0.44678264745E+03  0.00000000000E+00 0.  1.
         23    2    1    2    0    0 -0.63958071796E+03 -0.70942577988E+03  0.35626264616E+03  0.10235464396E+04  0.91519446128E+02 0.  0.
        254    2    1    2    0    0  0.63958071796E+03  0.70942577988E+03  0.37000430688E+04  0.39263245703E+04  0.90186334230E+03 0.  0.
        -24    2    4    4    0    0 -0.96691678665E+01  0.61164209191E+03  0.13397093682E+04  0.14751018679E+04  0.83095053363E+02 0.  0.
         24    2    4    4    0    0  0.64924988582E+03  0.97783687963E+02  0.23603337006E+04  0.24512227024E+04  0.78933483306E+02 0.  0.
         11    1    3    3    0    0 -0.35330865246E+03 -0.38324792838E+03  0.24247528911E+03  0.57489150659E+03  0.00000000000E+00 0. -1.
        -11    1    3    3    0    0 -0.28627206549E+03 -0.32617785149E+03  0.11378735704E+03  0.44865493300E+03  0.00000000000E+00 0.  1.
          4    1    6    6  502    0  0.66412818936E+02 -0.11492377219E+02  0.28242394936E+03  0.29035499724E+03  0.00000000000E+00 0. -1.
          1    1    5    5  503    0 -0.11515637344E+02  0.27582560252E+02  0.37851071054E+02  0.48229774139E+02  0.00000000000E+00 0. -1.
         -2    1    5    5    0  503  0.18464694773E+01  0.58405953166E+03  0.13018582972E+04  0.14268720937E+04  0.00000000000E+00 0.  1.
         -3    1    6    6    0  502  0.58283706689E+03  0.10927606518E+03  0.20779097512E+04  0.21608677051E+04  0.00000000000E+00 0.  1.
<mgrwt>
<rscale>  0 0.28368304E+04</rscale>
<asrwt>0</asrwt>
<pdfrwt beam="1">  1        2 0.69278279E+00 0.28368304E+04</pdfrwt>
<pdfrwt beam="2">  1       -2 0.68735795E-01 0.28368304E+04</pdfrwt>
<totfact> 0.20531828E-01</totfact>
</mgrwt>
</event>
<event>
12    1  0.2048318E-007  0.1515358E+04  0.7818608E-02  0.8874304E-01
         -2   -1    0    0    0  501 -0.00000000000E+00  0.00000000000E+00  0.28963269497E+03  0.28963269497E+03  0.00000000000E+00 0.  1.
          2   -1    0    0  501    0  0.00000000000E+00 -0.00000000000E+00 -0.19820874186E+04  0.19820874186E+04  0.00000000000E+00 0. -1.
         23    2    1    2    0    0  0.20507140361E+03 -0.42179870508E+03 -0.36109925485E+03  0.59778946419E+03  0.83613057994E+02 0.  0.
        254    2    1    2    0    0 -0.20507140361E+03  0.42179870508E+03 -0.13313554688E+04  0.16739306494E+04  0.89975997161E+03 0.  0.
        -24    2    4    4    0    0 -0.10068593981E+02  0.31251153876E+03 -0.74455756223E+00  0.32225450111E+03  0.77990837148E+02 0.  0.
         24    2    4    4    0    0 -0.19500280963E+03  0.10928716632E+03 -0.13306109113E+04  0.13516761483E+04  0.80828412302E+02 0.  0.
         11    1    3    3    0    0  0.14147992426E+03 -0.28101437203E+03 -0.28941010927E+03  0.42748550573E+03  0.00000000000E+00 0. -1.
        -11    1    3    3    0    0  0.63591479350E+02 -0.14078433304E+03 -0.71689145578E+02  0.17030395847E+03  0.00000000000E+00 0.  1.
          4    1    6    6  502    0 -0.12098187431E+03  0.59811365369E+02 -0.10083832092E+04  0.10173744198E+04  0.00000000000E+00 0. -1.
          3    1    5    5  503    0 -0.39407818605E+02  0.10046121648E+03 -0.64674710216E+01  0.10810763324E+03  0.00000000000E+00 0. -1.
         -4    1    5    5    0  503  0.29339224624E+02  0.21205032228E+03  0.57229134593E+01  0.21414686787E+03  0.00000000000E+00 0.  1.
         -3    1    6    6    0  502 -0.74020935319E+02  0.49475800947E+02 -0.32222770203E+03  0.33430172853E+03  0.00000000000E+00 0.  1.
<mgrwt>
<rscale>  0 0.15153578E+04</rscale>
<asrwt>0</asrwt>
<pdfrwt beam="1">  1        2 0.30493654E+00 0.15153578E+04</pdfrwt>
<pdfrwt beam="2">  1       -2 0.44558875E-01 0.15153578E+04</pdfrwt>
<totfact> 0.31522432E+01</totfact>
</mgrwt>
</event>
<event>
12    1  0.2048318E-007  0.2195014E+04  0.7818608E-02  0.8520506E-01
          2   -1    0    0  501    0  0.00000000000E+00  0.00000000000E+00  0.10498526319E+04  0.10498526319E+04  0.00000000000E+00 0. -1.
         -2   -1    0    0    0  501 -0.00000000000E+00 -0.00000000000E+00 -0.11473241891E+04  0.11473241891E+04  0.00000000000E+00 0.  1.
         23    2    1    2    0    0 -0.53392973283E+02  0.46824313108E+03  0.74189281192E+03  0.88341031977E+03  0.88917991965E+02 0.  0.
        254    2    1    2    0    0  0.53392973283E+02 -0.46824313108E+03 -0.83936436911E+03  0.13137665012E+04  0.89406232227E+03 0.  0.
        -24    2    4    4    0    0  0.42299363452E+03 -0.44689424076E+02 -0.45424181024E+03  0.62767664731E+03  0.81985315398E+02 0.  0.
         24    2    4    4    0    0 -0.36960066123E+03 -0.42355370700E+03 -0.38512255887E+03  0.68608985387E+03  0.79984440636E+02 0.  0.
         11    1    3    3    0    0 -0.16024375413E+02  0.17119175196E+03  0.19537615186E+03  0.26025994172E+03  0.00000000000E+00 0.  1.
        -11    1    3    3    0    0 -0.37368597870E+02  0.29705137912E+03  0.54651666006E+03  0.62315037805E+03  0.00000000000E+00 0. -1.
          4    1    6    6  502    0 -0.16749930792E+03 -0.15562352673E+03 -0.19417814208E+03  0.29996641660E+03  0.00000000000E+00 0. -1.
          1    1    5    5  503    0  0.25336033265E+03 -0.40076801204E+02 -0.21696920273E+03  0.33596613384E+03  0.00000000000E+00 0. -1.
         -2    1    5    5    0  503  0.16963330186E+03 -0.46126228713E+01 -0.23727260751E+03  0.29171051346E+03  0.00000000000E+00 0.  1.
         -3    1    6    6    0  502 -0.20210135331E+03 -0.26793018027E+03 -0.19094441678E+03  0.38612343728E+03  0.00000000000E+00 0.  1.
<mgrwt>
<rscale>  0 0.21950137E+04</rscale>
<asrwt>0</asrwt>
<pdfrwt beam="1">  1        2 0.16151579E+00 0.21950137E+04</pdfrwt>
<pdfrwt beam="2">  1       -2 0.17651141E+00 0.21950137E+04</pdfrwt>
<totfact> 0.41045943E+00</totfact>
</mgrwt>
</event>
<event>
12    1  0.2048318E-007  0.1317129E+04  0.7818608E-02  0.9016091E-01
          1   -1    0    0  501    0  0.00000000000E+00  0.00000000000E+00  0.15402943369E+04  0.15402943369E+04  0.00000000000E+00 0. -1.
         -1   -1    0    0    0  501 -0.00000000000E+00 -0.00000000000E+00 -0.28157418762E+03  0.28157418762E+03  0.00000000000E+00 0.  1.
         23    2    1    2    0    0 -0.23451878968E+03 -0.24385230685E+03  0.26690397754E+03  0.44046182050E+03  0.91136555885E+02 0.  0.
        254    2    1    2    0    0  0.23451878968E+03  0.24385230685E+03  0.99181617179E+03  0.13814067041E+04  0.90006786031E+03 0.  0.
        -24    2    4    4    0    0  0.44041713759E+03 -0.51475947840E+02  0.89253643278E+03  0.99948510536E+03  0.75711053982E+02 0.  0.
         24    2    4    4    0    0 -0.20589834791E+03  0.29532825469E+03  0.99279739006E+02  0.38192159872E+03  0.79967076358E+02 0.  0.
         13    1    3    3    0    0 -0.57245893396E+02 -0.10920273256E+03  0.12975146373E+03  0.17899098147E+03  0.00000000000E+00 0. -1.
        -13    1    3    3    0    0 -0.17727289629E+03 -0.13464957429E+03  0.13715251381E+03  0.26147083902E+03  0.00000000000E+00 0.  1.
          4    1    6    6  502    0 -0.12654647533E+03  0.21937579766E+03  0.99433032748E+02  0.27207844277E+03  0.00000000000E+00 0. -1.
          3    1    5    5  503    0  0.34345838542E+03 -0.69454657074E+02  0.67077832271E+03  0.75679004362E+03  0.00000000000E+00 0. -1.
         -4    1    5    5    0  503  0.96958752171E+02  0.17978709234E+02  0.22175811007E+03  0.24269506174E+03  0.00000000000E+00 0.  1.
         -3    1    6    6    0  502 -0.79351872574E+02  0.75952457026E+02 -0.15329374128E+00  0.10984315595E+03  0.00000000000E+00 0.  1.
<mgrwt>
<rscale>  0 0.13171289E+04</rscale>
<asrwt>0</asrwt>
<pdfrwt beam="1">  1        1 0.23696836E+00 0.13171289E+04</pdfrwt>
<pdfrwt beam="2">  1       -1 0.43319107E-01 0.13171289E+04</pdfrwt>
<totfact> 0.31646277E+01</totfact>
</mgrwt>
</event>
<event>
12    1  0.2048318E-007  0.2011276E+04  0.7818608E-02  0.8601367E-01
         -1   -1    0    0    0  501 -0.00000000000E+00  0.00000000000E+00  0.44004002977E+03  0.44004002977E+03  0.00000000000E+00 0.  1.
          1   -1    0    0  501    0  0.00000000000E+00 -0.00000000000E+00 -0.22982173168E+04  0.22982173168E+04  0.00000000000E+00 0. -1.
         23    2    1    2    0    0 -0.28256272460E+03  0.48858582573E+02 -0.17642467469E+04  0.17897599183E+04  0.91897370943E+02 0.  0.
        254    2    1    2    0    0  0.28256272460E+03 -0.48858582573E+02 -0.93930540096E+02  0.94849742823E+03  0.89921942292E+03 0.  0.
        -24    2    4    4    0    0  0.43782611364E+02 -0.23688792976E+03  0.33276219045E+03  0.41861933477E+03  0.80490146797E+02 0.  0.
         24    2    4    4    0    0  0.23878011323E+03  0.18802934719E+03 -0.42669273054E+03  0.52987809345E+03  0.79580963460E+02 0.  0.
         13    1    3    3    0    0  0.21525987622E+01  0.90078139257E+00 -0.31510911196E+00  0.23546512058E+01  0.00000000000E+00 0.  1.
        -13    1    3    3    0    0 -0.28471532336E+03  0.47957801180E+02 -0.17639316378E+04  0.17874052671E+04  0.00000000000E+00 0. -1.
          2    1    6    6  502    0  0.53775462899E+02  0.53156513295E+02 -0.16916166887E+03  0.18529189278E+03  0.00000000000E+00 0. -1.
          3    1    5    5  503    0  0.12731401522E+02 -0.47872673103E+02  0.13269344016E+03  0.14163837925E+03  0.00000000000E+00 0. -1.
         -4    1    5    5    0  503  0.31051209842E+02 -0.18901525666E+03  0.20006875028E+03  0.27698095552E+03  0.00000000000E+00 0.  1.
         -1    1    6    6    0  502  0.18500465033E+03  0.13487283389E+03 -0.25753106167E+03  0.34458620067E+03  0.00000000000E+00 0.  1.
<mgrwt>
<rscale>  0 0.20112758E+04</rscale>
<asrwt>0</asrwt>
<pdfrwt beam="1">  1        1 0.35357190E+00 0.20112758E+04</pdfrwt>
<pdfrwt beam="2">  1       -1 0.67698466E-01 0.20112758E+04</pdfrwt>
<totfact> 0.38223239E+00</totfact>
</mgrwt>
</event>
<event>
12    1  0.2048318E-007  0.2230187E+04  0.7818608E-02  0.8505968E-01
         -2   -1    0    0    0  501 -0.00000000000E+00  0.00000000000E+00  0.54829783037E+03  0.54829783037E+03  0.00000000000E+00 0.  1.
          2   -1    0    0  501    0  0.00000000000E+00 -0.00000000000E+00 -0.22678063724E+04  0.22678063724E+04  0.00000000000E+00 0. -1.
         23    2    1    2    0    0 -0.66243543731E+03 -0.65549585593E+03 -0.74854736967E+03  0.11988327812E+04  0.91549695826E+02 0.  0.
        254    2    1    2    0    0  0.66243543731E+03  0.65549585593E+03 -0.97096117234E+03  0.16172714216E+04  0.89683093566E+03 0.  0.
        -24    2    4    4    0    0 -0.16536563092E+03  0.14368607643E+03 -0.45817342160E+03  0.51428655006E+03  0.81094333155E+02 0.  0.
         24    2    4    4    0    0  0.82780106823E+03  0.51180977950E+03 -0.51278775075E+03  0.11029848715E+04  0.80127963585E+02 0.  0.
         11    1    3    3    0    0 -0.13220004495E+03 -0.10731169027E+03 -0.17837578543E+03  0.24659799590E+03  0.00000000000E+00 0. -1.
        -11    1    3    3    0    0 -0.53023539236E+03 -0.54818416567E+03 -0.57017158424E+03  0.95223478527E+03  0.00000000000E+00 0.  1.
          2    1    6    6  502    0  0.66681113707E+03  0.39382367131E+03 -0.37494619319E+03  0.86041781966E+03  0.00000000000E+00 0. -1.
          1    1    5    5  503    0 -0.74621896702E+02  0.96970385233E+02 -0.31930261528E+03  0.34194421066E+03  0.00000000000E+00 0. -1.
         -2    1    5    5    0  503 -0.90743734220E+02  0.46715691196E+02 -0.13887080631E+03  0.17234233940E+03  0.00000000000E+00 0.  1.
         -1    1    6    6    0  502  0.16098993116E+03  0.11798610820E+03 -0.13784155756E+03  0.24256705187E+03  0.00000000000E+00 0.  1.
<mgrwt>
<rscale>  0 0.22301868E+04</rscale>
<asrwt>0</asrwt>
<pdfrwt beam="1">  1        2 0.34889329E+00 0.22301868E+04</pdfrwt>
<pdfrwt beam="2">  1       -2 0.84353511E-01 0.22301868E+04</pdfrwt>
<totfact> 0.52849738E+00</totfact>
</mgrwt>
</event>
<event>
12    1  0.2048318E-007  0.4124273E+04  0.7818608E-02  0.7979935E-01
         -2   -1    0    0    0  501 -0.00000000000E+00  0.00000000000E+00  0.26160300392E+04  0.26160300392E+04  0.00000000000E+00 0.  1.
          2   -1    0    0  501    0  0.00000000000E+00 -0.00000000000E+00 -0.16255193753E+04  0.16255193753E+04  0.00000000000E+00 0. -1.
         23    2    1    2    0    0  0.11677893079E+04  0.15695058617E+04  0.31003332561E+03  0.19828440532E+04  0.92029120278E+02 0.  0.
        254    2    1    2    0    0 -0.11677893079E+04 -0.15695058617E+04  0.68047733823E+03  0.22587053612E+04  0.90089954133E+03 0.  0.
        -24    2    4    4    0    0 -0.15757547205E+02 -0.61858037285E+03  0.21901513585E+02  0.62417545695E+03  0.78900866845E+02 0.  0.
         24    2    4    4    0    0 -0.11520317607E+04 -0.95092548882E+03  0.65857582465E+03  0.16345299043E+04  0.80804877745E+02 0.  0.
         13    1    3    3    0    0  0.63694677808E+03  0.92728772286E+03  0.19450013170E+03  0.11416628313E+04  0.00000000000E+00 0. -1.
        -13    1    3    3    0    0  0.53084252983E+03  0.64221813881E+03  0.11553319392E+03  0.84118122197E+03  0.00000000000E+00 0.  1.
          2    1    6    6  502    0 -0.90241616390E+03 -0.77756743617E+03  0.50204128435E+03  0.12926761009E+04  0.00000000000E+00 0. -1.
          1    1    5    5  503    0  0.24139517866E+02 -0.39830676359E+03 -0.20256193533E+01  0.39904272626E+03  0.00000000000E+00 0. -1.
         -2    1    5    5    0  503 -0.39897065071E+02 -0.22027360926E+03  0.23927132939E+02  0.22513273069E+03  0.00000000000E+00 0.  1.
         -1    1    6    6    0  502 -0.24961559681E+03 -0.17335805265E+03  0.15653454029E+03  0.34185380339E+03  0.00000000000E+00 0.  1.
<mgrwt>
<rscale>  0 0.41242733E+04</rscale>
<asrwt>0</asrwt>
<pdfrwt beam="1">  1        2 0.25007990E+00 0.41242733E+04</pdfrwt>
<pdfrwt beam="2">  1       -2 0.40246616E+00 0.41242733E+04</pdfrwt>
<totfact> 0.60254135E-02</totfact>
</mgrwt>
</event>
<event>
12    1  0.2048318E-007  0.2353096E+04  0.7818608E-02  0.8457276E-01
          2   -1    0    0  501    0  0.00000000000E+00  0.00000000000E+00  0.13243990315E+04  0.13243990315E+04  0.00000000000E+00 0. -1.
         -2   -1    0    0    0  501 -0.00000000000E+00 -0.00000000000E+00 -0.10452022376E+04  0.10452022376E+04  0.00000000000E+00 0.  1.
         23    2    1    2    0    0 -0.98143334138E+03 -0.10304790213E+03 -0.51949601459E+02  0.99301384465E+03  0.97711109172E+02 0.  0.
        254    2    1    2    0    0  0.98143334138E+03  0.10304790213E+03  0.33114639531E+03  0.13765874244E+04  0.90083557227E+03 0.  0.
        -24    2    4    4    0    0  0.37373715730E+03 -0.32835826943E+03  0.37159275101E+03  0.62599185862E+03  0.79284415910E+02 0.  0.
         24    2    4    4    0    0  0.60769618408E+03  0.43140617157E+03 -0.40446355698E+02  0.75059556581E+03  0.79698548988E+02 0.  0.
         13    1    3    3    0    0 -0.34592547401E+03 -0.30930041072E+02  0.28083917536E+02  0.34843910147E+03  0.00000000000E+00 0. -1.
        -13    1    3    3    0    0 -0.63550786737E+03 -0.72117861062E+02 -0.80033518995E+02  0.64457474317E+03  0.00000000000E+00 0.  1.
          2    1    6    6  502    0  0.19350243735E+02  0.11449215189E+02 -0.15508741734E+02  0.27313687617E+02  0.00000000000E+00 0. -1.
          1    1    5    5  503    0  0.79639573730E+02 -0.11680148449E+03  0.11042682835E+03  0.17938543113E+03  0.00000000000E+00 0. -1.
         -4    1    5    5    0  503  0.29409758357E+03 -0.21155678494E+03  0.26116592265E+03  0.44660642749E+03  0.00000000000E+00 0.  1.
         -1    1    6    6    0  502  0.58834594035E+03  0.41995695638E+03 -0.24937613964E+02  0.72328187819E+03  0.00000000000E+00 0.  1.
<mgrwt>
<rscale>  0 0.23530957E+04</rscale>
<asrwt>0</asrwt>
<pdfrwt beam="1">  1        2 0.20375370E+00 0.23530957E+04</pdfrwt>
<pdfrwt beam="2">  1       -2 0.16080034E+00 0.23530957E+04</pdfrwt>
<totfact> 0.35891453E+00</totfact>
</mgrwt>
</event>
<event>
12    1  0.2048318E-007  0.1157343E+04  0.7818608E-02  0.9151036E-01
          2   -1    0    0  501    0  0.00000000000E+00  0.00000000000E+00  0.11997573237E+04  0.11997573237E+04  0.00000000000E+00 0. -1.
         -2   -1    0    0    0  501 -0.00000000000E+00 -0.00000000000E+00 -0.27910694155E+03  0.27910694155E+03  0.00000000000E+00 0.  1.
         23    2    1    2    0    0  0.90797330664E+02 -0.11052037016E+03  0.38689971769E+03  0.42248577270E+03  0.91345109952E+02 0.  0.
        254    2    1    2    0    0 -0.90797330664E+02  0.11052037016E+03  0.53375066445E+03  0.10563784925E+04  0.90032596332E+03 0.  0.
        -24    2    4    4    0    0 -0.23827196081E+03  0.42170161773E+03  0.49904223724E+03  0.70016390377E+03  0.81120625557E+02 0.  0.
         24    2    4    4    0    0  0.14747463014E+03 -0.31118124757E+03  0.34708427210E+02  0.35621458877E+03  0.84271127684E+02 0.  0.
         11    1    3    3    0    0  0.40289479062E+01 -0.34812532222E+02  0.19933920121E+03  0.20239629928E+03  0.00000000000E+00 0. -1.
        -11    1    3    3    0    0  0.86768382758E+02 -0.75707837940E+02  0.18756051647E+03  0.22008947342E+03  0.00000000000E+00 0.  1.
          2    1    6    6  502    0  0.81840147896E+02 -0.23124028293E+03 -0.51964235796E+01  0.24535052695E+03  0.00000000000E+00 0. -1.
          3    1    5    5  503    0 -0.18424638387E+03  0.33621704151E+03  0.43778614391E+03  0.58193241598E+03  0.00000000000E+00 0. -1.
         -4    1    5    5    0  503 -0.54025576938E+02  0.85484576222E+02  0.61256093336E+02  0.11823148779E+03  0.00000000000E+00 0.  1.
         -1    1    6    6    0  502  0.65634482248E+02 -0.79940964640E+02  0.39904850790E+02  0.11086406182E+03  0.00000000000E+00 0.  1.
<mgrwt>
<rscale>  0 0.11573428E+04</rscale>
<asrwt>0</asrwt>
<pdfrwt beam="1">  1        2 0.18457805E+00 0.11573428E+04</pdfrwt>
<pdfrwt beam="2">  1       -2 0.42939530E-01 0.11573428E+04</pdfrwt>
<totfact> 0.96339698E+01</totfact>
</mgrwt>
</event>
<event>
12    1  0.2048318E-007  0.2340046E+04  0.7818608E-02  0.8462297E-01
         -1   -1    0    0    0  501 -0.00000000000E+00  0.00000000000E+00  0.45961701573E+03  0.45961701573E+03  0.00000000000E+00 0.  1.
          1   -1    0    0  501    0  0.00000000000E+00 -0.00000000000E+00 -0.29784675596E+04  0.29784675596E+04  0.00000000000E+00 0. -1.
         23    2    1    2    0    0  0.44453589325E+03 -0.58044359293E+02  0.22435679300E+03  0.51607412989E+03  0.12253664326E+03 0.  0.
        254    2    1    2    0    0 -0.44453589325E+03  0.58044359293E+02 -0.27432073368E+04  0.29220104454E+04  0.90109779832E+03 0.  0.
        -24    2    4    4    0    0 -0.31074275007E+03 -0.38704642200E+03 -0.17824657814E+04  0.18519650638E+04  0.78894524950E+02 0.  0.
         24    2    4    4    0    0 -0.13379314318E+03  0.44509078129E+03 -0.96074155545E+03  0.10700453816E+04  0.77242304847E+02 0.  0.
         11    1    3    3    0    0  0.11358678186E+03 -0.70000828236E+02  0.70685381481E+02  0.15099170878E+03  0.00000000000E+00 0. -1.
        -11    1    3    3    0    0  0.33094911139E+03  0.11956468943E+02  0.15367141152E+03  0.36508242111E+03  0.00000000000E+00 0.  1.
          4    1    6    6  502    0 -0.13405708312E+03  0.33534277558E+03 -0.75118139060E+03  0.83348638876E+03  0.00000000000E+00 0. -1.
          1    1    5    5  503    0 -0.23436598632E+03 -0.31577212233E+03 -0.12930602298E+04  0.13515340198E+04  0.00000000000E+00 0. -1.
         -2    1    5    5    0  503 -0.76376763743E+02 -0.71274299668E+02 -0.48940555162E+03  0.50043104399E+03  0.00000000000E+00 0.  1.
         -3    1    6    6    0  502  0.26393993349E+00  0.10974800571E+03 -0.20956016485E+03  0.23655899289E+03  0.00000000000E+00 0.  1.
<mgrwt>
<rscale>  0 0.23400465E+04</rscale>
<asrwt>0</asrwt>
<pdfrwt beam="1">  1        1 0.45822579E+00 0.23400465E+04</pdfrwt>
<pdfrwt beam="2">  1       -1 0.70710309E-01 0.23400465E+04</pdfrwt>
<totfact> 0.11285444E+00</totfact>
</mgrwt>
</event>
<event>
12    1  0.2048318E-007  0.1553685E+04  0.7818608E-02  0.8849517E-01
         -2   -1    0    0    0  501 -0.00000000000E+00  0.00000000000E+00  0.20408298296E+03  0.20408298296E+03  0.00000000000E+00 0.  1.
          2   -1    0    0  501    0  0.00000000000E+00 -0.00000000000E+00 -0.29570549191E+04  0.29570549191E+04  0.00000000000E+00 0. -1.
         23    2    1    2    0    0  0.66512355682E+00 -0.47877594923E+03 -0.55583322273E+03  0.73910474008E+03  0.89991073822E+02 0.  0.
        254    2    1    2    0    0 -0.66512355682E+00  0.47877594923E+03 -0.21971387134E+04  0.24220331620E+04  0.89977733903E+03 0.  0.
        -24    2    4    4    0    0  0.36080528298E+03  0.37695413886E+03 -0.70233401415E+03  0.87866567421E+03  0.80656212201E+02 0.  0.
         24    2    4    4    0    0 -0.36147040653E+03  0.10182181037E+03 -0.14948046992E+04  0.15433674877E+04  0.80706737891E+02 0.  0.
         11    1    3    3    0    0 -0.16519096693E+02 -0.27481769117E+03 -0.38010291305E+03  0.46933556061E+03  0.00000000000E+00 0. -1.
        -11    1    3    3    0    0  0.17184220250E+02 -0.20395825806E+03 -0.17573030967E+03  0.26976917947E+03  0.00000000000E+00 0.  1.
          2    1    6    6  502    0 -0.12063897021E+03  0.25358223465E+02 -0.35200651596E+03  0.37296834706E+03  0.00000000000E+00 0. -1.
          3    1    5    5  503    0  0.11544520326E+03  0.10562604217E+03 -0.27257929764E+03  0.31429910793E+03  0.00000000000E+00 0. -1.
         -4    1    5    5    0  503  0.24536007972E+03  0.27132809669E+03 -0.42975471651E+03  0.56436656628E+03  0.00000000000E+00 0.  1.
         -1    1    6    6    0  502 -0.24083143632E+03  0.76463586904E+02 -0.11427981833E+04  0.11703991407E+04  0.00000000000E+00 0.  1.
<mgrwt>
<rscale>  0 0.15536854E+04</rscale>
<asrwt>0</asrwt>
<pdfrwt beam="1">  1        2 0.45493154E+00 0.15536854E+04</pdfrwt>
<pdfrwt beam="2">  1       -2 0.31397381E-01 0.15536854E+04</pdfrwt>
<totfact> 0.16884228E+01</totfact>
</mgrwt>
</event>
<event>
12    1  0.2048318E-007  0.1736275E+04  0.7818608E-02  0.8740942E-01
         -2   -1    0    0    0  501 -0.00000000000E+00  0.00000000000E+00  0.83390114731E+03  0.83390114731E+03  0.00000000000E+00 0.  1.
          2   -1    0    0  501    0  0.00000000000E+00 -0.00000000000E+00 -0.90377908297E+03  0.90377908297E+03  0.00000000000E+00 0. -1.
         23    2    1    2    0    0 -0.56703715597E+03 -0.15561984972E+02 -0.30601954924E+03  0.65098736181E+03  0.91450910859E+02 0.  0.
        254    2    1    2    0    0  0.56703715597E+03  0.15561984972E+02  0.23614161359E+03  0.10866928685E+04  0.89630643035E+03 0.  0.
        -24    2    4    4    0    0 -0.22569942612E+03 -0.32695059248E+02 -0.35272538559E+02  0.24328858937E+03  0.77045362555E+02 0.  0.
         24    2    4    4    0    0  0.79273658209E+03  0.48257044220E+02  0.27141415215E+03  0.84340427910E+03  0.83096962096E+02 0.  0.
         11    1    3    3    0    0 -0.37307735097E+03 -0.37039072291E+02 -0.16181041403E+03  0.40833958021E+03  0.00000000000E+00 0. -1.
        -11    1    3    3    0    0 -0.19395980500E+03  0.21477087319E+02 -0.14420913522E+03  0.24264778160E+03  0.00000000000E+00 0.  1.
          4    1    6    6  502    0  0.13077490534E+03 -0.19520806713E+02  0.30351923707E+02  0.13566273267E+03  0.00000000000E+00 0. -1.
          3    1    5    5  503    0 -0.18109769100E+02 -0.19626478450E+02 -0.22458987464E+02  0.34893674371E+02  0.00000000000E+00 0. -1.
         -4    1    5    5    0  503 -0.20758965702E+03 -0.13068580798E+02 -0.12813551095E+02  0.20839491500E+03  0.00000000000E+00 0.  1.
         -3    1    6    6    0  502  0.66196167675E+03  0.67777850934E+02  0.24106222844E+03  0.70774154643E+03  0.00000000000E+00 0.  1.
<mgrwt>
<rscale>  0 0.17362746E+04</rscale>
<asrwt>0</asrwt>
<pdfrwt beam="1">  1        2 0.13904294E+00 0.17362746E+04</pdfrwt>
<pdfrwt beam="2">  1       -2 0.12829248E+00 0.17362746E+04</pdfrwt>
<totfact> 0.12419899E+01</totfact>
</mgrwt>
</event>
<event>
12    1  0.2048318E-007  0.1457077E+04  0.7818608E-02  0.8913509E-01
          1   -1    0    0  501    0  0.00000000000E+00  0.00000000000E+00  0.33474711360E+03  0.33474711360E+03  0.00000000000E+00 0. -1.
         -1   -1    0    0    0  501 -0.00000000000E+00 -0.00000000000E+00 -0.15855809641E+04  0.15855809641E+04  0.00000000000E+00 0.  1.
         23    2    1    2    0    0 -0.15946051689E+03 -0.18123953866E+03 -0.88330111846E+03  0.92041141751E+03  0.93063874815E+02 0.  0.
        254    2    1    2    0    0  0.15946051689E+03  0.18123953866E+03 -0.36753273205E+03  0.99991666020E+03  0.89804097423E+03 0.  0.
        -24    2    4    4    0    0  0.14724202469E+03  0.40564455017E+03  0.12152623359E+03  0.45553575953E+03  0.80724766018E+02 0.  0.
         24    2    4    4    0    0  0.12218492206E+02 -0.22440501151E+03 -0.48905896564E+03  0.54438090067E+03  0.81639404685E+02 0.  0.
         13    1    3    3    0    0 -0.99360139822E+02 -0.13785914914E+03 -0.73781905776E+03  0.75713575030E+03  0.00000000000E+00 0.  1.
        -13    1    3    3    0    0 -0.60100377072E+02 -0.43380389513E+02 -0.14548206070E+03  0.16327566721E+03  0.00000000000E+00 0. -1.
          2    1    6    6  502    0 -0.32465905873E+02 -0.57622947343E+02 -0.14798310468E+03  0.16209083372E+03  0.00000000000E+00 0. -1.
          1    1    5    5  503    0  0.11514044501E+02  0.30752238311E+00  0.43069019160E+01  0.12297040087E+02  0.00000000000E+00 0. -1.
         -2    1    5    5    0  503  0.13572798019E+03  0.40533702778E+03  0.11721933168E+03  0.44323871945E+03  0.00000000000E+00 0.  1.
         -1    1    6    6    0  502  0.44684398079E+02 -0.16678206417E+03 -0.34107586096E+03  0.38229006695E+03  0.00000000000E+00 0.  1.
<mgrwt>
<rscale>  0 0.14570774E+04</rscale>
<asrwt>0</asrwt>
<pdfrwt beam="1">  1        1 0.51499557E-01 0.14570774E+04</pdfrwt>
<pdfrwt beam="2">  1       -1 0.24393553E+00 0.14570774E+04</pdfrwt>
<totfact> 0.56349511E+00</totfact>
</mgrwt>
</event>
<event>
12    1  0.2048318E-007  0.2499008E+04  0.7818608E-02  0.8403339E-01
         -1   -1    0    0    0  501 -0.00000000000E+00  0.00000000000E+00  0.17521052398E+04  0.17521052398E+04  0.00000000000E+00 0. -1.
          1   -1    0    0  501    0  0.00000000000E+00 -0.00000000000E+00 -0.89107704327E+03  0.89107704327E+03  0.00000000000E+00 0.  1.
         23    2    1    2    0    0  0.49113710080E+03  0.83456369099E+03 -0.14363440903E+03  0.98318266643E+03  0.91132354322E+02 0.  0.
        254    2    1    2    0    0 -0.49113710080E+03 -0.83456369099E+03  0.10046626056E+04  0.16599996166E+04  0.89918828404E+03 0.  0.
        -24    2    4    4    0    0 -0.12730183547E+03 -0.50892350581E+02 -0.14824082360E+03  0.21716374799E+03  0.79930988974E+02 0.  0.
         24    2    4    4    0    0 -0.36383526533E+03 -0.78367134041E+03  0.11529034292E+04  0.14428358686E+04  0.77924045308E+02 0.  0.
         11    1    3    3    0    0  0.20553559711E+03  0.37513841831E+03 -0.19711616575E+02  0.42820819983E+03  0.00000000000E+00 0. -1.
        -11    1    3    3    0    0  0.28560150369E+03  0.45942527267E+03 -0.12392279246E+03  0.55497446660E+03  0.00000000000E+00 0.  1.
          2    1    6    6  502    0 -0.20139423479E+03 -0.51965562033E+03  0.75619968492E+03  0.93938254456E+03  0.00000000000E+00 0. -1.
          1    1    5    5  503    0 -0.11747412202E+03 -0.15831965805E+02 -0.91494383185E+02  0.14973991666E+03  0.00000000000E+00 0. -1.
         -2    1    5    5    0  503 -0.98277134510E+01 -0.35060384776E+02 -0.56746440414E+02  0.67423831335E+02  0.00000000000E+00 0.  1.
         -1    1    6    6    0  502 -0.16244103054E+03 -0.26401572008E+03  0.39670374423E+03  0.50345332409E+03  0.00000000000E+00 0.  1.
<mgrwt>
<rscale>  0 0.24990084E+04</rscale>
<asrwt>0</asrwt>
<pdfrwt beam="1">  1        1 0.13708878E+00 0.24990084E+04</pdfrwt>
<pdfrwt beam="2">  1       -1 0.26955465E+00 0.24990084E+04</pdfrwt>
<totfact> 0.85525667E-01</totfact>
</mgrwt>
</event>
<event>
12    1  0.2048318E-007  0.5105471E+04  0.7818608E-02  0.7812440E-01
         -1   -1    0    0    0  501 -0.00000000000E+00  0.00000000000E+00  0.28903460832E+04  0.28903460832E+04  0.00000000000E+00 0.  1.
          1   -1    0    0  501    0  0.00000000000E+00 -0.00000000000E+00 -0.22545602372E+04  0.22545602372E+04  0.00000000000E+00 0. -1.
         23    2    1    2    0    0  0.54837822961E+02  0.22040995093E+04  0.14359796848E+04  0.26327995869E+04  0.92380604276E+02 0.  0.
        254    2    1    2    0    0 -0.54837822961E+02 -0.22040995093E+04 -0.80019383879E+03  0.25121067334E+04  0.89961559940E+03 0.  0.
        -24    2    4    4    0    0  0.13878307395E+03 -0.46130618571E+03 -0.55583193451E+03  0.73988142696E+03  0.80070268864E+02 0.  0.
         24    2    4    4    0    0 -0.19362089691E+03 -0.17427933236E+04 -0.24436190428E+03  0.17722253064E+04  0.79070703157E+02 0.  0.
         11    1    3    3    0    0  0.55941072056E+02  0.66370607811E+03  0.45220030673E+03  0.80505917737E+03  0.00000000000E+00 0. -1.
        -11    1    3    3    0    0 -0.11032490944E+01  0.15403934312E+04  0.98377937809E+03  0.18277404096E+04  0.00000000000E+00 0.  1.
          2    1    6    6  502    0  0.50715869693E+01 -0.13744440288E+03 -0.25630379656E+02  0.13990568694E+03  0.00000000000E+00 0. -1.
          1    1    5    5  503    0  0.21572587058E+02 -0.19848881262E+03 -0.20563385752E+03  0.28661554146E+03  0.00000000000E+00 0. -1.
         -2    1    5    5    0  503  0.11721048689E+03 -0.26281737310E+03 -0.35019807698E+03  0.45326588550E+03  0.00000000000E+00 0.  1.
         -1    1    6    6    0  502 -0.19869248388E+03 -0.16053489207E+04 -0.21873152463E+03  0.16323196195E+04  0.00000000000E+00 0.  1.
<mgrwt>
<rscale>  0 0.51054713E+04</rscale>
<asrwt>0</asrwt>
<pdfrwt beam="1">  1        1 0.34685542E+00 0.51054713E+04</pdfrwt>
<pdfrwt beam="2">  1       -1 0.44466863E+00 0.51054713E+04</pdfrwt>
<totfact> 0.50525965E-03</totfact>
</mgrwt>
</event>
<event>
12    1  0.2048318E-007  0.1274289E+04  0.7818608E-02  0.9050206E-01
         -2   -1    0    0    0  501 -0.00000000000E+00  0.00000000000E+00  0.29906845286E+03  0.29906845286E+03  0.00000000000E+00 0.  1.
          2   -1    0    0  501    0  0.00000000000E+00 -0.00000000000E+00 -0.13573921659E+04  0.13573921659E+04  0.00000000000E+00 0. -1.
         23    2    1    2    0    0 -0.18496387878E+03  0.92485030175E+02 -0.56758238424E+03  0.61139419318E+03  0.94276080186E+02 0.  0.
        254    2    1    2    0    0  0.18496387878E+03 -0.92485030175E+02 -0.49074132878E+03  0.10450664256E+04  0.89920613032E+03 0.  0.
        -24    2    4    4    0    0  0.28951001863E+03  0.15315539068E+03 -0.64318121177E+03  0.72718979150E+03  0.88601902378E+02 0.  0.
         24    2    4    4    0    0 -0.10454613985E+03 -0.24564042086E+03  0.15243988298E+03  0.31787663407E+03  0.80861145467E+02 0.  0.
         13    1    3    3    0    0 -0.38399657208E+02  0.85394777048E-01 -0.37333816306E+02  0.53557023871E+02  0.00000000000E+00 0.  1.
        -13    1    3    3    0    0 -0.14656422157E+03  0.92399635398E+02 -0.53024856793E+03  0.55783716931E+03  0.00000000000E+00 0. -1.
          4    1    6    6  502    0 -0.57723359560E+02 -0.46017258777E+02  0.37056802837E+02  0.82600127002E+02  0.00000000000E+00 0. -1.
          3    1    5    5  503    0  0.24612950142E+03  0.89389047497E+02 -0.48337755743E+03  0.54974903029E+03  0.00000000000E+00 0. -1.
         -4    1    5    5    0  503  0.43380517205E+02  0.63766343186E+02 -0.15980365434E+03  0.17744076120E+03  0.00000000000E+00 0.  1.
         -1    1    6    6    0  502 -0.46822780287E+02 -0.19962316208E+03  0.11538308015E+03  0.23527650707E+03  0.00000000000E+00 0.  1.
<mgrwt>
<rscale>  0 0.12742891E+04</rscale>
<asrwt>0</asrwt>
<pdfrwt beam="1">  1        2 0.20882957E+00 0.12742891E+04</pdfrwt>
<pdfrwt beam="2">  1       -2 0.46010531E-01 0.12742891E+04</pdfrwt>
<totfact> 0.67308615E+01</totfact>
</mgrwt>
</event>
<event>
12    1  0.2048318E-007  0.1856840E+04  0.7818608E-02  0.8676643E-01
         -2   -1    0    0    0  501 -0.00000000000E+00  0.00000000000E+00  0.16485596027E+04  0.16485596027E+04  0.00000000000E+00 0.  1.
          2   -1    0    0  501    0  0.00000000000E+00 -0.00000000000E+00 -0.52285843068E+03  0.52285843068E+03  0.00000000000E+00 0. -1.
         23    2    1    2    0    0 -0.25128628136E+02  0.62841085054E+03  0.81681023910E+03  0.10343104272E+04  0.84186982479E+02 0.  0.
        254    2    1    2    0    0  0.25128628136E+02 -0.62841085054E+03  0.30889093294E+03  0.11371076062E+04  0.89558274585E+03 0.  0.
        -24    2    4    4    0    0  0.36881756615E+03 -0.50177851068E+03 -0.34477936695E+02  0.62876331951E+03  0.79665004620E+02 0.  0.
         24    2    4    4    0    0 -0.34368893802E+03 -0.12663233986E+03  0.34336886963E+03  0.50834428672E+03  0.79711339165E+02 0.  0.
         11    1    3    3    0    0  0.31306736872E+02  0.21121038698E+03  0.27670478926E+03  0.34950748167E+03  0.00000000000E+00 0. -1.
        -11    1    3    3    0    0 -0.56435365008E+02  0.41720046356E+03  0.54010544983E+03  0.68480294550E+03  0.00000000000E+00 0.  1.
          4    1    6    6  502    0 -0.21673194036E+03 -0.11749357550E+03  0.20827605769E+03  0.32273269197E+03  0.00000000000E+00 0. -1.
          3    1    5    5  503    0  0.61624537095E+02 -0.41879190066E+02  0.16342722338E+01  0.74525975193E+02  0.00000000000E+00 0. -1.
         -4    1    5    5    0  503  0.30719302906E+03 -0.45989932062E+03 -0.36112208929E+02  0.55423734432E+03  0.00000000000E+00 0.  1.
         -3    1    6    6    0  502 -0.12695699765E+03 -0.91387643604E+01  0.13509281194E+03  0.18561159475E+03  0.00000000000E+00 0.  1.
<mgrwt>
<rscale>  0 0.18568396E+04</rscale>
<asrwt>0</asrwt>
<pdfrwt beam="1">  1        2 0.80439759E-01 0.18568396E+04</pdfrwt>
<pdfrwt beam="2">  1       -2 0.25362455E+00 0.18568396E+04</pdfrwt>
<totfact> 0.33528250E+00</totfact>
</mgrwt>
</event>
<event>
12    1  0.2048318E-007  0.1588167E+04  0.7818608E-02  0.8827851E-01
         -1   -1    0    0    0  501 -0.00000000000E+00  0.00000000000E+00  0.51809387956E+03  0.51809387956E+03  0.00000000000E+00 0.  1.
          1   -1    0    0  501    0  0.00000000000E+00 -0.00000000000E+00 -0.12170932194E+04  0.12170932194E+04  0.00000000000E+00 0. -1.
         23    2    1    2    0    0  0.93108017236E+02  0.11721116796E+03  0.32140693024E+03  0.36468289848E+03  0.85344249199E+02 0.  0.
        254    2    1    2    0    0 -0.93108017236E+02 -0.11721116796E+03 -0.10204062700E+04  0.13705042004E+04  0.90257700321E+03 0.  0.
        -24    2    4    4    0    0  0.31805202106E+03  0.17904364138E+03 -0.60228600954E+03  0.70885894259E+03  0.80739393072E+02 0.  0.
         24    2    4    4    0    0 -0.41116003830E+03 -0.29625480934E+03 -0.41812026050E+03  0.66164525784E+03  0.78296908215E+02 0.  0.
         11    1    3    3    0    0  0.60356681297E+02  0.12417379000E+02  0.98159867738E+02  0.11589857597E+03  0.00000000000E+00 0. -1.
        -11    1    3    3    0    0  0.32751335939E+02  0.10479378896E+03  0.22324706250E+03  0.24878432251E+03  0.00000000000E+00 0.  1.
          2    1    6    6  502    0 -0.52352530791E+00 -0.25171778401E+01 -0.15974381281E+02  0.16179960455E+02  0.00000000000E+00 0. -1.
          3    1    5    5  503    0  0.14203263759E+03  0.37440308497E+02 -0.21213123269E+03  0.25802074863E+03  0.00000000000E+00 0. -1.
         -2    1    5    5    0  503  0.17601938347E+03  0.14160333288E+03 -0.39015477685E+03  0.45083819397E+03  0.00000000000E+00 0.  1.
         -1    1    6    6    0  502 -0.41063651299E+03 -0.29373763150E+03 -0.40214587922E+03  0.64546529739E+03  0.00000000000E+00 0.  1.
<mgrwt>
<rscale>  0 0.15881669E+04</rscale>
<asrwt>0</asrwt>
<pdfrwt beam="1">  1        1 0.18724511E+00 0.15881669E+04</pdfrwt>
<pdfrwt beam="2">  1       -1 0.79706751E-01 0.15881669E+04</pdfrwt>
<totfact> 0.15679149E+01</totfact>
</mgrwt>
</event>
<event>
12    1  0.2048318E-007  0.4014215E+04  0.7818608E-02  0.8001685E-01
         -2   -1    0    0    0  501 -0.00000000000E+00  0.00000000000E+00  0.14432774736E+04  0.14432774736E+04  0.00000000000E+00 0.  1.
          2   -1    0    0  501    0  0.00000000000E+00 -0.00000000000E+00 -0.27912030055E+04  0.27912030055E+04  0.00000000000E+00 0. -1.
         23    2    1    2    0    0 -0.17564763038E+04  0.11610210136E+03 -0.14126294363E+04  0.22588336806E+04  0.90105319185E+02 0.  0.
        254    2    1    2    0    0  0.17564763038E+04 -0.11610210136E+03  0.64703904388E+02  0.19756467985E+04  0.89459766010E+03 0.  0.
        -24    2    4    4    0    0  0.83206257623E+03 -0.42716823746E+03  0.26766924847E+03  0.97640011892E+03  0.83123593547E+02 0.  0.
         24    2    4    4    0    0  0.92441372759E+03  0.31106613610E+03 -0.20296534408E+03  0.99924667960E+03  0.77434585305E+02 0.  0.
         11    1    3    3    0    0 -0.77739367770E+03  0.20597150563E+02 -0.66548574534E+03  0.10235411325E+04  0.00000000000E+00 0.  1.
        -11    1    3    3    0    0 -0.97908262611E+03  0.95504950796E+02 -0.74714369099E+03  0.12352925481E+04  0.00000000000E+00 0. -1.
          2    1    6    6  502    0  0.23754141862E+02  0.17763490041E+02  0.32699173246E+01  0.29841132575E+02  0.00000000000E+00 0. -1.
          3    1    5    5  503    0  0.54255555004E+02 -0.27786293058E+02  0.39949499811E+02  0.72881450767E+02  0.00000000000E+00 0. -1.
         -4    1    5    5    0  503  0.77780702122E+03 -0.39938194440E+03  0.22771974866E+03  0.90351866816E+03  0.00000000000E+00 0.  1.
         -1    1    6    6    0  502  0.90065958573E+03  0.29330264606E+03 -0.20623526141E+03  0.96940554702E+03  0.00000000000E+00 0.  1.
<mgrwt>
<rscale>  0 0.40142150E+04</rscale>
<asrwt>0</asrwt>
<pdfrwt beam="1">  1        2 0.42941585E+00 0.40142150E+04</pdfrwt>
<pdfrwt beam="2">  1       -2 0.22204269E+00 0.40142150E+04</pdfrwt>
<totfact> 0.17691686E-01</totfact>
</mgrwt>
</event>
<event>
12    1  0.2048318E-007  0.1579809E+04  0.7818608E-02  0.8833049E-01
          1   -1    0    0  501    0  0.00000000000E+00  0.00000000000E+00  0.13123093542E+04  0.13123093542E+04  0.00000000000E+00 0. -1.
         -1   -1    0    0    0  501 -0.00000000000E+00 -0.00000000000E+00 -0.47545913927E+03  0.47545913927E+03  0.00000000000E+00 0.  1.
         23    2    1    2    0    0 -0.17796754121E+03  0.49024141808E+03  0.18738604694E+03  0.56143434740E+03  0.89921644340E+02 0.  0.
        254    2    1    2    0    0  0.17796754121E+03 -0.49024141808E+03  0.64946416797E+03  0.12263341460E+04  0.90004590914E+03 0.  0.
        -24    2    4    4    0    0 -0.29745383604E+03  0.54601181450E+02  0.20737886185E+03  0.37520914241E+03  0.79472225416E+02 0.  0.
         24    2    4    4    0    0  0.47542137725E+03 -0.54484259953E+03  0.44208530612E+03  0.85112500364E+03  0.78073104983E+02 0.  0.
         11    1    3    3    0    0 -0.16824212685E+03  0.35637923317E+03  0.15410375223E+03  0.42315427155E+03  0.00000000000E+00 0. -1.
        -11    1    3    3    0    0 -0.97254143611E+01  0.13386218492E+03  0.33282294705E+02  0.13828007584E+03  0.00000000000E+00 0.  1.
          2    1    6    6  502    0  0.32452229751E+03 -0.39956739718E+03  0.27786138481E+03  0.58495792638E+03  0.00000000000E+00 0. -1.
          1    1    5    5  503    0 -0.19509025930E+03  0.46867096556E+02  0.17854892559E+03  0.26858230180E+03  0.00000000000E+00 0. -1.
         -2    1    5    5    0  503 -0.10236357674E+03  0.77340848939E+01  0.28829936264E+02  0.10662684061E+03  0.00000000000E+00 0.  1.
         -1    1    6    6    0  502  0.15089907975E+03 -0.14527520236E+03  0.16422392131E+03  0.26616707726E+03  0.00000000000E+00 0.  1.
<mgrwt>
<rscale>  0 0.15798095E+04</rscale>
<asrwt>0</asrwt>
<pdfrwt beam="1">  1        1 0.20189374E+00 0.15798095E+04</pdfrwt>
<pdfrwt beam="2">  1       -1 0.73147561E-01 0.15798095E+04</pdfrwt>
<totfact> 0.16048879E+01</totfact>
</mgrwt>
</event>
<event>
12    1  0.2048318E-007  0.1673485E+04  0.7818608E-02  0.8776633E-01
         -2   -1    0    0    0  501 -0.00000000000E+00  0.00000000000E+00  0.20084704885E+03  0.20084704885E+03  0.00000000000E+00 0.  1.
          2   -1    0    0  501    0  0.00000000000E+00 -0.00000000000E+00 -0.34859281923E+04  0.34859281923E+04  0.00000000000E+00 0. -1.
         23    2    1    2    0    0  0.36049933531E+03 -0.42876737932E+02 -0.14678796379E+03  0.40178841776E+03  0.89939095609E+02 0.  0.
        254    2    1    2    0    0 -0.36049933531E+03  0.42876737932E+02 -0.31382931796E+04  0.32849868234E+04  0.90025338816E+03 0.  0.
        -24    2    4    4    0    0 -0.35339796775E+03  0.10864425388E+03 -0.42564202450E+03  0.57036620548E+03  0.86329472535E+02 0.  0.
         24    2    4    4    0    0 -0.71013675543E+01 -0.65767515945E+02 -0.27126511551E+04  0.27146206179E+04  0.79454477275E+02 0.  0.
         13    1    3    3    0    0  0.15503502368E+03  0.87726262854E+01 -0.24595192399E+02  0.15721876806E+03  0.00000000000E+00 0.  1.
        -13    1    3    3    0    0  0.20546431162E+03 -0.51649364217E+02 -0.12219277139E+03  0.24456964970E+03  0.00000000000E+00 0. -1.
          4    1    6    6  502    0 -0.28479375255E+02  0.53757643717E+01 -0.70425844104E+03  0.70485454204E+03  0.00000000000E+00 0. -1.
          3    1    5    5  503    0 -0.13206917320E+03  0.59188445737E+02 -0.22520535299E+03  0.26769943899E+03  0.00000000000E+00 0. -1.
         -4    1    5    5    0  503 -0.22132879455E+03  0.49455808141E+02 -0.20043667151E+03  0.30266676650E+03  0.00000000000E+00 0.  1.
         -3    1    6    6    0  502  0.21378007701E+02 -0.71143280317E+02 -0.20083927141E+04  0.20097660758E+04  0.00000000000E+00 0.  1.
<mgrwt>
<rscale>  0 0.16734855E+04</rscale>
<asrwt>0</asrwt>
<pdfrwt beam="1">  1        2 0.53629659E+00 0.16734855E+04</pdfrwt>
<pdfrwt beam="2">  1       -2 0.30899549E-01 0.16734855E+04</pdfrwt>
<totfact> 0.77730738E+00</totfact>
</mgrwt>
</event>
<event>
12    1  0.2048318E-007  0.1245913E+04  0.7818608E-02  0.9073592E-01
          2   -1    0    0  501    0  0.00000000000E+00  0.00000000000E+00  0.98657446050E+03  0.98657446050E+03  0.00000000000E+00 0. -1.
         -2   -1    0    0    0  501 -0.00000000000E+00 -0.00000000000E+00 -0.39335562010E+03  0.39335562010E+03  0.00000000000E+00 0.  1.
         23    2    1    2    0    0 -0.17033304000E+03  0.21776534737E+03  0.23173192355E+03  0.36913418204E+03  0.78264097312E+02 0.  0.
        254    2    1    2    0    0  0.17033304000E+03 -0.21776534737E+03  0.36148691685E+03  0.10107958986E+04  0.90255219599E+03 0.  0.
        -24    2    4    4    0    0 -0.10817103452E+03 -0.23910322717E+03  0.58292015633E+03  0.64445625595E+03  0.81588180670E+02 0.  0.
         24    2    4    4    0    0  0.27850407452E+03  0.21337879800E+02 -0.22143323949E+03  0.36633964262E+03  0.84570855274E+02 0.  0.
         13    1    3    3    0    0 -0.12531501177E+03  0.16900900104E+03  0.21473472705E+03  0.30063083277E+03  0.00000000000E+00 0. -1.
        -13    1    3    3    0    0 -0.45018028233E+02  0.48756346323E+02  0.16997196499E+02  0.68503349272E+02  0.00000000000E+00 0.  1.
          2    1    6    6  502    0  0.99793036787E+02  0.48030534100E+02 -0.93513614496E+02  0.14494957224E+03  0.00000000000E+00 0. -1.
          3    1    5    5  503    0 -0.49545781642E+02 -0.17737285710E+03  0.33438710403E+03  0.38174684053E+03  0.00000000000E+00 0. -1.
         -4    1    5    5    0  503 -0.58625252878E+02 -0.61730370069E+02  0.24853305230E+03  0.26270941542E+03  0.00000000000E+00 0.  1.
         -1    1    6    6    0  502  0.17871103773E+03 -0.26692654300E+02 -0.12791962499E+03  0.22139007037E+03  0.00000000000E+00 0.  1.
<mgrwt>
<rscale>  0 0.12459127E+04</rscale>
<asrwt>0</asrwt>
<pdfrwt beam="1">  1        2 0.15178069E+00 0.12459127E+04</pdfrwt>
<pdfrwt beam="2">  1       -2 0.60516250E-01 0.12459127E+04</pdfrwt>
<totfact> 0.64302827E+01</totfact>
</mgrwt>
</event>
<event>
12    1  0.2048318E-007  0.1972557E+04  0.7818608E-02  0.8619560E-01
          2   -1    0    0  501    0  0.00000000000E+00  0.00000000000E+00  0.29635299360E+04  0.29635299360E+04  0.00000000000E+00 0.  1.
         -2   -1    0    0    0  501 -0.00000000000E+00 -0.00000000000E+00 -0.32823860176E+03  0.32823860176E+03  0.00000000000E+00 0. -1.
         23    2    1    2    0    0  0.40448196458E+03  0.55419265282E+03  0.43638106584E+03  0.81831773720E+03  0.92088697907E+02 0.  0.
        254    2    1    2    0    0 -0.40448196458E+03 -0.55419265282E+03  0.21989102684E+04  0.24734508005E+04  0.90112004650E+03 0.  0.
        -24    2    4    4    0    0 -0.44644603075E+03 -0.22447615136E+03  0.20294731295E+04  0.20917909230E+04  0.84406644363E+02 0.  0.
         24    2    4    4    0    0  0.41964066177E+02 -0.32971650147E+03  0.16943713893E+03  0.38165987751E+03  0.80506918106E+02 0.  0.
         13    1    3    3    0    0  0.65777409276E+02  0.13410238026E+03  0.12853193355E+03  0.19705474849E+03  0.00000000000E+00 0.  1.
        -13    1    3    3    0    0  0.33870455530E+03  0.42009027257E+03  0.30784913229E+03  0.62126298871E+03  0.00000000000E+00 0. -1.
          4    1    6    6  502    0  0.12893806801E+02 -0.29893913479E+03  0.14192630359E+03  0.33117054853E+03  0.00000000000E+00 0. -1.
          1    1    5    5  503    0 -0.29837421404E+03 -0.10517385950E+03  0.12348397286E+04  0.12747226630E+04  0.00000000000E+00 0. -1.
         -2    1    5    5    0  503 -0.14807181672E+03 -0.11930229185E+03  0.79463340085E+03  0.81706826000E+03  0.00000000000E+00 0.  1.
         -3    1    6    6    0  502  0.29070259376E+02 -0.30777366673E+02  0.27510835338E+02  0.50489328977E+02  0.00000000000E+00 0.  1.
<mgrwt>
<rscale>  0 0.19725566E+04</rscale>
<asrwt>0</asrwt>
<pdfrwt beam="1">  1        2 0.45592766E+00 0.19725566E+04</pdfrwt>
<pdfrwt beam="2">  1       -2 0.50498248E-01 0.19725566E+04</pdfrwt>
<totfact> 0.63511647E+00</totfact>
</mgrwt>
</event>
<event>
12    1  0.2048318E-007  0.1373676E+04  0.7818608E-02  0.8973097E-01
          2   -1    0    0  501    0  0.00000000000E+00  0.00000000000E+00  0.99655467589E+03  0.99655467589E+03  0.00000000000E+00 0.  1.
         -2   -1    0    0    0  501 -0.00000000000E+00 -0.00000000000E+00 -0.47337728203E+03  0.47337728203E+03  0.00000000000E+00 0. -1.
         23    2    1    2    0    0  0.20384969800E+03 -0.14142292999E+03 -0.16598980534E+03  0.31243111765E+03  0.92224960252E+02 0.  0.
        254    2    1    2    0    0 -0.20384969800E+03  0.14142292999E+03  0.68916719920E+03  0.11575008403E+04  0.89627095360E+03 0.  0.
        -24    2    4    4    0    0 -0.37748122471E+03  0.39340164273E+03  0.62804708195E+03  0.83543482832E+03  0.79065085316E+02 0.  0.
         24    2    4    4    0    0  0.17363152671E+03 -0.25197871273E+03  0.61120117249E+02  0.32206601194E+03  0.79684807688E+02 0.  0.
         13    1    3    3    0    0  0.82830961809E+02 -0.10775903782E+03 -0.62135836762E+02  0.14944510924E+03  0.00000000000E+00 0.  1.
        -13    1    3    3    0    0  0.12101873619E+03 -0.33663892173E+02 -0.10385396858E+03  0.16298600841E+03  0.00000000000E+00 0. -1.
          2    1    6    6  502    0  0.62546459877E+01 -0.66804974047E+01  0.20357312072E+02  0.22319717669E+02  0.00000000000E+00 0. -1.
          3    1    5    5  503    0 -0.13606184958E+03  0.14461555574E+03  0.28814072794E+03  0.34993080026E+03  0.00000000000E+00 0. -1.
         -4    1    5    5    0  503 -0.24141937513E+03  0.24878608699E+03  0.33990635401E+03  0.48550402807E+03  0.00000000000E+00 0.  1.
         -1    1    6    6    0  502  0.16737688072E+03 -0.24529821533E+03  0.40762805176E+02  0.29974629427E+03  0.00000000000E+00 0.  1.
<mgrwt>
<rscale>  0 0.13736759E+04</rscale>
<asrwt>0</asrwt>
<pdfrwt beam="1">  1        2 0.15331610E+00 0.13736759E+04</pdfrwt>
<pdfrwt beam="2">  1       -2 0.72827274E-01 0.13736759E+04</pdfrwt>
<totfact> 0.42082066E+01</totfact>
</mgrwt>
</event>
<event>
12    1  0.2048318E-007  0.2249935E+04  0.7818608E-02  0.8497927E-01
          2   -1    0    0  501    0  0.00000000000E+00  0.00000000000E+00  0.30686121593E+04  0.30686121593E+04  0.00000000000E+00 0. -1.
         -2   -1    0    0    0  501 -0.00000000000E+00 -0.00000000000E+00 -0.41241843241E+03  0.41241843241E+03  0.00000000000E+00 0.  1.
         23    2    1    2    0    0 -0.34940239485E+03 -0.75810551758E+03  0.44210361616E+03  0.95000305634E+03  0.10121358774E+03 0.  0.
        254    2    1    2    0    0  0.34940239485E+03  0.75810551758E+03  0.22140901107E+04  0.25310275354E+04  0.89838708642E+03 0.  0.
        -24    2    4    4    0    0  0.10924647130E+03 -0.13039781802E+03  0.77726618823E+02  0.20362946793E+03  0.80530432141E+02 0.  0.
         24    2    4    4    0    0  0.24015592355E+03  0.88850333559E+03  0.21363634919E+04  0.23273980674E+04  0.74964990324E+02 0.  0.
         11    1    3    3    0    0 -0.10153847204E+03 -0.33125799993E+03  0.16204392150E+03  0.38249203432E+03  0.00000000000E+00 0. -1.
        -11    1    3    3    0    0 -0.24786392281E+03 -0.42684751764E+03  0.28005969466E+03  0.56751102203E+03  0.00000000000E+00 0.  1.
          4    1    6    6  502    0  0.17414768153E+03  0.72724531337E+03  0.17805832247E+04  0.19312404772E+04  0.00000000000E+00 0. -1.
          1    1    5    5  503    0  0.94843366425E+02 -0.78269545573E+02  0.20101406596E+02  0.12460117362E+03  0.00000000000E+00 0. -1.
         -2    1    5    5    0  503  0.14403104872E+02 -0.52128272445E+02  0.57625212227E+02  0.79028294314E+02  0.00000000000E+00 0.  1.
         -1    1    6    6    0  502  0.66008242017E+02  0.16125802223E+03  0.35578026723E+03  0.39615759023E+03  0.00000000000E+00 0.  1.
<mgrwt>
<rscale>  0 0.22499353E+04</rscale>
<asrwt>0</asrwt>
<pdfrwt beam="1">  1        2 0.47209416E+00 0.22499353E+04</pdfrwt>
<pdfrwt beam="2">  1       -2 0.63448992E-01 0.22499353E+04</pdfrwt>
<totfact> 0.33024523E+00</totfact>
</mgrwt>
</event>
<event>
12    1  0.2048318E-007  0.2057187E+04  0.7818608E-02  0.8580341E-01
         -1   -1    0    0    0  501 -0.00000000000E+00  0.00000000000E+00  0.52000926404E+03  0.52000926404E+03  0.00000000000E+00 0. -1.
          1   -1    0    0  501    0  0.00000000000E+00 -0.00000000000E+00 -0.20345886448E+04  0.20345886448E+04  0.00000000000E+00 0.  1.
         23    2    1    2    0    0 -0.34047791972E+03 -0.46549161436E+03  0.12364254485E+03  0.59777731787E+03  0.97172969541E+02 0.  0.
        254    2    1    2    0    0  0.34047791972E+03  0.46549161436E+03 -0.16382219256E+04  0.19568205910E+04  0.90153651666E+03 0.  0.
        -24    2    4    4    0    0  0.15960667521E+03 -0.23287555223E+03 -0.77841214000E+03  0.83170364735E+03  0.78103672911E+02 0.  0.
         24    2    4    4    0    0  0.18087124452E+03  0.69836716658E+03 -0.85980978564E+03  0.11251169437E+04  0.78639449087E+02 0.  0.
         13    1    3    3    0    0 -0.15372381786E+03 -0.15994592954E+03  0.99564876136E+01  0.22206495491E+03  0.00000000000E+00 0. -1.
        -13    1    3    3    0    0 -0.18675410187E+03 -0.30554568481E+03  0.11368605723E+03  0.37571236296E+03  0.00000000000E+00 0.  1.
          4    1    6    6  502    0  0.70830848992E+01  0.17923406866E+01 -0.13196650621E+02  0.15084235627E+02  0.00000000000E+00 0. -1.
          3    1    5    5  503    0  0.80755855525E+02 -0.93834719696E+02 -0.23976475366E+03  0.26983995241E+03  0.00000000000E+00 0. -1.
         -4    1    5    5    0  503  0.78850819682E+02 -0.13904083253E+03 -0.53864738634E+03  0.56186369494E+03  0.00000000000E+00 0.  1.
         -3    1    6    6    0  502  0.17378815962E+03  0.69657482590E+03 -0.84661313502E+03  0.11100327080E+04  0.00000000000E+00 0.  1.
<mgrwt>
<rscale>  0 0.20571873E+04</rscale>
<asrwt>0</asrwt>
<pdfrwt beam="1">  1        1 0.31301364E+00 0.20571873E+04</pdfrwt>
<pdfrwt beam="2">  1       -1 0.80001425E-01 0.20571873E+04</pdfrwt>
<totfact> 0.40645519E+00</totfact>
</mgrwt>
</event>
<event>
12    1  0.2048318E-007  0.2040700E+04  0.7818608E-02  0.8587825E-01
         -1   -1    0    0    0  501 -0.00000000000E+00  0.00000000000E+00  0.45563228152E+03  0.45563228152E+03  0.00000000000E+00 0.  1.
          1   -1    0    0  501    0  0.00000000000E+00 -0.00000000000E+00 -0.22849887038E+04  0.22849887038E+04  0.00000000000E+00 0. -1.
         23    2    1    2    0    0  0.11678887386E+03  0.38848595266E+03  0.20965257961E+03  0.46586628341E+03  0.92283332262E+02 0.  0.
        254    2    1    2    0    0 -0.11678887386E+03 -0.38848595266E+03 -0.20390090019E+04  0.22747547019E+04  0.92324984028E+03 0.  0.
        -24    2    4    4    0    0  0.25049800941E+03 -0.52249791344E+03 -0.96139395356E+03  0.11254627950E+04  0.81454568525E+02 0.  0.
         24    2    4    4    0    0 -0.36728688326E+03  0.13401196078E+03 -0.10776150483E+04  0.11492919069E+04  0.82212131870E+02 0.  0.
         11    1    3    3    0    0  0.11905712104E+03  0.26469698617E+03  0.16734492628E+03  0.33502748679E+03  0.00000000000E+00 0.  1.
        -11    1    3    3    0    0 -0.22682471825E+01  0.12378896649E+03  0.42307653333E+02  0.13083879662E+03  0.00000000000E+00 0. -1.
          4    1    6    6  502    0 -0.24081435615E+03  0.62087374458E+02 -0.76657137682E+03  0.80590202379E+03  0.00000000000E+00 0. -1.
          1    1    5    5  503    0  0.24452296660E+03 -0.49326275786E+03 -0.93764548154E+03  0.10873263901E+04  0.00000000000E+00 0. -1.
         -2    1    5    5    0  503  0.59750428084E+01 -0.29235155572E+02 -0.23748472015E+02  0.38136404929E+02  0.00000000000E+00 0.  1.
         -3    1    6    6    0  502 -0.12647252711E+03  0.71924586324E+02 -0.31104367149E+03  0.34338988309E+03  0.00000000000E+00 0.  1.
<mgrwt>
<rscale>  0 0.20407005E+04</rscale>
<asrwt>0</asrwt>
<pdfrwt beam="1">  1        1 0.35153673E+00 0.20407005E+04</pdfrwt>
<pdfrwt beam="2">  1       -1 0.70097273E-01 0.20407005E+04</pdfrwt>
<totfact> 0.36247428E+00</totfact>
</mgrwt>
</event>
<event>
12    1  0.2048318E-007  0.5118043E+04  0.7818608E-02  0.7810552E-01
         -2   -1    0    0    0  501 -0.00000000000E+00  0.00000000000E+00  0.27969536354E+04  0.27969536354E+04  0.00000000000E+00 0. -1.
          2   -1    0    0  501    0  0.00000000000E+00 -0.00000000000E+00 -0.23413299981E+04  0.23413299981E+04  0.00000000000E+00 0.  1.
         23    2    1    2    0    0 -0.16334748743E+04  0.17981137920E+04 -0.27332738238E+03  0.24463066029E+04  0.90855727847E+02 0.  0.
        254    2    1    2    0    0  0.16334748743E+04 -0.17981137920E+04  0.72895101962E+03  0.26919770306E+04  0.90217369202E+03 0.  0.
        -24    2    4    4    0    0  0.24368249879E+03 -0.38891639971E+03  0.52321555497E+03  0.70047520980E+03  0.79207805139E+02 0.  0.
         24    2    4    4    0    0  0.13897923756E+04 -0.14091973922E+04  0.20573546464E+03  0.19915018208E+04  0.79951757702E+02 0.  0.
         13    1    3    3    0    0 -0.94929040110E+03  0.11075808061E+04 -0.17854918242E+03  0.14696146836E+04  0.00000000000E+00 0. -1.
        -13    1    3    3    0    0 -0.68418447324E+03  0.69053298585E+03 -0.94778199953E+02  0.97669191926E+03  0.00000000000E+00 0.  1.
          4    1    6    6  502    0  0.45267572011E+03 -0.45439490070E+03  0.29245143234E+02  0.64206332379E+03  0.00000000000E+00 0. -1.
          1    1    5    5  503    0  0.67448018757E+02 -0.18099888074E+03  0.21375185850E+03  0.28809666273E+03  0.00000000000E+00 0. -1.
         -2    1    5    5    0  503  0.17623448003E+03 -0.20791751896E+03  0.30946369647E+03  0.41237854706E+03  0.00000000000E+00 0.  1.
         -3    1    6    6    0  502  0.93711665544E+03 -0.95480249155E+03  0.17649032141E+03  0.13494384971E+04  0.00000000000E+00 0.  1.
<mgrwt>
<rscale>  0 0.51180432E+04</rscale>
<asrwt>0</asrwt>
<pdfrwt beam="1">  1        2 0.36020462E+00 0.51180432E+04</pdfrwt>
<pdfrwt beam="2">  1       -2 0.43030056E+00 0.51180432E+04</pdfrwt>
<totfact> 0.14546212E-02</totfact>
</mgrwt>
</event>
<event>
12    1  0.2048318E-007  0.1460482E+04  0.7818608E-02  0.8911166E-01
         -1   -1    0    0    0  501 -0.00000000000E+00  0.00000000000E+00  0.73531449453E+03  0.73531449453E+03  0.00000000000E+00 0.  1.
          1   -1    0    0  501    0  0.00000000000E+00 -0.00000000000E+00 -0.72520244847E+03  0.72520244847E+03  0.00000000000E+00 0. -1.
         23    2    1    2    0    0  0.30385522487E+03  0.32050427154E+03 -0.53588865642E+02  0.45614162701E+03  0.10070964010E+03 0.  0.
        254    2    1    2    0    0 -0.30385522487E+03 -0.32050427154E+03  0.63700911693E+02  0.10043753160E+04  0.89981163777E+03 0.  0.
        -24    2    4    4    0    0  0.25499235461E+03  0.91358460879E+02  0.11170215584E+03  0.30376652348E+03  0.80182665732E+02 0.  0.
         24    2    4    4    0    0 -0.55884757948E+03 -0.41186273242E+03 -0.48001244149E+02  0.70060879252E+03  0.81283659264E+02 0.  0.
         13    1    3    3    0    0  0.13745031252E+03  0.18937079721E+03 -0.68320843864E+02  0.24376551223E+03  0.00000000000E+00 0. -1.
        -13    1    3    3    0    0  0.16640491234E+03  0.13113347434E+03  0.14731978221E+02  0.21237611477E+03  0.00000000000E+00 0.  1.
          4    1    6    6  502    0 -0.10604943655E+03 -0.11569127454E+03 -0.26179101598E+02  0.15911096555E+03  0.00000000000E+00 0. -1.
          3    1    5    5  503    0  0.10892667037E+03  0.79280592938E+02  0.67465885995E+02  0.15067208669E+03  0.00000000000E+00 0. -1.
         -4    1    5    5    0  503  0.14606568424E+03  0.12077867941E+02  0.44236269848E+02  0.15309443679E+03  0.00000000000E+00 0.  1.
         -3    1    6    6    0  502 -0.45279814293E+03 -0.29617145788E+03 -0.21822142551E+02  0.54149782697E+03  0.00000000000E+00 0.  1.
<mgrwt>
<rscale>  0 0.14604819E+04</rscale>
<asrwt>0</asrwt>
<pdfrwt beam="1">  1        1 0.11156961E+00 0.14604819E+04</pdfrwt>
<pdfrwt beam="2">  1       -1 0.11312531E+00 0.14604819E+04</pdfrwt>
<totfact> 0.17886446E+01</totfact>
</mgrwt>
</event>
<event>
12    1  0.2048318E-007  0.2634640E+04  0.7818608E-02  0.8356529E-01
         -2   -1    0    0    0  501 -0.00000000000E+00  0.00000000000E+00  0.10215393242E+04  0.10215393242E+04  0.00000000000E+00 0.  1.
          2   -1    0    0  501    0  0.00000000000E+00 -0.00000000000E+00 -0.16987419095E+04  0.16987419095E+04  0.00000000000E+00 0. -1.
         23    2    1    2    0    0  0.10360578643E+04  0.34183908721E+03  0.11268649001E+03  0.11006013072E+04  0.91406414333E+02 0.  0.
        254    2    1    2    0    0 -0.10360578643E+04 -0.34183908721E+03 -0.78988907529E+03  0.16196799265E+04  0.89953791106E+03 0.  0.
        -24    2    4    4    0    0 -0.11495701564E+04 -0.27630167692E+03 -0.84738198023E+03  0.14567428326E+04  0.78672096617E+02 0.  0.
         24    2    4    4    0    0  0.11351229206E+03 -0.65537410295E+02  0.57492904933E+02  0.16293709396E+03  0.77864432658E+02 0.  0.
         11    1    3    3    0    0  0.46601403314E+03  0.13720346405E+03  0.73466968013E+01  0.48584755179E+03  0.00000000000E+00 0. -1.
        -11    1    3    3    0    0  0.57004383116E+03  0.20463562316E+03  0.10533979321E+03  0.61475375537E+03  0.00000000000E+00 0.  1.
          2    1    6    6  502    0  0.74772247421E+02 -0.38844303167E+02 -0.53562754656E+01  0.84430199335E+02  0.00000000000E+00 0. -1.
          3    1    5    5  503    0 -0.13295184361E+03 -0.57812900314E+02 -0.97129214553E+02  0.17450675769E+03  0.00000000000E+00 0. -1.
         -4    1    5    5    0  503 -0.10166183128E+04 -0.21848877660E+03 -0.75025276567E+03  0.12822360749E+04  0.00000000000E+00 0.  1.
         -1    1    6    6    0  502  0.38740044644E+02 -0.26693107127E+02  0.62849180398E+02  0.78506894626E+02  0.00000000000E+00 0.  1.
<mgrwt>
<rscale>  0 0.26346398E+04</rscale>
<asrwt>0</asrwt>
<pdfrwt beam="1">  1        2 0.26134491E+00 0.26346398E+04</pdfrwt>
<pdfrwt beam="2">  1       -2 0.15715990E+00 0.26346398E+04</pdfrwt>
<totfact> 0.22915915E+00</totfact>
</mgrwt>
</event>
<event>
12    1  0.2048318E-007  0.2176410E+04  0.7818608E-02  0.8528311E-01
         -2   -1    0    0    0  501 -0.00000000000E+00  0.00000000000E+00  0.74211937100E+03  0.74211937100E+03  0.00000000000E+00 0.  1.
          2   -1    0    0  501    0  0.00000000000E+00 -0.00000000000E+00 -0.15956865630E+04  0.15956865630E+04  0.00000000000E+00 0. -1.
         23    2    1    2    0    0 -0.77533147391E+03 -0.38979525889E+03 -0.10191584021E+03  0.87843339278E+03  0.90438646514E+02 0.  0.
        254    2    1    2    0    0  0.77533147391E+03  0.38979525889E+03 -0.75165135175E+03  0.14593725412E+04  0.90094906686E+03 0.  0.
        -24    2    4    4    0    0  0.16196724112E+03 -0.27323786415E+03 -0.30826692209E+03  0.44992902237E+03  0.80717484540E+02 0.  0.
         24    2    4    4    0    0  0.61336423279E+03  0.66303312304E+03 -0.44338442966E+03  0.10094435188E+04  0.80980620432E+02 0.  0.
         13    1    3    3    0    0 -0.17366387504E+03 -0.72436986803E+02  0.12768124081E+02  0.18859820663E+03  0.00000000000E+00 0.  1.
        -13    1    3    3    0    0 -0.60166759887E+03 -0.31735827209E+03 -0.11468396429E+03  0.68983518615E+03  0.00000000000E+00 0. -1.
          4    1    6    6  502    0  0.44538745091E+03  0.42609846990E+03 -0.30537308852E+03  0.68788270124E+03  0.00000000000E+00 0. -1.
          3    1    5    5  503    0  0.78705495529E+02 -0.14506432199E+03 -0.21439354177E+03  0.27056016576E+03  0.00000000000E+00 0. -1.
         -4    1    5    5    0  503  0.83261745590E+02 -0.12817354216E+03 -0.93873380318E+02  0.17936885661E+03  0.00000000000E+00 0.  1.
         -3    1    6    6    0  502  0.16797678188E+03  0.23693465314E+03 -0.13801134114E+03  0.32156081757E+03  0.00000000000E+00 0.  1.
<mgrwt>
<rscale>  0 0.21764098E+04</rscale>
<asrwt>0</asrwt>
<pdfrwt beam="1">  1        2 0.24549024E+00 0.21764098E+04</pdfrwt>
<pdfrwt beam="2">  1       -2 0.11417221E+00 0.21764098E+04</pdfrwt>
<totfact> 0.61642852E+00</totfact>
</mgrwt>
</event>
<event>
12    1  0.2048318E-007  0.1631342E+04  0.7818608E-02  0.8801522E-01
          2   -1    0    0  501    0  0.00000000000E+00  0.00000000000E+00  0.29243268799E+03  0.29243268799E+03  0.00000000000E+00 0.  1.
         -2   -1    0    0    0  501 -0.00000000000E+00 -0.00000000000E+00 -0.22751178132E+04  0.22751178132E+04  0.00000000000E+00 0. -1.
         23    2    1    2    0    0  0.12773555430E+02  0.28276931254E+03 -0.14652094638E+04  0.14946196735E+04  0.83231892225E+02 0.  0.
        254    2    1    2    0    0 -0.12773555430E+02 -0.28276931254E+03 -0.51747566139E+03  0.10729308276E+04  0.89625769337E+03 0.  0.
        -24    2    4    4    0    0  0.11795392949E+03 -0.10887225564E+02  0.22418566262E+03  0.26813713709E+03  0.87216121219E+02 0.  0.
         24    2    4    4    0    0 -0.13072748492E+03 -0.27188208697E+03 -0.74166132401E+03  0.80479369055E+03  0.81374567810E+02 0.  0.
         11    1    3    3    0    0 -0.22127142119E+02  0.18447039738E+03 -0.10623943044E+04  0.10785177773E+04  0.00000000000E+00 0. -1.
        -11    1    3    3    0    0  0.34900697549E+02  0.98298915155E+02 -0.40281515939E+03  0.41610189623E+03  0.00000000000E+00 0.  1.
          2    1    6    6  502    0 -0.10055122780E+03 -0.16710635900E+03 -0.38104559724E+03  0.42805470656E+03  0.00000000000E+00 0. -1.
          3    1    5    5  503    0  0.10070054996E+03  0.16477973652E+02  0.20861802823E+03  0.23223609986E+03  0.00000000000E+00 0. -1.
         -4    1    5    5    0  503  0.17253379534E+02 -0.27365199216E+02  0.15567634388E+02  0.35901037227E+02  0.00000000000E+00 0.  1.
         -1    1    6    6    0  502 -0.30176257121E+02 -0.10477572798E+03 -0.36061572677E+03  0.37673898399E+03  0.00000000000E+00 0.  1.
<mgrwt>
<rscale>  0 0.16313416E+04</rscale>
<asrwt>0</asrwt>
<pdfrwt beam="1">  1        2 0.44989643E-01 0.16313416E+04</pdfrwt>
<pdfrwt beam="2">  1       -2 0.35001813E+00 0.16313416E+04</pdfrwt>
<totfact> 0.16899799E+00</totfact>
</mgrwt>
</event>
<event>
12    1  0.2048318E-007  0.2155696E+04  0.7818608E-02  0.8537098E-01
         -2   -1    0    0    0  501 -0.00000000000E+00  0.00000000000E+00  0.25164849450E+03  0.25164849450E+03  0.00000000000E+00 0.  1.
          2   -1    0    0  501    0  0.00000000000E+00 -0.00000000000E+00 -0.46165820262E+04  0.46165820262E+04  0.00000000000E+00 0. -1.
         23    2    1    2    0    0 -0.71475626659E+03 -0.52196940318E+03 -0.16374937505E+04  0.18635798049E+04  0.90638446795E+02 0.  0.
        254    2    1    2    0    0  0.71475626659E+03  0.52196940318E+03 -0.27274397812E+04  0.30046507158E+04  0.89759098987E+03 0.  0.
        -24    2    4    4    0    0 -0.17206785960E+03  0.25918527682E+03 -0.54119550277E+03  0.62948565760E+03  0.81088006968E+02 0.  0.
         24    2    4    4    0    0  0.88682412619E+03  0.26278412636E+03 -0.21862442784E+04  0.23751650582E+04  0.78946061543E+02 0.  0.
         11    1    3    3    0    0 -0.33260235051E+03 -0.18777883828E+03 -0.71480875616E+03  0.81045467089E+03  0.00000000000E+00 0. -1.
        -11    1    3    3    0    0 -0.38215391607E+03 -0.33419056490E+03 -0.92268499431E+03  0.10531251340E+04  0.00000000000E+00 0.  1.
          2    1    6    6  502    0  0.22167684795E+03  0.92641783139E+02 -0.50958655383E+03  0.56338404374E+03  0.00000000000E+00 0. -1.
          3    1    5    5  503    0  0.15654152129E+01 -0.21294512409E+01 -0.27015078635E+02  0.27144052038E+02  0.00000000000E+00 0. -1.
         -4    1    5    5    0  503 -0.17363327482E+03  0.26131472806E+03 -0.51418042414E+03  0.60234160556E+03  0.00000000000E+00 0.  1.
         -1    1    6    6    0  502  0.66514727824E+03  0.17014234322E+03 -0.16766577246E+04  0.18117810144E+04  0.00000000000E+00 0.  1.
<mgrwt>
<rscale>  0 0.21556956E+04</rscale>
<asrwt>0</asrwt>
<pdfrwt beam="1">  1        2 0.71024328E+00 0.21556956E+04</pdfrwt>
<pdfrwt beam="2">  1       -2 0.38715159E-01 0.21556956E+04</pdfrwt>
<totfact> 0.55106644E-01</totfact>
</mgrwt>
</event>
<event>
12    1  0.2048318E-007  0.1383385E+04  0.7818608E-02  0.8965934E-01
         -2   -1    0    0    0  501 -0.00000000000E+00  0.00000000000E+00  0.32790988485E+03  0.32790988485E+03  0.00000000000E+00 0.  1.
          2   -1    0    0  501    0  0.00000000000E+00 -0.00000000000E+00 -0.14590552553E+04  0.14590552553E+04  0.00000000000E+00 0. -1.
         23    2    1    2    0    0 -0.19205672329E+03 -0.26662053256E+03 -0.57231089881E+02  0.34468730919E+03  0.86957749095E+02 0.  0.
        254    2    1    2    0    0  0.19205672329E+03  0.26662053256E+03 -0.10739142805E+04  0.14422778309E+04  0.90493158101E+03 0.  0.
        -24    2    4    4    0    0 -0.80131445098E+02  0.49986852538E+01  0.13331826150E+03  0.17472498962E+03  0.79429388784E+02 0.  0.
         24    2    4    4    0    0  0.27218816839E+03  0.26162184730E+03 -0.12072325420E+04  0.12675528413E+04  0.82142589126E+02 0.  0.
         11    1    3    3    0    0 -0.64527682588E+02 -0.11029705898E+03 -0.63818271077E+02  0.14283569149E+03  0.00000000000E+00 0. -1.
        -11    1    3    3    0    0 -0.12752904070E+03 -0.15632347358E+03  0.65871811957E+01  0.20185161771E+03  0.00000000000E+00 0.  1.
          4    1    6    6  502    0  0.71034412041E+02  0.65067202530E+02 -0.20324803019E+03  0.22492085344E+03  0.00000000000E+00 0. -1.
          1    1    5    5  503    0 -0.33199567007E+02 -0.99318216995E+00 -0.48629953038E-01  0.33214455063E+02  0.00000000000E+00 0. -1.
         -2    1    5    5    0  503 -0.46931878091E+02  0.59918674238E+01  0.13336689145E+03  0.14151053456E+03  0.00000000000E+00 0.  1.
         -3    1    6    6    0  502  0.20115375635E+03  0.19655464477E+03 -0.10039845119E+04  0.10426319879E+04  0.00000000000E+00 0.  1.
<mgrwt>
<rscale>  0 0.13833852E+04</rscale>
<asrwt>0</asrwt>
<pdfrwt beam="1">  1        2 0.22447004E+00 0.13833852E+04</pdfrwt>
<pdfrwt beam="2">  1       -2 0.50447675E-01 0.13833852E+04</pdfrwt>
<totfact> 0.48475604E+01</totfact>
</mgrwt>
</event>
<event>
12    1  0.2048318E-007  0.1351043E+04  0.7818608E-02  0.8990039E-01
         -2   -1    0    0    0  501 -0.00000000000E+00  0.00000000000E+00  0.30339449390E+03  0.30339449390E+03  0.00000000000E+00 0.  1.
          2   -1    0    0  501    0  0.00000000000E+00 -0.00000000000E+00 -0.15040798424E+04  0.15040798424E+04  0.00000000000E+00 0. -1.
         23    2    1    2    0    0  0.80221997554E+02  0.35862145906E+03 -0.35467704335E+03  0.51873007199E+03  0.90775341993E+02 0.  0.
        254    2    1    2    0    0 -0.80221997554E+02 -0.35862145906E+03 -0.84600830520E+03  0.12887442644E+04  0.90004822463E+03 0.  0.
        -24    2    4    4    0    0 -0.42123522359E+03 -0.37836741480E+03 -0.71200232008E+03  0.91321114546E+03  0.80039229213E+02 0.  0.
         24    2    4    4    0    0  0.34101322604E+03  0.19745955742E+02 -0.13400598511E+03  0.37553311890E+03  0.79922438914E+02 0.  0.
         13    1    3    3    0    0 -0.16849650048E+02  0.41755078096E+02 -0.26070704709E+02  0.52029596362E+02  0.00000000000E+00 0. -1.
        -13    1    3    3    0    0  0.97071647602E+02  0.31686638096E+03 -0.32860633864E+03  0.46670047562E+03  0.00000000000E+00 0.  1.
          2    1    6    6  502    0  0.46769690705E+02 -0.15486707344E+02 -0.43370890978E+02  0.65637460777E+02  0.00000000000E+00 0. -1.
          1    1    5    5  503    0 -0.77787794981E+01  0.17080617280E+01 -0.22882003269E+02  0.24228350314E+02  0.00000000000E+00 0. -1.
         -2    1    5    5    0  503 -0.41345644409E+03 -0.38007547653E+03 -0.68912031682E+03  0.88898279515E+03  0.00000000000E+00 0.  1.
         -1    1    6    6    0  502  0.29424353533E+03  0.35232663086E+02 -0.90635094135E+02  0.30989565812E+03  0.00000000000E+00 0.  1.
<mgrwt>
<rscale>  0 0.13510434E+04</rscale>
<asrwt>0</asrwt>
<pdfrwt beam="1">  1        2 0.23139690E+00 0.13510434E+04</pdfrwt>
<pdfrwt beam="2">  1       -2 0.46676076E-01 0.13510434E+04</pdfrwt>
<totfact> 0.53647151E+01</totfact>
</mgrwt>
</event>
<event>
12    1  0.2048318E-007  0.1814182E+04  0.7818608E-02  0.8698794E-01
          2   -1    0    0  501    0  0.00000000000E+00  0.00000000000E+00  0.22567043760E+04  0.22567043760E+04  0.00000000000E+00 0. -1.
         -2   -1    0    0    0  501 -0.00000000000E+00 -0.00000000000E+00 -0.36460858276E+03  0.36460858276E+03  0.00000000000E+00 0.  1.
         23    2    1    2    0    0  0.14554076250E+03  0.61568884755E+03  0.35293535316E+03  0.72965264006E+03  0.87032988500E+02 0.  0.
        254    2    1    2    0    0 -0.14554076250E+03 -0.61568884755E+03  0.15391604401E+04  0.18916603187E+04  0.89950488076E+03 0.  0.
        -24    2    4    4    0    0 -0.42888600866E+03 -0.46595790169E+03  0.13899295312E+04  0.15295309264E+04  0.80627404589E+02 0.  0.
         24    2    4    4    0    0  0.28334524616E+03 -0.14973094586E+03  0.14923090888E+03  0.36212939236E+03  0.78510814391E+02 0.  0.
         11    1    3    3    0    0  0.26123769048E+02  0.29748182714E+03  0.17189171117E+03  0.34456443396E+03  0.00000000000E+00 0. -1.
        -11    1    3    3    0    0  0.11941699346E+03  0.31820702041E+03  0.18104364200E+03  0.38508820609E+03  0.00000000000E+00 0.  1.
          4    1    6    6  502    0  0.11336255483E+02 -0.26534856165E+02  0.12901848514E+01  0.28883799214E+02  0.00000000000E+00 0. -1.
          3    1    5    5  503    0 -0.85004783786E+02 -0.14277668688E+03  0.38381531096E+03  0.41824058687E+03  0.00000000000E+00 0. -1.
         -4    1    5    5    0  503 -0.34388122488E+03 -0.32318121480E+03  0.10061142203E+04  0.11112903395E+04  0.00000000000E+00 0.  1.
         -3    1    6    6    0  502  0.27200899068E+03 -0.12319608969E+03  0.14794072403E+03  0.33324559315E+03  0.00000000000E+00 0.  1.
<mgrwt>
<rscale>  0 0.18141817E+04</rscale>
<asrwt>0</asrwt>
<pdfrwt beam="1">  1        2 0.34718528E+00 0.18141817E+04</pdfrwt>
<pdfrwt beam="2">  1       -2 0.56093629E-01 0.18141817E+04</pdfrwt>
<totfact> 0.13503278E+01</totfact>
</mgrwt>
</event>
<event>
12    1  0.2048318E-007  0.2356412E+04  0.7818608E-02  0.8456005E-01
          1   -1    0    0  501    0  0.00000000000E+00  0.00000000000E+00  0.76847637563E+03  0.76847637563E+03  0.00000000000E+00 0. -1.
         -1   -1    0    0    0  501 -0.00000000000E+00 -0.00000000000E+00 -0.18063918964E+04  0.18063918964E+04  0.00000000000E+00 0.  1.
         23    2    1    2    0    0 -0.68517629669E+03 -0.57606345437E+03  0.52471883306E+02  0.90102762654E+03  0.88214648743E+02 0.  0.
        254    2    1    2    0    0  0.68517629669E+03  0.57606345437E+03 -0.10903874041E+04  0.16738406455E+04  0.90082304285E+03 0.  0.
        -24    2    4    4    0    0  0.56145123502E+03  0.22571979974E+03 -0.10731837123E+03  0.61996713746E+03  0.81640072471E+02 0.  0.
         24    2    4    4    0    0  0.12372506167E+03  0.35034365463E+03 -0.98306903285E+03  0.10538735080E+04  0.78588042069E+02 0.  0.
         11    1    3    3    0    0 -0.22445392572E+03 -0.14475574933E+03 -0.66026323492E+01  0.26716546650E+03  0.00000000000E+00 0.  1.
        -11    1    3    3    0    0 -0.46072237097E+03 -0.43130770504E+03  0.59074515655E+02  0.63386216005E+03  0.00000000000E+00 0. -1.
          2    1    6    6  502    0  0.33815072771E+02  0.16968761340E+03 -0.37021035377E+03  0.40864783289E+03  0.00000000000E+00 0. -1.
          3    1    5    5  503    0  0.47715412942E+03  0.16033514040E+03 -0.78457594284E+02  0.50944971741E+03  0.00000000000E+00 0. -1.
         -4    1    5    5    0  503  0.84297105600E+02  0.65384659338E+02 -0.28860776946E+02  0.11051742005E+03  0.00000000000E+00 0.  1.
         -1    1    6    6    0  502  0.89909988898E+02  0.18065604123E+03 -0.61285867908E+03  0.64522567514E+03  0.00000000000E+00 0.  1.
<mgrwt>
<rscale>  0 0.23564121E+04</rscale>
<asrwt>0</asrwt>
<pdfrwt beam="1">  1        1 0.11822713E+00 0.23564121E+04</pdfrwt>
<pdfrwt beam="2">  1       -1 0.27790645E+00 0.23564121E+04</pdfrwt>
<totfact> 0.97372514E-01</totfact>
</mgrwt>
</event>
<event>
12    1  0.2048318E-007  0.1159929E+04  0.7818608E-02  0.9148672E-01
          1   -1    0    0  501    0  0.00000000000E+00  0.00000000000E+00  0.10010611698E+04  0.10010611698E+04  0.00000000000E+00 0. -1.
         -1   -1    0    0    0  501 -0.00000000000E+00 -0.00000000000E+00 -0.33600230319E+03  0.33600230319E+03  0.00000000000E+00 0.  1.
         23    2    1    2    0    0 -0.17852120298E+03 -0.49023428588E+02  0.26175497970E+03  0.33272045384E+03  0.88961309266E+02 0.  0.
        254    2    1    2    0    0  0.17852120298E+03  0.49023428588E+02  0.40330388689E+03  0.10043430191E+04  0.90098710225E+03 0.  0.
        -24    2    4    4    0    0  0.36579875385E+03  0.35458301556E+03  0.37188544467E+03  0.63568402619E+03  0.79104702437E+02 0.  0.
         24    2    4    4    0    0 -0.18727755087E+03 -0.30555958697E+03  0.31418442216E+02  0.36865899294E+03  0.80515789208E+02 0.  0.
         11    1    3    3    0    0 -0.18022046962E+03 -0.27989009773E+02  0.24670850094E+03  0.30680268378E+03  0.00000000000E+00 0. -1.
        -11    1    3    3    0    0  0.16992666464E+01 -0.21034418814E+02  0.15046478758E+02  0.25917770062E+02  0.00000000000E+00 0.  1.
          2    1    6    6  502    0 -0.52662471458E+02 -0.33926171367E+02 -0.71685342458E+01  0.63053222653E+02  0.00000000000E+00 0. -1.
          1    1    5    5  503    0  0.22614311089E+03  0.16458460514E+03  0.20645046620E+03  0.34763572004E+03  0.00000000000E+00 0. -1.
         -2    1    5    5    0  503  0.13965564296E+03  0.18999841042E+03  0.16543497847E+03  0.28804830615E+03  0.00000000000E+00 0.  1.
         -1    1    6    6    0  502 -0.13461507941E+03 -0.27163341561E+03  0.38586976462E+02  0.30560577029E+03  0.00000000000E+00 0.  1.
<mgrwt>
<rscale>  0 0.11599291E+04</rscale>
<asrwt>0</asrwt>
<pdfrwt beam="1">  1        1 0.15400941E+00 0.11599291E+04</pdfrwt>
<pdfrwt beam="2">  1       -1 0.51692662E-01 0.11599291E+04</pdfrwt>
<totfact> 0.56436293E+01</totfact>
</mgrwt>
</event>
<event>
12    1  0.2048318E-007  0.5122149E+04  0.7818608E-02  0.7809936E-01
          1   -1    0    0  501    0  0.00000000000E+00  0.00000000000E+00  0.40314330240E+04  0.40314330240E+04  0.00000000000E+00 0. -1.
         -1   -1    0    0    0  501 -0.00000000000E+00 -0.00000000000E+00 -0.16269902601E+04  0.16269902601E+04  0.00000000000E+00 0.  1.
         23    2    1    2    0    0  0.22169607566E+04 -0.10913579562E+04  0.92144323475E+03  0.26388101586E+04  0.91017765488E+02 0.  0.
        254    2    1    2    0    0 -0.22169607566E+04  0.10913579562E+04  0.14829995292E+04  0.30196131255E+04  0.90155345895E+03 0.  0.
        -24    2    4    4    0    0 -0.10806885405E+04  0.27262230660E+03  0.10942635558E+04  0.15639387483E+04  0.79252982961E+02 0.  0.
         24    2    4    4    0    0 -0.11362722161E+04  0.81873564956E+03  0.38873597341E+03  0.14556743772E+04  0.80184926653E+02 0.  0.
         13    1    3    3    0    0  0.18974155631E+04 -0.95433118123E+03  0.81916299476E+03  0.22763922848E+04  0.00000000000E+00 0.  1.
        -13    1    3    3    0    0  0.31954519354E+03 -0.13702677493E+03  0.10228023999E+03  0.36241787381E+03  0.00000000000E+00 0. -1.
          2    1    6    6  502    0 -0.27975043870E+03  0.17767409938E+03  0.12124790453E+03  0.35288730197E+03  0.00000000000E+00 0. -1.
          3    1    5    5  503    0 -0.61053834480E+02  0.29495605796E+02  0.85952020022E+02  0.10947744613E+03  0.00000000000E+00 0. -1.
         -4    1    5    5    0  503 -0.10196347060E+04  0.24312670080E+03  0.10083115358E+04  0.14544613022E+04  0.00000000000E+00 0.  1.
         -1    1    6    6    0  502 -0.85652177741E+03  0.64106155018E+03  0.26748806888E+03  0.11027870752E+04  0.00000000000E+00 0.  1.
<mgrwt>
<rscale>  0 0.51221489E+04</rscale>
<asrwt>0</asrwt>
<pdfrwt beam="1">  1        1 0.62022046E+00 0.51221489E+04</pdfrwt>
<pdfrwt beam="2">  1       -1 0.25030619E+00 0.51221489E+04</pdfrwt>
<totfact> 0.44496910E-03</totfact>
</mgrwt>
</event>
<event>
12    1  0.2048318E-007  0.1618768E+04  0.7818608E-02  0.8809100E-01
          2   -1    0    0  501    0  0.00000000000E+00  0.00000000000E+00  0.24605275823E+04  0.24605275823E+04  0.00000000000E+00 0. -1.
         -2   -1    0    0    0  501 -0.00000000000E+00 -0.00000000000E+00 -0.26624483645E+03  0.26624483645E+03  0.00000000000E+00 0.  1.
         23    2    1    2    0    0  0.83796383067E+02  0.26936082067E+03 -0.42141896123E+02  0.29988528897E+03  0.92618365357E+02 0.  0.
        254    2    1    2    0    0 -0.83796383067E+02 -0.26936082067E+03  0.22364246420E+04  0.24268871298E+04  0.89922682120E+03 0.  0.
        -24    2    4    4    0    0 -0.15089348306E+03  0.27378315963E+03  0.43174865564E+03  0.53938991685E+03  0.82513750509E+02 0.  0.
         24    2    4    4    0    0  0.67097099991E+02 -0.54314398030E+03  0.18046759864E+04  0.18874972130E+04  0.79264803258E+02 0.  0.
         11    1    3    3    0    0  0.78865296972E+02  0.25605838592E+03 -0.62452206654E+02  0.27511072350E+03  0.00000000000E+00 0.  1.
        -11    1    3    3    0    0  0.49310860959E+01  0.13302434751E+02  0.20310310530E+02  0.24774565470E+02  0.00000000000E+00 0. -1.
          2    1    6    6  502    0  0.22297709865E+02 -0.79236373907E+02  0.36885415706E+03  0.37792721521E+03  0.00000000000E+00 0. -1.
          1    1    5    5  503    0  0.46079796277E+01  0.37736982336E+02  0.31384194020E+02  0.49297879734E+02  0.00000000000E+00 0. -1.
         -2    1    5    5    0  503 -0.15550146269E+03  0.23604617729E+03  0.40036446162E+03  0.49009203711E+03  0.00000000000E+00 0.  1.
         -1    1    6    6    0  502  0.44799390127E+02 -0.46390760640E+03  0.14358218293E+04  0.15095699978E+04  0.00000000000E+00 0.  1.
<mgrwt>
<rscale>  0 0.16187684E+04</rscale>
<asrwt>0</asrwt>
<pdfrwt beam="1">  1        2 0.37854269E+00 0.16187684E+04</pdfrwt>
<pdfrwt beam="2">  1       -2 0.40960746E-01 0.16187684E+04</pdfrwt>
<totfact> 0.19868880E+01</totfact>
</mgrwt>
</event>
<event>
12    1  0.2048318E-007  0.1560595E+04  0.7818608E-02  0.8845128E-01
         -1   -1    0    0    0  501 -0.00000000000E+00  0.00000000000E+00  0.37415066444E+03  0.37415066444E+03  0.00000000000E+00 0.  1.
          1   -1    0    0  501    0  0.00000000000E+00 -0.00000000000E+00 -0.16273244059E+04  0.16273244059E+04  0.00000000000E+00 0. -1.
         23    2    1    2    0    0  0.38892482069E+03 -0.21725999370E+03 -0.88428009788E+02  0.46273210513E+03  0.88527211549E+02 0.  0.
        254    2    1    2    0    0 -0.38892482069E+03  0.21725999370E+03 -0.11647457317E+04  0.15387429652E+04  0.90146152027E+03 0.  0.
        -24    2    4    4    0    0 -0.19043971270E+03 -0.11905938953E+03 -0.11121194915E+04  0.11373896566E+04  0.80019029756E+02 0.  0.
         24    2    4    4    0    0 -0.19848510799E+03  0.33631938323E+03 -0.52626240177E+02  0.40135330863E+03  0.76209524080E+02 0.  0.
         13    1    3    3    0    0  0.29309120906E+03 -0.15083092718E+03 -0.10270732127E+03  0.34525529578E+03  0.00000000000E+00 0. -1.
        -13    1    3    3    0    0  0.95833611637E+02 -0.66429066521E+02  0.14279311481E+02  0.11747680935E+03  0.00000000000E+00 0.  1.
          2    1    6    6  502    0 -0.18228855969E+03  0.30927172285E+03 -0.25736959193E+02  0.35991736360E+03  0.00000000000E+00 0. -1.
          3    1    5    5  503    0 -0.65436088624E+02 -0.70890881877E+01 -0.22048189553E+03  0.23009650828E+03  0.00000000000E+00 0. -1.
         -4    1    5    5    0  503 -0.12500362408E+03 -0.11197030134E+03 -0.89163759598E+03  0.90729314831E+03  0.00000000000E+00 0.  1.
         -3    1    6    6    0  502 -0.16196548302E+02  0.27047660379E+02 -0.26889280984E+02  0.41435945032E+02  0.00000000000E+00 0.  1.
<mgrwt>
<rscale>  0 0.15605954E+04</rscale>
<asrwt>0</asrwt>
<pdfrwt beam="1">  1        1 0.25035760E+00 0.15605954E+04</pdfrwt>
<pdfrwt beam="2">  1       -1 0.57561641E-01 0.15605954E+04</pdfrwt>
<totfact> 0.15725408E+01</totfact>
</mgrwt>
</event>
<event>
12    1  0.2048318E-007  0.1246699E+04  0.7818608E-02  0.9072936E-01
         -2   -1    0    0    0  501 -0.00000000000E+00  0.00000000000E+00  0.11353749294E+03  0.11353749294E+03  0.00000000000E+00 0.  1.
          2   -1    0    0  501    0  0.00000000000E+00 -0.00000000000E+00 -0.34223434528E+04  0.34223434528E+04  0.00000000000E+00 0. -1.
         23    2    1    2    0    0  0.76860837609E+02  0.15366071143E+03 -0.14584530575E+03  0.24859172022E+03  0.10491800397E+03 0.  0.
        254    2    1    2    0    0 -0.76860837609E+02 -0.15366071143E+03 -0.31629606541E+04  0.32872892256E+04  0.87888062342E+03 0.  0.
        -24    2    4    4    0    0 -0.98101774136E+02  0.35561494736E+03 -0.14511496354E+04  0.14994586727E+04  0.80343625168E+02 0.  0.
         24    2    4    4    0    0  0.21240936527E+02 -0.50927565879E+03 -0.17118110188E+04  0.17878305528E+04  0.78919247526E+02 0.  0.
         13    1    3    3    0    0  0.14575915832E+02  0.47945735119E+02 -0.10982011584E+03  0.12071333266E+03  0.00000000000E+00 0. -1.
        -13    1    3    3    0    0  0.62284921777E+02  0.10571497631E+03 -0.36025189913E+02  0.12787838756E+03  0.00000000000E+00 0.  1.
          4    1    6    6  502    0  0.19417972924E+02 -0.46006122007E+03 -0.14476977027E+04  0.15191649095E+04  0.00000000000E+00 0. -1.
          1    1    5    5  503    0 -0.46297260487E+02  0.24284056085E+03 -0.10864693000E+04  0.11142398818E+04  0.00000000000E+00 0. -1.
         -2    1    5    5    0  503 -0.51804513649E+02  0.11277438651E+03 -0.36468033538E+03  0.38521879095E+03  0.00000000000E+00 0.  1.
         -3    1    6    6    0  502  0.18229636025E+01 -0.49214438721E+02 -0.26411331608E+03  0.26866564333E+03  0.00000000000E+00 0.  1.
<mgrwt>
<rscale>  0 0.12466985E+04</rscale>
<asrwt>0</asrwt>
<pdfrwt beam="1">  1        2 0.52651442E+00 0.12466985E+04</pdfrwt>
<pdfrwt beam="2">  1       -2 0.17467305E-01 0.12466985E+04</pdfrwt>
<totfact> 0.25034922E+01</totfact>
</mgrwt>
</event>
<event>
12    1  0.2048318E-007  0.3841004E+04  0.7818608E-02  0.8037412E-01
          1   -1    0    0  501    0  0.00000000000E+00  0.00000000000E+00  0.37299680807E+04  0.37299680807E+04  0.00000000000E+00 0. -1.
         -1   -1    0    0    0  501 -0.00000000000E+00 -0.00000000000E+00 -0.98883610832E+03  0.98883610832E+03  0.00000000000E+00 0.  1.
         23    2    1    2    0    0  0.66122610626E+02 -0.15888746433E+04  0.23664949399E+04  0.28528349410E+04  0.97334826893E+02 0.  0.
        254    2    1    2    0    0 -0.66122610626E+02  0.15888746433E+04  0.37463703248E+03  0.18659692480E+04  0.90143967995E+03 0.  0.
        -24    2    4    4    0    0  0.18975711336E+03  0.14445678311E+04  0.11068842506E+03  0.14633591256E+04  0.79900076658E+02 0.  0.
         24    2    4    4    0    0 -0.25587972398E+03  0.14430681220E+03  0.26394860742E+03  0.40261012241E+03  0.78276140172E+02 0.  0.
         11    1    3    3    0    0  0.17151712794E+02 -0.37374255582E+03  0.48516983376E+03  0.61267238135E+03  0.00000000000E+00 0.  1.
        -11    1    3    3    0    0  0.48970897831E+02 -0.12151320875E+04  0.18813251061E+04  0.22401625597E+04  0.00000000000E+00 0. -1.
          2    1    6    6  502    0 -0.24648939942E+03  0.13386586638E+03  0.22001833828E+03  0.35649006071E+03  0.00000000000E+00 0. -1.
          3    1    5    5  503    0  0.18602538716E+03  0.13807742603E+04  0.89844366521E+02  0.13961429056E+04  0.00000000000E+00 0. -1.
         -4    1    5    5    0  503  0.37317262020E+01  0.63793570787E+02  0.20844058539E+02  0.67216219997E+02  0.00000000000E+00 0.  1.
         -1    1    6    6    0  502 -0.93903245683E+01  0.10440945816E+02  0.43930269137E+02  0.46120061703E+02  0.00000000000E+00 0.  1.
<mgrwt>
<rscale>  0 0.38410036E+04</rscale>
<asrwt>0</asrwt>
<pdfrwt beam="1">  1        1 0.57384124E+00 0.38410036E+04</pdfrwt>
<pdfrwt beam="2">  1       -1 0.15212863E+00 0.38410036E+04</pdfrwt>
<totfact> 0.43310759E-02</totfact>
</mgrwt>
</event>
<event>
12    1  0.2048318E-007  0.2426875E+04  0.7818608E-02  0.8429510E-01
         -2   -1    0    0    0  501 -0.00000000000E+00  0.00000000000E+00  0.89628824891E+03  0.89628824891E+03  0.00000000000E+00 0.  1.
          2   -1    0    0  501    0  0.00000000000E+00 -0.00000000000E+00 -0.16428090700E+04  0.16428090700E+04  0.00000000000E+00 0. -1.
         23    2    1    2    0    0 -0.57291786797E+03 -0.85527862217E+03 -0.50640487024E+03  0.11504467340E+04  0.85705252025E+02 0.  0.
        254    2    1    2    0    0  0.57291786797E+03  0.85527862217E+03 -0.24011595090E+03  0.13886505849E+04  0.90053227162E+03 0.  0.
        -24    2    4    4    0    0  0.39397541706E+03  0.20112104647E+03  0.28061556981E+03  0.52997632383E+03  0.80395903017E+02 0.  0.
         24    2    4    4    0    0  0.17894245091E+03  0.65415757570E+03 -0.52073152071E+03  0.85867426112E+03  0.78851984535E+02 0.  0.
         11    1    3    3    0    0 -0.15672970387E+03 -0.26704042993E+03 -0.19143089977E+03  0.36403376310E+03  0.00000000000E+00 0.  1.
        -11    1    3    3    0    0 -0.41618816410E+03 -0.58823819224E+03 -0.31497397047E+03  0.78641297091E+03  0.00000000000E+00 0. -1.
          2    1    6    6  502    0  0.12917534664E+03  0.32334763762E+03 -0.26145532628E+03  0.43542950357E+03  0.00000000000E+00 0. -1.
          3    1    5    5  503    0  0.29403724855E+03  0.12469823335E+03  0.23347973881E+03  0.39562651752E+03  0.00000000000E+00 0. -1.
         -4    1    5    5    0  503  0.99938168511E+02  0.76422813121E+02  0.47135831004E+02  0.13434980631E+03  0.00000000000E+00 0.  1.
         -1    1    6    6    0  502  0.49767104267E+02  0.33080993808E+03 -0.25927619442E+03  0.42324475755E+03  0.00000000000E+00 0.  1.
<mgrwt>
<rscale>  0 0.24268749E+04</rscale>
<asrwt>0</asrwt>
<pdfrwt beam="1">  1        2 0.25273986E+00 0.24268749E+04</pdfrwt>
<pdfrwt beam="2">  1       -2 0.13789050E+00 0.24268749E+04</pdfrwt>
<totfact> 0.35383441E+00</totfact>
</mgrwt>
</event>
<event>
12    1  0.2048318E-007  0.2709286E+04  0.7818608E-02  0.8331998E-01
          1   -1    0    0  501    0  0.00000000000E+00  0.00000000000E+00  0.21233077082E+04  0.21233077082E+04  0.00000000000E+00 0. -1.
         -1   -1    0    0    0  501 -0.00000000000E+00 -0.00000000000E+00 -0.86424485426E+03  0.86424485426E+03  0.00000000000E+00 0.  1.
         23    2    1    2    0    0  0.10539429153E+04 -0.19116887492E+03 -0.41496009972E+02  0.10757966971E+04  0.90969265370E+02 0.  0.
        254    2    1    2    0    0 -0.10539429153E+04  0.19116887492E+03  0.13005588639E+04  0.19117558654E+04  0.90333599665E+03 0.  0.
        -24    2    4    4    0    0 -0.18287614693E+03 -0.30556213151E+03  0.53483485139E+03  0.64751401105E+03  0.80088544202E+02 0.  0.
         24    2    4    4    0    0 -0.87106676836E+03  0.49673100642E+03  0.76572401255E+03  0.12642418543E+04  0.80468597498E+02 0.  0.
         11    1    3    3    0    0  0.40028864646E+03 -0.63207900649E+02 -0.58908901305E+02  0.40950762855E+03  0.00000000000E+00 0. -1.
        -11    1    3    3    0    0  0.65365426883E+03 -0.12796097427E+03  0.17412891333E+02  0.66628906856E+03  0.00000000000E+00 0.  1.
          4    1    6    6  502    0 -0.27873013423E+03  0.17284672149E+03  0.29609279824E+03  0.44185678905E+03  0.00000000000E+00 0. -1.
          1    1    5    5  503    0 -0.12053268656E+03 -0.23586789728E+03  0.33653730836E+03  0.42827462383E+03  0.00000000000E+00 0. -1.
         -2    1    5    5    0  503 -0.62343460365E+02 -0.69694234223E+02  0.19829754304E+03  0.21923938722E+03  0.00000000000E+00 0.  1.
         -3    1    6    6    0  502 -0.59233663414E+03  0.32388428493E+03  0.46963121431E+03  0.82238506529E+03  0.00000000000E+00 0.  1.
<mgrwt>
<rscale>  0 0.27092861E+04</rscale>
<asrwt>0</asrwt>
<pdfrwt beam="1">  1        1 0.32666272E+00 0.27092861E+04</pdfrwt>
<pdfrwt beam="2">  1       -1 0.13296075E+00 0.27092861E+04</pdfrwt>
<totfact> 0.10265023E+00</totfact>
</mgrwt>
</event>
<event>
12    1  0.2048318E-007  0.2377481E+04  0.7818608E-02  0.8447983E-01
          2   -1    0    0  501    0  0.00000000000E+00  0.00000000000E+00  0.27511863039E+04  0.27511863039E+04  0.00000000000E+00 0. -1.
         -2   -1    0    0    0  501 -0.00000000000E+00 -0.00000000000E+00 -0.51363434213E+03  0.51363434213E+03  0.00000000000E+00 0.  1.
         23    2    1    2    0    0  0.90897022050E+02  0.86213454863E+03  0.23257785066E+03  0.90227631448E+03  0.92042612346E+02 0.  0.
        254    2    1    2    0    0 -0.90897022050E+02 -0.86213454863E+03  0.20049741111E+04  0.23625443315E+04  0.90008682010E+03 0.  0.
        -24    2    4    4    0    0 -0.40070180287E+03 -0.26375520034E+03  0.12804754736E+04  0.13695987981E+04  0.77811881061E+02 0.  0.
         24    2    4    4    0    0  0.30980478082E+03 -0.59837934829E+03  0.72449863753E+03  0.99294553343E+03  0.83700118826E+02 0.  0.
         11    1    3    3    0    0  0.16234906659E+02  0.36594255475E+03  0.13933957801E+03  0.39190948390E+03  0.00000000000E+00 0. -1.
        -11    1    3    3    0    0  0.74662115391E+02  0.49619199388E+03  0.93238272651E+02  0.51036683057E+03  0.00000000000E+00 0.  1.
          4    1    6    6  502    0  0.13162534232E+03 -0.34489961306E+03  0.39359505624E+03  0.53962768844E+03  0.00000000000E+00 0. -1.
          1    1    5    5  503    0 -0.33434875468E+02 -0.10875700280E+02  0.15655246049E+03  0.16045200105E+03  0.00000000000E+00 0. -1.
         -2    1    5    5    0  503 -0.36726692740E+03 -0.25287950006E+03  0.11239230131E+04  0.12091467971E+04  0.00000000000E+00 0.  1.
         -3    1    6    6    0  502  0.17817943850E+03 -0.25347973522E+03  0.33090358129E+03  0.45331784499E+03  0.00000000000E+00 0.  1.
<mgrwt>
<rscale>  0 0.23774808E+04</rscale>
<asrwt>0</asrwt>
<pdfrwt beam="1">  1        2 0.42325942E+00 0.23774808E+04</pdfrwt>
<pdfrwt beam="2">  1       -2 0.79020669E-01 0.23774808E+04</pdfrwt>
<totfact> 0.31685762E+00</totfact>
</mgrwt>
</event>
<event>
12    1  0.2048318E-007  0.1232891E+04  0.7818608E-02  0.9084545E-01
         -2   -1    0    0    0  501 -0.00000000000E+00  0.00000000000E+00  0.44177476021E+03  0.44177476021E+03  0.00000000000E+00 0.  1.
          2   -1    0    0  501    0  0.00000000000E+00 -0.00000000000E+00 -0.86017761697E+03  0.86017761697E+03  0.00000000000E+00 0. -1.
         23    2    1    2    0    0 -0.25017513802E+03  0.11033489200E+03 -0.85699138858E+02  0.29932577943E+03  0.86545893913E+02 0.  0.
        254    2    1    2    0    0  0.25017513802E+03 -0.11033489200E+03 -0.33270371790E+03  0.10026265977E+04  0.90543190938E+03 0.  0.
        -24    2    4    4    0    0 -0.60382986001E+01 -0.47192449586E+03 -0.26513221956E+03  0.54726961222E+03  0.80372531193E+02 0.  0.
         24    2    4    4    0    0  0.25621343662E+03  0.36158960386E+03 -0.67571498341E+02  0.45535698553E+03  0.79948171674E+02 0.  0.
         11    1    3    3    0    0 -0.10439106343E+03  0.93307541994E+02 -0.42864506293E+02  0.14642799397E+03  0.00000000000E+00 0.  1.
        -11    1    3    3    0    0 -0.14578407459E+03  0.17027350003E+02 -0.42834632565E+02  0.15289778546E+03  0.00000000000E+00 0. -1.
          4    1    6    6  502    0  0.71707640656E+02  0.49830904316E+02 -0.29367409362E+01  0.87371214944E+02  0.00000000000E+00 0. -1.
          3    1    5    5  503    0 -0.41449825437E+02 -0.32013317896E+03 -0.18361745284E+03  0.37137408268E+03  0.00000000000E+00 0. -1.
         -4    1    5    5    0  503  0.35411526837E+02 -0.15179131689E+03 -0.81514766721E+02  0.17589552954E+03  0.00000000000E+00 0.  1.
         -3    1    6    6    0  502  0.18450579597E+03  0.31175869955E+03 -0.64634757405E+02  0.36798577058E+03  0.00000000000E+00 0.  1.
<mgrwt>
<rscale>  0 0.12328905E+04</rscale>
<asrwt>0</asrwt>
<pdfrwt beam="1">  1        2 0.13233502E+00 0.12328905E+04</pdfrwt>
<pdfrwt beam="2">  1       -2 0.67965348E-01 0.12328905E+04</pdfrwt>
<totfact> 0.60969304E+01</totfact>
</mgrwt>
</event>
<event>
12    1  0.2048318E-007  0.1818469E+04  0.7818608E-02  0.8696539E-01
          2   -1    0    0  501    0  0.00000000000E+00  0.00000000000E+00  0.19722192760E+04  0.19722192760E+04  0.00000000000E+00 0.  1.
         -2   -1    0    0    0  501 -0.00000000000E+00 -0.00000000000E+00 -0.41917634809E+03  0.41917634809E+03  0.00000000000E+00 0. -1.
         23    2    1    2    0    0  0.72142105443E+02 -0.37623853385E+02 -0.30367394689E+03  0.32687097422E+03  0.89480333296E+02 0.  0.
        254    2    1    2    0    0 -0.72142105443E+02  0.37623853385E+02  0.18567168748E+04  0.20645246498E+04  0.89902415932E+03 0.  0.
        -24    2    4    4    0    0  0.25464280203E+03 -0.58974186412E+02  0.16181499518E+04  0.16411047592E+04  0.80589410522E+02 0.  0.
         24    2    4    4    0    0 -0.32678490747E+03  0.96598039797E+02  0.23856692300E+03  0.42341989061E+03  0.79061178660E+02 0.  0.
         13    1    3    3    0    0 -0.15755390023E+02 -0.38153776356E+01 -0.11449649948E+02  0.19846508640E+02  0.00000000000E+00 0.  1.
        -13    1    3    3    0    0  0.87897495465E+02 -0.33808475749E+02 -0.29222429694E+03  0.30702446558E+03  0.00000000000E+00 0. -1.
          2    1    6    6  502    0 -0.26140744704E+03  0.92712538742E+02  0.22352901165E+03  0.35622280563E+03  0.00000000000E+00 0. -1.
          3    1    5    5  503    0  0.24974694758E+03 -0.40377085881E+02  0.14556782069E+04  0.14774988626E+04  0.00000000000E+00 0. -1.
         -4    1    5    5    0  503  0.48958544507E+01 -0.18597100531E+02  0.16247174487E+03  0.16360589665E+03  0.00000000000E+00 0.  1.
         -1    1    6    6    0  502 -0.65377460435E+02  0.38855010552E+01  0.15037911352E+02  0.67197084976E+02  0.00000000000E+00 0.  1.
<mgrwt>
<rscale>  0 0.18184693E+04</rscale>
<asrwt>0</asrwt>
<pdfrwt beam="1">  1        2 0.30341835E+00 0.18184693E+04</pdfrwt>
<pdfrwt beam="2">  1       -2 0.64488670E-01 0.18184693E+04</pdfrwt>
<totfact> 0.14491618E+01</totfact>
</mgrwt>
</event>
<event>
12    1  0.2048318E-007  0.1972634E+04  0.7818608E-02  0.8619523E-01
          1   -1    0    0  501    0  0.00000000000E+00  0.00000000000E+00  0.21413516277E+04  0.21413516277E+04  0.00000000000E+00 0. -1.
         -1   -1    0    0    0  501 -0.00000000000E+00 -0.00000000000E+00 -0.45430242703E+03  0.45430242703E+03  0.00000000000E+00 0.  1.
         23    2    1    2    0    0  0.35428509899E+03 -0.68860289823E+03  0.76061343183E+03  0.10891931023E+04  0.90094054311E+02 0.  0.
        254    2    1    2    0    0 -0.35428509899E+03  0.68860289823E+03  0.92643576883E+03  0.15064609524E+04  0.90080490926E+03 0.  0.
        -24    2    4    4    0    0  0.88659669981E+02  0.69800415047E+03  0.72404240139E+03  0.10127402196E+04  0.79592853287E+02 0.  0.
         24    2    4    4    0    0 -0.44294476898E+03 -0.94012522420E+01  0.20239336743E+03  0.49372073278E+03  0.80676110991E+02 0.  0.
         11    1    3    3    0    0  0.27033152458E+03 -0.53781853365E+03  0.64030618565E+03  0.87881734149E+03  0.00000000000E+00 0. -1.
        -11    1    3    3    0    0  0.83953574414E+02 -0.15078436457E+03  0.12030724618E+03  0.21037576082E+03  0.00000000000E+00 0.  1.
          2    1    6    6  502    0 -0.28377433267E+03 -0.14775858170E+02  0.17022199662E+03  0.33124269954E+03  0.00000000000E+00 0. -1.
          3    1    5    5  503    0  0.31199314849E+02  0.21088023099E+03  0.16912785361E+03  0.27211780525E+03  0.00000000000E+00 0. -1.
         -4    1    5    5    0  503  0.57460355132E+02  0.48712391948E+03  0.55491454778E+03  0.74062241438E+03  0.00000000000E+00 0.  1.
         -1    1    6    6    0  502 -0.15917043631E+03  0.53746059285E+01  0.32171370809E+02  0.16247803323E+03  0.00000000000E+00 0.  1.
<mgrwt>
<rscale>  0 0.19726340E+04</rscale>
<asrwt>0</asrwt>
<pdfrwt beam="1">  1        1 0.32943870E+00 0.19726340E+04</pdfrwt>
<pdfrwt beam="2">  1       -1 0.69892683E-01 0.19726340E+04</pdfrwt>
<totfact> 0.45970649E+00</totfact>
</mgrwt>
</event>
<event>
12    1  0.2048318E-007  0.1953230E+04  0.7818608E-02  0.8628805E-01
         -2   -1    0    0    0  501 -0.00000000000E+00  0.00000000000E+00  0.10550356624E+04  0.10550356624E+04  0.00000000000E+00 0.  1.
          2   -1    0    0  501    0  0.00000000000E+00 -0.00000000000E+00 -0.90402298149E+03  0.90402298149E+03  0.00000000000E+00 0. -1.
         23    2    1    2    0    0 -0.59308409880E+03 -0.47595205884E+03 -0.29969248009E+02  0.76655015790E+03  0.91770791569E+02 0.  0.
        254    2    1    2    0    0  0.59308409880E+03  0.47595205884E+03  0.18098192896E+03  0.11925084860E+04  0.90057921366E+03 0.  0.
        -24    2    4    4    0    0  0.77845490219E+03  0.36781943102E+03 -0.50973014848E+02  0.86620860394E+03  0.80224240113E+02 0.  0.
         24    2    4    4    0    0 -0.18537080340E+03  0.10813262782E+03  0.23195494381E+03  0.32629988210E+03  0.81323533776E+02 0.  0.
         11    1    3    3    0    0 -0.47966673444E+03 -0.36652914852E+03  0.10774554731E+02  0.60377138378E+03  0.00000000000E+00 0. -1.
        -11    1    3    3    0    0 -0.11341736435E+03 -0.10942291032E+03 -0.40743802740E+02  0.16277877411E+03  0.00000000000E+00 0.  1.
          4    1    6    6  502    0 -0.61560362524E+02 -0.28569334814E+01  0.80541102404E+02  0.10141355669E+03  0.00000000000E+00 0. -1.
          3    1    5    5  503    0  0.19921967703E+02 -0.23611495174E+01  0.36942367790E+01  0.20398706077E+02  0.00000000000E+00 0. -1.
         -4    1    5    5    0  503  0.75853293449E+03  0.37018058054E+03 -0.54667251627E+02  0.84580989786E+03  0.00000000000E+00 0.  1.
         -3    1    6    6    0  502 -0.12381044087E+03  0.11098956130E+03  0.15141384141E+03  0.22488632541E+03  0.00000000000E+00 0.  1.
<mgrwt>
<rscale>  0 0.19532296E+04</rscale>
<asrwt>0</asrwt>
<pdfrwt beam="1">  1        2 0.13908046E+00 0.19532296E+04</pdfrwt>
<pdfrwt beam="2">  1       -2 0.16231318E+00 0.19532296E+04</pdfrwt>
<totfact> 0.65795572E+00</totfact>
</mgrwt>
</event>
<event>
12    1  0.2048318E-007  0.2226221E+04  0.7818608E-02  0.8507593E-01
         -2   -1    0    0    0  501 -0.00000000000E+00  0.00000000000E+00  0.91209912348E+03  0.91209912348E+03  0.00000000000E+00 0.  1.
          2   -1    0    0  501    0  0.00000000000E+00 -0.00000000000E+00 -0.13584217891E+04  0.13584217891E+04  0.00000000000E+00 0. -1.
         23    2    1    2    0    0  0.80506686353E+03  0.26478357904E+03 -0.57417854469E+03  0.10274732595E+04  0.88188998031E+02 0.  0.
        254    2    1    2    0    0 -0.80506686353E+03 -0.26478357904E+03  0.12785587907E+03  0.12430476530E+04  0.90032068923E+03 0.  0.
        -24    2    4    4    0    0  0.19138095869E+03 -0.25218406374E+02  0.14439690347E+02  0.20882781164E+03  0.78344820420E+02 0.  0.
         24    2    4    4    0    0 -0.99644782222E+03 -0.23956517266E+03  0.11341618872E+03  0.10342198414E+04  0.80297659581E+02 0.  0.
         11    1    3    3    0    0  0.37086009664E+03  0.16063405324E+03 -0.30214753696E+03  0.50461237047E+03  0.00000000000E+00 0. -1.
        -11    1    3    3    0    0  0.43420676688E+03  0.10414952580E+03 -0.27203100773E+03  0.52286088905E+03  0.00000000000E+00 0.  1.
          2    1    6    6  502    0 -0.41353739352E+03 -0.13204007862E+03  0.71935576927E+02  0.44002555088E+03  0.00000000000E+00 0. -1.
          3    1    5    5  503    0  0.60408716997E+02  0.27786334994E+02  0.11671578322E+02  0.67509401139E+02  0.00000000000E+00 0. -1.
         -4    1    5    5    0  503  0.13097224170E+03 -0.53004741367E+02  0.27681120255E+01  0.14131841050E+03  0.00000000000E+00 0.  1.
         -1    1    6    6    0  502 -0.58291042870E+03 -0.10752509404E+03  0.41480611796E+02  0.59419429053E+03  0.00000000000E+00 0.  1.
<mgrwt>
<rscale>  0 0.22262213E+04</rscale>
<asrwt>0</asrwt>
<pdfrwt beam="1">  1        2 0.20898797E+00 0.22262213E+04</pdfrwt>
<pdfrwt beam="2">  1       -2 0.14032294E+00 0.22262213E+04</pdfrwt>
<totfact> 0.49795329E+00</totfact>
</mgrwt>
</event>
<event>
12    1  0.2048318E-007  0.2386265E+04  0.7818608E-02  0.8444664E-01
          1   -1    0    0  501    0  0.00000000000E+00  0.00000000000E+00  0.24521583233E+04  0.24521583233E+04  0.00000000000E+00 0.  1.
         -1   -1    0    0    0  501 -0.00000000000E+00 -0.00000000000E+00 -0.58053543675E+03  0.58053543675E+03  0.00000000000E+00 0. -1.
         23    2    1    2    0    0  0.80698529793E+03  0.14820136998E+03  0.15759435611E+04  0.17791552251E+04  0.92770092662E+02 0.  0.
        254    2    1    2    0    0 -0.80698529793E+03 -0.14820136998E+03  0.29567932546E+03  0.12535385350E+04  0.90041305966E+03 0.  0.
        -24    2    4    4    0    0 -0.66203504477E+03  0.29818717385E+03  0.94521020139E+02  0.73641425861E+03  0.78522263629E+02 0.  0.
         24    2    4    4    0    0 -0.14495025316E+03 -0.44638854383E+03  0.20115830532E+03  0.51712427636E+03  0.81728486155E+02 0.  0.
         11    1    3    3    0    0  0.25719566383E+03  0.75607635591E+02  0.58746241211E+03  0.64573849947E+03  0.00000000000E+00 0.  1.
        -11    1    3    3    0    0  0.54978963410E+03  0.72593734390E+02  0.98848114898E+03  0.11334167256E+04  0.00000000000E+00 0. -1.
          2    1    6    6  502    0 -0.81778300586E+02 -0.30018839146E+03  0.17102006893E+03  0.35503327279E+03  0.00000000000E+00 0. -1.
          1    1    5    5  503    0 -0.66023186422E+03  0.29626661643E+03  0.87515794836E+02  0.72893006310E+03  0.00000000000E+00 0. -1.
         -2    1    5    5    0  503 -0.18031805461E+01  0.19205574213E+01  0.70052253029E+01  0.74841955101E+01  0.00000000000E+00 0.  1.
         -1    1    6    6    0  502 -0.63171952577E+02 -0.14620015237E+03  0.30138236395E+02  0.16209100357E+03  0.00000000000E+00 0.  1.
<mgrwt>
<rscale>  0 0.23862647E+04</rscale>
<asrwt>0</asrwt>
<pdfrwt beam="1">  1        1 0.37725512E+00 0.23862647E+04</pdfrwt>
<pdfrwt beam="2">  1       -1 0.89313145E-01 0.23862647E+04</pdfrwt>
<totfact> 0.16113540E+00</totfact>
</mgrwt>
</event>
<event>
12    1  0.2048318E-007  0.2019056E+04  0.7818608E-02  0.8597763E-01
         -2   -1    0    0    0  501 -0.00000000000E+00  0.00000000000E+00  0.13127588346E+04  0.13127588346E+04  0.00000000000E+00 0.  1.
          2   -1    0    0  501    0  0.00000000000E+00 -0.00000000000E+00 -0.77633943007E+03  0.77633943007E+03  0.00000000000E+00 0. -1.
         23    2    1    2    0    0  0.32328181179E+02  0.64294158021E+03 -0.28689968763E+03  0.71061177437E+03  0.90767153973E+02 0.  0.
        254    2    1    2    0    0 -0.32328181179E+02 -0.64294158021E+03  0.82331909212E+03  0.13784864903E+04  0.89886132942E+03 0.  0.
        -24    2    4    4    0    0 -0.40898718079E+03 -0.56609783639E+03  0.43610242054E+03  0.82720736841E+03  0.79683340432E+02 0.  0.
         24    2    4    4    0    0  0.37665899961E+03 -0.76843743821E+02  0.38721667158E+03  0.55127912185E+03  0.78708045890E+02 0.  0.
         11    1    3    3    0    0  0.13846176920E+01  0.32721301499E+03 -0.19242495593E+03  0.37960194679E+03  0.00000000000E+00 0. -1.
        -11    1    3    3    0    0  0.30943563487E+02  0.31572856523E+03 -0.94474731699E+02  0.33100982758E+03  0.00000000000E+00 0.  1.
          2    1    6    6  502    0  0.25355688208E+03 -0.84211021090E+02  0.23907036467E+03  0.35852088891E+03  0.00000000000E+00 0. -1.
          3    1    5    5  503    0 -0.27407966799E+03 -0.31984956618E+03  0.24088814725E+03  0.48523242768E+03  0.00000000000E+00 0. -1.
         -4    1    5    5    0  503 -0.13490751280E+03 -0.24624827021E+03  0.19521427329E+03  0.34197494073E+03  0.00000000000E+00 0.  1.
         -1    1    6    6    0  502  0.12310211753E+03  0.73672772685E+01  0.14814630691E+03  0.19275823294E+03  0.00000000000E+00 0.  1.
<mgrwt>
<rscale>  0 0.20190557E+04</rscale>
<asrwt>0</asrwt>
<pdfrwt beam="1">  1        2 0.11943684E+00 0.20190557E+04</pdfrwt>
<pdfrwt beam="2">  1       -2 0.20196290E+00 0.20190557E+04</pdfrwt>
<totfact> 0.42908121E+00</totfact>
</mgrwt>
</event>
<event>
12    1  0.2048318E-007  0.2855403E+04  0.7818608E-02  0.8286272E-01
          1   -1    0    0  501    0  0.00000000000E+00  0.00000000000E+00  0.70366325179E+03  0.70366325179E+03  0.00000000000E+00 0. -1.
         -1   -1    0    0    0  501 -0.00000000000E+00 -0.00000000000E+00 -0.28967422406E+04  0.28967422406E+04  0.00000000000E+00 0.  1.
         23    2    1    2    0    0  0.11226615126E+04 -0.21909622780E+03 -0.17237711067E+04  0.20708148752E+04  0.92278872510E+02 0.  0.
        254    2    1    2    0    0 -0.11226615126E+04  0.21909622780E+03 -0.46930788214E+03  0.15295906172E+04  0.90056956374E+03 0.  0.
        -24    2    4    4    0    0 -0.71461663395E+02  0.31931307519E+03  0.65980466232E+02  0.34274278402E+03  0.77791932448E+02 0.  0.
         24    2    4    4    0    0 -0.10511998492E+04 -0.10021684739E+03 -0.53528834837E+03  0.11868478332E+04  0.83723496122E+02 0.  0.
         11    1    3    3    0    0  0.10279237993E+04 -0.20349608771E+03 -0.15282841917E+04  0.18530220089E+04  0.00000000000E+00 0. -1.
        -11    1    3    3    0    0  0.94737713313E+02 -0.15600140090E+02 -0.19548691499E+03  0.21779286633E+03  0.00000000000E+00 0.  1.
          4    1    6    6  502    0 -0.65562252893E+03 -0.54937660870E+02 -0.28839785594E+03  0.71835393110E+03  0.00000000000E+00 0. -1.
          1    1    5    5  503    0 -0.69035289114E+02  0.21966418842E+03  0.76209326689E+02  0.24254090024E+03  0.00000000000E+00 0. -1.
         -2    1    5    5    0  503 -0.24263742809E+01  0.99648886768E+02 -0.10228860457E+02  0.10020188378E+03  0.00000000000E+00 0.  1.
         -3    1    6    6    0  502 -0.39557732025E+03 -0.45279186520E+02 -0.24689049243E+03  0.46849390208E+03  0.00000000000E+00 0.  1.
<mgrwt>
<rscale>  0 0.28554026E+04</rscale>
<asrwt>0</asrwt>
<pdfrwt beam="1">  1        1 0.10825589E+00 0.28554026E+04</pdfrwt>
<pdfrwt beam="2">  1       -1 0.44565265E+00 0.28554026E+04</pdfrwt>
<totfact> 0.80657600E-02</totfact>
</mgrwt>
</event>
<event>
12    1  0.2048318E-007  0.3088594E+04  0.7818608E-02  0.8218875E-01
         -2   -1    0    0    0  501 -0.00000000000E+00  0.00000000000E+00  0.80075836830E+03  0.80075836830E+03  0.00000000000E+00 0.  1.
          2   -1    0    0  501    0  0.00000000000E+00 -0.00000000000E+00 -0.29782426088E+04  0.29782426088E+04  0.00000000000E+00 0. -1.
         23    2    1    2    0    0  0.58526538370E+03 -0.12087546919E+04 -0.45422112589E+03  0.14207509971E+04  0.92698920322E+02 0.  0.
        254    2    1    2    0    0 -0.58526538370E+03  0.12087546919E+04 -0.17232631146E+04  0.23582499800E+04  0.88774080201E+03 0.  0.
        -24    2    4    4    0    0 -0.14571778850E+02  0.88412317117E+03 -0.66151345332E+03  0.11072331893E+04  0.80493279366E+02 0.  0.
         24    2    4    4    0    0 -0.57069360484E+03  0.32463152076E+03 -0.10617496613E+04  0.12510167907E+04  0.81571150412E+02 0.  0.
         11    1    3    3    0    0  0.23256984061E+03 -0.56620155061E+03 -0.23525740938E+03  0.65575832083E+03  0.00000000000E+00 0. -1.
        -11    1    3    3    0    0  0.35269554309E+03 -0.64255314133E+03 -0.21896371651E+03  0.76499267623E+03  0.00000000000E+00 0.  1.
          2    1    6    6  502    0 -0.40788602997E+03  0.19352070671E+03 -0.69137723985E+03  0.82572620472E+03  0.00000000000E+00 0. -1.
          1    1    5    5  503    0  0.29136621868E+02  0.52124766647E+03 -0.37398549955E+03  0.64219407223E+03  0.00000000000E+00 0. -1.
         -2    1    5    5    0  503 -0.43708400719E+02  0.36287550470E+03 -0.28752795377E+03  0.46503911707E+03  0.00000000000E+00 0.  1.
         -1    1    6    6    0  502 -0.16280757487E+03  0.13111081405E+03 -0.37037242144E+03  0.42529058603E+03  0.00000000000E+00 0.  1.
<mgrwt>
<rscale>  0 0.30885937E+04</rscale>
<asrwt>0</asrwt>
<pdfrwt beam="1">  1        2 0.45819118E+00 0.30885937E+04</pdfrwt>
<pdfrwt beam="2">  1       -2 0.12319359E+00 0.30885937E+04</pdfrwt>
<totfact> 0.75880643E-01</totfact>
</mgrwt>
</event>
<event>
12    1  0.2048318E-007  0.2124375E+04  0.7818608E-02  0.8550581E-01
         -2   -1    0    0    0  501 -0.00000000000E+00  0.00000000000E+00  0.11746757191E+04  0.11746757191E+04  0.00000000000E+00 0.  1.
          2   -1    0    0  501    0  0.00000000000E+00 -0.00000000000E+00 -0.96047155002E+03  0.96047155002E+03  0.00000000000E+00 0. -1.
         23    2    1    2    0    0  0.67595903478E+03 -0.54510748340E+03  0.53046930794E+02  0.87419885257E+03  0.85713895163E+02 0.  0.
        254    2    1    2    0    0 -0.67595903478E+03  0.54510748340E+03  0.16115723829E+03  0.12609484165E+04  0.89997581555E+03 0.  0.
        -24    2    4    4    0    0  0.11736786468E+03  0.37333268036E+02 -0.20113027683E+03  0.24889381503E+03  0.79534610975E+02 0.  0.
         24    2    4    4    0    0 -0.79332689946E+03  0.50777421536E+03  0.36228751512E+03  0.10120546015E+04  0.76158056927E+02 0.  0.
         11    1    3    3    0    0  0.53622510593E+03 -0.45162956149E+03  0.12162395583E+02  0.70118082469E+03  0.00000000000E+00 0. -1.
        -11    1    3    3    0    0  0.13973392884E+03 -0.93477921908E+02  0.40884535211E+02  0.17301802789E+03  0.00000000000E+00 0.  1.
          4    1    6    6  502    0 -0.50343968516E+02  0.30309428042E+02  0.43480551202E+02  0.73100854489E+02  0.00000000000E+00 0. -1.
          1    1    5    5  503    0  0.22743086611E+02  0.31204417287E+02 -0.11309277121E+03  0.11950288092E+03  0.00000000000E+00 0. -1.
         -2    1    5    5    0  503  0.94624778074E+02  0.61288507484E+01 -0.88037505614E+02  0.12939093412E+03  0.00000000000E+00 0.  1.
         -3    1    6    6    0  502 -0.74298293094E+03  0.47746478732E+03  0.31880696391E+03  0.93895374702E+03  0.00000000000E+00 0.  1.
<mgrwt>
<rscale>  0 0.21243753E+04</rscale>
<asrwt>0</asrwt>
<pdfrwt beam="1">  1        2 0.14776486E+00 0.21243753E+04</pdfrwt>
<pdfrwt beam="2">  1       -2 0.18071934E+00 0.21243753E+04</pdfrwt>
<totfact> 0.44047049E+00</totfact>
</mgrwt>
</event>
<event>
12    1  0.2048318E-007  0.1051877E+04  0.7818608E-02  0.9253409E-01
         -2   -1    0    0    0  501 -0.00000000000E+00  0.00000000000E+00  0.18394388431E+03  0.18394388431E+03  0.00000000000E+00 0.  1.
          2   -1    0    0  501    0  0.00000000000E+00 -0.00000000000E+00 -0.15037799327E+04  0.15037799327E+04  0.00000000000E+00 0. -1.
         23    2    1    2    0    0  0.15088696280E+02 -0.95803062973E+02 -0.90244730084E+02  0.16083496664E+03  0.91202409811E+02 0.  0.
        254    2    1    2    0    0 -0.15088696280E+02  0.95803062973E+02 -0.12295913183E+04  0.15268888503E+04  0.90004936291E+03 0.  0.
        -24    2    4    4    0    0 -0.15638749170E+03  0.46169107784E+03 -0.56120650639E+03  0.74778605789E+03  0.81336010815E+02 0.  0.
         24    2    4    4    0    0  0.14129879542E+03 -0.36588801486E+03 -0.66838481189E+03  0.77910279245E+03  0.80146836610E+02 0.  0.
         13    1    3    3    0    0 -0.78996038531E+01 -0.10639890592E+03 -0.80731827385E+02  0.13379371762E+03  0.00000000000E+00 0. -1.
        -13    1    3    3    0    0  0.22988300133E+02  0.10595842946E+02 -0.95129026991E+01  0.27041249019E+02  0.00000000000E+00 0.  1.
          4    1    6    6  502    0  0.46235890263E+02 -0.13342015928E+03 -0.16986362040E+03  0.22088989562E+03  0.00000000000E+00 0. -1.
          3    1    5    5  503    0 -0.89115274393E+02  0.36928141121E+03 -0.42910935760E+03  0.57310132924E+03  0.00000000000E+00 0. -1.
         -4    1    5    5    0  503 -0.67272217309E+02  0.92409666625E+02 -0.13209714878E+03  0.17468472865E+03  0.00000000000E+00 0.  1.
         -3    1    6    6    0  502  0.95062905159E+02 -0.23246785558E+03 -0.49852119149E+03  0.55821289682E+03  0.00000000000E+00 0.  1.
<mgrwt>
<rscale>  0 0.10518767E+04</rscale>
<asrwt>0</asrwt>
<pdfrwt beam="1">  1        2 0.23135077E+00 0.10518767E+04</pdfrwt>
<pdfrwt beam="2">  1       -2 0.28299058E-01 0.10518767E+04</pdfrwt>
<totfact> 0.14362749E+02</totfact>
</mgrwt>
</event>
<event>
12    1  0.2048318E-007  0.1539739E+04  0.7818608E-02  0.8858449E-01
         -2   -1    0    0    0  501 -0.00000000000E+00  0.00000000000E+00  0.34679676442E+03  0.34679676442E+03  0.00000000000E+00 0.  1.
          2   -1    0    0  501    0  0.00000000000E+00 -0.00000000000E+00 -0.17090667933E+04  0.17090667933E+04  0.00000000000E+00 0. -1.
         23    2    1    2    0    0 -0.28386210272E+03 -0.40793718443E+03 -0.35305654305E+03  0.61600493577E+03  0.88446133376E+02 0.  0.
        254    2    1    2    0    0  0.28386210272E+03  0.40793718443E+03 -0.10092134859E+04  0.14398586220E+04  0.89871605720E+03 0.  0.
        -24    2    4    4    0    0  0.42039534671E+03  0.25825263432E+03 -0.10566136894E+03  0.51059272444E+03  0.78191653582E+02 0.  0.
         24    2    4    4    0    0 -0.13653324400E+03  0.14968455010E+03 -0.90355211693E+03  0.92926589755E+03  0.77986467386E+02 0.  0.
         13    1    3    3    0    0 -0.41096341703E+01 -0.47961525576E+02 -0.24225134352E+02  0.53889276883E+02  0.00000000000E+00 0. -1.
        -13    1    3    3    0    0 -0.27975246855E+03 -0.35997565885E+03 -0.32883140870E+03  0.56211565889E+03  0.00000000000E+00 0.  1.
          2    1    6    6  502    0 -0.13701414437E+03  0.13718121141E+03 -0.73147933738E+03  0.75673878025E+03  0.00000000000E+00 0. -1.
          3    1    5    5  503    0  0.12724688631E+03  0.40132713689E+02 -0.16186930168E+02  0.13440394894E+03  0.00000000000E+00 0. -1.
         -4    1    5    5    0  503  0.29314846041E+03  0.21811992064E+03 -0.89474438768E+02  0.37618877550E+03  0.00000000000E+00 0.  1.
         -1    1    6    6    0  502  0.48090037266E+00  0.12503338695E+02 -0.17207277955E+03  0.17252711730E+03  0.00000000000E+00 0.  1.
<mgrwt>
<rscale>  0 0.15397387E+04</rscale>
<asrwt>0</asrwt>
<pdfrwt beam="1">  1        2 0.26293335E+00 0.15397387E+04</pdfrwt>
<pdfrwt beam="2">  1       -2 0.53353349E-01 0.15397387E+04</pdfrwt>
<totfact> 0.30918388E+01</totfact>
</mgrwt>
</event>
<event>
12    1  0.2048318E-007  0.2061485E+04  0.7818608E-02  0.8578402E-01
          1   -1    0    0  501    0  0.00000000000E+00  0.00000000000E+00  0.36487572072E+03  0.36487572072E+03  0.00000000000E+00 0. -1.
         -1   -1    0    0    0  501 -0.00000000000E+00 -0.00000000000E+00 -0.29117582623E+04  0.29117582623E+04  0.00000000000E+00 0.  1.
         23    2    1    2    0    0 -0.77067214430E+03  0.30461517157E+03 -0.93695762504E+03  0.12541685211E+04  0.91231197400E+02 0.  0.
        254    2    1    2    0    0  0.77067214430E+03 -0.30461517157E+03 -0.16099249165E+04  0.20224654619E+04  0.90098965094E+03 0.  0.
        -24    2    4    4    0    0  0.88261745104E+03 -0.39503579511E+02 -0.95975831820E+03  0.13070123740E+04  0.81063054174E+02 0.  0.
         24    2    4    4    0    0 -0.11194530674E+03 -0.26511159206E+03 -0.65016659833E+03  0.71545308794E+03  0.79627931707E+02 0.  0.
         11    1    3    3    0    0 -0.66569629767E+03  0.24690759196E+03 -0.84134491305E+03  0.11008978983E+04  0.00000000000E+00 0.  1.
        -11    1    3    3    0    0 -0.10497584664E+03  0.57707579616E+02 -0.95612711991E+02  0.15327062281E+03  0.00000000000E+00 0. -1.
          2    1    6    6  502    0 -0.68940794709E+02 -0.22336307527E+03 -0.56367617818E+03  0.61022514732E+03  0.00000000000E+00 0. -1.
          1    1    5    5  503    0  0.17261921795E+03 -0.36390198136E+01 -0.14286649073E+03  0.22410147488E+03  0.00000000000E+00 0. -1.
         -2    1    5    5    0  503  0.70999823310E+03 -0.35864559697E+02 -0.81689182748E+03  0.10829108991E+04  0.00000000000E+00 0.  1.
         -3    1    6    6    0  502 -0.43004512033E+02 -0.41748516796E+02 -0.86490420143E+02  0.10522794062E+03  0.00000000000E+00 0.  1.
<mgrwt>
<rscale>  0 0.20614848E+04</rscale>
<asrwt>0</asrwt>
<pdfrwt beam="1">  1        1 0.56134725E-01 0.20614848E+04</pdfrwt>
<pdfrwt beam="2">  1       -1 0.44796282E+00 0.20614848E+04</pdfrwt>
<totfact> 0.20916134E-01</totfact>
</mgrwt>
</event>
<event>
12    1  0.2048318E-007  0.1640533E+04  0.7818608E-02  0.8796027E-01
          2   -1    0    0  501    0  0.00000000000E+00  0.00000000000E+00  0.56978304791E+03  0.56978304791E+03  0.00000000000E+00 0. -1.
         -2   -1    0    0    0  501 -0.00000000000E+00 -0.00000000000E+00 -0.11808659189E+04  0.11808659189E+04  0.00000000000E+00 0.  1.
         23    2    1    2    0    0 -0.26012949420E+03  0.30425264078E+03 -0.64421921896E+03  0.76531280461E+03  0.10221674830E+03 0.  0.
        254    2    1    2    0    0  0.26012949420E+03 -0.30425264078E+03  0.33136347929E+02  0.98533616224E+03  0.89975125000E+03 0.  0.
        -24    2    4    4    0    0  0.21795545869E+03 -0.14866955165E+02  0.42852536756E+03  0.48752756649E+03  0.79520620685E+02 0.  0.
         24    2    4    4    0    0  0.42174035518E+02 -0.28938568562E+03 -0.39538901964E+03  0.49780859575E+03  0.77189357038E+02 0.  0.
         11    1    3    3    0    0 -0.16770139999E+03  0.23726134554E+03 -0.52642221516E+03  0.60127951426E+03  0.00000000000E+00 0.  1.
        -11    1    3    3    0    0 -0.92428094218E+02  0.66991295241E+02 -0.11779700380E+03  0.16403329035E+03  0.00000000000E+00 0. -1.
          2    1    6    6  502    0  0.29218093096E+02 -0.28791703132E+03 -0.37705529461E+03  0.47531106560E+03  0.00000000000E+00 0. -1.
          1    1    5    5  503    0  0.16056688282E+03  0.13842479406E+02  0.24637250652E+03  0.29440236083E+03  0.00000000000E+00 0. -1.
         -2    1    5    5    0  503  0.57388575863E+02 -0.28709434571E+02  0.18215286104E+03  0.19312520565E+03  0.00000000000E+00 0.  1.
         -1    1    6    6    0  502  0.12955942422E+02 -0.14686542991E+01 -0.18333725023E+02  0.22497530147E+02  0.00000000000E+00 0.  1.
<mgrwt>
<rscale>  0 0.16405333E+04</rscale>
<asrwt>0</asrwt>
<pdfrwt beam="1">  1        2 0.87658932E-01 0.16405333E+04</pdfrwt>
<pdfrwt beam="2">  1       -2 0.18167168E+00 0.16405333E+04</pdfrwt>
<totfact> 0.89007447E+00</totfact>
</mgrwt>
</event>
<event>
12    1  0.2048318E-007  0.1358705E+04  0.7818608E-02  0.8984264E-01
          2   -1    0    0  501    0  0.00000000000E+00  0.00000000000E+00  0.11185981923E+04  0.11185981923E+04  0.00000000000E+00 0. -1.
         -2   -1    0    0    0  501 -0.00000000000E+00 -0.00000000000E+00 -0.41258785364E+03  0.41258785364E+03  0.00000000000E+00 0.  1.
         23    2    1    2    0    0 -0.23060086141E+03  0.28311639088E+03  0.11622342810E+03  0.39426267635E+03  0.92755186660E+02 0.  0.
        254    2    1    2    0    0  0.23060086141E+03 -0.28311639088E+03  0.58978691058E+03  0.11369233696E+04  0.90078549078E+03 0.  0.
        -24    2    4    4    0    0  0.39322913490E+03 -0.37610490471E+03  0.40792169312E+02  0.55125632914E+03  0.78329352496E+02 0.  0.
         24    2    4    4    0    0 -0.16262827348E+03  0.92988513827E+02  0.54899474127E+03  0.58566704047E+03  0.80720736588E+02 0.  0.
         13    1    3    3    0    0 -0.15348595562E+03  0.23545201230E+03  0.59400461805E+02  0.28726991407E+03  0.00000000000E+00 0.  1.
        -13    1    3    3    0    0 -0.77114905796E+02  0.47664378583E+02  0.56822966292E+02  0.10699276228E+03  0.00000000000E+00 0. -1.
          2    1    6    6  502    0 -0.65138087186E+01 -0.27083310638E+01  0.10715313494E+03  0.10738509714E+03  0.00000000000E+00 0. -1.
          1    1    5    5  503    0  0.19025943143E+03 -0.14934785433E+03 -0.12942863134E+02  0.24222087141E+03  0.00000000000E+00 0. -1.
         -4    1    5    5    0  503  0.20296970346E+03 -0.22675705038E+03  0.53735032446E+02  0.30903545773E+03  0.00000000000E+00 0.  1.
         -1    1    6    6    0  502 -0.15611446476E+03  0.95696844891E+02  0.44184160632E+03  0.47828194332E+03  0.00000000000E+00 0.  1.
<mgrwt>
<rscale>  0 0.13587053E+04</rscale>
<asrwt>0</asrwt>
<pdfrwt beam="1">  1        2 0.17209203E+00 0.13587053E+04</pdfrwt>
<pdfrwt beam="2">  1       -2 0.63475055E-01 0.13587053E+04</pdfrwt>
<totfact> 0.47589594E+01</totfact>
</mgrwt>
</event>
<event>
12    1  0.2048318E-007  0.2357482E+04  0.7818608E-02  0.8455595E-01
          2   -1    0    0  501    0  0.00000000000E+00  0.00000000000E+00  0.22460100932E+04  0.22460100932E+04  0.00000000000E+00 0. -1.
         -2   -1    0    0    0  501 -0.00000000000E+00 -0.00000000000E+00 -0.61862174851E+03  0.61862174851E+03  0.00000000000E+00 0.  1.
         23    2    1    2    0    0  0.37765398078E+03 -0.93090154810E+03  0.70132387849E+03  0.12285018263E+04  0.90340097580E+02 0.  0.
        254    2    1    2    0    0 -0.37765398078E+03  0.93090154810E+03  0.92606446621E+03  0.16361300154E+04  0.90006989193E+03 0.  0.
        -24    2    4    4    0    0 -0.35853223557E+03  0.10218250310E+04  0.10139917000E+04  0.14855628657E+04  0.77756687641E+02 0.  0.
         24    2    4    4    0    0 -0.19121745205E+02 -0.90923482901E+02 -0.87927233747E+02  0.15056714972E+03  0.79413772469E+02 0.  0.
         11    1    3    3    0    0  0.10728874855E+03 -0.30388978534E+03  0.27385838950E+03  0.42291641574E+03  0.00000000000E+00 0. -1.
        -11    1    3    3    0    0  0.27036523223E+03 -0.62701176275E+03  0.42746548899E+03  0.80558541056E+03  0.00000000000E+00 0.  1.
          2    1    6    6  502    0 -0.47146779751E+02 -0.58893492565E+02 -0.36479549566E+02  0.83797493065E+02  0.00000000000E+00 0. -1.
          1    1    5    5  503    0 -0.69597024327E+02  0.30102756860E+03  0.27688954344E+03  0.41488451661E+03  0.00000000000E+00 0. -1.
         -2    1    5    5    0  503 -0.28893521124E+03  0.72079746239E+03  0.73710215652E+03  0.10706783491E+04  0.00000000000E+00 0.  1.
         -1    1    6    6    0  502  0.28025034546E+02 -0.32029990335E+02 -0.51447684181E+02  0.66769656655E+02  0.00000000000E+00 0.  1.
<mgrwt>
<rscale>  0 0.23574823E+04</rscale>
<asrwt>0</asrwt>
<pdfrwt beam="1">  1        2 0.34554001E+00 0.23574823E+04</pdfrwt>
<pdfrwt beam="2">  1       -2 0.95172577E-01 0.23574823E+04</pdfrwt>
<totfact> 0.40730615E+00</totfact>
</mgrwt>
</event>
<event>
12    1  0.2048318E-007  0.3300372E+04  0.7818608E-02  0.8162801E-01
         -1   -1    0    0    0  501 -0.00000000000E+00  0.00000000000E+00  0.19909223496E+04  0.19909223496E+04  0.00000000000E+00 0.  1.
          1   -1    0    0  501    0  0.00000000000E+00 -0.00000000000E+00 -0.13677653157E+04  0.13677653157E+04  0.00000000000E+00 0. -1.
         23    2    1    2    0    0 -0.13682781199E+04 -0.49981778086E+03  0.75043434775E+03  0.16411963952E+04  0.91493551192E+02 0.  0.
        254    2    1    2    0    0  0.13682781199E+04  0.49981778086E+03 -0.12727731387E+03  0.17174912701E+04  0.90087397605E+03 0.  0.
        -24    2    4    4    0    0  0.35336661853E+03 -0.18674217820E+03 -0.25653834718E+03  0.48226962624E+03  0.83853804948E+02 0.  0.
         24    2    4    4    0    0  0.10149115013E+04  0.68655995907E+03  0.12926103331E+03  0.12352216438E+04  0.87488065945E+02 0.  0.
         13    1    3    3    0    0 -0.82314070026E+03 -0.30440539144E+03  0.50200647728E+03  0.10110557640E+04  0.00000000000E+00 0.  1.
        -13    1    3    3    0    0 -0.54513741962E+03 -0.19541238942E+03  0.24842787047E+03  0.63014063115E+03  0.00000000000E+00 0. -1.
          2    1    6    6  502    0  0.97636826270E+03  0.66326384162E+03  0.10757763765E+03  0.11852370464E+04  0.00000000000E+00 0. -1.
          3    1    5    5  503    0  0.30622076085E+03 -0.15841034513E+03 -0.18266641523E+03  0.39016920826E+03  0.00000000000E+00 0. -1.
         -4    1    5    5    0  503  0.47145857682E+02 -0.28331833074E+02 -0.73871931951E+02  0.92100417980E+02  0.00000000000E+00 0.  1.
         -1    1    6    6    0  502  0.38543238635E+02  0.23296117448E+02  0.21683395663E+02  0.49984597429E+02  0.00000000000E+00 0.  1.
<mgrwt>
<rscale>  0 0.33003724E+04</rscale>
<asrwt>0</asrwt>
<pdfrwt beam="1">  1        1 0.21042543E+00 0.33003724E+04</pdfrwt>
<pdfrwt beam="2">  1       -1 0.30629575E+00 0.33003724E+04</pdfrwt>
<totfact> 0.20183759E-01</totfact>
</mgrwt>
</event>
<event>
12    1  0.2048318E-007  0.2419467E+04  0.7818608E-02  0.8432251E-01
         -2   -1    0    0    0  501 -0.00000000000E+00  0.00000000000E+00  0.53267463011E+03  0.53267463011E+03  0.00000000000E+00 0.  1.
          2   -1    0    0  501    0  0.00000000000E+00 -0.00000000000E+00 -0.27473720982E+04  0.27473720982E+04  0.00000000000E+00 0. -1.
         23    2    1    2    0    0 -0.67798065429E+03  0.33296280104E+03 -0.19239356570E+04  0.20705488822E+04  0.12297262580E+03 0.  0.
        254    2    1    2    0    0  0.67798065429E+03 -0.33296280104E+03 -0.29076181113E+03  0.12094978462E+04  0.89878841483E+03 0.  0.
        -24    2    4    4    0    0  0.58015984649E+03 -0.42710246522E+02 -0.54748780847E+03  0.80287780605E+03  0.80375732518E+02 0.  0.
         24    2    4    4    0    0  0.97820807803E+02 -0.29025255452E+03  0.25672599734E+03  0.40662004013E+03  0.74941066754E+02 0.  0.
         11    1    3    3    0    0 -0.31941459230E+03  0.21414868829E+03 -0.87928618686E+03  0.95970283988E+03  0.00000000000E+00 0.  1.
        -11    1    3    3    0    0 -0.35856606199E+03  0.11881411275E+03 -0.10446494701E+04  0.11108460423E+04  0.00000000000E+00 0. -1.
          4    1    6    6  502    0  0.10109442845E+02  0.17554369445E+01  0.61066836343E+01  0.11940434604E+02  0.00000000000E+00 0. -1.
          1    1    5    5  503    0  0.12868799892E+03  0.15524125470E+01 -0.80341854767E+02  0.15171626373E+03  0.00000000000E+00 0. -1.
         -2    1    5    5    0  503  0.45147184757E+03 -0.44262659069E+02 -0.46714595371E+03  0.65116154232E+03  0.00000000000E+00 0.  1.
         -3    1    6    6    0  502  0.87711364958E+02 -0.29200799146E+03  0.25061931371E+03  0.39467960553E+03  0.00000000000E+00 0.  1.
<mgrwt>
<rscale>  0 0.24194672E+04</rscale>
<asrwt>0</asrwt>
<pdfrwt beam="1">  1        2 0.42267263E+00 0.24194672E+04</pdfrwt>
<pdfrwt beam="2">  1       -2 0.81949943E-01 0.24194672E+04</pdfrwt>
<totfact> 0.29241179E+00</totfact>
</mgrwt>
</event>
<event>
12    1  0.2048318E-007  0.1943861E+04  0.7818608E-02  0.8633327E-01
          2   -1    0    0  501    0  0.00000000000E+00  0.00000000000E+00  0.78724301226E+03  0.78724301226E+03  0.00000000000E+00 0. -1.
         -2   -1    0    0    0  501 -0.00000000000E+00 -0.00000000000E+00 -0.11999459877E+04  0.11999459877E+04  0.00000000000E+00 0.  1.
         23    2    1    2    0    0  0.29534662549E+03 -0.69863702581E+03 -0.82168562953E+02  0.76834114934E+03  0.90956726067E+02 0.  0.
        254    2    1    2    0    0 -0.29534662549E+03  0.69863702581E+03 -0.33053441252E+03  0.12188478507E+04  0.89499372186E+03 0.  0.
        -24    2    4    4    0    0  0.81027197714E+02 -0.14393074812E+03  0.88282002414E+02  0.20224240406E+03  0.76333551122E+02 0.  0.
         24    2    4    4    0    0 -0.37637382321E+03  0.84256777392E+03 -0.41881641493E+03  0.10166054466E+04  0.80633344091E+02 0.  0.
         13    1    3    3    0    0  0.23596410978E+03 -0.54593846277E+03 -0.26634101559E+02  0.59534632072E+03  0.00000000000E+00 0.  1.
        -13    1    3    3    0    0  0.59382515719E+02 -0.15269856304E+03 -0.55534461394E+02  0.17299482862E+03  0.00000000000E+00 0. -1.
          4    1    6    6  502    0 -0.30371231294E+03  0.74606781491E+03 -0.36250985484E+03  0.88332992044E+03  0.00000000000E+00 0. -1.
          1    1    5    5  503    0  0.49995295640E+01 -0.66458429864E+02  0.77718291359E+01  0.67097835464E+02  0.00000000000E+00 0. -1.
         -2    1    5    5    0  503  0.76027668150E+02 -0.77472318254E+02  0.80510173278E+02  0.13514456860E+03  0.00000000000E+00 0.  1.
         -3    1    6    6    0  502 -0.72661510272E+02  0.96499959010E+02 -0.56306560087E+02  0.13327552616E+03  0.00000000000E+00 0.  1.
<mgrwt>
<rscale>  0 0.19438612E+04</rscale>
<asrwt>0</asrwt>
<pdfrwt beam="1">  1        2 0.12111431E+00 0.19438612E+04</pdfrwt>
<pdfrwt beam="2">  1       -2 0.18460707E+00 0.19438612E+04</pdfrwt>
<totfact> 0.55337148E+00</totfact>
</mgrwt>
</event>
<event>
12    1  0.2048318E-007  0.1472048E+04  0.7818608E-02  0.8903256E-01
          2   -1    0    0  501    0  0.00000000000E+00  0.00000000000E+00  0.36766288216E+04  0.36766288216E+04  0.00000000000E+00 0. -1.
         -2   -1    0    0    0  501 -0.00000000000E+00 -0.00000000000E+00 -0.14734465588E+03  0.14734465588E+03  0.00000000000E+00 0.  1.
         23    2    1    2    0    0  0.50182963399E+02  0.27153281848E+03  0.20534972580E+04  0.20739877311E+04  0.91245376641E+02 0.  0.
        254    2    1    2    0    0 -0.50182963399E+02 -0.27153281848E+03  0.14757869077E+04  0.17499857464E+04  0.89902987394E+03 0.  0.
        -24    2    4    4    0    0  0.98746927024E+01  0.80029498714E+02  0.13627307746E+04  0.13674822646E+04  0.80438484119E+02 0.  0.
         24    2    4    4    0    0 -0.60057656101E+02 -0.35156231719E+03  0.11305613316E+03  0.38250348183E+03  0.79525086851E+02 0.  0.
         11    1    3    3    0    0  0.69258101868E+01  0.21836230386E+03  0.16923402307E+04  0.17063837549E+04  0.00000000000E+00 0. -1.
        -11    1    3    3    0    0  0.43257153212E+02  0.53170514616E+02  0.36115702731E+03  0.36760397619E+03  0.00000000000E+00 0.  1.
          2    1    6    6  502    0 -0.41024404988E+02 -0.21733951924E+03  0.10972056065E+03  0.24689688102E+03  0.00000000000E+00 0. -1.
          1    1    5    5  503    0 -0.77577268466E+01  0.84087379637E+02  0.12806450777E+04  0.12834261509E+04  0.00000000000E+00 0. -1.
         -2    1    5    5    0  503  0.17632419549E+02 -0.40578809223E+01  0.82085696870E+02  0.84056113682E+02  0.00000000000E+00 0.  1.
         -1    1    6    6    0  502 -0.19033251113E+02 -0.13422279795E+03  0.33355725064E+01  0.13560660080E+03  0.00000000000E+00 0.  1.
<mgrwt>
<rscale>  0 0.14720484E+04</rscale>
<asrwt>0</asrwt>
<pdfrwt beam="1">  1        2 0.56563513E+00 0.14720484E+04</pdfrwt>
<pdfrwt beam="2">  1       -2 0.22668411E-01 0.14720484E+04</pdfrwt>
<totfact> 0.10248540E+01</totfact>
</mgrwt>
</event>
<event>
12    1  0.2048318E-007  0.1715821E+04  0.7818608E-02  0.8752392E-01
          1   -1    0    0  501    0  0.00000000000E+00  0.00000000000E+00  0.76299638991E+03  0.76299638991E+03  0.00000000000E+00 0. -1.
         -1   -1    0    0    0  501 -0.00000000000E+00 -0.00000000000E+00 -0.96463111385E+03  0.96463111385E+03  0.00000000000E+00 0.  1.
         23    2    1    2    0    0 -0.43763170130E+03  0.41660996729E+03  0.57899456452E+02  0.61372615687E+03  0.90675673394E+02 0.  0.
        254    2    1    2    0    0  0.43763170130E+03 -0.41660996729E+03 -0.25953418039E+03  0.11139013469E+04  0.89907332793E+03 0.  0.
        -24    2    4    4    0    0 -0.20703233132E+03 -0.12418553697E+03  0.14663732934E+03  0.29371075154E+03  0.80492641966E+02 0.  0.
         24    2    4    4    0    0  0.64466403262E+03 -0.29242443032E+03 -0.40617150973E+03  0.82019059535E+03  0.81446638858E+02 0.  0.
         13    1    3    3    0    0 -0.35684875085E+03  0.28867200176E+03  0.30911744084E+02  0.46003053323E+03  0.00000000000E+00 0. -1.
        -13    1    3    3    0    0 -0.80782950445E+02  0.12793796553E+03  0.26987712368E+02  0.15369562364E+03  0.00000000000E+00 0.  1.
          2    1    6    6  502    0  0.10869952901E+03 -0.78329959030E+02 -0.56687858996E+02  0.14548086969E+03  0.00000000000E+00 0. -1.
          3    1    5    5  503    0 -0.12358157688E+03 -0.30061046095E+02  0.57742678784E+02  0.13967923822E+03  0.00000000000E+00 0. -1.
         -4    1    5    5    0  503 -0.83450754444E+02 -0.94124490872E+02  0.88894650559E+02  0.15403151333E+03  0.00000000000E+00 0.  1.
         -1    1    6    6    0  502  0.53596450361E+03 -0.21409447129E+03 -0.34948365074E+03  0.67470972566E+03  0.00000000000E+00 0.  1.
<mgrwt>
<rscale>  0 0.17158206E+04</rscale>
<asrwt>0</asrwt>
<pdfrwt beam="1">  1        1 0.11738406E+00 0.17158206E+04</pdfrwt>
<pdfrwt beam="2">  1       -1 0.14840479E+00 0.17158206E+04</pdfrwt>
<totfact> 0.81368657E+00</totfact>
</mgrwt>
</event>
<event>
12    1  0.2048318E-007  0.4257185E+04  0.7818608E-02  0.7954583E-01
         -1   -1    0    0    0  501 -0.00000000000E+00  0.00000000000E+00  0.18225811702E+04  0.18225811702E+04  0.00000000000E+00 0.  1.
          1   -1    0    0  501    0  0.00000000000E+00 -0.00000000000E+00 -0.24859828964E+04  0.24859828964E+04  0.00000000000E+00 0. -1.
         23    2    1    2    0    0  0.14216511721E+04 -0.14147261548E+04 -0.64361731752E+03  0.21100431092E+04  0.12448503076E+03 0.  0.
        254    2    1    2    0    0 -0.14216511721E+04  0.14147261548E+04 -0.19784408646E+02  0.21985209575E+04  0.90031151800E+03 0.  0.
        -24    2    4    4    0    0 -0.22727392326E+03  0.79207037665E+03 -0.15488110966E+03  0.84224559257E+03  0.79753133551E+02 0.  0.
         24    2    4    4    0    0 -0.11943772489E+04  0.62265577815E+03  0.13509670102E+03  0.13562753649E+04  0.83633224402E+02 0.  0.
         11    1    3    3    0    0  0.11810240863E+04 -0.12130205747E+04 -0.50406325947E+03  0.17664417841E+04  0.00000000000E+00 0.  1.
        -11    1    3    3    0    0  0.24062708583E+03 -0.20170558013E+03 -0.13955405805E+03  0.34360132509E+03  0.00000000000E+00 0. -1.
          4    1    6    6  502    0 -0.56361886373E+03  0.26599450112E+03  0.28702327012E+02  0.62389351796E+03  0.00000000000E+00 0. -1.
          1    1    5    5  503    0 -0.22593762046E+03  0.69600784038E+03 -0.13395513918E+03  0.74392116620E+03  0.00000000000E+00 0. -1.
         -2    1    5    5    0  503 -0.13363027989E+01  0.96062536273E+02 -0.20925970485E+02  0.98324426370E+02  0.00000000000E+00 0.  1.
         -3    1    6    6    0  502 -0.63075838512E+03  0.35666127703E+03  0.10639437400E+03  0.73238184696E+03  0.00000000000E+00 0.  1.
<mgrwt>
<rscale>  0 0.42571848E+04</rscale>
<asrwt>0</asrwt>
<pdfrwt beam="1">  1        1 0.38245891E+00 0.42571848E+04</pdfrwt>
<pdfrwt beam="2">  1       -1 0.28039710E+00 0.42571848E+04</pdfrwt>
<totfact> 0.46981152E-02</totfact>
</mgrwt>
</event>
<event>
12    1  0.2048318E-007  0.1955815E+04  0.7818608E-02  0.8627562E-01
          2   -1    0    0  501    0  0.00000000000E+00  0.00000000000E+00  0.35111967940E+04  0.35111967940E+04  0.00000000000E+00 0.  1.
         -2   -1    0    0    0  501 -0.00000000000E+00 -0.00000000000E+00 -0.27235811250E+03  0.27235811250E+03  0.00000000000E+00 0. -1.
         23    2    1    2    0    0 -0.20514253596E+03 -0.71719566211E+03  0.16397740482E+04  0.18037938169E+04  0.91433730152E+02 0.  0.
        254    2    1    2    0    0  0.20514253596E+03  0.71719566211E+03  0.15990646333E+04  0.19797610896E+04  0.89777123621E+03 0.  0.
        -24    2    4    4    0    0  0.28355451789E+03  0.42246322339E+03  0.21130105046E+03  0.55661603357E+03  0.79340627459E+02 0.  0.
         24    2    4    4    0    0 -0.78411981932E+02  0.29473243872E+03  0.13877635829E+04  0.14231450560E+04  0.80239885602E+02 0.  0.
         13    1    3    3    0    0 -0.62229301096E+02 -0.24580250638E+03  0.66334309688E+03  0.71015168960E+03  0.00000000000E+00 0.  1.
        -13    1    3    3    0    0 -0.14291323487E+03 -0.47139315573E+03  0.97643095131E+03  0.10936421273E+04  0.00000000000E+00 0. -1.
          4    1    6    6  502    0  0.55619288656E+01  0.64067068069E+02  0.19323838011E+03  0.20365803645E+03  0.00000000000E+00 0. -1.
          1    1    5    5  503    0  0.16131273823E+03  0.21247975539E+03  0.71074550802E+02  0.27608157805E+03  0.00000000000E+00 0. -1.
         -2    1    5    5    0  503  0.12224177967E+03  0.20998346800E+03  0.14022649965E+03  0.28053445552E+03  0.00000000000E+00 0.  1.
         -3    1    6    6    0  502 -0.83973910798E+02  0.23066537065E+03  0.11945252028E+04  0.12194870196E+04  0.00000000000E+00 0.  1.
<mgrwt>
<rscale>  0 0.19558148E+04</rscale>
<asrwt>0</asrwt>
<pdfrwt beam="1">  1        2 0.54018409E+00 0.19558148E+04</pdfrwt>
<pdfrwt beam="2">  1       -2 0.41901251E-01 0.19558148E+04</pdfrwt>
<totfact> 0.40432380E+00</totfact>
</mgrwt>
</event>
<event>
12    1  0.2048318E-007  0.1891043E+04  0.7818608E-02  0.8659328E-01
         -2   -1    0    0    0  501 -0.00000000000E+00  0.00000000000E+00  0.68069615917E+03  0.68069615917E+03  0.00000000000E+00 0.  1.
          2   -1    0    0  501    0  0.00000000000E+00 -0.00000000000E+00 -0.13133772951E+04  0.13133772951E+04  0.00000000000E+00 0. -1.
         23    2    1    2    0    0 -0.64535843541E+03  0.11279414670E+01 -0.59803163455E+03  0.88464481623E+03  0.92009959041E+02 0.  0.
        254    2    1    2    0    0  0.64535843541E+03 -0.11279414670E+01 -0.34649501364E+02  0.11094286380E+04  0.90174416134E+03 0.  0.
        -24    2    4    4    0    0  0.33563070194E+03  0.44135045597E+03  0.21924242081E+02  0.56063724292E+03  0.79970323800E+02 0.  0.
         24    2    4    4    0    0  0.30972773347E+03 -0.44247839744E+03 -0.56573743445E+02  0.54879139510E+03  0.79075949600E+02 0.  0.
         13    1    3    3    0    0 -0.30589748284E+03  0.42609010050E+02 -0.30888810533E+03  0.43680734810E+03  0.00000000000E+00 0. -1.
        -13    1    3    3    0    0 -0.33946095257E+03 -0.41481068583E+02 -0.28914352922E+03  0.44783746813E+03  0.00000000000E+00 0.  1.
          4    1    6    6  502    0  0.29676557639E+03 -0.38051072724E+03 -0.49269199498E+02  0.48506254740E+03  0.00000000000E+00 0. -1.
          3    1    5    5  503    0  0.22197894109E+03  0.33944512634E+03  0.36890192290E+02  0.40725732697E+03  0.00000000000E+00 0. -1.
         -4    1    5    5    0  503  0.11365176085E+03  0.10190532963E+03 -0.14965950210E+02  0.15337991595E+03  0.00000000000E+00 0.  1.
         -3    1    6    6    0  502  0.12962157082E+02 -0.61967670206E+02 -0.73045439474E+01  0.63728847700E+02  0.00000000000E+00 0.  1.
<mgrwt>
<rscale>  0 0.18910430E+04</rscale>
<asrwt>0</asrwt>
<pdfrwt beam="1">  1        2 0.20205804E+00 0.18910430E+04</pdfrwt>
<pdfrwt beam="2">  1       -2 0.10472249E+00 0.18910430E+04</pdfrwt>
<totfact> 0.11259745E+01</totfact>
</mgrwt>
</event>
<event>
12    1  0.2048318E-007  0.1825453E+04  0.7818608E-02  0.8692880E-01
          2   -1    0    0  501    0  0.00000000000E+00  0.00000000000E+00  0.17303441855E+04  0.17303441855E+04  0.00000000000E+00 0. -1.
         -2   -1    0    0    0  501 -0.00000000000E+00 -0.00000000000E+00 -0.48144747845E+03  0.48144747845E+03  0.00000000000E+00 0.  1.
         23    2    1    2    0    0  0.62980527979E+02 -0.53543503128E+03  0.98742228975E+03  0.11288026420E+04  0.92387264507E+02 0.  0.
        254    2    1    2    0    0 -0.62980527979E+02  0.53543503128E+03  0.26147441734E+03  0.10829890220E+04  0.90213032941E+03 0.  0.
        -24    2    4    4    0    0  0.10618656688E+03 -0.22515077268E+03  0.23877663651E+02  0.26454807536E+03  0.86296488521E+02 0.  0.
         24    2    4    4    0    0 -0.16916709486E+03  0.76058580396E+03  0.23759675369E+03  0.81844094665E+03  0.79278588620E+02 0.  0.
         11    1    3    3    0    0 -0.21189771841E+02 -0.20083865592E+03  0.36800536485E+03  0.41977746569E+03  0.00000000000E+00 0. -1.
        -11    1    3    3    0    0  0.84170299820E+02 -0.33459637536E+03  0.61941692491E+03  0.70902517631E+03  0.00000000000E+00 0.  1.
          4    1    6    6  502    0 -0.16793514192E+03  0.65230185810E+03  0.18789211854E+03  0.69928776207E+03  0.00000000000E+00 0. -1.
          1    1    5    5  503    0  0.68598536273E+02 -0.21276655929E+03  0.25080328848E+02  0.22495419718E+03  0.00000000000E+00 0. -1.
         -2    1    5    5    0  503  0.37588030605E+02 -0.12384213388E+02 -0.12026651971E+01  0.39593878183E+02  0.00000000000E+00 0.  1.
         -3    1    6    6    0  502 -0.12319529405E+01  0.10828394586E+03  0.49704635149E+02  0.11915318458E+03  0.00000000000E+00 0.  1.
<mgrwt>
<rscale>  0 0.18254532E+04</rscale>
<asrwt>0</asrwt>
<pdfrwt beam="1">  1        2 0.26620679E+00 0.18254532E+04</pdfrwt>
<pdfrwt beam="2">  1       -2 0.74068844E-01 0.18254532E+04</pdfrwt>
<totfact> 0.14588331E+01</totfact>
</mgrwt>
</event>
<event>
12    1  0.2048318E-007  0.2110979E+04  0.7818608E-02  0.8556422E-01
         -3   -1    0    0    0  501 -0.00000000000E+00  0.00000000000E+00  0.12744488744E+04  0.12744488744E+04  0.00000000000E+00 0. -1.
          3   -1    0    0  501    0  0.00000000000E+00 -0.00000000000E+00 -0.87414913652E+03  0.87414913652E+03  0.00000000000E+00 0.  1.
         23    2    1    2    0    0  0.36541227696E+03 -0.77902235417E+03  0.18494949511E+03  0.88505046027E+03  0.93306168305E+02 0.  0.
        254    2    1    2    0    0 -0.36541227696E+03  0.77902235417E+03  0.21535024277E+03  0.12635475507E+04  0.89987483866E+03 0.  0.
        -24    2    4    4    0    0 -0.40695280270E+03  0.25833030926E+03  0.46901497003E+03  0.67723771273E+03  0.79565979655E+02 0.  0.
         24    2    4    4    0    0  0.41540525748E+02  0.52069204491E+03 -0.25366472725E+03  0.58630983793E+03  0.81040800135E+02 0.  0.
         11    1    3    3    0    0  0.88616189258E+02 -0.27920104732E+03  0.40380127675E+02  0.29569681860E+03  0.00000000000E+00 0.  1.
        -11    1    3    3    0    0  0.27679608770E+03 -0.49982130685E+03  0.14456936744E+03  0.58935364167E+03  0.00000000000E+00 0. -1.
          4    1    6    6  502    0  0.27994171173E+02  0.13191238374E+03 -0.10070264598E+03  0.16830203062E+03  0.00000000000E+00 0. -1.
          3    1    5    5  503    0 -0.17595612451E+03  0.15758262905E+03  0.21451576795E+03  0.31907656985E+03  0.00000000000E+00 0. -1.
         -4    1    5    5    0  503 -0.23099667820E+03  0.10074768020E+03  0.25449920208E+03  0.35816114287E+03  0.00000000000E+00 0.  1.
         -3    1    6    6    0  502  0.13546354575E+02  0.38877966118E+03 -0.15296208127E+03  0.41800780731E+03  0.00000000000E+00 0.  1.
<mgrwt>
<rscale>  0 0.21109793E+04</rscale>
<asrwt>0</asrwt>
<pdfrwt beam="1">  1        3 0.13448448E+00 0.21109793E+04</pdfrwt>
<pdfrwt beam="2">  1       -3 0.19606906E+00 0.21109793E+04</pdfrwt>
<totfact> 0.15939761E-01</totfact>
</mgrwt>
</event>
<event>
12    1  0.2048318E-007  0.1624859E+04  0.7818608E-02  0.8805420E-01
          2   -1    0    0  501    0  0.00000000000E+00  0.00000000000E+00  0.96068620180E+03  0.96068620180E+03  0.00000000000E+00 0.  1.
         -2   -1    0    0    0  501 -0.00000000000E+00 -0.00000000000E+00 -0.68705271996E+03  0.68705271996E+03  0.00000000000E+00 0. -1.
         23    2    1    2    0    0  0.11663906468E+03 -0.45781696691E+03 -0.20767204143E+03  0.52341117365E+03  0.87352923893E+02 0.  0.
        254    2    1    2    0    0 -0.11663906468E+03  0.45781696691E+03  0.48130552327E+03  0.11243277481E+04  0.89958703405E+03 0.  0.
        -24    2    4    4    0    0 -0.10060059555E+03  0.47908597974E+02  0.65686548165E+03  0.67096873978E+03  0.79442275834E+02 0.  0.
         24    2    4    4    0    0 -0.16038469129E+02  0.40990836894E+03 -0.17555995838E+03  0.45335900833E+03  0.80193441296E+02 0.  0.
         11    1    3    3    0    0  0.55123612608E+02 -0.80219779953E+02 -0.52245186536E+02  0.11046893355E+03  0.00000000000E+00 0. -1.
        -11    1    3    3    0    0  0.61515452068E+02 -0.37759718696E+03 -0.15542685489E+03  0.41294224011E+03  0.00000000000E+00 0.  1.
          2    1    6    6  502    0 -0.16916773146E+02  0.19271973655E+02 -0.14709517911E+01  0.25685596769E+02  0.00000000000E+00 0. -1.
          1    1    5    5  503    0 -0.85118488125E+02  0.22467738399E+02  0.29436560437E+03  0.30724756358E+03  0.00000000000E+00 0. -1.
         -2    1    5    5    0  503 -0.15482107422E+02  0.25440859575E+02  0.36249987728E+03  0.36372117619E+03  0.00000000000E+00 0.  1.
         -1    1    6    6    0  502  0.87830401672E+00  0.39063639528E+03 -0.17408900659E+03  0.42767341156E+03  0.00000000000E+00 0.  1.
<mgrwt>
<rscale>  0 0.16248595E+04</rscale>
<asrwt>0</asrwt>
<pdfrwt beam="1">  1        2 0.14779788E+00 0.16248595E+04</pdfrwt>
<pdfrwt beam="2">  1       -2 0.10570042E+00 0.16248595E+04</pdfrwt>
<totfact> 0.18499713E+01</totfact>
</mgrwt>
</event>
<event>
12    1  0.2048318E-007  0.1534584E+04  0.7818608E-02  0.8861775E-01
         -2   -1    0    0    0  501 -0.00000000000E+00  0.00000000000E+00  0.68002336306E+03  0.68002336306E+03  0.00000000000E+00 0.  1.
          2   -1    0    0  501    0  0.00000000000E+00 -0.00000000000E+00 -0.86575968545E+03  0.86575968545E+03  0.00000000000E+00 0. -1.
         23    2    1    2    0    0  0.22419924478E+03  0.13632357089E+03 -0.49070082760E+03  0.56371414347E+03  0.90204855714E+02 0.  0.
        254    2    1    2    0    0 -0.22419924478E+03 -0.13632357089E+03  0.30496450521E+03  0.98206890505E+03  0.89588312155E+03 0.  0.
        -24    2    4    4    0    0  0.17988382144E+03 -0.37935928120E+03  0.24791600636E+02  0.42791491127E+03  0.78897999826E+02 0.  0.
         24    2    4    4    0    0 -0.40408306622E+03  0.24303571030E+03  0.28017290457E+03  0.55415399378E+03  0.78995642137E+02 0.  0.
         13    1    3    3    0    0  0.74452253106E+02  0.44802469421E+02 -0.84423477452E+02  0.12115165209E+03  0.00000000000E+00 0. -1.
        -13    1    3    3    0    0  0.14974699168E+03  0.91521101472E+02 -0.40627735015E+03  0.44256249138E+03  0.00000000000E+00 0.  1.
          2    1    6    6  502    0 -0.35007665498E+03  0.19753224741E+03  0.20575606419E+03  0.45156196815E+03  0.00000000000E+00 0. -1.
          1    1    5    5  503    0  0.17150456196E+03 -0.34184960641E+03  0.52207040807E+00  0.38245946286E+03  0.00000000000E+00 0. -1.
         -2    1    5    5    0  503  0.83792594745E+01 -0.37509674790E+02  0.24269530228E+02  0.45455448404E+02  0.00000000000E+00 0.  1.
         -1    1    6    6    0  502 -0.54006411243E+02  0.45503462891E+02  0.74416840384E+02  0.10259202563E+03  0.00000000000E+00 0.  1.
<mgrwt>
<rscale>  0 0.15345837E+04</rscale>
<asrwt>0</asrwt>
<pdfrwt beam="1">  1        2 0.13319380E+00 0.15345837E+04</pdfrwt>
<pdfrwt beam="2">  1       -2 0.10461898E+00 0.15345837E+04</pdfrwt>
<totfact> 0.22119209E+01</totfact>
</mgrwt>
</event>
<event>
12    1  0.2048318E-007  0.1823525E+04  0.7818608E-02  0.8693888E-01
          1   -1    0    0  501    0  0.00000000000E+00  0.00000000000E+00  0.16621465438E+04  0.16621465438E+04  0.00000000000E+00 0. -1.
         -1   -1    0    0    0  501 -0.00000000000E+00 -0.00000000000E+00 -0.50014272973E+03  0.50014272973E+03  0.00000000000E+00 0.  1.
         23    2    1    2    0    0  0.43664972114E+03 -0.43558652082E+03  0.83714535452E+02  0.62911064899E+03  0.91506771029E+02 0.  0.
        254    2    1    2    0    0 -0.43664972114E+03  0.43558652082E+03  0.10782892786E+04  0.15331786245E+04  0.89862691382E+03 0.  0.
        -24    2    4    4    0    0 -0.60359501862E+03  0.31420330086E+03  0.34797513871E+03  0.76948536676E+03  0.89276938429E+02 0.  0.
         24    2    4    4    0    0  0.16694529748E+03  0.12138321996E+03  0.73031413988E+03  0.76369325775E+03  0.85229282420E+02 0.  0.
         11    1    3    3    0    0  0.36228661889E+03 -0.31269567760E+03  0.47128514499E+02  0.48088593024E+03  0.00000000000E+00 0. -1.
        -11    1    3    3    0    0  0.74363102242E+02 -0.12289084321E+03  0.36586020953E+02  0.14822471875E+03  0.00000000000E+00 0.  1.
          2    1    6    6  502    0  0.69022832446E+02  0.37114509860E+02  0.42510129797E+03  0.43226467792E+03  0.00000000000E+00 0. -1.
          3    1    5    5  503    0 -0.26293618490E+03  0.17802215621E+03  0.13293247545E+03  0.34423591977E+03  0.00000000000E+00 0. -1.
         -4    1    5    5    0  503 -0.34065883371E+03  0.13618114465E+03  0.21504266325E+03  0.42524944699E+03  0.00000000000E+00 0.  1.
         -1    1    6    6    0  502  0.97922465034E+02  0.84268710099E+02  0.30521284191E+03  0.33142857983E+03  0.00000000000E+00 0.  1.
<mgrwt>
<rscale>  0 0.18235246E+04</rscale>
<asrwt>0</asrwt>
<pdfrwt beam="1">  1        1 0.25571485E+00 0.18235246E+04</pdfrwt>
<pdfrwt beam="2">  1       -1 0.76945036E-01 0.18235246E+04</pdfrwt>
<totfact> 0.80701336E+00</totfact>
</mgrwt>
</event>
<event>
12    1  0.2048318E-007  0.1349008E+04  0.7818608E-02  0.8991579E-01
          2   -1    0    0  501    0  0.00000000000E+00  0.00000000000E+00  0.10625876872E+04  0.10625876872E+04  0.00000000000E+00 0.  1.
         -2   -1    0    0    0  501 -0.00000000000E+00 -0.00000000000E+00 -0.42815815690E+03  0.42815815690E+03  0.00000000000E+00 0. -1.
         23    2    1    2    0    0 -0.13077032861E+03  0.30061177025E+03  0.35634251473E+03  0.49297266691E+03  0.92594531486E+02 0.  0.
        254    2    1    2    0    0  0.13077032861E+03 -0.30061177025E+03  0.27808701561E+03  0.99777317724E+03  0.90041690883E+03 0.  0.
        -24    2    4    4    0    0  0.77637712454E+01 -0.57160671378E+03  0.35896142138E+03  0.68022714222E+03  0.84030658587E+02 0.  0.
         24    2    4    4    0    0  0.12300655736E+03  0.27099494353E+03 -0.80874405772E+02  0.31754603502E+03  0.75669956224E+02 0.  0.
         11    1    3    3    0    0 -0.10262994129E+03  0.27779206218E+03  0.27590710799E+03  0.40475432907E+03  0.00000000000E+00 0. -1.
        -11    1    3    3    0    0 -0.28140387315E+02  0.22819708072E+02  0.80435406739E+02  0.88218337844E+02  0.00000000000E+00 0.  1.
          4    1    6    6  502    0  0.12746021066E+03  0.27316466957E+03 -0.82147126678E+02  0.31243110029E+03  0.00000000000E+00 0. -1.
          3    1    5    5  503    0  0.30871410353E+02 -0.39577364583E+03  0.21281019568E+03  0.45041980651E+03  0.00000000000E+00 0. -1.
         -4    1    5    5    0  503 -0.23107639107E+02 -0.17583306795E+03  0.14615122570E+03  0.22980733570E+03  0.00000000000E+00 0.  1.
         -3    1    6    6    0  502 -0.44536532992E+01 -0.21697260439E+01  0.12727209060E+01  0.51149347326E+01  0.00000000000E+00 0.  1.
<mgrwt>
<rscale>  0 0.13490079E+04</rscale>
<asrwt>0</asrwt>
<pdfrwt beam="1">  1        2 0.16347503E+00 0.13490079E+04</pdfrwt>
<pdfrwt beam="2">  1       -2 0.65870486E-01 0.13490079E+04</pdfrwt>
<totfact> 0.47641378E+01</totfact>
</mgrwt>
</event>
<event>
12    1  0.2048318E-007  0.2208941E+04  0.7818608E-02  0.8514716E-01
          2   -1    0    0  501    0  0.00000000000E+00  0.00000000000E+00  0.19261932650E+04  0.19261932650E+04  0.00000000000E+00 0.  1.
         -2   -1    0    0    0  501 -0.00000000000E+00 -0.00000000000E+00 -0.63329855231E+03  0.63329855231E+03  0.00000000000E+00 0. -1.
         23    2    1    2    0    0 -0.69997027443E+03 -0.38371481481E+03  0.14789258061E+02  0.80366592954E+03  0.92004130141E+02 0.  0.
        254    2    1    2    0    0  0.69997027443E+03  0.38371481481E+03  0.12781054546E+04  0.17558258877E+04  0.90120782886E+03 0.  0.
        -24    2    4    4    0    0  0.38777835341E+03  0.11384049049E+03  0.12723458076E+04  0.13369588483E+04  0.72549289556E+02 0.  0.
         24    2    4    4    0    0  0.31219192102E+03  0.26987432433E+03  0.57596470307E+01  0.41886703942E+03  0.71557506264E+02 0.  0.
         13    1    3    3    0    0 -0.20447797594E+03 -0.68373139046E+02 -0.97472707233E+01  0.21582663894E+03  0.00000000000E+00 0. -1.
        -13    1    3    3    0    0 -0.49549229849E+03 -0.31534167576E+03  0.24536528785E+02  0.58783929061E+03  0.00000000000E+00 0.  1.
          2    1    6    6  502    0  0.28627451709E+03  0.26756808013E+03 -0.15052104464E+01  0.39185206686E+03  0.00000000000E+00 0. -1.
          1    1    5    5  503    0  0.14792973612E+03  0.36766469650E+02  0.59704289577E+03  0.61619412486E+03  0.00000000000E+00 0. -1.
         -2    1    5    5    0  503  0.23984861730E+03  0.77074020835E+02  0.67530291179E+03  0.72076472346E+03  0.00000000000E+00 0.  1.
         -1    1    6    6    0  502  0.25917403927E+02  0.23062441917E+01  0.72648574771E+01  0.27014972566E+02  0.00000000000E+00 0.  1.
<mgrwt>
<rscale>  0 0.22089413E+04</rscale>
<asrwt>0</asrwt>
<pdfrwt beam="1">  1        2 0.29633742E+00 0.22089413E+04</pdfrwt>
<pdfrwt beam="2">  1       -2 0.97430547E-01 0.22089413E+04</pdfrwt>
<totfact> 0.58910829E+00</totfact>
</mgrwt>
</event>
<event>
12    1  0.2048318E-007  0.1127271E+04  0.7818608E-02  0.9179012E-01
         -1   -1    0    0    0  501 -0.00000000000E+00  0.00000000000E+00  0.18190511401E+04  0.18190511401E+04  0.00000000000E+00 0.  1.
          1   -1    0    0  501    0  0.00000000000E+00 -0.00000000000E+00 -0.17464314810E+03  0.17464314810E+03  0.00000000000E+00 0. -1.
         23    2    1    2    0    0 -0.10983847304E+03 -0.15349889002E+03  0.31809949084E+03  0.38029825036E+03  0.88391593224E+02 0.  0.
        254    2    1    2    0    0  0.10983847304E+03  0.15349889002E+03  0.13263085012E+04  0.16133960379E+04  0.89906959425E+03 0.  0.
        -24    2    4    4    0    0  0.31325047496E+03  0.52117179336E+01  0.13095521514E+04  0.13488261261E+04  0.79069964031E+02 0.  0.
         24    2    4    4    0    0 -0.20341200192E+03  0.14828717209E+03  0.16756349768E+02  0.26456991173E+03  0.79692753769E+02 0.  0.
         13    1    3    3    0    0 -0.39578444119E+02 -0.12378460949E+03  0.17308553384E+03  0.21644326003E+03  0.00000000000E+00 0.  1.
        -13    1    3    3    0    0 -0.70260028920E+02 -0.29714280534E+02  0.14501395700E+03  0.16385499033E+03  0.00000000000E+00 0. -1.
          4    1    6    6  502    0 -0.18872592001E+03  0.10003069846E+03  0.13436026748E+02  0.21401901863E+03  0.00000000000E+00 0. -1.
          1    1    5    5  503    0  0.13612166796E+03 -0.34279163187E+02  0.63102091685E+03  0.64644533181E+03  0.00000000000E+00 0. -1.
         -2    1    5    5    0  503  0.17712880700E+03  0.39490881121E+02  0.67853123456E+03  0.70238079432E+03  0.00000000000E+00 0.  1.
         -1    1    6    6    0  502 -0.14686081913E+02  0.48256473627E+02  0.33203230205E+01  0.50550893106E+02  0.00000000000E+00 0.  1.
<mgrwt>
<rscale>  0 0.11272707E+04</rscale>
<asrwt>0</asrwt>
<pdfrwt beam="1">  1        1 0.26868178E-01 0.11272707E+04</pdfrwt>
<pdfrwt beam="2">  1       -1 0.27985401E+00 0.11272707E+04</pdfrwt>
<totfact> 0.79315870E+00</totfact>
</mgrwt>
</event>
<event>
12    1  0.2048318E-007  0.2420038E+04  0.7818608E-02  0.8432039E-01
         -1   -1    0    0    0  501 -0.00000000000E+00  0.00000000000E+00  0.55091052076E+03  0.55091052076E+03  0.00000000000E+00 0.  1.
          1   -1    0    0  501    0  0.00000000000E+00 -0.00000000000E+00 -0.26576843607E+04  0.26576843607E+04  0.00000000000E+00 0. -1.
         23    2    1    2    0    0 -0.45561096379E+03 -0.85659511564E+03 -0.14061812172E+04  0.17108441019E+04  0.91133874274E+02 0.  0.
        254    2    1    2    0    0  0.45561096379E+03  0.85659511564E+03 -0.70059262278E+03  0.14977507796E+04  0.90060581398E+03 0.  0.
        -24    2    4    4    0    0 -0.11412873583E+03  0.39733105548E+03 -0.63117044797E+03  0.75843225351E+03  0.77110393442E+02 0.  0.
         24    2    4    4    0    0  0.56973969962E+03  0.45926406015E+03 -0.69422174810E+02  0.73931852607E+03  0.79029376612E+02 0.  0.
         13    1    3    3    0    0 -0.38202149153E+03 -0.64976450755E+03 -0.11237825235E+04  0.13531524288E+04  0.00000000000E+00 0. -1.
        -13    1    3    3    0    0 -0.73589472267E+02 -0.20683060808E+03 -0.28239869364E+03  0.35769167315E+03  0.00000000000E+00 0.  1.
          4    1    6    6  502    0  0.34935211473E+03  0.28064075012E+03 -0.81100092303E+02  0.45539362717E+03  0.00000000000E+00 0. -1.
          3    1    5    5  503    0 -0.10245267322E+03  0.28299986782E+03 -0.40335656967E+03  0.50327129635E+03  0.00000000000E+00 0. -1.
         -4    1    5    5    0  503 -0.11676062609E+02  0.11433118767E+03 -0.22781387831E+03  0.25516095716E+03  0.00000000000E+00 0.  1.
         -3    1    6    6    0  502  0.22038758489E+03  0.17862331003E+03  0.11677917493E+02  0.28392489890E+03  0.00000000000E+00 0.  1.
<mgrwt>
<rscale>  0 0.24200382E+04</rscale>
<asrwt>0</asrwt>
<pdfrwt beam="1">  1        1 0.40887452E+00 0.24200382E+04</pdfrwt>
<pdfrwt beam="2">  1       -1 0.84755464E-01 0.24200382E+04</pdfrwt>
<totfact> 0.12952615E+00</totfact>
</mgrwt>
</event>
<event>
12    1  0.2048318E-007  0.5379000E+04  0.7818608E-02  0.7772562E-01
         -2   -1    0    0    0  501 -0.00000000000E+00  0.00000000000E+00  0.19003686399E+04  0.19003686399E+04  0.00000000000E+00 0.  1.
          2   -1    0    0  501    0  0.00000000000E+00 -0.00000000000E+00 -0.38063201308E+04  0.38063201308E+04  0.00000000000E+00 0. -1.
         23    2    1    2    0    0 -0.12007644789E+04  0.48231347345E+02  0.15356833987E+04  0.19520763875E+04  0.90095087320E+02 0.  0.
        254    2    1    2    0    0  0.12007644789E+04 -0.48231347345E+02 -0.34416348895E+04  0.37546123832E+04  0.89894484720E+03 0.  0.
        -24    2    4    4    0    0  0.10668104369E+04 -0.37792888581E+03 -0.25256327743E+04  0.27686794094E+04  0.76485360533E+02 0.  0.
         24    2    4    4    0    0  0.13395404204E+03  0.32969753846E+03 -0.91600211519E+03  0.98593297375E+03  0.79748363222E+02 0.  0.
         13    1    3    3    0    0 -0.47516823881E+03 -0.24936600916E+02  0.60305959002E+03  0.76817156831E+03  0.00000000000E+00 0.  1.
        -13    1    3    3    0    0 -0.72559624013E+03  0.73167948260E+02  0.93262380868E+03  0.11839048192E+04  0.00000000000E+00 0. -1.
          2    1    6    6  502    0  0.13207682364E+02 -0.39448346834E+00 -0.33432405225E+02  0.35948911107E+02  0.00000000000E+00 0. -1.
          3    1    5    5  503    0  0.74887676384E+02 -0.24501884608E+02 -0.22830929477E+03  0.24152358167E+03  0.00000000000E+00 0. -1.
         -4    1    5    5    0  503  0.99192276052E+03 -0.35342700120E+03 -0.22973234796E+04  0.25271558278E+04  0.00000000000E+00 0.  1.
         -1    1    6    6    0  502  0.12074635968E+03  0.33009202193E+03 -0.88256970997E+03  0.94998406264E+03  0.00000000000E+00 0.  1.
<mgrwt>
<rscale>  0 0.53790004E+04</rscale>
<asrwt>0</asrwt>
<pdfrwt beam="1">  1        2 0.58558771E+00 0.53790004E+04</pdfrwt>
<pdfrwt beam="2">  1       -2 0.29236441E+00 0.53790004E+04</pdfrwt>
<totfact> 0.12101014E-02</totfact>
</mgrwt>
</event>
<event>
12    1  0.2048318E-007  0.2911542E+04  0.7818608E-02  0.8269452E-01
          1   -1    0    0  501    0  0.00000000000E+00  0.00000000000E+00  0.18945843228E+04  0.18945843228E+04  0.00000000000E+00 0. -1.
         -1   -1    0    0    0  501 -0.00000000000E+00 -0.00000000000E+00 -0.11185936075E+04  0.11185936075E+04  0.00000000000E+00 0.  1.
         23    2    1    2    0    0  0.11040233194E+04 -0.60925576832E+03 -0.31811045907E+02  0.12646743694E+04  0.91264653666E+02 0.  0.
        254    2    1    2    0    0 -0.11040233194E+04  0.60925576832E+03  0.80780176115E+03  0.17485035609E+04  0.90258569465E+03 0.  0.
        -24    2    4    4    0    0 -0.97171785536E+03  0.44898738781E+03  0.99030797659E+03  0.14604806782E+04  0.80427967386E+02 0.  0.
         24    2    4    4    0    0 -0.13230546405E+03  0.16026838051E+03 -0.18250621544E+03  0.28802288276E+03  0.80361512614E+02 0.  0.
         13    1    3    3    0    0  0.73932187767E+03 -0.40678788612E+03 -0.64215083707E+02  0.84628411309E+03  0.00000000000E+00 0.  1.
        -13    1    3    3    0    0  0.36470144174E+03 -0.20246788220E+03  0.32404037801E+02  0.41839025633E+03  0.00000000000E+00 0. -1.
          4    1    6    6  502    0 -0.56812037974E+02  0.10397001956E+03 -0.14349988926E+03  0.18609027606E+03  0.00000000000E+00 0. -1.
          1    1    5    5  503    0 -0.90114186452E+03  0.41124310642E+03  0.94229146175E+03  0.13671469385E+04  0.00000000000E+00 0. -1.
         -4    1    5    5    0  503 -0.70575990843E+02  0.37744281388E+02  0.48016514836E+02  0.93333739655E+02  0.00000000000E+00 0.  1.
         -3    1    6    6    0  502 -0.75493426076E+02  0.56298360954E+02 -0.39006326177E+02  0.10193260670E+03  0.00000000000E+00 0.  1.
<mgrwt>
<rscale>  0 0.29115425E+04</rscale>
<asrwt>0</asrwt>
<pdfrwt beam="1">  1        1 0.29147451E+00 0.29115425E+04</pdfrwt>
<pdfrwt beam="2">  1       -1 0.17209132E+00 0.29115425E+04</pdfrwt>
<totfact> 0.71566357E-01</totfact>
</mgrwt>
</event>
<event>
12    1  0.2048318E-007  0.2573104E+04  0.7818608E-02  0.8377395E-01
         -1   -1    0    0    0  501 -0.00000000000E+00  0.00000000000E+00  0.11122301888E+04  0.11122301888E+04  0.00000000000E+00 0.  1.
          1   -1    0    0  501    0  0.00000000000E+00 -0.00000000000E+00 -0.14881957471E+04  0.14881957471E+04  0.00000000000E+00 0. -1.
         23    2    1    2    0    0 -0.38182784091E+03  0.10681917429E+04 -0.19384590963E+03  0.11548277083E+04  0.96045299739E+02 0.  0.
        254    2    1    2    0    0  0.38182784091E+03 -0.10681917429E+04 -0.18211964873E+03  0.14455982276E+04  0.87735999988E+03 0.  0.
        -24    2    4    4    0    0 -0.16234485575E+03 -0.14249336256E+03 -0.28285796692E+03  0.36410362714E+03  0.76828453601E+02 0.  0.
         24    2    4    4    0    0  0.54417269666E+03 -0.92569838032E+03  0.10073831819E+03  0.10814946004E+04  0.80255509836E+02 0.  0.
         13    1    3    3    0    0 -0.22515213775E+03  0.65220560770E+03 -0.16470120471E+03  0.70936036447E+03  0.00000000000E+00 0. -1.
        -13    1    3    3    0    0 -0.15667570316E+03  0.41598613518E+03 -0.29144704917E+02  0.44546734386E+03  0.00000000000E+00 0.  1.
          4    1    6    6  502    0  0.44609664479E+03 -0.79283688761E+03  0.10852510977E+03  0.91617151576E+03  0.00000000000E+00 0. -1.
          1    1    5    5  503    0 -0.89548479473E+02 -0.87047034473E+02 -0.22036843065E+03  0.25329500906E+03  0.00000000000E+00 0. -1.
         -2    1    5    5    0  503 -0.72796376274E+02 -0.55446328091E+02 -0.62489536267E+02  0.11080861808E+03  0.00000000000E+00 0.  1.
         -3    1    6    6    0  502  0.98076051868E+02 -0.13286149272E+03 -0.77867915790E+01  0.16532308465E+03  0.00000000000E+00 0.  1.
<mgrwt>
<rscale>  0 0.25731041E+04</rscale>
<asrwt>0</asrwt>
<pdfrwt beam="1">  1        1 0.22895319E+00 0.25731041E+04</pdfrwt>
<pdfrwt beam="2">  1       -1 0.17111234E+00 0.25731041E+04</pdfrwt>
<totfact> 0.14211624E+00</totfact>
</mgrwt>
</event>
<event>
12    1  0.2048318E-007  0.1296136E+04  0.7818608E-02  0.9032635E-01
         -3   -1    0    0    0  501 -0.00000000000E+00  0.00000000000E+00  0.13933142669E+04  0.13933142669E+04  0.00000000000E+00 0.  1.
          3   -1    0    0  501    0  0.00000000000E+00 -0.00000000000E+00 -0.30143377516E+03  0.30143377516E+03  0.00000000000E+00 0. -1.
         23    2    1    2    0    0 -0.13226510588E+03  0.28055765272E+03  0.40463327983E+03  0.51766349275E+03  0.89670206007E+02 0.  0.
        254    2    1    2    0    0  0.13226510588E+03 -0.28055765272E+03  0.68724721189E+03  0.11770845493E+04  0.90388752133E+03 0.  0.
        -24    2    4    4    0    0 -0.21408264861E+03  0.64648041880E+02  0.63582536283E+03  0.67891415545E+03  0.81484898590E+02 0.  0.
         24    2    4    4    0    0  0.34634775449E+03 -0.34520569460E+03  0.51421849060E+02  0.49817039385E+03  0.80036217572E+02 0.  0.
         11    1    3    3    0    0 -0.13197703038E+03  0.27104861412E+03  0.34881039765E+03  0.46103577006E+03  0.00000000000E+00 0. -1.
        -11    1    3    3    0    0 -0.28807550625E+00  0.95090386027E+01  0.55822882178E+02  0.56627722692E+02  0.00000000000E+00 0.  1.
          4    1    6    6  502    0 -0.40463372478E+01 -0.75570525258E+00 -0.18675375214E+00  0.41205354647E+01  0.00000000000E+00 0. -1.
          1    1    5    5  503    0 -0.58781712535E+02 -0.15279147359E+02  0.21149013852E+03  0.22003822569E+03  0.00000000000E+00 0. -1.
         -2    1    5    5    0  503 -0.15530093607E+03  0.79927189239E+02  0.42433522431E+03  0.45887592976E+03  0.00000000000E+00 0.  1.
         -3    1    6    6    0  502  0.35039409174E+03 -0.34444998935E+03  0.51608602813E+02  0.49404985839E+03  0.00000000000E+00 0.  1.
<mgrwt>
<rscale>  0 0.12961358E+04</rscale>
<asrwt>0</asrwt>
<pdfrwt beam="1">  1        3 0.46374428E-01 0.12961358E+04</pdfrwt>
<pdfrwt beam="2">  1       -3 0.21435604E+00 0.12961358E+04</pdfrwt>
<totfact> 0.14179193E+00</totfact>
</mgrwt>
</event>
<event>
12    1  0.2048318E-007  0.1502808E+04  0.7818608E-02  0.8882587E-01
         -2   -1    0    0    0  501 -0.00000000000E+00  0.00000000000E+00  0.99495354586E+03  0.99495354586E+03  0.00000000000E+00 0.  1.
          2   -1    0    0  501    0  0.00000000000E+00 -0.00000000000E+00 -0.56747202971E+03  0.56747202971E+03  0.00000000000E+00 0. -1.
         23    2    1    2    0    0  0.42287618659E+03 -0.17407566535E+03  0.27178097345E+03  0.53959967932E+03  0.90422950277E+02 0.  0.
        254    2    1    2    0    0 -0.42287618659E+03  0.17407566535E+03  0.15570054270E+03  0.10228258963E+04  0.90155618161E+03 0.  0.
        -24    2    4    4    0    0  0.20561474575E+03  0.38596105651E+02 -0.18532277295E+03  0.29082471477E+03  0.80420156101E+02 0.  0.
         24    2    4    4    0    0 -0.62849093233E+03  0.13547955970E+03  0.34102331565E+03  0.73200118148E+03  0.78570126380E+02 0.  0.
         13    1    3    3    0    0  0.35302716102E+03 -0.14807307396E+03  0.26320518339E+03  0.46457591437E+03  0.00000000000E+00 0.  1.
        -13    1    3    3    0    0  0.69849025566E+02 -0.26002591393E+02  0.85757900681E+01  0.75023764948E+02  0.00000000000E+00 0. -1.
          2    1    6    6  502    0 -0.15245377191E+03  0.66080140063E+02  0.75330893315E+02  0.18243760842E+03  0.00000000000E+00 0. -1.
          1    1    5    5  503    0  0.96082286997E+02 -0.19249934696E+02 -0.10257589538E+03  0.14185972005E+03  0.00000000000E+00 0. -1.
         -2    1    5    5    0  503  0.10953245875E+03  0.57846040347E+02 -0.82746877568E+02  0.14896499472E+03  0.00000000000E+00 0.  1.
         -1    1    6    6    0  502 -0.47603716042E+03  0.69399419638E+02  0.26569242233E+03  0.54956357306E+03  0.00000000000E+00 0.  1.
<mgrwt>
<rscale>  0 0.15028084E+04</rscale>
<asrwt>0</asrwt>
<pdfrwt beam="1">  1        2 0.87303389E-01 0.15028084E+04</pdfrwt>
<pdfrwt beam="2">  1       -2 0.15306978E+00 0.15028084E+04</pdfrwt>
<totfact> 0.14532861E+01</totfact>
</mgrwt>
</event>
<event>
12    1  0.2048318E-007  0.1467329E+04  0.7818608E-02  0.8906474E-01
         -2   -1    0    0    0  501 -0.00000000000E+00  0.00000000000E+00  0.63693053088E+03  0.63693053088E+03  0.00000000000E+00 0.  1.
          2   -1    0    0  501    0  0.00000000000E+00 -0.00000000000E+00 -0.84509022145E+03  0.84509022145E+03  0.00000000000E+00 0. -1.
         23    2    1    2    0    0 -0.22091518140E+03 -0.39505242456E+03 -0.70654368207E+02  0.46670332589E+03  0.89162879766E+02 0.  0.
        254    2    1    2    0    0  0.22091518140E+03  0.39505242456E+03 -0.13750532236E+03  0.10153174264E+04  0.89838289567E+03 0.  0.
        -24    2    4    4    0    0  0.51470467891E+03  0.14523318790E+03 -0.26389526913E+03  0.60168643979E+03  0.79826520610E+02 0.  0.
         24    2    4    4    0    0 -0.29378949751E+03  0.24981923666E+03  0.12638994677E+03  0.41363098665E+03  0.79964083320E+02 0.  0.
         11    1    3    3    0    0 -0.21768144989E+03 -0.33003589226E+03 -0.50580366782E+02  0.39858158175E+03  0.00000000000E+00 0.  1.
        -11    1    3    3    0    0 -0.32337315102E+01 -0.65016532300E+02 -0.20074001425E+02  0.68121744143E+02  0.00000000000E+00 0. -1.
          4    1    6    6  502    0 -0.19809787593E+03  0.13882528050E+03  0.45170201777E+02  0.24608042198E+03  0.00000000000E+00 0. -1.
          1    1    5    5  503    0  0.48451765642E+03  0.11666378559E+03 -0.23450204256E+03  0.55078036114E+03  0.00000000000E+00 0. -1.
         -2    1    5    5    0  503  0.30187022489E+02  0.28569402307E+02 -0.29393226566E+02  0.50906078644E+02  0.00000000000E+00 0.  1.
         -3    1    6    6    0  502 -0.95691621579E+02  0.11099395616E+03  0.81219744992E+02  0.16755056467E+03  0.00000000000E+00 0.  1.
<mgrwt>
<rscale>  0 0.14673292E+04</rscale>
<asrwt>0</asrwt>
<pdfrwt beam="1">  1        2 0.13001388E+00 0.14673292E+04</pdfrwt>
<pdfrwt beam="2">  1       -2 0.97989313E-01 0.14673292E+04</pdfrwt>
<totfact> 0.26858171E+01</totfact>
</mgrwt>
</event>
<event>
12    1  0.2048318E-007  0.1633935E+04  0.7818608E-02  0.8799968E-01
          1   -1    0    0  501    0  0.00000000000E+00  0.00000000000E+00  0.15377821707E+04  0.15377821707E+04  0.00000000000E+00 0. -1.
         -1   -1    0    0    0  501 -0.00000000000E+00 -0.00000000000E+00 -0.43402487152E+03  0.43402487152E+03  0.00000000000E+00 0.  1.
         23    2    1    2    0    0 -0.39750693375E+03 -0.23625708679E+03 -0.13901720140E+02  0.47214114673E+03  0.94312412616E+02 0.  0.
        254    2    1    2    0    0  0.39750693375E+03  0.23625708679E+03  0.11176590193E+04  0.14996658955E+04  0.88657032500E+03 0.  0.
        -24    2    4    4    0    0  0.27916119996E+03 -0.19488429959E+03  0.95460948101E+03  0.10167427410E+04  0.81090532103E+02 0.  0.
         24    2    4    4    0    0  0.11834573379E+03  0.43114138638E+03  0.16304953829E+03  0.48292315445E+03  0.82103674755E+02 0.  0.
         13    1    3    3    0    0 -0.18041230203E+03 -0.91622499878E+02  0.38741425889E+02  0.20601985168E+03  0.00000000000E+00 0. -1.
        -13    1    3    3    0    0 -0.21709463172E+03 -0.14463458691E+03 -0.52643146029E+02  0.26612129505E+03  0.00000000000E+00 0.  1.
          4    1    6    6  502    0  0.83795560514E+02  0.33546522850E+03  0.16040068961E+03  0.38116531417E+03  0.00000000000E+00 0. -1.
          1    1    5    5  503    0  0.27943250820E+03 -0.20035945773E+03  0.92992752726E+03  0.99145935111E+03  0.00000000000E+00 0. -1.
         -2    1    5    5    0  503 -0.27130823479E+00  0.54751581379E+01  0.24681953747E+02  0.25283389914E+02  0.00000000000E+00 0.  1.
         -3    1    6    6    0  502  0.34550173273E+02  0.95676157879E+02  0.26488486850E+01  0.10175784028E+03  0.00000000000E+00 0.  1.
<mgrwt>
<rscale>  0 0.16339348E+04</rscale>
<asrwt>0</asrwt>
<pdfrwt beam="1">  1        1 0.23658187E+00 0.16339348E+04</pdfrwt>
<pdfrwt beam="2">  1       -1 0.66773058E-01 0.16339348E+04</pdfrwt>
<totfact> 0.13391158E+01</totfact>
</mgrwt>
</event>
<event>
12    1  0.2048318E-007  0.3576981E+04  0.7818608E-02  0.8095785E-01
          1   -1    0    0  501    0  0.00000000000E+00  0.00000000000E+00  0.55559130114E+03  0.55559130114E+03  0.00000000000E+00 0. -1.
         -1   -1    0    0    0  501 -0.00000000000E+00 -0.00000000000E+00 -0.57572855622E+04  0.57572855622E+04  0.00000000000E+00 0.  1.
         23    2    1    2    0    0 -0.11319195057E+04 -0.75471242516E+03 -0.71691217910E+03  0.15405071147E+04  0.91468495500E+02 0.  0.
        254    2    1    2    0    0  0.11319195057E+04  0.75471242516E+03 -0.44847820820E+04  0.47723697487E+04  0.90078303897E+03 0.  0.
        -24    2    4    4    0    0  0.78951967971E+03 -0.62498261006E+01 -0.21432825898E+04  0.22853584394E+04  0.76305646921E+02 0.  0.
         24    2    4    4    0    0  0.34239982601E+03  0.76096225126E+03 -0.23414994922E+04  0.24870113093E+04  0.79398942459E+02 0.  0.
         11    1    3    3    0    0 -0.22539269463E+03 -0.18577110868E+03 -0.18022318810E+03  0.34321009476E+03  0.00000000000E+00 0.  1.
        -11    1    3    3    0    0 -0.90652681110E+03 -0.56894131648E+03 -0.53668899100E+03  0.11972970199E+04  0.00000000000E+00 0. -1.
          4    1    6    6  502    0  0.13274404970E+03  0.37211020809E+03 -0.10347788765E+04  0.11076345575E+04  0.00000000000E+00 0. -1.
          3    1    5    5  503    0  0.20860963718E+03  0.23530511003E+02 -0.50601070164E+03  0.54783071823E+03  0.00000000000E+00 0. -1.
         -4    1    5    5    0  503  0.58091004254E+03 -0.29780337104E+02 -0.16372718882E+04  0.17375277212E+04  0.00000000000E+00 0.  1.
         -3    1    6    6    0  502  0.20965577632E+03  0.38885204317E+03 -0.13067206157E+04  0.13793767518E+04  0.00000000000E+00 0.  1.
<mgrwt>
<rscale>  0 0.35769807E+04</rscale>
<asrwt>0</asrwt>
<pdfrwt beam="1">  1        1 0.85475584E-01 0.35769807E+04</pdfrwt>
<pdfrwt beam="2">  1       -1 0.88573625E+00 0.35769807E+04</pdfrwt>
<totfact> 0.38520201E-04</totfact>
</mgrwt>
</event>
<event>
12    1  0.2048318E-007  0.1834922E+04  0.7818608E-02  0.8687946E-01
          2   -1    0    0  501    0  0.00000000000E+00  0.00000000000E+00  0.38484672277E+03  0.38484672277E+03  0.00000000000E+00 0. -1.
         -2   -1    0    0    0  501 -0.00000000000E+00 -0.00000000000E+00 -0.21871942595E+04  0.21871942595E+04  0.00000000000E+00 0.  1.
         23    2    1    2    0    0  0.61979014893E+03  0.29614584764E+03 -0.56428531572E+03  0.89372615504E+03  0.92121283514E+02 0.  0.
        254    2    1    2    0    0 -0.61979014893E+03 -0.29614584764E+03 -0.12380622210E+04  0.16783148272E+04  0.90116613587E+03 0.  0.
        -24    2    4    4    0    0 -0.25986537452E+03 -0.40296392412E+03 -0.11976751407E+04  0.12925136381E+04  0.79093773094E+02 0.  0.
         24    2    4    4    0    0 -0.35992477442E+03  0.10681807648E+03 -0.40387080353E+02  0.38580118919E+03  0.79091697558E+02 0.  0.
         11    1    3    3    0    0  0.47808071678E+03  0.25318360903E+03 -0.48064036989E+03  0.72365618687E+03  0.00000000000E+00 0.  1.
        -11    1    3    3    0    0  0.14170943216E+03  0.42962238611E+02 -0.83644945827E+02  0.17006996816E+03  0.00000000000E+00 0. -1.
          2    1    6    6  502    0 -0.34967533051E+03  0.11722042303E+03 -0.35999412447E+02  0.37055285998E+03  0.00000000000E+00 0. -1.
          3    1    5    5  503    0 -0.23009579083E+03 -0.29795297547E+03 -0.94882721713E+03  0.10207806505E+04  0.00000000000E+00 0. -1.
         -4    1    5    5    0  503 -0.29769583683E+02 -0.10501094865E+03 -0.24884792355E+03  0.27173298752E+03  0.00000000000E+00 0.  1.
         -1    1    6    6    0  502 -0.10249443909E+02 -0.10402346552E+02 -0.43876679057E+01  0.15248329216E+02  0.00000000000E+00 0.  1.
<mgrwt>
<rscale>  0 0.18349218E+04</rscale>
<asrwt>0</asrwt>
<pdfrwt beam="1">  1        2 0.59207189E-01 0.18349218E+04</pdfrwt>
<pdfrwt beam="2">  1       -2 0.33649142E+00 0.18349218E+04</pdfrwt>
<totfact> 0.14832814E+00</totfact>
</mgrwt>
</event>
<event>
12    1  0.2048318E-007  0.1993598E+04  0.7818608E-02  0.8609620E-01
          2   -1    0    0  501    0  0.00000000000E+00  0.00000000000E+00  0.21303377001E+04  0.21303377001E+04  0.00000000000E+00 0. -1.
         -2   -1    0    0    0  501 -0.00000000000E+00 -0.00000000000E+00 -0.46640859340E+03  0.46640859340E+03  0.00000000000E+00 0.  1.
         23    2    1    2    0    0 -0.18446185401E+02  0.35153718167E+03 -0.25756193099E+03  0.44563597678E+03  0.91294160008E+02 0.  0.
        254    2    1    2    0    0  0.18446185401E+02 -0.35153718167E+03  0.19214910377E+04  0.21511103167E+04  0.90068259388E+03 0.  0.
        -24    2    4    4    0    0  0.40441498607E+03 -0.29263178897E+03  0.14383349256E+04  0.15246092857E+04  0.80257528242E+02 0.  0.
         24    2    4    4    0    0 -0.38596880067E+03 -0.58905392696E+02  0.48315611204E+03  0.62650103102E+03  0.81375382551E+02 0.  0.
         13    1    3    3    0    0  0.14742509181E+02  0.24405420983E+03 -0.21427172296E+03  0.32510332230E+03  0.00000000000E+00 0.  1.
        -13    1    3    3    0    0 -0.33188694581E+02  0.10748297184E+03 -0.43290208032E+02  0.12053265447E+03  0.00000000000E+00 0. -1.
          2    1    6    6  502    0 -0.11336411611E+03 -0.12997575976E+02  0.20328174633E+03  0.23311762738E+03  0.00000000000E+00 0. -1.
          1    1    5    5  503    0  0.21941551024E+02 -0.43625532983E+02  0.15723568118E+03  0.16464409563E+03  0.00000000000E+00 0. -1.
         -2    1    5    5    0  503  0.38247343504E+03 -0.24900625599E+03  0.12810992444E+04  0.13599651900E+04  0.00000000000E+00 0.  1.
         -1    1    6    6    0  502 -0.27260468455E+03 -0.45907816720E+02  0.27987436571E+03  0.39338340364E+03  0.00000000000E+00 0.  1.
<mgrwt>
<rscale>  0 0.19935976E+04</rscale>
<asrwt>0</asrwt>
<pdfrwt beam="1">  1        2 0.32774425E+00 0.19935976E+04</pdfrwt>
<pdfrwt beam="2">  1       -2 0.71755170E-01 0.19935976E+04</pdfrwt>
<totfact> 0.92476054E+00</totfact>
</mgrwt>
</event>
<event>
12    1  0.2048318E-007  0.1168940E+04  0.7818608E-02  0.9140486E-01
          2   -1    0    0  501    0  0.00000000000E+00  0.00000000000E+00  0.17588763491E+04  0.17588763491E+04  0.00000000000E+00 0. -1.
         -2   -1    0    0    0  501 -0.00000000000E+00 -0.00000000000E+00 -0.19421777734E+03  0.19421777734E+03  0.00000000000E+00 0.  1.
         23    2    1    2    0    0  0.65027128325E+02  0.15143631829E+03  0.58052488659E+03  0.61037006498E+03  0.91547727185E+02 0.  0.
        254    2    1    2    0    0 -0.65027128325E+02 -0.15143631829E+03  0.98413368513E+03  0.13427240614E+04  0.89845829564E+03 0.  0.
        -24    2    4    4    0    0  0.38114018714E+02 -0.36211776856E+03  0.50935603796E+02  0.37638650164E+03  0.80563056965E+02 0.  0.
         24    2    4    4    0    0 -0.10314114704E+03  0.21068145027E+03  0.93319808133E+03  0.96633755979E+03  0.89021630829E+02 0.  0.
         13    1    3    3    0    0  0.68000539697E+02  0.16057071406E+03  0.50546434749E+03  0.53469732952E+03  0.00000000000E+00 0.  1.
        -13    1    3    3    0    0 -0.29734113722E+01 -0.91343957700E+01  0.75060539097E+02  0.75672735453E+02  0.00000000000E+00 0. -1.
          2    1    6    6  502    0 -0.22734582472E+01 -0.30804915166E+01  0.10502574530E+03  0.10509550521E+03  0.00000000000E+00 0. -1.
          1    1    5    5  503    0  0.48749092613E+01 -0.85271815567E+02  0.47076444534E+02  0.97525580749E+02  0.00000000000E+00 0. -1.
         -2    1    5    5    0  503  0.33239109452E+02 -0.27684595300E+03  0.38591592619E+01  0.27886092089E+03  0.00000000000E+00 0.  1.
         -1    1    6    6    0  502 -0.10086768879E+03  0.21376194179E+03  0.82817233603E+03  0.86124205457E+03  0.00000000000E+00 0.  1.
<mgrwt>
<rscale>  0 0.11689398E+04</rscale>
<asrwt>0</asrwt>
<pdfrwt beam="1">  1        2 0.27059635E+00 0.11689398E+04</pdfrwt>
<pdfrwt beam="2">  1       -2 0.29879659E-01 0.11689398E+04</pdfrwt>
<totfact> 0.92913081E+01</totfact>
</mgrwt>
</event>
<event>
12    1  0.2388355E-007  0.2294349E+04  0.7818608E-02  0.8480152E-01
          2   -1    0    0  501    0  0.00000000000E+00  0.00000000000E+00  0.17793898183E+04  0.17793898183E+04  0.00000000000E+00 0. -1.
         -2   -1    0    0    0  501 -0.00000000000E+00 -0.00000000000E+00 -0.73958475546E+03  0.73958475546E+03  0.00000000000E+00 0.  1.
         23    2    1    2    0    0  0.17900909973E+03  0.89126077744E+03  0.80348005697E+03  0.12166857677E+04  0.91400350726E+02 0.  0.
        254    2    1    2    0    0 -0.17900909973E+03 -0.89126077744E+03  0.23632500592E+03  0.13022888061E+04  0.90206241191E+03 0.  0.
        -24    2    4    4    0    0  0.28565061514E+03 -0.36702451906E+03 -0.15232276362E+03  0.49730834582E+03  0.88374741785E+02 0.  0.
         24    2    4    4    0    0 -0.46465971487E+03 -0.52423625838E+03  0.38864776954E+03  0.80498046031E+03  0.78829864277E+02 0.  0.
         13    1    3    3    0    0  0.10101718206E+03  0.58572052949E+03  0.57763207398E+03  0.82881350293E+03  0.00000000000E+00 0. -1.
        -13    1    3    3    0    0  0.77991917667E+02  0.30554024795E+03  0.22584798299E+03  0.38787226474E+03  0.00000000000E+00 0.  1.
          2    1    6    6  502    0 -0.29388672846E+03 -0.31188343670E+03  0.19581653326E+03  0.47115263127E+03  0.00000000000E+00 0. -1.
          1    1    5    5  503    0  0.24673775709E+03 -0.26979633597E+03 -0.94261645380E+02  0.37756435407E+03  0.00000000000E+00 0. -1.
         -2    1    5    5    0  503  0.38912858051E+02 -0.97228183092E+02 -0.58061118241E+02  0.11974399175E+03  0.00000000000E+00 0.  1.
         -1    1    6    6    0  502 -0.17077298641E+03 -0.21235282167E+03  0.19283123628E+03  0.33382782905E+03  0.00000000000E+00 0.  1.
<mgrwt>
<rscale>  0 0.22943492E+04</rscale>
<asrwt>0</asrwt>
<pdfrwt beam="1">  1        2 0.27375228E+00 0.22943492E+04</pdfrwt>
<pdfrwt beam="2">  1       -2 0.11378227E+00 0.22943492E+04</pdfrwt>
<totfact> 0.48632460E+00</totfact>
</mgrwt>
</event>
<event>
12    1  0.2048318E-007  0.2261763E+04  0.7818608E-02  0.8493152E-01
          2   -1    0    0  501    0  0.00000000000E+00  0.00000000000E+00  0.10931142143E+04  0.10931142143E+04  0.00000000000E+00 0.  1.
         -2   -1    0    0    0  501 -0.00000000000E+00 -0.00000000000E+00 -0.11699540778E+04  0.11699540778E+04  0.00000000000E+00 0. -1.
         23    2    1    2    0    0 -0.48538761139E+03 -0.70593370709E+03  0.37651408336E+03  0.94015571353E+03  0.90478608738E+02 0.  0.
        254    2    1    2    0    0  0.48538761139E+03  0.70593370709E+03 -0.45335394681E+03  0.13229125786E+04  0.90034679843E+03 0.  0.
        -24    2    4    4    0    0 -0.23910261047E+02  0.63487495180E+03 -0.48271670809E+03  0.80180563317E+03  0.78987012276E+02 0.  0.
         24    2    4    4    0    0  0.50929787243E+03  0.71058755287E+02  0.29362761288E+02  0.52110694543E+03  0.79098718425E+02 0.  0.
         11    1    3    3    0    0 -0.17356787894E+03 -0.32205194639E+03  0.18317375333E+03  0.40914042660E+03  0.00000000000E+00 0. -1.
        -11    1    3    3    0    0 -0.31181973245E+03 -0.38388176069E+03  0.19334033003E+03  0.53101528693E+03  0.00000000000E+00 0.  1.
          2    1    6    6  502    0  0.49940585811E+03  0.77277209689E+02  0.37699268172E+02  0.50675360193E+03  0.00000000000E+00 0. -1.
          3    1    5    5  503    0 -0.11398899474E+02  0.60345132741E+03 -0.43800652789E+03  0.74574335929E+03  0.00000000000E+00 0. -1.
         -4    1    5    5    0  503 -0.12511361573E+02  0.31423624392E+02 -0.44710180206E+02  0.56062273878E+02  0.00000000000E+00 0.  1.
         -1    1    6    6    0  502  0.98920143251E+01 -0.62184544016E+01 -0.83365068833E+01  0.14353343498E+02  0.00000000000E+00 0.  1.
<mgrwt>
<rscale>  0 0.22617634E+04</rscale>
<asrwt>0</asrwt>
<pdfrwt beam="1">  1        2 0.16817142E+00 0.22617634E+04</pdfrwt>
<pdfrwt beam="2">  1       -2 0.17999293E+00 0.22617634E+04</pdfrwt>
<totfact> 0.36281765E+00</totfact>
</mgrwt>
</event>
