<LesHouchesEvents version="3.0">
  <!--
  <scalesfunctionalform>
    muR  H_T/2 := sum_i mT(i)/2, i=final state
    muF1 H_T/2 := sum_i mT(i)/2, i=final state
    muF2 H_T/2 := sum_i mT(i)/2, i=final state
    QES  H_T/2 := sum_i mT(i)/2, i=final state
  </scalesfunctionalform>
HERWIG6   
  -->
  <header>
      187
  </header>
  <init>
   2212   2212 0.65000000D+04 0.65000000D+04 -1 -1   244800   244800 -4   1
 0.48791054D-03 0.19716095D-05 0.28248871D-05     66
  </init>
  <event>
  8     66 0.28248871E-05 0.41015179E+03 0.75467711E-02 0.90096917E-01
       -2 -1    0    0    0  501 0.00000000E+00 0.00000000E+00 0.14435852E+03 0.14435887E+03 0.32000000E+00 0.0000E+00 0.9000E+01
        2 -1    0    0  501    0 0.00000000E+00 0.00000000E+00 -.22000036E+04 0.22000036E+04 0.32000000E+00 0.0000E+00 0.9000E+01
       25  2    1    2    0    0 -.50271448E+03 -.12214336E+03 -.11716392E+04 0.13156720E+04 0.30102075E+03 0.0000E+00 0.0000E+00
       23  2    1    2    0    0 0.50271448E+03 0.12214336E+03 -.88400592E+03 0.10286906E+04 0.95377886E+02 0.0000E+00 0.0000E+00
       23  1    3    3    0    0 -.38379126E+03 -.15478884E+03 -.68541781E+03 0.80583382E+03 0.91188000E+02 0.0000E+00 0.9000E+01
      -13  1    4    4    0    0 0.10609129E+03 0.37263482E+01 -.24906146E+03 0.27074134E+03 0.10565837E+00 0.0000E+00 0.9000E+01
       13  1    4    4    0    0 0.39662319E+03 0.11841701E+03 -.63494446E+03 0.75794922E+03 0.10565837E+00 0.0000E+00 0.9000E+01
       23  1    3    3    0    0 -.11892322E+03 0.32645482E+02 -.48622137E+03 0.50983815E+03 0.91188000E+02 0.0000E+00 0.9000E+01
#aMCatNLO 1  0  0  2  1 0.36353334D+03 0.00000000D+00  -5  7  0 0.00000000D+00 0.00000000D+00 0.00000000D+00 0.00000000D+00 0.00000000D+00
  <mgrwgt>
 0.4507250262D-03    8    2    0
 0.563550979123832D+03 0.000000000000000D+00 0.000000000000000D+00 0.563550979123832D+03
 0.563550979123832D+03 0.000000000000000D+00 0.000000000000000D+00 -.563550979123832D+03
 0.426040281090930D+03 -.383791261444690D+03 -.154788840403863D+03 0.440426190542662D+02
 0.108892931807930D+03 0.106090935446279D+03 0.372620804953342D+01 -.242590063158320D+02
 0.418496033894882D+03 0.396623544270735D+03 0.118417150802297D+03 0.616933781838253D+02
 0.173672711453921D+03 -.118923218272324D+03 0.326454815520326D+02 -.814769909222596D+02
 0.000000000000000D+00 0.000000000000000D+00 -.000000000000000D+00 -.000000000000000D+00
 0.675291026131585D+03 0.000000000000000D+00 0.000000000000000D+00 0.675291026131585D+03
 0.989474078107841D+03 0.000000000000000D+00 0.000000000000000D+00 -.989474078107841D+03
 0.491516477984411D+03 -.478754729287002D+03 -.461232444475708D+02 0.440426190542662D+02
 0.928049221892214D+02 0.852160113803021D+02 0.276131417906058D+02 -.242590063158320D+02
 0.384305068009992D+03 0.313536829611969D+03 0.213492315700841D+03 0.616933781838253D+02
 0.215651925323240D+03 -.159216766610484D+03 0.787529220535782D+02 -.814769909222596D+02
 0.480486710732562D+03 0.239218654905214D+03 -.273735135097454D+03 -.314183051976256D+03
0.235122595893D-04 0.000000000000D+00 0.000000000000D+00 0.347873762415D-07 0.000000000000D+00  7 -2 2 23 -13 13 23 21 0 0.22209032D-01 0.33846212D+00 0.30096864D+06 0.30096864D+06 0.30096864D+06 0.10844483D+01  1  2  2  2  7  2        2 0.263732500535D-03 0.100000000000D+01
-.130508936530D-05 0.000000000000D+00 -.902932677432D-07 0.347873762415D-07 0.000000000000D+00  7 -2 2 23 -13 13 23 21 2 0.22209032D-01 0.33846212D+00 0.30096864D+06 0.30096864D+06 0.30096864D+06 0.10844483D+01  1  2  3  2  7  2        2 -.172158013547D-04 0.100000000000D+01
0.147514464046D-05 0.000000000000D+00 0.000000000000D+00 0.347873762415D-07 0.000000000000D+00  7 -2 2 23 -13 13 23 21 2 0.22209032D-01 0.33846212D+00 0.30096864D+06 0.30096864D+06 0.30096864D+06 0.10844483D+01  1  2 15  2  7  2        2 0.194590483799D-04 0.100000000000D+01
0.336877493643D-05 0.000000000000D+00 0.000000000000D+00 0.347873762415D-07 0.000000000000D+00  7 -2 2 23 -13 13 23 21 2 0.22209032D-01 0.60646186D+00 0.57884671D+06 0.57884671D+06 0.57884671D+06 0.10640448D+01  1  2 12  2  7  2        2 0.293668441612D-05 0.100000000000D+01
-.129343183008D-04 0.000000000000D+00 -.580981009877D-05 0.347873762415D-07 0.000000000000D+00  7 -2 2 23 -13 13 23 21 2 0.22209032D-01 0.61555865D+00 0.30096864D+06 0.30096864D+06 0.30096864D+06 0.10844483D+01  1  2  5  2  7  2        2 -.110306164256D-04 0.100000000000D+01
0.146193637901D-04 0.000000000000D+00 0.490581898938D-05 0.347873762415D-07 0.000000000000D+00  7 -2 2 23 -13 13 23 21 2 0.22209032D-01 0.33846212D+00 0.30096864D+06 0.30096864D+06 0.30096864D+06 0.10844483D+01  1  2  6  2  7  2        2 0.192848144835D-03 0.100000000000D+01
0.215709818749D-06 0.000000000000D+00 0.000000000000D+00 0.347873762415D-07 0.000000000000D+00  7 -2 21 23 -13 13 23 -2 2 0.22209032D-01 0.60646186D+00 0.57884671D+06 0.57884671D+06 0.57884671D+06 0.10640448D+01  1  2 12  4  7  2        2 0.373645552153D-08 0.100000000000D+01
-.532982187703D-06 0.000000000000D+00 -.380275745474D-06 0.347873762415D-07 0.000000000000D+00  7 -2 21 23 -13 13 23 -2 2 0.22209032D-01 0.61555865D+00 0.30096864D+06 0.30096864D+06 0.30096864D+06 0.10844483D+01  1  2  5  4  7  2        2 -.867062197655D-08 0.100000000000D+01
  </mgrwgt>
  </event>
  <event>
  9     66 -.28248871E-05 0.33210238E+03 0.75467711E-02 0.99366580E-01
       -4 -1    0    0    0  501 0.00000000E+00 0.00000000E+00 0.39210607E+03 0.39210913E+03 0.15500000E+01 0.0000E+00 0.9000E+01
        4 -1    0    0  502    0 0.00000000E+00 0.00000000E+00 -.38396635E+03 0.38396948E+03 0.15500000E+01 0.0000E+00 0.9000E+01
       25  2    1    2    0    0 0.26740670E+03 0.11664921E+03 -.68437065E+02 0.43383803E+03 0.31371710E+03 0.0000E+00 0.0000E+00
       23  2    1    2    0    0 -.26785469E+03 -.10916241E+03 0.98923440E+02 0.31865694E+03 0.89965715E+02 0.0000E+00 0.0000E+00
       23  1    3    3    0    0 0.51842798E+02 -.10597249E+02 0.76776015E+02 0.13042157E+03 0.91188000E+02 0.0000E+00 0.9000E+01
      -13  1    4    4    0    0 -.22494667E+03 -.73353823E+02 0.11120676E+03 0.26143593E+03 0.10565837E+00 0.0000E+00 0.9000E+01
       13  1    4    4    0    0 -.42908017E+02 -.35808588E+02 -.12283321E+02 0.57221011E+02 0.10565837E+00 0.0000E+00 0.9000E+01
       23  1    3    3    0    0 0.21556390E+03 0.12724646E+03 -.14521308E+03 0.30341646E+03 0.91188000E+02 0.0000E+00 0.9000E+01
       21  1    1    2  502  501 0.44799115E+00 -.74868022E+01 -.22346658E+02 0.23583650E+02 0.75000000E+00 0.0000E+00 0.9000E+01
#aMCatNLO 2  0  0  2  1 0.75001935D+01 0.00000000D+00  -5  7  0 0.00000000D+00 0.00000000D+00 0.00000000D+00 0.00000000D+00 0.00000000D+00
  <mgrwgt>
 -.7170000261D-05    5    2    0
 0.375919872974293D+03 0.000000000000000D+00 0.000000000000000D+00 0.375919872974293D+03
 0.375919872974293D+03 0.000000000000000D+00 0.000000000000000D+00 -.375919872974293D+03
 0.127558453662198D+03 0.519187606322077D+02 -.118667309738279D+02 0.715508962005476D+02
 0.257751135184120D+03 -.224793527480338D+03 -.759174578164023D+02 0.100697851468361D+03
 0.580996933069416D+02 -.428732470761059D+02 -.363854146550907D+02 -.146137143768773D+02
 0.308430463795327D+03 0.215748013924236D+03 0.124169603445321D+03 -.157635033292031D+03
 0.000000000000000D+00 0.000000000000000D+00 -.000000000000000D+00 -.000000000000000D+00
 0.376526772938087D+03 0.000000000000000D+00 0.000000000000000D+00 0.376526772938087D+03
 0.399847684930627D+03 0.000000000000000D+00 0.000000000000000D+00 -.399847684930627D+03
 0.127415695649835D+03 0.518427980877154D+02 -.105972493254675D+02 0.715508962005476D+02
 0.257141921312139D+03 -.224946925724114D+03 -.733538752420360D+02 0.100697851468361D+03
 0.577658055313214D+02 -.429077660190434D+02 -.358085360779872D+02 -.146137143768773D+02
 0.309553732692710D+03 0.215563902506871D+03 0.127246462799632D+03 -.157635033292031D+03
 0.244973026827091D+02 0.447991148571313D+00 -.748680215414174D+01 -.233209119925403D+02
-.137297046343D-03 0.000000000000D+00 0.000000000000D+00 0.129762122340D-08 0.000000000000D+00  7 -4 4 23 -13 13 23 21 2 0.60226337D-01 0.59114563D-01 0.11283938D+06 0.11283938D+06 0.11283938D+06 0.11174423D+01  1  2 13  2  7  2        4 -.272413872367D-03 0.100000000000D+01
-.548723167809D-04 0.000000000000D+00 0.000000000000D+00 0.129762122340D-08 0.000000000000D+00  7 -4 4 23 -13 13 23 21 2 0.60226337D-01 0.55536359D-01 0.11029199D+06 0.11029199D+06 0.11029199D+06 0.11182474D+01  1  2  8  2  7  2        4 -.125973140649D-03 0.100000000000D+01
-.259135782796D-04 0.000000000000D+00 0.000000000000D+00 0.129762122340D-08 0.000000000000D+00  7 -4 4 23 -13 13 23 21 2 0.60226337D-01 0.59120137D-01 0.11029199D+06 0.11029199D+06 0.11029199D+06 0.11182474D+01  1  2  9  2  7  2        4 -.514561422594D-04 0.100000000000D+01
0.258629936914D-04 0.000000000000D+00 0.000000000000D+00 0.129762122340D-08 0.000000000000D+00  7 -4 4 23 -13 13 23 21 2 0.60226337D-01 0.55536359D-01 0.11029199D+06 0.11029199D+06 0.11029199D+06 0.11182474D+01  1  2 10  2  7  2        4 0.593749769103D-04 0.100000000000D+01
0.193585853856D-03 0.000000000000D+00 0.000000000000D+00 0.129762122340D-08 0.153913988601D-09  7 -4 4 23 -13 13 23 21 2 0.60323569D-01 0.59071324D-01 0.11283938D+06 0.11283938D+06 0.11283938D+06 0.11174423D+01  1  2  1  2  7  2        4 0.383298178104D-03 0.100000000000D+01
  </mgrwgt>
  </event>
  <event>
  8     66 0.28248871E-05 0.17613164E+03 0.75467711E-02 0.10045282E+00
       -2 -1    0    0    0  501 0.00000000E+00 0.00000000E+00 0.59359513E+03 0.59359521E+03 0.32000000E+00 0.0000E+00 0.9000E+01
        2 -1    0    0  501    0 0.00000000E+00 0.00000000E+00 -.17556930E+03 0.17556959E+03 0.32000000E+00 0.0000E+00 0.9000E+01
       25  2    1    2    0    0 0.20761633E+03 -.11387878E+03 0.30958948E+03 0.49283032E+03 0.30160099E+03 0.0000E+00 0.0000E+00
       23  2    1    2    0    0 -.20761633E+03 0.11387878E+03 0.10843634E+03 0.27633448E+03 0.92354686E+02 0.0000E+00 0.0000E+00
       23  1    3    3    0    0 0.16831739E+03 -.16155524E+03 0.28599485E+03 0.38018304E+03 0.91188000E+02 0.0000E+00 0.9000E+01
      -13  1    4    4    0    0 -.21533335E+03 0.11345926E+03 0.11187386E+03 0.26787539E+03 0.10565837E+00 0.0000E+00 0.9000E+01
       13  1    4    4    0    0 0.77170200E+01 0.41952882E+00 -.34375256E+01 0.84590867E+01 0.10565837E+00 0.0000E+00 0.9000E+01
       23  1    3    3    0    0 0.39298946E+02 0.47676460E+02 0.23594635E+02 0.11264728E+03 0.91188000E+02 0.0000E+00 0.9000E+01
#aMCatNLO 1  0  0  1  2 0.49592676D+01 0.00000000D+00  -5  7  0 0.00000000D+00 0.00000000D+00 0.00000000D+00 0.00000000D+00 0.00000000D+00
  <mgrwgt>
 0.2906237117D-03   11    2    0
 0.322826929915193D+03 0.000000000000000D+00 0.000000000000000D+00 0.322826929915193D+03
 0.322826929915193D+03 0.000000000000000D+00 0.000000000000000D+00 -.322826929915193D+03
 0.267744361538565D+03 0.168317386055854D+03 -.161555241785370D+03 0.945566137014697D+02
 0.246686919523386D+03 -.215333645708143D+03 0.113459404847033D+03 -.401599395135818D+02
 0.123025794377679D+02 0.771731143780234D+01 0.419381060253304D+00 -.957186943709830D+01
 0.118919999330668D+03 0.392989482144865D+02 0.476764558780839D+02 -.448248047507896D+02
 0.000000000000000D+00 0.000000000000000D+00 -.000000000000000D+00 0.000000000000000D+00
 0.329009179365463D+03 0.000000000000000D+00 0.000000000000000D+00 0.329009179365463D+03
 0.323832541589563D+03 0.000000000000000D+00 0.000000000000000D+00 -.323832541589563D+03
 0.265960841218193D+03 0.166875594598862D+03 -.160098408643173D+03 0.945566137014697D+02
 0.248477070720626D+03 -.216671319029025D+03 0.114811033626524D+03 -.401599395135818D+02
 0.122635350445655D+02 0.765094668473422D+01 0.486438172621735D+00 -.957186943709830D+01
 0.118971458634125D+03 0.386562903014411D+02 0.483258184070954D+02 -.448248047507896D+02
 0.716881533751627D+01 0.348848744398860D+01 -.352488156306831D+01 0.517663777590083D+01
0.523289760395D-05 0.000000000000D+00 0.000000000000D+00 0.314310076949D-07 0.000000000000D+00  7 -2 2 23 -13 13 23 21 0 0.91322356D-01 0.27010691D-01 0.93564089D+05 0.93564089D+05 0.93564089D+05 0.11241006D+01  1  2  2  1  7  1       -2 0.134313746711D-03 0.100000000000D+01
-.289689045276D-06 0.000000000000D+00 -.200957046528D-07 0.314310076949D-07 0.000000000000D+00  7 -2 2 23 -13 13 23 21 2 0.91322356D-01 0.27010691D-01 0.93564089D+05 0.93564089D+05 0.93564089D+05 0.11241006D+01  1  2  3  1  7  1       -2 -.939551659065D-05 0.100000000000D+01
0.331731509013D-06 0.000000000000D+00 0.000000000000D+00 0.314310076949D-07 0.000000000000D+00  7 -2 2 23 -13 13 23 21 2 0.91322356D-01 0.27010691D-01 0.93564089D+05 0.93564089D+05 0.93564089D+05 0.11241006D+01  1  2 15  1  7  1       -2 0.107590844300D-04 0.100000000000D+01
0.310518666487D-05 0.000000000000D+00 0.000000000000D+00 0.314310076949D-07 0.000000000000D+00  7 -2 2 23 -13 13 23 21 2 0.93211832D-01 0.27010691D-01 0.95056405D+05 0.95056405D+05 0.95056405D+05 0.11235334D+01  1  2 12  1  7  1       -2 0.959106446363D-04 0.100000000000D+01
-.743048722321D-04 0.000000000000D+00 0.000000000000D+00 0.314310076949D-07 0.000000000000D+00  7 -2 2 23 -13 13 23 21 2 0.91322356D-01 0.27010691D-01 0.93564089D+05 0.93564089D+05 0.93564089D+05 0.11241006D+01  1  2  4  1  7  1       -2 -.240993807397D-02 0.100000000000D+01
-.310497640137D-03 0.000000000000D+00 -.296170658712D-04 0.314310076949D-07 0.000000000000D+00  7 -2 2 23 -13 13 23 21 2 0.93251828D-01 0.27010691D-01 0.93564089D+05 0.93564089D+05 0.93564089D+05 0.11241006D+01  1  2  5  1  7  1       -2 -.959230954412D-02 0.100000000000D+01
0.311055356415D-03 0.000000000000D+00 0.296105935580D-04 0.314310076949D-07 0.000000000000D+00  7 -2 2 23 -13 13 23 21 2 0.91322356D-01 0.27010691D-01 0.93564089D+05 0.93564089D+05 0.93564089D+05 0.11241006D+01  1  2  6  1  7  1       -2 0.100884925041D-01 0.100000000000D+01
0.711659758980D-04 0.000000000000D+00 0.000000000000D+00 0.314310076949D-07 0.860583770734D-08  7 -2 2 23 -13 13 23 21 2 0.93071211D-01 0.27094830D-01 0.95056405D+05 0.95056405D+05 0.95056405D+05 0.11235334D+01  1  2 11  1  7  1       -2 0.219803800618D-02 0.100000000000D+01
0.159732249835D-06 0.000000000000D+00 0.000000000000D+00 0.314310076949D-07 0.000000000000D+00  7 21 2 23 -13 13 23 2 2 0.93211832D-01 0.27010691D-01 0.95056405D+05 0.95056405D+05 0.95056405D+05 0.11235334D+01  1  2 12  3  7  1       -2 0.477687334422D-04 0.100000000000D+01
-.117520915031D-05 0.000000000000D+00 -.112549363777D-06 0.314310076949D-07 0.000000000000D+00  7 21 2 23 -13 13 23 2 2 0.93251828D-01 0.27010691D-01 0.93564089D+05 0.93564089D+05 0.93564089D+05 0.11241006D+01  1  2  5  3  7  1       -2 -.351688355860D-03 0.100000000000D+01
0.263012694570D-06 0.000000000000D+00 0.000000000000D+00 0.314310076949D-07 0.298252347759D-10  7 21 2 23 -13 13 23 2 2 0.93071211D-01 0.27094830D-01 0.95056405D+05 0.95056405D+05 0.95056405D+05 0.11235334D+01  1  2 11  3  7  1       -2 0.786724827196D-04 0.100000000000D+01
  </mgrwgt>
  </event>
  <event>
  8     66 0.28248871E-05 0.14074536E+03 0.75467711E-02 0.10107650E+00
       -2 -1    0    0    0  501 0.00000000E+00 0.00000000E+00 0.18539619E+03 0.18539646E+03 0.32000000E+00 0.0000E+00 0.9000E+01
        2 -1    0    0  501    0 0.00000000E+00 0.00000000E+00 -.27586084E+03 0.27586103E+03 0.32000000E+00 0.0000E+00 0.9000E+01
       25  2    1    2    0    0 -.98758287E+02 -.12554885E+02 -.54432710E+02 0.32095490E+03 0.30023042E+03 0.0000E+00 0.0000E+00
       23  2    1    2    0    0 0.98758287E+02 0.12554885E+02 -.36031945E+02 0.14030259E+03 0.92063522E+02 0.0000E+00 0.0000E+00
       23  1    3    3    0    0 -.12644300E+03 0.86249755E+02 -.18939624E+02 0.17916699E+03 0.91188000E+02 0.0000E+00 0.9000E+01
      -13  1    4    4    0    0 0.16034244E+02 -.36187433E+02 -.10531187E+02 0.40957836E+02 0.10565837E+00 0.0000E+00 0.9000E+01
       13  1    4    4    0    0 0.82724043E+02 0.48742318E+02 -.25500758E+02 0.99344757E+02 0.10565837E+00 0.0000E+00 0.9000E+01
       23  1    3    3    0    0 0.27684708E+02 -.98804641E+02 -.35493087E+02 0.14178791E+03 0.91188000E+02 0.0000E+00 0.9000E+01
#aMCatNLO 1  0  0  1  2 0.12060997D+03 0.00000000D+00  -5  7  0 0.00000000D+00 0.00000000D+00 0.00000000D+00 0.00000000D+00 0.00000000D+00
  <mgrwgt>
 0.9204221622D-04    7    2    0
 0.226149631146526D+03 0.000000000000000D+00 0.000000000000000D+00 0.226149631146526D+03
 0.226149631146526D+03 0.000000000000000D+00 0.000000000000000D+00 -.226149631146526D+03
 0.178927467520333D+03 -.126443025471974D+03 0.862497513338612D+02 0.165205627501186D+02
 0.396625990223434D+02 0.160341833027861D+02 -.361875066270002D+02 -.254776198666007D+01
 0.962120362599615D+02 0.827241567392206D+02 0.487423987361170D+02 -.613582745213611D+01
 0.137497159490415D+03 0.276846854299670D+02 -.988046434429780D+02 -.783697331132244D+01
 0.000000000000000D+00 0.000000000000000D+00 0.000000000000000D+00 0.000000000000000D+00
 0.427139556817980D+03 0.000000000000000D+00 0.000000000000000D+00 0.427139556817980D+03
 0.252886436331544D+03 0.000000000000000D+00 0.000000000000000D+00 -.252886436331544D+03
 0.201424063683832D+03 -.168596318454291D+03 0.596552973086807D+02 0.165205627501186D+02
 0.425813228061876D+02 0.691932021316727D+01 -.419380610969527D+02 -.254776198666007D+01
 0.739821586818842D+02 0.638620116584316D+02 0.368422975891495D+02 -.613582745213611D+01
 0.150116490882635D+03 -.419072843127230D+01 -.118914797798462D+03 -.783697331132244D+01
 0.211921957094986D+03 0.102005715013964D+03 0.643552639975844D+02 0.174253120486436D+03
0.706127901404D-06 0.000000000000D+00 0.000000000000D+00 0.606864707023D-07 0.000000000000D+00  7 -2 2 23 -13 13 23 21 0 0.28522526D-01 0.42440165D-01 0.50857840D+05 0.50857840D+05 0.50857840D+05 0.11466461D+01  1  2  2  1  7  1       -2 0.109900351502D-03 0.100000000000D+01
-.392289533548D-07 0.000000000000D+00 -.271171706914D-08 0.606864707023D-07 0.000000000000D+00  7 -2 2 23 -13 13 23 21 2 0.28522526D-01 0.42440165D-01 0.50857840D+05 0.50857840D+05 0.50857840D+05 0.11466461D+01  1  2  3  1  7  1       -2 -.802751712037D-05 0.100000000000D+01
0.453545766308D-07 0.000000000000D+00 0.000000000000D+00 0.606864707023D-07 0.000000000000D+00  7 -2 2 23 -13 13 23 21 2 0.28522526D-01 0.42440165D-01 0.50857840D+05 0.50857840D+05 0.50857840D+05 0.11466461D+01  1  2 15  1  7  1       -2 0.928101846353D-05 0.100000000000D+01
0.403983070736D-06 0.000000000000D+00 0.000000000000D+00 0.606864707023D-07 0.000000000000D+00  7 -2 2 23 -13 13 23 21 2 0.54207112D-01 0.42440165D-01 0.86288913D+05 0.86288913D+05 0.86288913D+05 0.11270159D+01  1  2 12  1  7  1       -2 0.243705955781D-04 0.100000000000D+01
-.706852428694D-06 0.000000000000D+00 -.218704264661D-06 0.606864707023D-07 0.000000000000D+00  7 -2 2 23 -13 13 23 21 2 0.58685405D-01 0.42440165D-01 0.50857840D+05 0.50857840D+05 0.50857840D+05 0.11466461D+01  1  2  5  1  7  1       -2 -.377616002946D-04 0.100000000000D+01
0.281854833817D-07 0.000000000000D+00 0.000000000000D+00 0.606864707023D-07 0.000000000000D+00  7 21 2 23 -13 13 23 2 2 0.54207112D-01 0.42440165D-01 0.86288913D+05 0.86288913D+05 0.86288913D+05 0.11270159D+01  1  2 12  3  7  1       -2 0.181298231601D-04 0.100000000000D+01
-.417564975764D-07 0.000000000000D+00 -.170625838112D-07 0.606864707023D-07 0.000000000000D+00  7 21 2 23 -13 13 23 2 2 0.58685405D-01 0.42440165D-01 0.50857840D+05 0.50857840D+05 0.50857840D+05 0.11466461D+01  1  2  5  3  7  1       -2 -.238504550716D-04 0.100000000000D+01
  </mgrwgt>
  </event>
  <event>
  8     66 0.28248871E-05 0.39467388E+03 0.75467711E-02 0.89338289E-01
       -2 -1    0    0    0  501 0.00000000E+00 0.00000000E+00 0.10599593E+04 0.10599593E+04 0.32000000E+00 0.0000E+00 0.9000E+01
        2 -1    0    0  501    0 0.00000000E+00 0.00000000E+00 -.67869840E+03 0.67869847E+03 0.32000000E+00 0.0000E+00 0.9000E+01
       25  2    1    2    0    0 -.38988875E+03 0.69330292E+03 0.39551220E+03 0.93791550E+03 0.30095417E+03 0.0000E+00 0.0000E+00
       23  2    1    2    0    0 0.38988875E+03 -.69330292E+03 -.14251329E+02 0.80074228E+03 0.91120379E+02 0.0000E+00 0.0000E+00
       23  1    3    3    0    0 -.33315481E+03 0.57115946E+03 0.23033813E+03 0.70610634E+03 0.91188000E+02 0.0000E+00 0.9000E+01
      -13  1    4    4    0    0 0.91088061E+02 -.96908694E+02 0.87661759E+01 0.13328611E+03 0.10565837E+00 0.0000E+00 0.9000E+01
       13  1    4    4    0    0 0.29880069E+03 -.59639423E+03 -.23017505E+02 0.66745618E+03 0.10565837E+00 0.0000E+00 0.9000E+01
       23  1    3    3    0    0 -.56733945E+02 0.12214346E+03 0.16517406E+03 0.23180916E+03 0.91188000E+02 0.0000E+00 0.9000E+01
#aMCatNLO 1  0  0  2  1 0.91564341D+01 0.00000000D+00  -5  7  0 0.00000000D+00 0.00000000D+00 0.00000000D+00 0.00000000D+00 0.00000000D+00
  <mgrwgt>
 0.3784201187D-03   11    2    0
 0.848170244237339D+03 0.000000000000000D+00 0.000000000000000D+00 0.848170244237339D+03
 0.848170244237339D+03 0.000000000000000D+00 0.000000000000000D+00 -.848170244237339D+03
 0.671951403253932D+03 -.333154807498652D+03 0.571159462877876D+03 0.773833263469649D+02
 0.134640107645596D+03 0.910877818096636D+02 -.969080220149650D+02 -.209716442121217D+02
 0.689280733066027D+03 0.298800970841382D+03 -.596394900038356D+03 -.173605967663921D+03
 0.200468244509123D+03 -.567339451523931D+02 0.122143459175446D+03 0.117194285529078D+03
 0.000000000000000D+00 0.000000000000000D+00 -.000000000000000D+00 -.000000000000000D+00
 0.849759459129851D+03 0.000000000000000D+00 0.000000000000000D+00 0.849759459129851D+03
 0.861474893607054D+03 0.000000000000000D+00 0.000000000000000D+00 -.861474893607054D+03
 0.675530307633472D+03 -.334982883250236D+03 0.574303259541691D+03 0.773833263469649D+02
 0.133942723141085D+03 0.907234059845330D+02 -.962813939868716D+02 -.209716442121217D+02
 0.685697118546343D+03 0.296935592150755D+03 -.593186952392171D+03 -.173605967663921D+03
 0.201195051078108D+03 -.572788660407670D+02 0.123080575960365D+03 0.117194285529078D+03
 0.148691523378978D+02 0.460275115571507D+01 -.791548912301331D+01 -.117154344772029D+02
0.108189352627D-03 0.000000000000D+00 0.000000000000D+00 0.923367794150D-06 0.000000000000D+00  7 -2 2 23 -13 13 23 21 0 0.16307067D+00 0.10441515D+00 0.66437272D+06 0.66437272D+06 0.66437272D+06 0.10598940D+01  1  2  2  2  7  2        2 0.127395278523D-03 0.100000000000D+01
-.599895398334D-05 0.000000000000D+00 -.415475600999D-06 0.923367794150D-06 0.000000000000D+00  7 -2 2 23 -13 13 23 21 2 0.16307067D+00 0.10441515D+00 0.66437272D+06 0.66437272D+06 0.66437272D+06 0.10598940D+01  1  2  3  2  7  2        2 -.793540754507D-05 0.100000000000D+01
0.661725091454D-05 0.000000000000D+00 0.000000000000D+00 0.923367794150D-06 0.000000000000D+00  7 -2 2 23 -13 13 23 21 2 0.16307067D+00 0.10441515D+00 0.66437272D+06 0.66437272D+06 0.66437272D+06 0.10598940D+01  1  2 15  2  7  2        2 0.875328982031D-05 0.100000000000D+01
0.171740456946D-03 0.000000000000D+00 0.000000000000D+00 0.923367794150D-06 0.000000000000D+00  7 -2 2 23 -13 13 23 21 2 0.16307067D+00 0.10614998D+00 0.67192918D+06 0.67192918D+06 0.67192918D+06 0.10595556D+01  1  2 12  2  7  2        2 0.222351102362D-03 0.100000000000D+01
-.175303104381D-03 0.000000000000D+00 0.000000000000D+00 0.923367794150D-06 0.000000000000D+00  7 -2 2 23 -13 13 23 21 2 0.16307067D+00 0.10441515D+00 0.66437272D+06 0.66437272D+06 0.66437272D+06 0.10598940D+01  1  2  4  2  7  2        2 -.231890689784D-03 0.100000000000D+01
-.100840676628D-01 0.000000000000D+00 -.834832868700D-03 0.923367794150D-06 0.000000000000D+00  7 -2 2 23 -13 13 23 21 2 0.16307067D+00 0.10616482D+00 0.66437272D+06 0.66437272D+06 0.66437272D+06 0.10598940D+01  1  2  5  2  7  2        2 -.130687954959D-01 0.100000000000D+01
0.100966620211D-01 0.000000000000D+00 0.834717608805D-03 0.923367794150D-06 0.000000000000D+00  7 -2 2 23 -13 13 23 21 2 0.16307067D+00 0.10441515D+00 0.66437272D+06 0.66437272D+06 0.66437272D+06 0.10598940D+01  1  2  6  2  7  2        2 0.133558497373D-01 0.100000000000D+01
0.377093571879D-06 0.000000000000D+00 0.000000000000D+00 0.923367794150D-06 0.659584731808D-07  7 -2 2 23 -13 13 23 21 2 0.16337621D+00 0.10605303D+00 0.67192918D+06 0.67192918D+06 0.67192918D+06 0.10595556D+01  1  2 11  2  7  2        2 0.486148276003D-06 0.100000000000D+01
0.123733862228D-04 0.000000000000D+00 0.000000000000D+00 0.923367794150D-06 0.000000000000D+00  7 -2 21 23 -13 13 23 -2 2 0.16307067D+00 0.10614998D+00 0.67192918D+06 0.67192918D+06 0.67192918D+06 0.10595556D+01  1  2 12  4  7  2        2 0.188642866898D-04 0.100000000000D+01
-.305672466984D-04 0.000000000000D+00 -.253758982190D-05 0.923367794150D-06 0.000000000000D+00  7 -2 21 23 -13 13 23 -2 2 0.16307067D+00 0.10616482D+00 0.66437272D+06 0.66437272D+06 0.66437272D+06 0.10598940D+01  1  2  5  4  7  2        2 -.466598263072D-04 0.100000000000D+01
0.111525044096D-08 0.000000000000D+00 0.000000000000D+00 0.923367794150D-06 0.187261402380D-09  7 -2 21 23 -13 13 23 -2 2 0.16337621D+00 0.10605303D+00 0.67192918D+06 0.67192918D+06 0.67192918D+06 0.10595556D+01  1  2 11  4  7  2        2 0.169529674291D-08 0.100000000000D+01
  </mgrwgt>
  </event>
  <event>
  8     66 0.28248871E-05 0.44199743E+03 0.75467711E-02 0.91049221E-01
       -2 -1    0    0    0  501 0.00000000E+00 0.00000000E+00 0.14321734E+03 0.14321770E+03 0.32000000E+00 0.0000E+00 0.9000E+01
        2 -1    0    0  501    0 0.00000000E+00 0.00000000E+00 -.20790705E+04 0.20790705E+04 0.32000000E+00 0.0000E+00 0.9000E+01
       25  2    1    2    0    0 -.55517796E+02 -.38767357E+03 -.39270694E+03 0.62753226E+03 0.29360683E+03 0.0000E+00 0.0000E+00
       23  2    1    2    0    0 0.55517796E+02 0.38767357E+03 -.15431462E+04 0.15947560E+04 0.92592215E+02 0.0000E+00 0.0000E+00
       23  1    3    3    0    0 0.66207031E+02 -.75586952E+02 -.15897654E+03 0.20901088E+03 0.91188000E+02 0.0000E+00 0.9000E+01
      -11  1    4    4    0    0 0.28938288E+02 0.36513599E+03 -.14412545E+04 0.14870697E+04 0.51099893E-03 0.0000E+00 0.9000E+01
       11  1    4    4    0    0 0.26579508E+02 0.22537583E+02 -.10189170E+03 0.10768627E+03 0.51099893E-03 0.0000E+00 0.9000E+01
       23  1    3    3    0    0 -.12172483E+03 -.31208662E+03 -.23373041E+03 0.41852138E+03 0.91188000E+02 0.0000E+00 0.9000E+01
#aMCatNLO 1  0  0  2  1 0.42381654D+03 0.00000000D+00  -5  7  0 0.00000000D+00 0.00000000D+00 0.00000000D+00 0.00000000D+00 0.00000000D+00
  <mgrwgt>
 0.4270394142D-02    3    2    0
 0.545673322249366D+03 0.000000000000000D+00 0.000000000000000D+00 0.545673322249366D+03
 0.545673322249366D+03 0.000000000000000D+00 0.000000000000000D+00 -.545673322249366D+03
 0.143608991979875D+03 0.662070311000517D+02 -.755869523925384D+02 0.470269379653917D+02
 0.471564536374330D+03 0.289382875042127D+02 0.365135986975223D+03 -.297004037847788D+03
 0.385418763928235D+02 0.265795081363702D+02 0.225375830422733D+02 -.164640011455583D+02
 0.437631239751703D+03 -.121724826740635D+03 -.312086617624958D+03 0.266441101027954D+03
 0.000000000000000D+00 0.000000000000000D+00 -.000000000000000D+00 0.000000000000000D+00
 0.261045534740195D+04 0.000000000000000D+00 0.000000000000000D+00 0.261045534740195D+04
 0.607550001312571D+03 0.000000000000000D+00 0.000000000000000D+00 -.607550001312571D+03
 0.122913195346246D+03 0.625781499491255D+02 -.257845787393996D+02 0.470269379653917D+02
 0.646480976397335D+03 0.137153361699202D+02 0.574054129764352D+03 -.297004037847788D+03
 0.493251491404928D+02 0.253831387235842D+02 0.389564278720495D+02 -.164640011455583D+02
 0.352031700463738D+03 -.132476625636185D+03 -.164530088830136D+03 0.266441101027954D+03
 0.204725432736671D+04 0.308000007935556D+02 -.422695890066866D+03 0.200290534608938D+04
0.312787031758D-03 0.000000000000D+00 0.000000000000D+00 0.636204982966D-08 0.000000000000D+00  7 -2 2 23 -11 11 23 21 0 0.22033467D-01 0.31985703D+00 0.19536173D+06 0.19536173D+06 0.19536173D+06 0.10986089D+01  1  2  2  2  7  2        2 0.422170020406D-02 0.100000000000D+01
-.164389458221D-04 0.000000000000D+00 -.120118456067D-05 0.636204982966D-08 0.000000000000D+00  7 -2 2 23 -11 11 23 21 2 0.22033467D-01 0.31985703D+00 0.19536173D+06 0.19536173D+06 0.19536173D+06 0.10986089D+01  1  2  3  2  7  2        2 -.267792765146D-03 0.100000000000D+01
0.194281117375D-04 0.000000000000D+00 0.000000000000D+00 0.636204982966D-08 0.000000000000D+00  7 -2 2 23 -11 11 23 21 2 0.22033467D-01 0.31985703D+00 0.19536173D+06 0.19536173D+06 0.19536173D+06 0.10986089D+01  1  2 15  2  7  2        2 0.316486702983D-03 0.100000000000D+01
  </mgrwgt>
  </event>
  <event>
  8     66 0.28248871E-05 0.33298781E+03 0.75467711E-02 0.97833338E-01
       -2 -1    0    0    0  502 0.00000000E+00 0.00000000E+00 0.37931733E+03 0.37931747E+03 0.32000000E+00 0.0000E+00 0.9000E+01
        2 -1    0    0  501    0 0.00000000E+00 0.00000000E+00 -.77682798E+03 0.77682805E+03 0.32000000E+00 0.0000E+00 0.9000E+01
       25  2    1    2    0    0 0.13881977E+03 -.79910990E+02 -.46086459E+03 0.57281722E+03 0.30011115E+03 0.0000E+00 0.0000E+00
       23  1    3    3    0    0 -.42024105E+02 0.49799798E+00 -.25075539E+03 0.27011070E+03 0.91188000E+02 0.0000E+00 0.9000E+01
      -13  1    1    2    0    0 -.28263362E+03 0.11430823E+02 0.21130999E+03 0.35307839E+03 0.10565837E+00 0.0000E+00 0.9000E+01
       13  1    1    2    0    0 0.73616537E+02 0.29446290E+02 -.24542046E+02 0.82998806E+02 0.10565837E+00 0.0000E+00 0.9000E+01
       23  1    3    3    0    0 0.18084387E+03 -.80408988E+02 -.21010920E+03 0.30270652E+03 0.91188000E+02 0.0000E+00 0.9000E+01
       21  1    1    2  501  502 0.70197318E+02 0.39033877E+02 -.12341400E+03 0.14725110E+03 0.75000000E+00 0.0000E+00 0.9000E+01
#aMCatNLO 2  0  0  1  1 0.80320028D+02 0.00000000D+00  -5  7  0 0.00000000D+00 0.00000000D+00 0.00000000D+00 0.00000000D+00 0.00000000D+00
  <mgrwgt>
 0.3292527602D-03    1    2    0
 0.483809794957640D+03 0.000000000000000D+00 0.000000000000000D+00 0.483809794957640D+03
 0.483809794957640D+03 0.000000000000000D+00 0.000000000000000D+00 -.483809794957640D+03
 0.207575835106872D+03 -.269056701988906D+02 0.890283472094293D+01 -.184307624425565D+03
 0.407954528923897D+03 -.252412580345843D+03 0.282364437608924D+02 0.319245188211834D+03
 0.861072578122354D+02 0.795985190843782D+02 0.327760586296443D+02 -.206533005177700D+01
 0.265981968072277D+03 0.199719731460356D+03 -.699153371114796D+02 -.132872233734492D+03
 0.000000000000000D+00 0.000000000000000D+00 0.000000000000000D+00 -.000000000000000D+00
 0.501221504627915D+03 0.000000000000000D+00 0.000000000000000D+00 0.501221504627915D+03
 0.587889912706632D+03 0.000000000000000D+00 0.000000000000000D+00 -.587889912706632D+03
 0.209882506008109D+03 -.420222253352963D+02 0.497132495540891D+00 -.184307624425565D+03
 0.426530144453575D+03 -.282630047175956D+03 0.114337379930828D+02 0.319245188211834D+03
 0.793066255004436D+02 0.736087283887495D+02 0.294453793495031D+02 -.206533005177700D+01
 0.255228187968337D+03 0.180846226524752D+03 -.804101265001196D+02 -.132872233734492D+03
 0.118163953404083D+03 0.701973175977515D+02 0.390338766619928D+02 -.866684080787173D+02
0.212502646100D-04 0.000000000000D+00 0.000000000000D+00 0.216611379618D-09 0.226056940906D-12  7 -2 2 23 -13 13 23 21 2 0.58356393D-01 0.11951174D+00 0.14469683D+06 0.14469683D+06 0.14469683D+06 0.11087876D+01  1  2  1  1  7  1       -2 0.329252760223D-03 0.100000000000D+01
  </mgrwgt>
  </event>
  <event>
  8     66 0.28248871E-05 0.42298443E+03 0.75467711E-02 0.88211101E-01
       -2 -1    0    0    0  501 0.00000000E+00 0.00000000E+00 0.26538085E+03 0.26538104E+03 0.32000000E+00 0.0000E+00 0.9000E+01
        2 -1    0    0  501    0 0.00000000E+00 0.00000000E+00 -.73910145E+03 0.73910152E+03 0.32000000E+00 0.0000E+00 0.9000E+01
       25  2    1    2    0    0 0.21058677E+03 0.30984967E+03 -.14739777E+03 0.49954510E+03 0.29574582E+03 0.0000E+00 0.0000E+00
       23  2    1    2    0    0 -.21058677E+03 -.30984967E+03 -.32632283E+03 0.50493747E+03 0.90120182E+02 0.0000E+00 0.0000E+00
       23  1    3    3    0    0 0.20891583E+02 0.22378294E+03 -.11968202E+03 0.27047052E+03 0.91188000E+02 0.0000E+00 0.9000E+01
      -11  1    4    4    0    0 -.15488724E+02 -.41152376E+02 -.80727952E+02 0.91926171E+02 0.51099893E-03 0.0000E+00 0.9000E+01
       11  1    4    4    0    0 -.19509805E+03 -.26869730E+03 -.24559487E+03 0.41301129E+03 0.51099893E-03 0.0000E+00 0.9000E+01
       23  1    3    3    0    0 0.18969519E+03 0.86066731E+02 -.27715750E+02 0.22907458E+03 0.91188000E+02 0.0000E+00 0.9000E+01
#aMCatNLO 1  0  0  1  1 0.72823568D+03 0.00000000D+00  -5  7  0 0.00000000D+00 0.00000000D+00 0.00000000D+00 0.00000000D+00 0.00000000D+00
  <mgrwgt>
 0.5197252389D-03    3    2    0
 0.442880912484857D+03 0.000000000000000D+00 0.000000000000000D+00 0.442880912484857D+03
 0.442880912484857D+03 0.000000000000000D+00 0.000000000000000D+00 -.442880912484857D+03
 0.242714321075548D+03 0.208915832566345D+02 0.223782942489170D+03 0.892898152558256D+01
 0.610725593161756D+02 -.154887238910362D+02 -.411523756327945D+02 -.423844182858799D+02
 0.337019821819756D+03 -.195098050574419D+03 -.268697298315392D+03 -.576270148410555D+02
 0.244955122758235D+03 0.189695191208820D+03 0.860667314590165D+02 0.910824516013528D+02
 0.000000000000000D+00 0.000000000000000D+00 -.000000000000000D+00 -.000000000000000D+00
 0.631817177200185D+03 0.000000000000000D+00 0.000000000000000D+00 0.631817177200185D+03
 0.284080726639991D+04 0.000000000000000D+00 0.000000000000000D+00 -.284080726639991D+04
 0.343542068903272D+03 -.182506730793383D+03 0.276256164214246D+03 0.892898152558256D+01
 0.829421063304295D+02 -.654537915503493D+02 -.282622585930297D+02 -.423844182858799D+02
 0.536431379034387D+03 -.498136967839122D+03 -.190518536749809D+03 -.576270148410555D+02
 0.183775867742340D+03 0.409494169376667D+02 0.124440549995580D+03 0.910824516013528D+02
 0.232593302158967D+04 0.705148073245188D+03 -.181915918866987D+03 -.220899008919973D+04
0.191512217397D-04 0.000000000000D+00 0.000000000000D+00 0.114417729533D-07 0.000000000000D+00  7 -2 2 23 -11 11 23 21 0 0.40827843D-01 0.11370794D+00 0.17891583D+06 0.17891583D+06 0.17891583D+06 0.11015606D+01  1  2  2  1  7  1       -2 0.514636935835D-03 0.100000000000D+01
-.106122357108D-05 0.000000000000D+00 -.735457341130D-07 0.114417729533D-07 0.000000000000D+00  7 -2 2 23 -11 11 23 21 2 0.40827843D-01 0.11370794D+00 0.17891583D+06 0.17891583D+06 0.17891583D+06 0.11015606D+01  1  2  3  1  7  1       -2 -.346041485741D-04 0.100000000000D+01
0.121726922951D-05 0.000000000000D+00 0.000000000000D+00 0.114417729533D-07 0.000000000000D+00  7 -2 2 23 -11 11 23 21 2 0.40827843D-01 0.11370794D+00 0.17891583D+06 0.17891583D+06 0.17891583D+06 0.11015606D+01  1  2 15  1  7  1       -2 0.396924516385D-04 0.100000000000D+01
  </mgrwgt>
  </event>
  <event>
  7     66 0.28248871E-05 0.43305533E+03 0.75467711E-02 0.95399006E-01
       -2 -1    0    0    0  501 0.00000000E+00 0.00000000E+00 0.59708237E+02 0.59709094E+02 0.32000000E+00 0.0000E+00 0.9000E+01
        2 -1    0    0  501    0 0.00000000E+00 0.00000000E+00 -.39016025E+04 0.39016025E+04 0.32000000E+00 0.0000E+00 0.9000E+01
       23  2    1    2    0    0 0.58014731E+02 -.40289997E+03 -.11296716E+04 0.12042707E+04 0.91738501E+02 0.0000E+00 0.0000E+00
       23  1    1    2    0    0 -.55590001E+02 0.25076206E+03 -.21574418E+04 0.21745901E+04 0.91188000E+02 0.0000E+00 0.9000E+01
      -11  1    3    3    0    0 0.61181348E+02 -.40666686E+03 -.11034651E+04 0.11776061E+04 0.51099893E-03 0.0000E+00 0.9000E+01
       11  1    3    3    0    0 -.31666166E+01 0.37668890E+01 -.26206565E+02 0.26664601E+02 0.51099893E-03 0.0000E+00 0.9000E+01
       23  1    1    2    0    0 -.24247300E+01 0.15213791E+03 -.55478082E+03 0.58245071E+03 0.91188000E+02 0.0000E+00 0.9000E+01
#aMCatNLO 1  0  0  2  1 0.67559467D+02 0.00000000D+00  -5  7  0 0.00000000D+00 0.00000000D+00 0.00000000D+00 0.00000000D+00 0.00000000D+00
  <mgrwgt>
 0.3784130073D-02    4    2    0
 0.482658810339826D+03 0.000000000000000D+00 0.000000000000000D+00 0.482658810339826D+03
 0.482658810339826D+03 0.000000000000000D+00 0.000000000000000D+00 -.482658810339826D+03
 0.337262922577350D+03 -.555900009510478D+02 0.250762057964778D+03 -.198643322769599D+03
 0.440755242888279D+03 0.611813475952117D+02 -.406666860906314D+03 0.158568884339094D+03
 0.512157114497869D+01 -.316661660163447D+01 0.376688898323309D+01 -.141900587712977D+01
 0.182177884069043D+03 -.242473004252937D+01 0.152137913958302D+03 0.414934443076354D+02
 0.000000000000000D+00 -.000000000000000D+00 0.000000000000000D+00 0.000000000000000D+00
 0.659180982876921D+03 0.000000000000000D+00 0.000000000000000D+00 0.659180982876921D+03
 0.490347134718172D+03 0.000000000000000D+00 0.000000000000000D+00 -.490347134718172D+03
 0.327392003423804D+03 -.343704875121215D+02 0.241308459174319D+03 -.198643322769599D+03
 0.457327101233827D+03 0.898531735681503D+02 -.419440572241315D+03 0.158568884339094D+03
 0.482437293339680D+01 -.284908627758549D+01 0.362542465154597D+01 -.141900587712977D+01
 0.178135389763085D+03 0.907849073746843D+01 0.147013063458541D+03 0.414934443076354D+02
 0.181849250240981D+03 -.617120905159117D+02 0.274936249569087D+02 0.168833848158749D+03
0.107807582652D-02 0.000000000000D+00 0.000000000000D+00 0.110857475639D-08 0.000000000000D+00  7 -2 2 23 -11 11 23 21 0 0.91859495D-02 0.60024660D+00 0.18753691D+06 0.18753691D+06 0.18753691D+06 0.10999780D+01  1  2  2  2  7  2        2 0.404025516467D-02 0.100000000000D+01
-.590367077175D-04 0.000000000000D+00 -.414009503773D-05 0.110857475639D-08 0.000000000000D+00  7 -2 2 23 -11 11 23 21 2 0.91859495D-02 0.60024660D+00 0.18753691D+06 0.18753691D+06 0.18753691D+06 0.10999780D+01  1  2  3  2  7  2        2 -.267700749690D-03 0.100000000000D+01
0.674111046795D-04 0.000000000000D+00 0.000000000000D+00 0.110857475639D-08 0.000000000000D+00  7 -2 2 23 -11 11 23 21 2 0.91859495D-02 0.60024660D+00 0.18753691D+06 0.18753691D+06 0.18753691D+06 0.10999780D+01  1  2 15  2  7  2        2 0.305674282287D-03 0.100000000000D+01
-.648582962192D-04 0.000000000000D+00 0.000000000000D+00 0.110857475639D-08 0.000000000000D+00  7 -2 2 23 -11 11 23 21 2 0.91859495D-02 0.60024660D+00 0.18753691D+06 0.18753691D+06 0.18753691D+06 0.10999780D+01  1  2  4  2  7  2        2 -.294098624276D-03 0.100000000000D+01
  </mgrwgt>
  </event>
  <event>
  8     66 0.28248871E-05 0.48657176E+03 0.75467711E-02 0.86057652E-01
       -2 -1    0    0    0  501 0.00000000E+00 0.00000000E+00 0.37452579E+03 0.37452593E+03 0.32000000E+00 0.0000E+00 0.9000E+01
        2 -1    0    0  501    0 0.00000000E+00 0.00000000E+00 -.38468027E+04 0.38468027E+04 0.32000000E+00 0.0000E+00 0.9000E+01
       25  2    1    2    0    0 0.91425566E+03 0.62578366E+03 -.24733907E+04 0.27267670E+04 0.30021306E+03 0.0000E+00 0.0000E+00
       23  2    1    2    0    0 -.91425566E+03 -.62578366E+03 -.99888619E+03 0.14945617E+04 0.92045318E+02 0.0000E+00 0.0000E+00
       23  1    3    3    0    0 0.18340257E+03 0.24171242E+03 -.65121294E+03 0.72419262E+03 0.91188000E+02 0.0000E+00 0.9000E+01
      -11  1    4    4    0    0 -.69049756E+03 -.43178489E+03 -.70136313E+03 0.10747722E+04 0.51099893E-03 0.0000E+00 0.9000E+01
       11  1    4    4    0    0 -.22375810E+03 -.19399876E+03 -.29752306E+03 0.41978944E+03 0.51099893E-03 0.0000E+00 0.9000E+01
       23  1    3    3    0    0 0.73085309E+03 0.38407123E+03 -.18221778E+04 0.20025744E+04 0.91188000E+02 0.0000E+00 0.9000E+01
#aMCatNLO 1  0  0  2  1 0.39889672D+02 0.00000000D+00  -5  7  0 0.00000000D+00 0.00000000D+00 0.00000000D+00 0.00000000D+00 0.00000000D+00
  <mgrwgt>
 0.2750487849D-03    9    2    0
 0.120030293398809D+04 0.000000000000000D+00 0.000000000000000D+00 0.120030293398809D+04
 0.120030293398809D+04 0.000000000000000D+00 0.000000000000000D+00 -.120030293398809D+04
 0.331526045966718D+03 0.183402570830053D+03 0.241712424797823D+03 -.976364098152480D+02
 0.875462216983033D+03 -.690497562763263D+03 -.431784892786812D+03 0.321261599858937D+03
 0.307833439659972D+03 -.223758100541560D+03 -.193998763595220D+03 0.840132057384389D+02
 0.885784165366454D+03 0.730853092474769D+03 0.384071231584209D+03 -.307638395782128D+03
 0.000000000000000D+00 0.000000000000000D+00 0.000000000000000D+00 -.000000000000000D+00
 0.121200024110967D+04 0.000000000000000D+00 0.000000000000000D+00 0.121200024110967D+04
 0.123496480226189D+04 0.000000000000000D+00 0.000000000000000D+00 -.123496480226189D+04
 0.327094178983387D+03 0.182468669592153D+03 0.236321109248570D+03 -.976364098152480D+02
 0.884610883386486D+03 -.692993286983322D+03 -.446192451368181D+03 0.321261599858937D+03
 0.311686819883641D+03 -.224636559348888D+03 -.199070015709604D+03 0.840132057384389D+02
 0.877545376250457D+03 0.728352750730989D+03 0.369637016514522D+03 -.307638395782128D+03
 0.460277848675842D+02 0.680842600906823D+01 0.393043413146925D+02 -.229645611522148D+02
0.443120052285D-03 0.000000000000D+00 0.000000000000D+00 0.464405180158D-05 0.000000000000D+00  7 -2 2 23 -11 11 23 21 0 0.57619364D-01 0.59181581D+00 0.12746432D+07 0.12746432D+07 0.12746432D+07 0.10409198D+01  1  2  2  2  7  2        2 0.639897774032D-04 0.100000000000D+01
-.245055240155D-04 0.000000000000D+00 -.170169767696D-05 0.464405180158D-05 0.000000000000D+00  7 -2 2 23 -11 11 23 21 2 0.57619364D-01 0.59181581D+00 0.12746432D+07 0.12746432D+07 0.12746432D+07 0.10409198D+01  1  2  3  2  7  2        2 -.383431455952D-05 0.100000000000D+01
0.280192694112D-04 0.000000000000D+00 0.000000000000D+00 0.464405180158D-05 0.000000000000D+00  7 -2 2 23 -11 11 23 21 2 0.57619364D-01 0.59181581D+00 0.12746432D+07 0.12746432D+07 0.12746432D+07 0.10409198D+01  1  2 15  2  7  2        2 0.438410101258D-05 0.100000000000D+01
0.505689530943D-03 0.000000000000D+00 0.000000000000D+00 0.464405180158D-05 0.000000000000D+00  7 -2 2 23 -11 11 23 21 2 0.57619364D-01 0.61173303D+00 0.13205344D+07 0.13205344D+07 0.13205344D+07 0.10399194D+01  1  2 12  2  7  2        2 0.617596977092D-04 0.100000000000D+01
-.496117651921D-03 0.000000000000D+00 0.000000000000D+00 0.464405180158D-05 0.000000000000D+00  7 -2 2 23 -11 11 23 21 2 0.57619364D-01 0.59181581D+00 0.12746432D+07 0.12746432D+07 0.12746432D+07 0.10409198D+01  1  2  4  2  7  2        2 -.776262174516D-04 0.100000000000D+01
-.695060069534D-02 0.000000000000D+00 -.854851665665D-03 0.464405180158D-05 0.000000000000D+00  7 -2 2 23 -11 11 23 21 2 0.57619364D-01 0.61015383D+00 0.12746432D+07 0.12746432D+07 0.12746432D+07 0.10409198D+01  1  2  5  2  7  2        2 -.870214124054D-03 0.100000000000D+01
0.700883115759D-02 0.000000000000D+00 0.867218341002D-03 0.464405180158D-05 0.000000000000D+00  7 -2 2 23 -11 11 23 21 2 0.57619364D-01 0.59181581D+00 0.12746432D+07 0.12746432D+07 0.12746432D+07 0.10409198D+01  1  2  6  2  7  2        2 0.109665328257D-02 0.100000000000D+01
0.113266093436D-04 0.000000000000D+00 0.000000000000D+00 0.464405180158D-05 0.000000000000D+00  7 -2 21 23 -11 11 23 -2 2 0.57619364D-01 0.61173303D+00 0.13205344D+07 0.13205344D+07 0.13205344D+07 0.10399194D+01  1  2 12  4  7  2        2 0.258240351297D-07 0.100000000000D+01
-.377227999943D-04 0.000000000000D+00 -.467484192840D-05 0.464405180158D-05 0.000000000000D+00  7 -2 21 23 -11 11 23 -2 2 0.57619364D-01 0.61015383D+00 0.12746432D+07 0.12746432D+07 0.12746432D+07 0.10409198D+01  1  2  5  4  7  2        2 -.892418091449D-07 0.100000000000D+01
  </mgrwgt>
  </event>
  <event>
  8     66 0.28248871E-05 0.16464514E+03 0.75467711E-02 0.10066453E+00
       -2 -1    0    0    0  501 0.00000000E+00 0.00000000E+00 0.23721989E+02 0.23724147E+02 0.32000000E+00 0.0000E+00 0.9000E+01
        2 -1    0    0  501    0 0.00000000E+00 0.00000000E+00 -.18283159E+04 0.18283159E+04 0.32000000E+00 0.0000E+00 0.9000E+01
       25  2    1    2    0    0 0.33142690E+02 0.42654556E+02 -.13975292E+04 0.14305453E+04 0.30075601E+03 0.0000E+00 0.0000E+00
       23  2    1    2    0    0 -.33142690E+02 -.42654556E+02 -.40706470E+03 0.42149475E+03 0.95070005E+02 0.0000E+00 0.0000E+00
       23  1    3    3    0    0 -.71670361E+01 0.93165481E+02 -.11677516E+04 0.11750277E+04 0.91188000E+02 0.0000E+00 0.9000E+01
      -11  1    4    4    0    0 -.28506908E+02 0.12847144E+02 -.29189679E+03 0.29356674E+03 0.51099893E-03 0.0000E+00 0.9000E+01
       11  1    4    4    0    0 -.46357819E+01 -.55501700E+02 -.11516790E+03 0.12792801E+03 0.51099893E-03 0.0000E+00 0.9000E+01
       23  1    3    3    0    0 0.40309726E+02 -.50510924E+02 -.22977763E+03 0.25551759E+03 0.91188000E+02 0.0000E+00 0.9000E+01
#aMCatNLO 1  0  0  1  2 0.21931583D+03 0.00000000D+00  -5  7  0 0.00000000D+00 0.00000000D+00 0.00000000D+00 0.00000000D+00 0.00000000D+00
  <mgrwgt>
 0.8947159801D-03    5    2    0
 0.208262606939141D+03 0.000000000000000D+00 0.000000000000000D+00 0.208262606939141D+03
 0.208262606939141D+03 0.000000000000000D+00 0.000000000000000D+00 -.208262606939141D+03
 0.165370690234765D+03 -.716703493725338D+01 0.931654813466866D+02 -.101494041895922D+03
 0.406750676053721D+02 -.285069086092601D+02 0.128471425839261D+02 -.260147691451059D+02
 0.698553146916042D+02 -.463578303530622D+01 -.555017010380602D+02 0.421643888630489D+02
 0.140624141346539D+03 0.403097265818197D+02 -.505109228925525D+02 0.853444221779787D+02
 0.000000000000000D+00 0.000000000000000D+00 0.000000000000000D+00 0.000000000000000D+00
 0.386971089439205D+03 0.000000000000000D+00 0.000000000000000D+00 0.386971089439205D+03
 0.314686275897986D+03 0.000000000000000D+00 0.000000000000000D+00 -.314686275897986D+03
 0.138152888673597D+03 -.116608877656898D+02 0.182743662271565D+02 -.101494041895922D+03
 0.401156712779672D+02 -.297030650717930D+02 -.708708640765670D+01 -.260147691451059D+02
 0.108264462277441D+03 -.727295562799788D+01 -.994508030156736D+02 0.421643888630489D+02
 0.184203301861408D+03 0.355004569703325D+02 -.130658532942359D+03 0.853444221779787D+02
 0.230921041246778D+03 0.131364514951483D+02 0.218922056138533D+03 0.722848135412192D+02
0.238578689355D-05 0.000000000000D+00 0.000000000000D+00 0.365760852640D-08 0.000000000000D+00  7 -2 2 23 -11 11 23 21 0 0.36497049D-02 0.28127954D+00 0.27108024D+05 0.27108024D+05 0.27108024D+05 0.11714426D+01  1  2  2  1  7  1       -2 0.726941283296D-03 0.100000000000D+01
-.123643443038D-06 0.000000000000D+00 -.916204986334D-08 0.365760852640D-08 0.000000000000D+00  7 -2 2 23 -11 11 23 21 2 0.36497049D-02 0.28127954D+00 0.27108024D+05 0.27108024D+05 0.27108024D+05 0.11714426D+01  1  2  3  1  7  1       -2 -.516988442571D-04 0.100000000000D+01
0.152857062830D-06 0.000000000000D+00 0.000000000000D+00 0.365760852640D-08 0.000000000000D+00  7 -2 2 23 -11 11 23 21 2 0.36497049D-02 0.28127954D+00 0.27108024D+05 0.27108024D+05 0.27108024D+05 0.11714426D+01  1  2 15  1  7  1       -2 0.639138905442D-04 0.100000000000D+01
0.507152792100D-06 0.000000000000D+00 -.773855163157D-06 0.365760852640D-08 0.000000000000D+00  7 -2 2 23 -11 11 23 21 2 0.11319814D-01 0.28127954D+00 0.27108024D+05 0.27108024D+05 0.27108024D+05 0.11714426D+01  1  2  5  1  7  1       -2 0.394595328556D-04 0.100000000000D+01
0.101841182892D-06 0.000000000000D+00 -.100291914557D-06 0.365760852640D-08 0.000000000000D+00  7 21 2 23 -11 11 23 2 2 0.11319814D-01 0.28127954D+00 0.27108024D+05 0.27108024D+05 0.27108024D+05 0.11714426D+01  1  2  5  3  7  1       -2 0.116100117701D-03 0.100000000000D+01
  </mgrwgt>
  </event>
  <event>
  8     66 0.28248871E-05 0.31326332E+03 0.75467711E-02 0.89809016E-01
       -2 -1    0    0    0  501 0.00000000E+00 0.00000000E+00 0.26067466E+03 0.26067485E+03 0.32000000E+00 0.0000E+00 0.9000E+01
        2 -1    0    0  501    0 0.00000000E+00 0.00000000E+00 -.23084533E+04 0.23084533E+04 0.32000000E+00 0.0000E+00 0.9000E+01
       25  2    1    2    0    0 -.51505570E+03 -.44019452E+03 -.15680345E+04 0.17340559E+04 0.29860331E+03 0.0000E+00 0.0000E+00
       23  2    1    2    0    0 0.51505570E+03 0.44019452E+03 -.47974410E+03 0.83507227E+03 0.90209202E+02 0.0000E+00 0.0000E+00
       23  1    3    3    0    0 -.55626200E+02 -.16667941E+03 -.42781880E+03 0.47140267E+03 0.91188000E+02 0.0000E+00 0.9000E+01
      -11  1    4    4    0    0 0.34163701E+03 0.34026288E+03 -.36107035E+03 0.60238399E+03 0.51099893E-03 0.0000E+00 0.9000E+01
       11  1    4    4    0    0 0.17341870E+03 0.99931644E+02 -.11867375E+03 0.23268828E+03 0.51099893E-03 0.0000E+00 0.9000E+01
       23  1    3    3    0    0 -.45942950E+03 -.27351512E+03 -.11402157E+04 0.12626532E+04 0.91188000E+02 0.0000E+00 0.9000E+01
#aMCatNLO 1  0  0  1  2 0.13552231D+03 0.00000000D+00  -5  7  0 0.00000000D+00 0.00000000D+00 0.00000000D+00 0.00000000D+00 0.00000000D+00
  <mgrwgt>
 0.1743427106D-03    7    2    0
 0.775729037503109D+03 0.000000000000000D+00 0.000000000000000D+00 0.775729037503109D+03
 0.775729037503109D+03 0.000000000000000D+00 0.000000000000000D+00 -.775729037503109D+03
 0.215936012928633D+03 -.556262002039745D+02 -.166679405577805D+03 -.862369523035921D+02
 0.520935449548189D+03 0.341637005809446D+03 0.340262877543898D+03 0.197177770103723D+03
 0.228680657138801D+03 0.173418698701975D+03 0.999316436429444D+02 0.110609513554518D+03
 0.585905955390595D+03 -.459429504307446D+03 -.273515115609038D+03 -.221550331354649D+03
 0.000000000000000D+00 -.000000000000000D+00 0.000000000000000D+00 0.000000000000000D+00
 0.161993826687567D+04 0.000000000000000D+00 0.000000000000000D+00 0.161993826687567D+04
 0.784140937764278D+03 0.000000000000000D+00 0.000000000000000D+00 -.784140937764278D+03
 0.216112648103346D+03 -.375256599621431D+02 -.171884956374995D+03 -.862369523035921D+02
 0.543384221023584D+03 0.386226337440151D+03 0.327439391188502D+03 0.197177770103723D+03
 0.241697113756622D+03 0.193125024722334D+03 0.942642834562078D+02 0.110609513554518D+03
 0.556171887359475D+03 -.411582518964118D+03 -.287275473552472D+03 -.221550331354649D+03
 0.846713334396917D+03 -.130243183236223D+03 0.374567552827579D+02 0.835797329111388D+03
0.544361951486D-04 0.000000000000D+00 0.000000000000D+00 0.191006149174D-06 0.000000000000D+00  7 -2 2 23 -11 11 23 21 0 0.40103810D-01 0.35514667D+00 0.50601858D+06 0.50601858D+06 0.50601858D+06 0.10681433D+01  1  2  2  1  7  1       -2 0.179975802258D-03 0.100000000000D+01
-.299663217596D-05 0.000000000000D+00 -.209049322750D-06 0.191006149174D-06 0.000000000000D+00  7 -2 2 23 -11 11 23 21 2 0.40103810D-01 0.35514667D+00 0.50601858D+06 0.50601858D+06 0.50601858D+06 0.10681433D+01  1  2  3  1  7  1       -2 -.113036541583D-04 0.100000000000D+01
0.337156422252D-05 0.000000000000D+00 0.000000000000D+00 0.191006149174D-06 0.000000000000D+00  7 -2 2 23 -11 11 23 21 2 0.40103810D-01 0.35514667D+00 0.50601858D+06 0.50601858D+06 0.50601858D+06 0.10681433D+01  1  2 15  1  7  1       -2 0.127179425789D-04 0.100000000000D+01
0.618814307282D-03 0.000000000000D+00 0.000000000000D+00 0.191006149174D-06 0.000000000000D+00  7 -2 2 23 -11 11 23 21 2 0.83723821D-01 0.35514667D+00 0.61236317D+06 0.61236317D+06 0.61236317D+06 0.10623433D+01  1  2 12  1  7  1       -2 0.494176494121D-03 0.100000000000D+01
-.617400576260D-03 0.000000000000D+00 -.165648575807D-04 0.191006149174D-06 0.000000000000D+00  7 -2 2 23 -11 11 23 21 2 0.84062850D-01 0.35514667D+00 0.50601858D+06 0.50601858D+06 0.50601858D+06 0.10681433D+01  1  2  5  1  7  1       -2 -.500450626345D-03 0.100000000000D+01
0.492555967548D-04 0.000000000000D+00 0.000000000000D+00 0.191006149174D-06 0.000000000000D+00  7 21 2 23 -11 11 23 2 2 0.83723821D-01 0.35514667D+00 0.61236317D+06 0.61236317D+06 0.61236317D+06 0.10623433D+01  1  2 12  3  7  1       -2 0.365956889965D-03 0.100000000000D+01
-.483913078992D-04 0.000000000000D+00 -.132583771303D-05 0.191006149174D-06 0.000000000000D+00  7 21 2 23 -11 11 23 2 2 0.84062850D-01 0.35514667D+00 0.50601858D+06 0.50601858D+06 0.50601858D+06 0.10681433D+01  1  2  5  3  7  1       -2 -.366730137857D-03 0.100000000000D+01
  </mgrwgt>
  </event>
  <event>
  8     66 0.28248871E-05 0.19445379E+03 0.75467711E-02 0.10121772E+00
       -2 -1    0    0    0  501 0.00000000E+00 0.00000000E+00 0.14285315E+03 0.14285351E+03 0.32000000E+00 0.0000E+00 0.9000E+01
        2 -1    0    0  501    0 0.00000000E+00 0.00000000E+00 -.35728268E+03 0.35728282E+03 0.32000000E+00 0.0000E+00 0.9000E+01
       25  2    1    2    0    0 -.15812151E+02 0.95750798E+02 -.12584705E+03 0.34042541E+03 0.30105439E+03 0.0000E+00 0.0000E+00
       23  2    1    2    0    0 0.15812151E+02 -.95750798E+02 -.88582480E+02 0.15971092E+03 0.90788117E+02 0.0000E+00 0.0000E+00
       23  1    3    3    0    0 -.22101784E+02 -.33171551E+02 0.43659550E+02 0.10867497E+03 0.91188000E+02 0.0000E+00 0.9000E+01
      -13  1    4    4    0    0 -.34479971E+01 -.10830523E+03 -.63115283E+02 0.12540120E+03 0.10565837E+00 0.0000E+00 0.9000E+01
       13  1    4    4    0    0 0.19260148E+02 0.12554434E+02 -.25467197E+02 0.34309713E+02 0.10565837E+00 0.0000E+00 0.9000E+01
       23  1    3    3    0    0 0.62896332E+01 0.12892235E+03 -.16950660E+03 0.23175045E+03 0.91188000E+02 0.0000E+00 0.9000E+01
#aMCatNLO 1  0  0  2  2 0.15893833D+03 0.00000000D+00  -5  7  0 0.00000000D+00 0.00000000D+00 0.00000000D+00 0.00000000D+00 0.00000000D+00
  <mgrwgt>
 0.2068937933D-03    3    2    0
 0.225918307536009D+03 0.000000000000000D+00 0.000000000000000D+00 0.225918307536009D+03
 0.225918307536009D+03 0.000000000000000D+00 0.000000000000000D+00 -.225918307536009D+03
 0.141011550630473D+03 -.221017836082403D+02 -.331714974101589D+02 0.999007957331312D+02
 0.108853485233733D+03 -.344801927797457D+01 -.108305442967059D+03 -.103500451350939D+02
 0.258911341324297D+02 0.192601803000370D+02 0.125545856095013D+02 -.119070845149952D+02
 0.176080445075382D+03 0.628962258617790D+01 0.128922354767716D+03 -.776436660830420D+02
 0.000000000000000D+00 0.000000000000000D+00 -.000000000000000D+00 0.000000000000000D+00
 0.976183896207044D+03 0.000000000000000D+00 0.000000000000000D+00 0.976183896207044D+03
 0.248060378880170D+03 0.000000000000000D+00 0.000000000000000D+00 -.248060378880170D+03
 0.151916117941733D+03 -.679103419845376D+02 -.130870932569828D+02 0.999007957331312D+02
 0.101204635847820D+03 -.362972880031915D+02 -.939029380073105D+02 -.103500451350939D+02
 0.230147624239506D+02 0.116121877827447D+02 0.159077881140631D+02 -.119070845149952D+02
 0.202840182993075D+03 -.529666702572495D+02 0.154902812923810D+03 -.776436660830420D+02
 0.745268575880636D+03 0.145562112462234D+03 -.638205697735797D+02 0.728123517326874D+03
0.111915789287D-05 0.000000000000D+00 0.000000000000D+00 0.242395702584D-07 0.000000000000D+00  7 -2 2 23 -13 13 23 21 0 0.21977446D-01 0.54966604D-01 0.37812278D+05 0.37812278D+05 0.37812278D+05 0.11581236D+01  1  2  2  2  7  2        2 0.203992332510D-03 0.100000000000D+01
-.604750010553D-07 0.000000000000D+00 -.429786098965D-08 0.242395702584D-07 0.000000000000D+00  7 -2 2 23 -13 13 23 21 2 0.21977446D-01 0.54966604D-01 0.37812278D+05 0.37812278D+05 0.37812278D+05 0.11581236D+01  1  2  3  2  7  2        2 -.147845523624D-04 0.100000000000D+01
0.723431886903D-07 0.000000000000D+00 0.000000000000D+00 0.242395702584D-07 0.000000000000D+00  7 -2 2 23 -13 13 23 21 2 0.21977446D-01 0.54966604D-01 0.37812278D+05 0.37812278D+05 0.37812278D+05 0.11581236D+01  1  2 15  2  7  2        2 0.176860131061D-04 0.100000000000D+01
  </mgrwgt>
  </event>
  <event>
  8     66 -.28248871E-05 0.21730684E+03 0.75467711E-02 0.10514701E+00
       -2 -1    0    0    0  501 0.00000000E+00 0.00000000E+00 0.51203762E+02 0.51204761E+02 0.32000000E+00 0.0000E+00 0.9000E+01
        2 -1    0    0  501    0 0.00000000E+00 0.00000000E+00 -.27281339E+04 0.27281339E+04 0.32000000E+00 0.0000E+00 0.9000E+01
       25  2    1    2    0    0 -.17903903E+02 -.14501260E+03 -.53260337E+03 0.62815431E+03 0.29926959E+03 0.0000E+00 0.0000E+00
       23  2    1    2    0    0 0.17903903E+02 0.14501260E+03 -.21443268E+04 0.21511844E+04 0.90042729E+02 0.0000E+00 0.0000E+00
       23  1    3    3    0    0 0.74311026E+02 -.71304500E+02 -.98637093E+02 0.16926603E+03 0.91188000E+02 0.0000E+00 0.9000E+01
      -13  1    4    4    0    0 -.54919794E+01 0.22478407E+02 -.85325333E+02 0.88407377E+02 0.10565837E+00 0.0000E+00 0.9000E+01
       13  1    4    4    0    0 0.23395882E+02 0.12253419E+03 -.20590015E+04 0.20627770E+04 0.10565837E+00 0.0000E+00 0.9000E+01
       23  1    3    3    0    0 -.92214929E+02 -.73708101E+02 -.43396627E+03 0.45888828E+03 0.91188000E+02 0.0000E+00 0.9000E+01
#aMCatNLO 1  0  0  1  2 0.38768787D+02 0.00000000D+00  -5  7  0 0.00000000D+00 0.00000000D+00 0.00000000D+00 0.00000000D+00 0.00000000D+00
  <mgrwgt>
 -.2859964859D-05    1    2    0
 0.373754109451945D+03 0.000000000000000D+00 0.000000000000000D+00 0.373754109451945D+03
 0.373754109451945D+03 0.000000000000000D+00 0.000000000000000D+00 -.373754109451945D+03
 0.276121391477109D+03 0.743110263094655D+02 -.713044998803100D+02 0.239418694242759D+03
 0.231486481322353D+02 -.549201908483068D+01 0.224782689112044D+02 -.651968923706967D+00
 0.296121383353088D+03 0.233959216248648D+02 0.122534331780102D+03 -.268562547771415D+03
 0.152116795941457D+03 -.922149288494996D+02 -.737081008109964D+02 0.297958224523624D+02
 0.000000000000000D+00 0.000000000000000D+00 0.000000000000000D+00 0.000000000000000D+00
 0.475582405526474D+04 0.000000000000000D+00 0.000000000000000D+00 0.475582405526474D+04
 0.808751057016001D+03 0.000000000000000D+00 0.000000000000000D+00 -.808751057016001D+03
 0.576172471983008D+03 -.147169574096864D+03 -.494650655952512D+03 0.239418694242759D+03
 0.159636753064229D+02 -.156559088532168D+02 0.305063662063883D+01 -.651968923706967D+00
 0.372280983650483D+03 -.150297875671718D+03 -.209470373301016D+03 -.268562547771415D+03
 0.468206128008594D+03 -.253414603671160D+03 -.381831081201330D+03 0.297958224523624D+02
 0.413195185333224D+04 0.566537962292959D+03 0.108290147383422D+04 0.394707299824874D+04
-.691589281881D-07 0.000000000000D+00 0.000000000000D+00 0.319907118970D-06 0.000000000000D+00  7 -2 2 23 -13 13 23 21 2 0.78775801D-02 0.41971299D+00 0.47222263D+05 0.47222263D+05 0.47222263D+05 0.11494852D+01  1  2 14  1  7  1       -2 -.285996485935D-05 0.100000000000D+01
  </mgrwgt>
  </event>
  <event>
  8     66 0.28248871E-05 0.25301793E+03 0.75467711E-02 0.93957727E-01
       -2 -1    0    0    0  501 0.00000000E+00 0.00000000E+00 0.69173466E+02 0.69174206E+02 0.32000000E+00 0.0000E+00 0.9000E+01
        2 -1    0    0  501    0 0.00000000E+00 0.00000000E+00 -.15092988E+04 0.15092988E+04 0.32000000E+00 0.0000E+00 0.9000E+01
       25  2    1    2    0    0 -.76615166E+02 -.18469278E+03 -.11956552E+04 0.12496238E+04 0.30329356E+03 0.0000E+00 0.0000E+00
       23  2    1    2    0    0 0.76615166E+02 0.18469278E+03 -.24447006E+03 0.32884917E+03 0.91623444E+02 0.0000E+00 0.0000E+00
       23  1    3    3    0    0 0.30417142E+02 -.60037273E+02 -.15430202E+03 0.19145245E+03 0.91188000E+02 0.0000E+00 0.9000E+01
      -11  1    4    4    0    0 0.55958449E+02 0.77298087E+02 -.55165872E+02 0.11022530E+03 0.51099893E-03 0.0000E+00 0.9000E+01
       11  1    4    4    0    0 0.20656716E+02 0.10739470E+03 -.18930419E+03 0.21862387E+03 0.51099893E-03 0.0000E+00 0.9000E+01
       23  1    3    3    0    0 -.10703231E+03 -.12465551E+03 -.10413532E+04 0.10581714E+04 0.91188000E+02 0.0000E+00 0.9000E+01
#aMCatNLO 1  0  0  1  2 0.42572646D+03 0.00000000D+00  -5  7  0 0.00000000D+00 0.00000000D+00 0.00000000D+00 0.00000000D+00 0.00000000D+00
  <mgrwgt>
 0.2182270765D-03    5    2    0
 0.323116136778021D+03 0.000000000000000D+00 0.000000000000000D+00 0.323116136778021D+03
 0.323116136778021D+03 0.000000000000000D+00 0.000000000000000D+00 -.323116136778021D+03
 0.123776369334830D+03 0.304171419121910D+02 -.600372732341586D+02 0.497560203614891D+02
 0.146297065794583D+03 0.559584494551975D+02 0.772980874296800D+02 0.110889535459340D+03
 0.112142534542030D+03 0.206567163063974D+02 0.107394695512417D+03 0.248118419457835D+02
 0.264016303884600D+03 -.107032307673786D+03 -.124655509707939D+03 -.185457397766612D+03
 0.000000000000000D+00 -.000000000000000D+00 -.000000000000000D+00 0.000000000000000D+00
 0.600792638504867D+03 0.000000000000000D+00 0.000000000000000D+00 0.600792638504867D+03
 0.598798404639958D+03 0.000000000000000D+00 0.000000000000000D+00 -.598798404639958D+03
 0.154229168783955D+03 0.109180664831582D+03 -.327918591194579D+02 0.497560203614891D+02
 0.226675994269641D+03 0.161627826991598D+03 0.113850616360722D+03 0.110889535459340D+03
 0.170279385051870D+03 0.100671472441824D+03 0.135072928854361D+03 0.248118419457835D+02
 0.222675366829664D+03 0.308554150686322D+02 -.769582004941923D+02 -.185457397766612D+03
 0.425731128209697D+03 -.402335379333636D+03 -.139173485601434D+03 0.199423386490905D+01
0.197653628964D-05 0.000000000000D+00 0.000000000000D+00 0.123496666210D-07 0.000000000000D+00  7 -2 2 23 -11 11 23 21 0 0.10642131D-01 0.23219987D+00 0.64018073D+05 0.64018073D+05 0.64018073D+05 0.11379725D+01  1  2  2  1  7  1       -2 0.178995569462D-03 0.100000000000D+01
-.101822950589D-06 0.000000000000D+00 -.759041978618D-08 0.123496666210D-07 0.000000000000D+00  7 -2 2 23 -11 11 23 21 2 0.10642131D-01 0.23219987D+00 0.64018073D+05 0.64018073D+05 0.64018073D+05 0.11379725D+01  1  2  3  1  7  1       -2 -.119411640116D-04 0.100000000000D+01
0.122885654780D-06 0.000000000000D+00 0.000000000000D+00 0.123496666210D-07 0.000000000000D+00  7 -2 2 23 -11 11 23 21 2 0.10642131D-01 0.23219987D+00 0.64018073D+05 0.64018073D+05 0.64018073D+05 0.11379725D+01  1  2 15  1  7  1       -2 0.144112673017D-04 0.100000000000D+01
0.102034518552D-05 0.000000000000D+00 -.701927422696D-06 0.123496666210D-07 0.000000000000D+00  7 -2 2 23 -11 11 23 21 2 0.41252996D-01 0.23219987D+00 0.64018073D+05 0.64018073D+05 0.64018073D+05 0.11379725D+01  1  2  5  1  7  1       -2 0.124588499761D-04 0.100000000000D+01
0.176054443502D-06 0.000000000000D+00 -.113020333158D-06 0.123496666210D-07 0.000000000000D+00  7 21 2 23 -11 11 23 2 2 0.41252996D-01 0.23219987D+00 0.64018073D+05 0.64018073D+05 0.64018073D+05 0.11379725D+01  1  2  5  3  7  1       -2 0.243025538106D-04 0.100000000000D+01
  </mgrwgt>
  </event>
  <event>
  8     66 0.28248871E-05 0.20166965E+03 0.75467711E-02 0.87303160E-01
       -2 -1    0    0    0  501 0.00000000E+00 0.00000000E+00 0.24767185E+03 0.24767206E+03 0.32000000E+00 0.0000E+00 0.9000E+01
        2 -1    0    0  501    0 0.00000000E+00 0.00000000E+00 -.50206147E+03 0.50206157E+03 0.32000000E+00 0.0000E+00 0.9000E+01
       25  2    1    2    0    0 -.38496849E+02 0.60299510E+02 -.43613735E+03 0.53416711E+03 0.30000113E+03 0.0000E+00 0.0000E+00
       23  2    1    2    0    0 0.38496849E+02 -.60299510E+02 0.18174773E+03 0.21556652E+03 0.91206615E+02 0.0000E+00 0.0000E+00
       23  1    3    3    0    0 -.13927216E+02 0.14383347E+03 -.17720073E+03 0.24616536E+03 0.91188000E+02 0.0000E+00 0.9000E+01
      -11  1    4    4    0    0 0.31745760E+02 0.11875634E+02 0.22743921E+02 0.40818010E+02 0.51099893E-03 0.0000E+00 0.9000E+01
       11  1    4    4    0    0 0.67510890E+01 -.72175144E+02 0.15900381E+03 0.17474851E+03 0.51099893E-03 0.0000E+00 0.9000E+01
       23  1    3    3    0    0 -.24569633E+02 -.83533956E+02 -.25893661E+03 0.28800175E+03 0.91188000E+02 0.0000E+00 0.9000E+01
#aMCatNLO 1  0  0  2  1 0.95955126D+03 0.00000000D+00  -5  7  0 0.00000000D+00 0.00000000D+00 0.00000000D+00 0.00000000D+00 0.00000000D+00
  <mgrwgt>
 0.2501599138D-03    3    2    0
 0.352628146776843D+03 0.000000000000000D+00 0.000000000000000D+00 0.352628146776843D+03
 0.352628146776843D+03 0.000000000000000D+00 0.000000000000000D+00 -.352628146776843D+03
 0.197772673382874D+03 -.139272159851756D+02 0.143833465103738D+03 -.995828597910454D+02
 0.515960684794353D+02 0.317457603033911D+02 0.118756344479406D+02 0.389015461357657D+02
 0.243122610067633D+03 0.675108895890480D+01 -.721751440043478D+02 0.232064161196681D+03
 0.212764941623743D+03 -.245696332771203D+02 -.835339555473311D+02 -.171382847541401D+03
 0.000000000000000D+00 -.000000000000000D+00 0.000000000000000D+00 0.000000000000000D+00
 0.326128416555231D+04 0.000000000000000D+00 0.000000000000000D+00 0.326128416555231D+04
 0.681770684768114D+03 0.000000000000000D+00 0.000000000000000D+00 -.681770684768114D+03
 0.163194940230109D+03 0.914986611663788D+02 -.534660764465653D+01 -.995828597910454D+02
 0.988542411955144D+02 0.756869762658031D+02 -.503022100342279D+02 0.389015461357657D+02
 0.496017161049060D+03 0.222627682228916D+03 -.377645553725488D+03 0.232064161196681D+03
 0.432784222782094D+03 0.163972452869443D+03 -.350325400754327D+03 -.171382847541401D+03
 0.275220428506365D+04 -.553785772530541D+03 0.783619772158700D+03 0.257951348078420D+04
0.495806951182D-05 0.000000000000D+00 0.000000000000D+00 0.945879781632D-06 0.000000000000D+00  7 -2 2 23 -11 11 23 21 0 0.38103386D-01 0.77240250D-01 0.40670648D+05 0.40670648D+05 0.40670648D+05 0.11552689D+01  1  2  2  2  7  2        2 0.241612543096D-03 0.100000000000D+01
-.170878050661D-06 0.000000000000D+00 -.190402924151D-07 0.945879781632D-06 0.000000000000D+00  7 -2 2 23 -11 11 23 21 2 0.38103386D-01 0.77240250D-01 0.40670648D+05 0.40670648D+05 0.40670648D+05 0.11552689D+01  1  2  3  2  7  2        2 -.111137172894D-04 0.100000000000D+01
0.302297448992D-06 0.000000000000D+00 0.000000000000D+00 0.945879781632D-06 0.000000000000D+00  7 -2 2 23 -11 11 23 21 2 0.38103386D-01 0.77240250D-01 0.40670648D+05 0.40670648D+05 0.40670648D+05 0.11552689D+01  1  2 15  2  7  2        2 0.196610879654D-04 0.100000000000D+01
  </mgrwgt>
  </event>
  <event>
  9     66 0.28248871E-05 0.17724988E+03 0.75467711E-02 0.10119559E+00
       -2 -1    0    0    0  502 0.00000000E+00 0.00000000E+00 0.64165124E+02 0.64165922E+02 0.32000000E+00 0.0000E+00 0.9000E+01
        2 -1    0    0  501    0 0.00000000E+00 0.00000000E+00 -.21802896E+04 0.21802897E+04 0.32000000E+00 0.0000E+00 0.9000E+01
       25  2    1    2    0    0 0.11360571E+01 -.44236076E+02 -.54591572E+03 0.62518339E+03 0.30145013E+03 0.0000E+00 0.0000E+00
       23  2    1    2    0    0 0.47287679E+02 -.11962342E+03 -.12052431E+04 0.12162891E+04 0.10100766E+03 0.0000E+00 0.0000E+00
       23  1    3    3    0    0 -.96386294E+02 0.76202821E+01 -.39660375E+03 0.41828001E+03 0.91188000E+02 0.0000E+00 0.9000E+01
      -11  1    4    4    0    0 0.38826890E+02 -.42557024E+02 -.88196494E+03 0.88384432E+03 0.51099893E-03 0.0000E+00 0.9000E+01
       11  1    4    4    0    0 0.84607888E+01 -.77066394E+02 -.32327812E+03 0.33244482E+03 0.51099893E-03 0.0000E+00 0.9000E+01
       23  1    3    3    0    0 0.97522351E+02 -.51856359E+02 -.14931197E+03 0.20690338E+03 0.91188000E+02 0.0000E+00 0.9000E+01
       21  1    1    2  501  502 -.48423736E+02 0.16385949E+03 -.36496573E+03 0.40298305E+03 0.75000000E+00 0.0000E+00 0.9000E+01
#aMCatNLO 2  0  0  1  2 0.17086484D+03 0.00000000D+00  -5  7  0 0.00000000D+00 0.00000000D+00 0.00000000D+00 0.00000000D+00 0.00000000D+00
  <mgrwgt>
 0.3015719332D-04    2    2    0
 0.271693399729278D+03 0.000000000000000D+00 0.000000000000000D+00 0.271693399729278D+03
 0.271693399729278D+03 0.000000000000000D+00 0.000000000000000D+00 -.271693399729278D+03
 0.150263240751855D+03 -.108708454115267D+03 0.493168357376694D+02 0.375658008600446D+01
 0.136663005816356D+03 0.265328046429197D+02 -.955472516138563D+00 -.134059220155918D+03
 0.608018412430328D+02 0.229614374095598D+01 -.562060511994646D+02 -.230753424899176D+02
 0.195658711647313D+03 0.798795057313912D+02 0.784468797793376D+01 0.153377982559831D+03
 0.000000000000000D+00 -.000000000000000D+00 0.000000000000000D+00 0.000000000000000D+00
 0.404697277786193D+03 0.000000000000000D+00 0.000000000000000D+00 0.404697277786193D+03
 0.345687726832518D+03 0.000000000000000D+00 0.000000000000000D+00 -.345687726832518D+03
 0.132957698673769D+03 -.963862941381300D+02 0.762028221263368D+01 0.375658008600446D+01
 0.145912653284203D+03 0.388268902572934D+02 -.425570261246168D+02 -.134059220155918D+03
 0.808905756345838D+02 0.846078902408367D+01 -.770663924454575D+02 -.230753424899176D+02
 0.209856493209356D+03 0.975223510575135D+02 -.518563584164915D+02 0.153377982559831D+03
 0.180767583816799D+03 -.484237362007606D+02 0.163859494773932D+03 0.590095509536749D+02
-.934274928852D-09 0.000000000000D+00 0.000000000000D+00 0.152436001446D-08 0.000000000000D+00  7 -2 2 23 -11 11 23 21 2 0.10416841D-01 0.26363018D+00 0.84720816D+05 0.84720816D+05 0.84720816D+05 0.11276796D+01  1  2 13  1  7  1       -2 -.862386067953D-07 0.100000000000D+01
0.536455012307D-06 0.000000000000D+00 0.000000000000D+00 0.152436001446D-08 0.381606585129D-12  7 -2 2 23 -11 11 23 21 2 0.98715997D-02 0.33542853D+00 0.84720816D+05 0.84720816D+05 0.84720816D+05 0.11276796D+01  1  2  1  1  7  1       -2 0.302434319243D-04 0.100000000000D+01
  </mgrwgt>
  </event>
  <event>
  7     66 0.28248871E-05 0.26111100E+03 0.75467711E-02 0.89397204E-01
       -2 -1    0    0    0  501 0.00000000E+00 0.00000000E+00 0.57268621E+03 0.57268630E+03 0.32000000E+00 0.0000E+00 0.9000E+01
        2 -1    0    0  501    0 0.00000000E+00 0.00000000E+00 -.45253340E+03 0.45253351E+03 0.32000000E+00 0.0000E+00 0.9000E+01
       25  2    1    2    0    0 0.67189365E+02 -.13419147E+03 -.36627340E+03 0.49659088E+03 0.29987420E+03 0.0000E+00 0.0000E+00
       23  1    3    3    0    0 -.50565469E+02 0.28493387E+02 -.16937508E+03 0.20092762E+03 0.91188000E+02 0.0000E+00 0.9000E+01
      -13  1    1    2    0    0 -.45912762E+02 -.10682401E+02 0.51987141E+02 0.70176701E+02 0.10565837E+00 0.0000E+00 0.9000E+01
       13  1    1    2    0    0 -.21276603E+02 0.14487387E+03 0.43443907E+03 0.45845223E+03 0.10565837E+00 0.0000E+00 0.9000E+01
       23  1    3    3    0    0 0.11775483E+03 -.16268486E+03 -.19689832E+03 0.29566326E+03 0.91188000E+02 0.0000E+00 0.9000E+01
#aMCatNLO 1  0  0  2  1 0.74156990D+03 0.00000000D+00  -5  7  0 0.00000000D+00 0.00000000D+00 0.00000000D+00 0.00000000D+00 0.00000000D+00
  <mgrwgt>
 0.2650180988D-03    5    2    0
 0.509077343916636D+03 0.000000000000000D+00 0.000000000000000D+00 0.509077343916636D+03
 0.509077343916636D+03 0.000000000000000D+00 0.000000000000000D+00 -.509077343916636D+03
 0.222309924452226D+03 -.505654655842823D+02 0.284933790539049D+02 -.194261967987276D+03
 0.645284059533569D+02 -.459126808705589D+02 -.106824088238411D+02 0.440661667481955D+02
 0.410365372422680D+03 -.212766932884643D+02 0.144873896053272D+03 0.383351790720559D+03
 0.320950985005009D+03 0.117754839743306D+03 -.162684866283336D+03 -.233155989481479D+03
 0.000000000000000D+00 0.000000000000000D+00 -.000000000000000D+00 -.000000000000000D+00
 0.656969394138315D+03 0.000000000000000D+00 0.000000000000000D+00 0.656969394138315D+03
 0.568894642162954D+04 0.000000000000000D+00 0.000000000000000D+00 -.568894642162954D+04
 0.310055832856855D+03 -.128058707164576D+03 0.183528263375442D+03 -.194261967987276D+03
 0.878217167857945D+02 -.680893605388534D+02 0.336848017469983D+02 0.440661667481955D+02
 0.608988229918244D+03 -.169657790076562D+03 0.441728766322314D+03 0.383351790720559D+03
 0.252723393072628D+03 0.342485537764849D+02 0.437986247204884D+01 -.233155989481479D+03
 0.508632664313433D+04 0.331557304003507D+03 -.663321693916804D+03 -.503197702749122D+04
0.257711575548D-04 0.000000000000D+00 0.000000000000D+00 0.202609502627D-08 0.000000000000D+00  7 -2 2 23 -13 13 23 21 0 0.88105587D-01 0.69620539D-01 0.68178952D+05 0.68178952D+05 0.68178952D+05 0.11356341D+01  1  2  2  2  7  2        2 0.254421869756D-03 0.100000000000D+01
-.655758502567D-06 0.000000000000D+00 -.989680307122D-07 0.202609502627D-08 0.000000000000D+00  7 -2 2 23 -13 13 23 21 2 0.88105587D-01 0.69620539D-01 0.68178952D+05 0.68178952D+05 0.68178952D+05 0.11356341D+01  1  2  3  2  7  2        2 -.834913101831D-05 0.100000000000D+01
0.154140933839D-05 0.000000000000D+00 0.000000000000D+00 0.202609502627D-08 0.000000000000D+00  7 -2 2 23 -13 13 23 21 2 0.88105587D-01 0.69620539D-01 0.68178952D+05 0.68178952D+05 0.68178952D+05 0.11356341D+01  1  2 15  2  7  2        2 0.196252560488D-04 0.100000000000D+01
-.131089888194D-03 0.000000000000D+00 -.212979233077D-04 0.202609502627D-08 0.000000000000D+00  7 -2 2 23 -13 13 23 21 2 0.88105587D-01 0.78802269D+00 0.68178952D+05 0.68178952D+05 0.68178952D+05 0.11356341D+01  1  2  5  2  7  2        2 -.678611301863D-06 0.100000000000D+01
-.411397327558D-04 0.000000000000D+00 -.606091535669D-05 0.202609502627D-08 0.000000000000D+00  7 -2 21 23 -13 13 23 -2 2 0.88105587D-01 0.78802269D+00 0.68178952D+05 0.68178952D+05 0.68178952D+05 0.11356341D+01  1  2  5  4  7  2        2 -.128472243790D-08 0.100000000000D+01
  </mgrwgt>
  </event>
  <event>
  9     66 0.28248871E-05 0.37398287E+03 0.75467711E-02 0.97190636E-01
       -2 -1    0    0    0  501 0.00000000E+00 0.00000000E+00 0.24963496E+04 0.24963497E+04 0.32000000E+00 0.0000E+00 0.9000E+01
        2 -1    0    0  502    0 0.00000000E+00 0.00000000E+00 -.71673837E+02 0.71674552E+02 0.32000000E+00 0.0000E+00 0.9000E+01
       25  2    1    2    0    0 0.31616945E+03 0.64369935E+02 0.11509095E+04 0.12328418E+04 0.30199261E+03 0.0000E+00 0.0000E+00
       23  2    1    2    0    0 -.31164499E+03 -.11775180E+03 0.10577579E+04 0.11126284E+04 0.90012096E+02 0.0000E+00 0.0000E+00
       23  1    3    3    0    0 0.35246885E+02 0.67632311E+02 0.16314992E+03 0.20186535E+03 0.91188000E+02 0.0000E+00 0.9000E+01
      -11  1    4    4    0    0 -.42407330E+02 -.49158922E+01 0.25260118E+03 0.25618334E+03 0.51099893E-03 0.0000E+00 0.9000E+01
       11  1    4    4    0    0 -.26923766E+03 -.11283590E+03 0.80515669E+03 0.85644506E+03 0.51099893E-03 0.0000E+00 0.9000E+01
       23  1    3    3    0    0 0.28092257E+03 -.32623766E+01 0.98775958E+03 0.10309764E+04 0.91188000E+02 0.0000E+00 0.9000E+01
       21  1    1    2  502  501 -.45244653E+01 0.53381861E+02 0.21600843E+03 0.22255404E+03 0.75000000E+00 0.0000E+00 0.9000E+01
#aMCatNLO 2  0  0  2  2 0.53573257D+02 0.00000000D+00  -5  7  0 0.00000000D+00 0.00000000D+00 0.00000000D+00 0.00000000D+00 0.00000000D+00
  <mgrwgt>
 0.3164444993D-04    1    2    0
 0.393747602926658D+03 0.000000000000000D+00 0.000000000000000D+00 0.393747602926658D+03
 0.393747602926658D+03 0.000000000000000D+00 0.000000000000000D+00 -.393747602926658D+03
 0.148034071671224D+03 0.344108783483386D+02 0.774959318787303D+02 -.800568986727815D+02
 0.544610940898266D+02 -.427197645406083D+02 -.122963065281438D+01 0.337567844368149D+02
 0.286525959807163D+03 -.270897533721975D+03 -.932518857032440D+02 -.396707443290712D+01
 0.298474080285103D+03 0.279206419914245D+03 0.169855844773281D+02 0.502671886688738D+02
 0.000000000000000D+00 -.000000000000000D+00 0.000000000000000D+00 0.000000000000000D+00
 0.432660602264825D+03 0.000000000000000D+00 0.000000000000000D+00 0.432660602264825D+03
 0.413538451137065D+03 0.000000000000000D+00 0.000000000000000D+00 -.413538451137065D+03
 0.143320727142280D+03 0.352468853257118D+02 0.676323113188071D+02 -.800568986727815D+02
 0.544248848375182D+02 -.424073295352743D+02 -.491589216217979D+01 0.337567844368149D+02
 0.291953071269924D+03 -.269237658860761D+03 -.112835903840761D+03 -.396707443290712D+01
 0.299616711979172D+03 0.280922568326668D+03 -.326237663161121D+01 0.502671886688738D+02
 0.568836581729958D+02 -.452446525634431D+01 0.533818613157454D+02 0.191221511277600D+02
0.444403068105D-04 0.000000000000D+00 0.000000000000D+00 0.361589824031D-07 0.825015467844D-10  7 -2 2 23 -11 11 23 21 2 0.38405159D+00 0.11026736D-01 0.16097649D+06 0.16097649D+06 0.16097649D+06 0.11051396D+01  1  2  1  2  7  2        2 0.316444499281D-04 0.100000000000D+01
  </mgrwgt>
  </event>
  <event>
  8     66 0.28248871E-05 0.18807403E+03 0.75467711E-02 0.10210719E+00
       -2 -1    0    0    0  501 0.00000000E+00 0.00000000E+00 0.34927349E+02 0.34928815E+02 0.32000000E+00 0.0000E+00 0.9000E+01
        2 -1    0    0  501    0 0.00000000E+00 0.00000000E+00 -.30580735E+04 0.30580735E+04 0.32000000E+00 0.0000E+00 0.9000E+01
       25  2    1    2    0    0 -.17299728E+03 -.41619495E+02 -.26196539E+04 0.26426585E+04 0.29899371E+03 0.0000E+00 0.0000E+00
       23  2    1    2    0    0 0.17299728E+03 0.41619495E+02 -.40349229E+03 0.45034385E+03 0.91341762E+02 0.0000E+00 0.0000E+00
       23  1    3    3    0    0 -.19598338E+03 0.31813842E+02 -.13689058E+04 0.13862322E+04 0.91188000E+02 0.0000E+00 0.9000E+01
      -11  1    4    4    0    0 0.17099015E+03 0.13805013E+02 -.35811361E+03 0.39708131E+03 0.51099893E-03 0.0000E+00 0.9000E+01
       11  1    4    4    0    0 0.20071319E+01 0.27814482E+02 -.45378680E+02 0.53262544E+02 0.51099893E-03 0.0000E+00 0.9000E+01
       23  1    3    3    0    0 0.22986103E+02 -.73433337E+02 -.12507481E+04 0.12564263E+04 0.91188000E+02 0.0000E+00 0.9000E+01
#aMCatNLO 1  0  0  2  1 0.60941455D+01 0.00000000D+00  -5  7  0 0.00000000D+00 0.00000000D+00 0.00000000D+00 0.00000000D+00 0.00000000D+00
  <mgrwgt>
 0.4046505468D-03   11    2    0
 0.326822112264566D+03 0.000000000000000D+00 0.000000000000000D+00 0.326822112264566D+03
 0.326822112264566D+03 0.000000000000000D+00 0.000000000000000D+00 -.326822112264566D+03
 0.228285327342128D+03 -.195983380094029D+03 0.318138420717425D+02 -.661614201423762D+02
 0.222664911204584D+03 0.170990145457120D+03 0.138050125329030D+02 0.141955818715770D+03
 0.421556410061807D+02 0.200713190894675D+01 0.278144821367910D+02 0.316136690943050D+02
 0.160538344976241D+03 0.229861027279617D+02 -.734333367414364D+02 -.107408067667698D+03
 0.000000000000000D+00 0.000000000000000D+00 -.000000000000000D+00 -.000000000000000D+00
 0.327051281359231D+03 0.000000000000000D+00 0.000000000000000D+00 0.327051281359231D+03
 0.370027785675945D+03 0.000000000000000D+00 0.000000000000000D+00 -.370027785675945D+03
 0.229498281534202D+03 -.197092436781933D+03 0.336369994389495D+02 -.661614201423762D+02
 0.221956027943840D+03 0.169912977518856D+03 0.155757485861502D+02 0.141955818715770D+03
 0.423692990306834D+02 0.180235622841801D+01 0.281511090149774D+02 0.316136690943050D+02
 0.159849024290081D+03 0.222099112092726D+02 -.721573701464949D+02 -.107408067667698D+03
 0.434064342363705D+02 0.316719182538631D+01 -.520648689358224D+01 -.429765043167138D+02
0.619521766891D-05 0.000000000000D+00 0.000000000000D+00 0.154014956830D-06 0.000000000000D+00  7 -2 2 23 -11 11 23 21 0 0.53735523D-02 0.47047296D+00 0.72155624D+05 0.72155624D+05 0.72155624D+05 0.11335416D+01  1  2  2  2  7  2        2 0.213838805251D-03 0.100000000000D+01
-.328082131851D-06 0.000000000000D+00 -.237912670869D-07 0.154014956830D-06 0.000000000000D+00  7 -2 2 23 -11 11 23 21 2 0.53735523D-02 0.47047296D+00 0.72155624D+05 0.72155624D+05 0.72155624D+05 0.11335416D+01  1  2  3  2  7  2        2 -.145508183677D-04 0.100000000000D+01
0.398448615691D-06 0.000000000000D+00 0.000000000000D+00 0.154014956830D-06 0.000000000000D+00  7 -2 2 23 -11 11 23 21 2 0.53735523D-02 0.47047296D+00 0.72155624D+05 0.72155624D+05 0.72155624D+05 0.11335416D+01  1  2 15  2  7  2        2 0.176716525313D-04 0.100000000000D+01
0.290408739926D-03 0.000000000000D+00 0.000000000000D+00 0.154014956830D-06 0.000000000000D+00  7 -2 2 23 -11 11 23 21 2 0.53735523D-02 0.53282116D+00 0.73730948D+05 0.73730948D+05 0.73730948D+05 0.11327475D+01  1  2 12  2  7  2        2 0.696042582536D-02 0.100000000000D+01
-.357628663970D-03 0.000000000000D+00 0.000000000000D+00 0.154014956830D-06 0.000000000000D+00  7 -2 2 23 -11 11 23 21 2 0.53735523D-02 0.47047296D+00 0.72155624D+05 0.72155624D+05 0.72155624D+05 0.11335416D+01  1  2  4  2  7  2        2 -.158612409129D-01 0.100000000000D+01
-.370877726286D-03 0.000000000000D+00 -.401516988720D-05 0.154014956830D-06 0.000000000000D+00  7 -2 2 23 -11 11 23 21 2 0.53735523D-02 0.53275125D+00 0.72155624D+05 0.72155624D+05 0.72155624D+05 0.11335416D+01  1  2  5  2  7  2        2 -.891617066137D-02 0.100000000000D+01
0.368556110059D-03 0.000000000000D+00 0.398434221421D-05 0.154014956830D-06 0.000000000000D+00  7 -2 2 23 -11 11 23 21 2 0.53735523D-02 0.47047296D+00 0.72155624D+05 0.72155624D+05 0.72155624D+05 0.11335416D+01  1  2  6  2  7  2        2 0.163458856645D-01 0.100000000000D+01
0.691820483073D-04 0.000000000000D+00 0.000000000000D+00 0.154014956830D-06 0.285910616956D-07  7 -2 2 23 -11 11 23 21 2 0.53773203D-02 0.53266919D+00 0.73730948D+05 0.73730948D+05 0.73730948D+05 0.11327475D+01  1  2 11  2  7  2        2 0.165900701182D-02 0.100000000000D+01
0.568084847170D-05 0.000000000000D+00 0.000000000000D+00 0.154014956830D-06 0.000000000000D+00  7 -2 21 23 -11 11 23 -2 2 0.53735523D-02 0.53282116D+00 0.73730948D+05 0.73730948D+05 0.73730948D+05 0.11327475D+01  1  2 12  4  7  2        2 0.542943914637D-05 0.100000000000D+01
-.722873617638D-05 0.000000000000D+00 -.784737506270D-07 0.154014956830D-06 0.000000000000D+00  7 -2 21 23 -11 11 23 -2 2 0.53735523D-02 0.53275125D+00 0.72155624D+05 0.72155624D+05 0.72155624D+05 0.11335416D+01  1  2  5  4  7  2        2 -.694246065158D-05 0.100000000000D+01
0.135447949817D-05 0.000000000000D+00 0.000000000000D+00 0.154014956830D-06 0.559533158174D-09  7 -2 21 23 -11 11 23 -2 2 0.53773203D-02 0.53266919D+00 0.73730948D+05 0.73730948D+05 0.73730948D+05 0.11327475D+01  1  2 11  4  7  2        2 0.129700155510D-05 0.100000000000D+01
  </mgrwgt>
  </event>
  <event>
  8     66 0.28248871E-05 0.32693976E+03 0.75467711E-02 0.87725008E-01
       -2 -1    0    0    0  501 0.00000000E+00 0.00000000E+00 0.14583902E+03 0.14583937E+03 0.32000000E+00 0.0000E+00 0.9000E+01
        2 -1    0    0  501    0 0.00000000E+00 0.00000000E+00 -.12226812E+04 0.12226813E+04 0.32000000E+00 0.0000E+00 0.9000E+01
       25  2    1    2    0    0 -.26844502E+03 0.65650351E+01 -.20508104E+03 0.45168714E+03 0.29976192E+03 0.0000E+00 0.0000E+00
       23  2    1    2    0    0 0.26844502E+03 -.65650351E+01 -.87176117E+03 0.91683351E+03 0.92251365E+02 0.0000E+00 0.0000E+00
       23  1    3    3    0    0 -.27645010E+03 0.62120699E+01 -.21157136E+03 0.35991796E+03 0.91188000E+02 0.0000E+00 0.9000E+01
      -13  1    4    4    0    0 0.89837624E+02 -.20081041E+02 -.17890756E+03 0.20120132E+03 0.10565837E+00 0.0000E+00 0.9000E+01
       13  1    4    4    0    0 0.17860739E+03 0.13516006E+02 -.69285361E+03 0.71563218E+03 0.10565837E+00 0.0000E+00 0.9000E+01
       23  1    3    3    0    0 0.80050819E+01 0.35296521E+00 0.64903200E+01 0.91769175E+02 0.91188000E+02 0.0000E+00 0.9000E+01
#aMCatNLO 1  0  0  2  2 0.86495742D+03 0.00000000D+00  -5  7  0 0.00000000D+00 0.00000000D+00 0.00000000D+00 0.00000000D+00 0.00000000D+00
  <mgrwgt>
 0.2361970667D-03    3    2    0
 0.422273491627066D+03 0.000000000000000D+00 0.000000000000000D+00 0.422273491627066D+03
 0.422273491627066D+03 0.000000000000000D+00 0.000000000000000D+00 -.422273491627066D+03
 0.313453478660518D+03 -.276450099715878D+03 0.621206987251620D+01 0.116080077943462D+03
 0.979137431008858D+02 0.898375077144431D+02 -.200810845750085D+02 -.333627537528754D+02
 0.276199671714650D+03 0.178607510174197D+03 0.135160494911626D+02 -.210244934233401D+03
 0.156980089778077D+03 0.800508182723743D+01 0.352965211329702D+00 0.127527610042814D+03
 0.000000000000000D+00 0.000000000000000D+00 -.000000000000000D+00 0.000000000000000D+00
 0.111897534073436D+04 0.000000000000000D+00 0.000000000000000D+00 0.111897534073436D+04
 0.967955330705312D+03 0.000000000000000D+00 0.000000000000000D+00 -.967955330705312D+03
 0.612778697954320D+03 -.495320598251175D+03 0.329189006158058D+03 0.116080077943462D+03
 0.715130660954880D+02 0.498016170055033D+02 0.389980028724521D+02 -.333627537528754D+02
 0.304194578758400D+03 0.414591988163192D+02 0.215899384456516D+03 -.210244934233401D+03
 0.220401968610713D+03 -.811710463004927D+02 0.131945997827630D+03 0.127527610042814D+03
 0.878042360020750D+03 0.485230828729845D+03 -.716032391314655D+03 0.151020010029048D+03
0.597525530444D-05 0.000000000000D+00 0.000000000000D+00 0.773541299511D-06 0.000000000000D+00  7 -2 2 23 -13 13 23 21 0 0.22436803D-01 0.18810483D+00 0.10688961D+06 0.10688961D+06 0.10688961D+06 0.11193553D+01  1  2  2  2  7  2        2 0.232895943237D-03 0.100000000000D+01
-.305532787810D-06 0.000000000000D+00 -.229465536899D-07 0.773541299511D-06 0.000000000000D+00  7 -2 2 23 -13 13 23 21 2 0.22436803D-01 0.18810483D+00 0.10688961D+06 0.10688961D+06 0.10688961D+06 0.11193553D+01  1  2  3  2  7  2        2 -.149210425569D-04 0.100000000000D+01
0.373128698773D-06 0.000000000000D+00 0.000000000000D+00 0.773541299511D-06 0.000000000000D+00  7 -2 2 23 -13 13 23 21 2 0.22436803D-01 0.18810483D+00 0.10688961D+06 0.10688961D+06 0.10688961D+06 0.11193553D+01  1  2 15  2  7  2        2 0.182221660513D-04 0.100000000000D+01
  </mgrwgt>
  </event>
  <event>
  8     66 0.28248871E-05 0.19944582E+03 0.75467711E-02 0.89870599E-01
       -4 -1    0    0    0  501 0.00000000E+00 0.00000000E+00 0.50239239E+03 0.50239478E+03 0.15500000E+01 0.0000E+00 0.9000E+01
        4 -1    0    0  501    0 0.00000000E+00 0.00000000E+00 -.12945990E+03 0.12946917E+03 0.15500000E+01 0.0000E+00 0.9000E+01
       25  2    1    2    0    0 0.16483841E+02 -.14166505E+03 0.30004301E+03 0.44808264E+03 0.30068511E+03 0.0000E+00 0.0000E+00
       23  2    1    2    0    0 -.16483841E+02 0.14166505E+03 0.72889481E+02 0.18378132E+03 0.90122101E+02 0.0000E+00 0.0000E+00
       23  1    3    3    0    0 0.13039936E+01 -.11113343E+03 0.31809111E+03 0.34906954E+03 0.91188000E+02 0.0000E+00 0.9000E+01
      -13  1    4    4    0    0 -.20382734E+02 0.49119723E+01 -.10616061E+02 0.23500963E+02 0.10565837E+00 0.0000E+00 0.9000E+01
       13  1    4    4    0    0 0.38988934E+01 0.13675308E+03 0.83505542E+02 0.16028036E+03 0.10565837E+00 0.0000E+00 0.9000E+01
       23  1    3    3    0    0 0.15179847E+02 -.30531618E+02 -.18048096E+02 0.99013093E+02 0.91188000E+02 0.0000E+00 0.9000E+01
#aMCatNLO 1  0  0  2  2 0.74329917D+03 0.00000000D+00  -5  7  0 0.00000000D+00 0.00000000D+00 0.00000000D+00 0.00000000D+00 0.00000000D+00
  <mgrwgt>
 0.4884545429D-04    3    2    0
 0.255035985126939D+03 0.000000000000000D+00 0.000000000000000D+00 0.255035985126939D+03
 0.255035985126939D+03 0.000000000000000D+00 0.000000000000000D+00 -.255035985126939D+03
 0.199850133289348D+03 0.130399441514163D+01 -.111133436630133D+03 0.138825369774807D+03
 0.368740409915083D+02 -.203827676442931D+02 0.491179285942081D+01 -.303333475420754D+02
 0.137497310283301D+03 0.389892583538728D+01 0.136753266152696D+03 -.137423763971995D+02
 0.135850485689720D+03 0.151798473937642D+02 -.305316223819843D+02 -.947496458355319D+02
 0.000000000000000D+00 0.000000000000000D+00 -.000000000000000D+00 0.000000000000000D+00
 0.177542140480168D+04 0.000000000000000D+00 0.000000000000000D+00 0.177542140480168D+04
 0.555009421569371D+03 0.000000000000000D+00 0.000000000000000D+00 -.555009421569371D+03
 0.195604463307432D+03 -.490471936601478D+02 0.909271368885035D+02 0.138825369774807D+03
 0.792969162975103D+02 -.351742146768585D+02 0.642702387038689D+02 -.303333475420754D+02
 0.435002974668976D+03 -.689945738706762D+02 0.429276698457090D+03 -.137423763971995D+02
 0.191576134864857D+03 -.265096904047051D+02 0.136769532551829D+03 -.947496458355319D+02
 0.142895033723227D+04 0.179725672612388D+03 -.721243606601292D+03 0.122041198323231D+04
0.615570993956D-05 0.000000000000D+00 0.000000000000D+00 0.498644507113D-07 0.000000000000D+00  7 -4 4 23 -13 13 23 21 0 0.77292035D-01 0.19917805D-01 0.39778636D+05 0.39778636D+05 0.39778636D+05 0.11561354D+01  1  2  2  2  7  2        4 0.480730574317D-04 0.100000000000D+01
-.316849396785D-06 0.000000000000D+00 -.236395470036D-07 0.498644507113D-07 0.000000000000D+00  7 -4 4 23 -13 13 23 21 2 0.77292035D-01 0.19917805D-01 0.39778636D+05 0.39778636D+05 0.39778636D+05 0.11561354D+01  1  2  3  2  7  2        4 -.330745436395D-05 0.100000000000D+01
0.390843910474D-06 0.000000000000D+00 0.000000000000D+00 0.498644507113D-07 0.000000000000D+00  7 -4 4 23 -13 13 23 21 2 0.77292035D-01 0.19917805D-01 0.39778636D+05 0.39778636D+05 0.39778636D+05 0.11561354D+01  1  2 15  2  7  2        4 0.407985121777D-05 0.100000000000D+01
  </mgrwgt>
  </event>
  <event>
  8     66 0.28248871E-05 0.60776583E+03 0.75467711E-02 0.85868017E-01
       -2 -1    0    0    0  501 0.00000000E+00 0.00000000E+00 0.27142944E+03 0.27142963E+03 0.32000000E+00 0.0000E+00 0.9000E+01
        2 -1    0    0  501    0 0.00000000E+00 0.00000000E+00 -.24324655E+04 0.24324655E+04 0.32000000E+00 0.0000E+00 0.9000E+01
       25  2    1    2    0    0 -.55617162E+03 -.13244036E+03 -.20021996E+04 0.21036629E+04 0.29954476E+03 0.0000E+00 0.0000E+00
       23  2    1    2    0    0 0.55617162E+03 0.13244036E+03 -.15883653E+03 0.60023230E+03 0.90456896E+02 0.0000E+00 0.0000E+00
       23  1    3    3    0    0 -.60960672E+02 0.18207192E+02 -.23529838E+03 0.26024659E+03 0.91188000E+02 0.0000E+00 0.9000E+01
      -11  1    4    4    0    0 0.34660700E+03 0.12692799E+03 -.96468700E+02 0.38151453E+03 0.51099893E-03 0.0000E+00 0.9000E+01
       11  1    4    4    0    0 0.20956463E+03 0.55123727E+01 -.62367826E+02 0.21871777E+03 0.51099893E-03 0.0000E+00 0.9000E+01
       23  1    3    3    0    0 -.49521095E+03 -.15064756E+03 -.17669012E+04 0.18434163E+04 0.91188000E+02 0.0000E+00 0.9000E+01
#aMCatNLO 1  0  0  1  2 0.92256577D+03 0.00000000D+00  -5  7  0 0.00000000D+00 0.00000000D+00 0.00000000D+00 0.00000000D+00 0.00000000D+00
  <mgrwgt>
 0.2390360770D-03    5    2    0
 0.812553404395945D+03 0.000000000000000D+00 0.000000000000000D+00 0.812553404395945D+03
 0.812553404395945D+03 0.000000000000000D+00 0.000000000000000D+00 -.812553404395945D+03
 0.120109762401743D+03 -.609606722494112D+02 0.182071922315012D+02 -.454246438637456D+02
 0.506491602985826D+03 0.346606998573231D+03 0.126927991584217D+03 0.346823611346756D+03
 0.280972799340485D+03 0.209564625927844D+03 0.551237271929283D+01 0.187077511411593D+03
 0.717532644063835D+03 -.495210952251664D+03 -.150647556535011D+03 -.488476478894603D+03
 0.000000000000000D+00 -.000000000000000D+00 -.000000000000000D+00 0.000000000000000D+00
 0.200295185516899D+04 0.000000000000000D+00 0.000000000000000D+00 0.200295185516899D+04
 0.113348130795617D+04 0.000000000000000D+00 0.000000000000000D+00 -.113348130795617D+04
 0.104527651779190D+03 -.186466848727879D+01 0.233217362937691D+02 -.454246438637456D+02
 0.784663900277664D+03 0.686274950844530D+03 0.156325016726975D+03 0.346823611346756D+03
 0.441887262158966D+03 0.399729479229885D+03 0.219704487208927D+02 0.187077511411593D+03
 0.537637253462539D+03 -.165009835679917D+03 -.122069851570155D+03 -.488476478894603D+03
 0.126771709544680D+04 -.919129925907219D+03 -.795473501714815D+02 0.869470547212820D+03
0.870919317552D-04 0.000000000000D+00 0.000000000000D+00 0.143369205973D-05 0.000000000000D+00  7 -2 2 23 -11 11 23 21 0 0.41758391D-01 0.37422548D+00 0.36937930D+06 0.36937930D+06 0.36937930D+06 0.10779299D+01  1  2  2  1  7  1       -2 0.230557732415D-03 0.100000000000D+01
-.434235557244D-05 0.000000000000D+00 -.334455949772D-06 0.143369205973D-05 0.000000000000D+00  7 -2 2 23 -11 11 23 21 2 0.41758391D-01 0.37422548D+00 0.36937930D+06 0.36937930D+06 0.36937930D+06 0.10779299D+01  1  2  3  1  7  1       -2 -.133569775295D-04 0.100000000000D+01
0.546952120563D-05 0.000000000000D+00 0.000000000000D+00 0.143369205973D-05 0.000000000000D+00  7 -2 2 23 -11 11 23 21 2 0.41758391D-01 0.37422548D+00 0.36937930D+06 0.36937930D+06 0.36937930D+06 0.10779299D+01  1  2 15  1  7  1       -2 0.168241109282D-04 0.100000000000D+01
0.946397934497D-05 0.000000000000D+00 -.286315467543D-04 0.143369205973D-05 0.000000000000D+00  7 -2 2 23 -11 11 23 21 2 0.14769869D+00 0.37422548D+00 0.36937930D+06 0.36937930D+06 0.36937930D+06 0.10779299D+01  1  2  5  1  7  1       -2 0.164938004002D-05 0.100000000000D+01
0.227404067272D-05 0.000000000000D+00 -.423889951572D-05 0.143369205973D-05 0.000000000000D+00  7 21 2 23 -11 11 23 2 2 0.14769869D+00 0.37422548D+00 0.36937930D+06 0.36937930D+06 0.36937930D+06 0.10779299D+01  1  2  5  3  7  1       -2 0.336183111482D-05 0.100000000000D+01
  </mgrwgt>
  </event>
  <event>
  8     66 0.28248871E-05 0.61020716E+03 0.75467711E-02 0.88821414E-01
       -2 -1    0    0    0  501 0.00000000E+00 0.00000000E+00 0.29547503E+03 0.29547521E+03 0.32000000E+00 0.0000E+00 0.9000E+01
        2 -1    0    0  501    0 0.00000000E+00 0.00000000E+00 -.12942558E+04 0.12942559E+04 0.32000000E+00 0.0000E+00 0.9000E+01
       25  2    1    2    0    0 0.54398905E+03 -.19374851E+03 -.55869627E+03 0.85765051E+03 0.29993385E+03 0.0000E+00 0.0000E+00
       23  2    1    2    0    0 -.54398905E+03 0.19374851E+03 -.44008451E+03 0.73208055E+03 0.93834881E+02 0.0000E+00 0.0000E+00
       23  1    3    3    0    0 0.22209163E+03 -.19328587E+03 -.20150651E+03 0.36824481E+03 0.91188000E+02 0.0000E+00 0.9000E+01
      -13  1    4    4    0    0 -.13916777E+02 0.26756716E+01 -.36045501E+02 0.38731450E+02 0.10565837E+00 0.0000E+00 0.9000E+01
       13  1    4    4    0    0 -.53007227E+03 0.19107284E+03 -.40403901E+03 0.69334910E+03 0.10565837E+00 0.0000E+00 0.9000E+01
       23  1    3    3    0    0 0.32189742E+03 -.46264258E+00 -.35718976E+03 0.48940570E+03 0.91188000E+02 0.0000E+00 0.9000E+01
#aMCatNLO 1  0  0  1  2 0.43155860D+03 0.00000000D+00  -5  7  0 0.00000000D+00 0.00000000D+00 0.00000000D+00 0.00000000D+00 0.00000000D+00
  <mgrwgt>
 0.5463204740D-03    6    2    0
 0.618401527051013D+03 0.000000000000000D+00 0.000000000000000D+00 0.618401527051013D+03
 0.618401527051013D+03 0.000000000000000D+00 0.000000000000000D+00 -.618401527051013D+03
 0.310598674611450D+03 0.222091628906213D+03 -.193285867073019D+03 0.383688322210308D+02
 0.206744165787968D+02 -.139161228818510D+02 0.267543275208840D+01 -.150537398808373D+02
 0.564918601865224D+03 -.530072922775701D+03 0.191073076919897D+03 0.405808150453940D+02
 0.340611361046556D+03 0.321897416751339D+03 -.462642598966823D+00 -.638959073855875D+02
 0.000000000000000D+00 -.000000000000000D+00 -.000000000000000D+00 0.000000000000000D+00
 0.931700431032295D+03 0.000000000000000D+00 0.000000000000000D+00 0.931700431032295D+03
 0.823217352767837D+03 0.000000000000000D+00 0.000000000000000D+00 -.823217352767837D+03
 0.285299807034013D+03 0.249722882461156D+03 -.961615476109385D+02 0.383688322210308D+02
 0.214660601812147D+02 -.119621085083509D+02 0.954382603247072D+01 -.150537398808373D+02
 0.611836629674549D+03 -.475507886655795D+03 0.382870093621716D+03 0.405808150453940D+02
 0.391330562854053D+03 0.355836877095229D+03 0.118835129478439D+03 -.638959073855875D+02
 0.444984724056302D+03 -.118089764392239D+03 -.415087501521687D+03 0.108483078264457D+03
0.388354460717D-04 0.000000000000D+00 0.000000000000D+00 0.540733492941D-06 0.000000000000D+00  7 -2 2 23 -13 13 23 21 0 0.45457714D-01 0.19911630D+00 0.37235278D+06 0.37235278D+06 0.37235278D+06 0.10776772D+01  1  2  2  1  7  1       -2 0.374144589069D-03 0.100000000000D+01
-.215705799998D-05 0.000000000000D+00 -.149138338523D-06 0.540733492941D-06 0.000000000000D+00  7 -2 2 23 -13 13 23 21 2 0.45457714D-01 0.19911630D+00 0.37235278D+06 0.37235278D+06 0.37235278D+06 0.10776772D+01  1  2  3  1  7  1       -2 -.241351704664D-04 0.100000000000D+01
0.236196718629D-05 0.000000000000D+00 0.000000000000D+00 0.540733492941D-06 0.000000000000D+00  7 -2 2 23 -13 13 23 21 2 0.45457714D-01 0.19911630D+00 0.37235278D+06 0.37235278D+06 0.37235278D+06 0.10776772D+01  1  2 15  1  7  1       -2 0.264278849607D-04 0.100000000000D+01
-.126598170764D-04 0.000000000000D+00 -.120177141956D-04 0.540733492941D-06 0.000000000000D+00  7 -2 2 23 -13 13 23 21 2 0.89540421D-01 0.19911630D+00 0.37235278D+06 0.37235278D+06 0.37235278D+06 0.10776772D+01  1  2  5  1  7  1       -2 -.335906835009D-04 0.100000000000D+01
0.186666602370D-04 0.000000000000D+00 0.970175845677D-05 0.540733492941D-06 0.000000000000D+00  7 -2 2 23 -13 13 23 21 2 0.45457714D-01 0.19911630D+00 0.37235278D+06 0.37235278D+06 0.37235278D+06 0.10776772D+01  1  2  6  1  7  1       -2 0.208859950387D-03 0.100000000000D+01
-.217570927782D-06 0.000000000000D+00 -.882236055709D-06 0.540733492941D-06 0.000000000000D+00  7 21 2 23 -13 13 23 2 2 0.89540421D-01 0.19911630D+00 0.37235278D+06 0.37235278D+06 0.37235278D+06 0.10776772D+01  1  2  5  3  7  1       -2 -.538609645548D-05 0.100000000000D+01
  </mgrwgt>
  </event>
  <event>
  7     66 0.28248871E-05 0.20584832E+03 0.75467711E-02 0.10009537E+00
       -2 -1    0    0    0  501 0.00000000E+00 0.00000000E+00 0.33181019E+03 0.33181034E+03 0.32000000E+00 0.0000E+00 0.9000E+01
        2 -1    0    0  501    0 0.00000000E+00 0.00000000E+00 -.47667132E+03 0.47667143E+03 0.32000000E+00 0.0000E+00 0.9000E+01
       25  2    1    2    0    0 -.24008282E+03 0.98954395E+01 -.24312038E+03 0.45488496E+03 0.30012518E+03 0.0000E+00 0.0000E+00
       23  1    3    3    0    0 -.22298055E+03 0.38075323E+02 -.25997038E+03 0.35646866E+03 0.91188000E+02 0.0000E+00 0.9000E+01
      -11  1    1    2    0    0 0.12519086E+03 -.32088422E+02 -.71283591E+02 0.14759325E+03 0.51099893E-03 0.0000E+00 0.9000E+01
       11  1    1    2    0    0 0.11489197E+03 0.22192982E+02 0.16954284E+03 0.20600356E+03 0.51099893E-03 0.0000E+00 0.9000E+01
       23  1    3    3    0    0 -.17102277E+02 -.28179883E+02 0.16850000E+02 0.98416297E+02 0.91188000E+02 0.0000E+00 0.9000E+01
#aMCatNLO 1  0  0  1  2 0.48973757D+02 0.00000000D+00  -5  7  0 0.00000000D+00 0.00000000D+00 0.00000000D+00 0.00000000D+00 0.00000000D+00
  <mgrwgt>
 0.8521214975D-03    6    2    0
 0.397699013191928D+03 0.000000000000000D+00 0.000000000000000D+00 0.397699013191928D+03
 0.397699013191928D+03 0.000000000000000D+00 0.000000000000000D+00 -.397699013191928D+03
 0.314985467066230D+03 -.222980558037920D+03 0.380753230387258D+02 -.199325195676627D+03
 0.137038587754025D+03 0.125190855431414D+03 -.320884166042084D+02 -.455758463421506D+02
 0.240270004656887D+03 0.114891983969969D+03 0.221929764585487D+02 0.209849896242946D+03
 0.103103966906713D+03 -.171022813634632D+02 -.281798828930662D+02 0.350511457758313D+02
 0.000000000000000D+00 0.000000000000000D+00 -.000000000000000D+00 -.000000000000000D+00
 0.419051051907568D+03 0.000000000000000D+00 0.000000000000000D+00 0.419051051907568D+03
 0.427560836939306D+03 0.000000000000000D+00 0.000000000000000D+00 -.427560836939306D+03
 0.329468050812509D+03 -.242201783725248D+03 0.429151196080906D+02 -.199325195676627D+03
 0.129340820916536D+03 0.117245924431010D+03 -.300879276434580D+02 -.455758463421506D+02
 0.234198722016802D+03 0.100740660059142D+03 0.257562002627801D+02 0.209849896242946D+03
 0.103896697374361D+03 -.232762045017368D+02 -.266253237556727D+02 0.350511457758313D+02
 0.497075977266655D+02 0.474914037368322D+02 -.119580684717400D+02 -.850978503173753D+01
0.197979940130D-04 0.000000000000D+00 0.000000000000D+00 0.212751128723D-09 0.000000000000D+00  7 -2 2 23 -11 11 23 21 0 0.51047741D-01 0.73334069D-01 0.86175373D+05 0.86175373D+05 0.86175373D+05 0.11270635D+01  1  2  2  1  7  1       -2 0.582895644862D-03 0.100000000000D+01
-.976604478723D-06 0.000000000000D+00 -.760295099413D-07 0.212751128723D-09 0.000000000000D+00  7 -2 2 23 -11 11 23 21 2 0.51047741D-01 0.73334069D-01 0.86175373D+05 0.86175373D+05 0.86175373D+05 0.11270635D+01  1  2  3  1  7  1       -2 -.365245684455D-04 0.100000000000D+01
0.121773461310D-05 0.000000000000D+00 0.000000000000D+00 0.212751128723D-09 0.000000000000D+00  7 -2 2 23 -11 11 23 21 2 0.51047741D-01 0.73334069D-01 0.86175373D+05 0.86175373D+05 0.86175373D+05 0.11270635D+01  1  2 15  1  7  1       -2 0.455427270648D-04 0.100000000000D+01
0.248573877032D-04 0.000000000000D+00 0.000000000000D+00 0.212751128723D-09 0.000000000000D+00  7 -2 2 23 -11 11 23 21 2 0.55587912D-01 0.73334069D-01 0.10053293D+06 0.10053293D+06 0.10053293D+06 0.11215327D+01  1  2 12  1  7  1       -2 0.775228021272D-03 0.100000000000D+01
-.168637034308D-04 0.000000000000D+00 0.000000000000D+00 0.212751128723D-09 0.000000000000D+00  7 -2 2 23 -11 11 23 21 2 0.51047741D-01 0.73334069D-01 0.86175373D+05 0.86175373D+05 0.86175373D+05 0.11270635D+01  1  2  4  1  7  1       -2 -.630694926780D-03 0.100000000000D+01
0.351068692138D-06 0.000000000000D+00 0.000000000000D+00 0.212751128723D-09 0.000000000000D+00  7 21 2 23 -11 11 23 2 2 0.55587912D-01 0.73334069D-01 0.10053293D+06 0.10053293D+06 0.10053293D+06 0.11215327D+01  1  2 12  3  7  1       -2 0.115674599529D-03 0.100000000000D+01
  </mgrwgt>
  </event>
  <event>
  8     66 0.28248871E-05 0.17384860E+03 0.75467711E-02 0.98714619E-01
       -2 -1    0    0    0  501 0.00000000E+00 0.00000000E+00 0.66840000E+02 0.66840766E+02 0.32000000E+00 0.0000E+00 0.9000E+01
        2 -1    0    0  501    0 0.00000000E+00 0.00000000E+00 -.71896345E+03 0.71896352E+03 0.32000000E+00 0.0000E+00 0.9000E+01
       25  2    1    2    0    0 0.59419409E+02 -.58700006E+02 -.51328381E+03 0.60059965E+03 0.30047181E+03 0.0000E+00 0.0000E+00
       23  2    1    2    0    0 -.59419409E+02 0.58700006E+02 -.13883964E+03 0.18520464E+03 0.89710401E+02 0.0000E+00 0.0000E+00
       23  1    3    3    0    0 0.41435676E+02 -.10178891E+03 -.98819817E+02 0.17366204E+03 0.91188000E+02 0.0000E+00 0.9000E+01
      -13  1    4    4    0    0 -.87945943E+01 0.50380057E+02 -.18500150E+02 0.54385308E+02 0.10565837E+00 0.0000E+00 0.9000E+01
       13  1    4    4    0    0 -.50624815E+02 0.83199489E+01 -.12033949E+03 0.13081933E+03 0.10565837E+00 0.0000E+00 0.9000E+01
       23  1    3    3    0    0 0.17983734E+02 0.43088901E+02 -.41446399E+03 0.42693761E+03 0.91188000E+02 0.0000E+00 0.9000E+01
#aMCatNLO 1  0  0  1  2 0.27055010D+03 0.00000000D+00  -5  7  0 0.00000000D+00 0.00000000D+00 0.00000000D+00 0.00000000D+00 0.00000000D+00
  <mgrwgt>
 0.3522624040D-03    3    2    0
 0.219216436690976D+03 0.000000000000000D+00 0.000000000000000D+00 0.219216436690976D+03
 0.219216436690976D+03 0.000000000000000D+00 0.000000000000000D+00 -.219216436690976D+03
 0.164270648839160D+03 0.414356862438654D+02 -.101788906879927D+03 0.811892669490757D+02
 0.699578961219731D+02 -.879455087611407D+01 0.503801275508519D+02 0.477347447113748D+02
 0.554752715343822D+02 -.506248820898457D+02 0.831990192430062D+01 -.211046510791502D+02
 0.148729056886436D+03 0.179837467220943D+02 0.430888774047744D+02 -.107819360581300D+03
 0.000000000000000D+00 -.000000000000000D+00 0.000000000000000D+00 -.000000000000000D+00
 0.319426441589100D+03 0.000000000000000D+00 0.000000000000000D+00 0.319426441589100D+03
 0.553550260288404D+03 0.000000000000000D+00 0.000000000000000D+00 -.553550260288404D+03
 0.235439090519580D+03 0.150134053524230D+03 -.134105864544927D+03 0.811892669490757D+02
 0.681439023678763D+02 0.287613016242819D+02 0.392144502210551D+02 0.477347447113748D+02
 0.337798854144823D+02 -.263525442497442D+02 0.110352752940354D+01 -.211046510791502D+02
 0.177827127379766D+03 0.106788498169955D+03 0.166864624946307D+02 -.107819360581300D+03
 0.357786696195800D+03 -.259331309068723D+03 0.771014242998378D+02 -.234123818699304D+03
0.124370554591D-05 0.000000000000D+00 0.000000000000D+00 0.387612947315D-07 0.000000000000D+00  7 -2 2 23 -13 13 23 21 0 0.10283141D-01 0.11060983D+00 0.30223337D+05 0.30223337D+05 0.30223337D+05 0.11670372D+01  1  2  2  1  7  1       -2 0.346426306961D-03 0.100000000000D+01
-.645779265655D-07 0.000000000000D+00 -.477615677149D-08 0.387612947315D-07 0.000000000000D+00  7 -2 2 23 -13 13 23 21 2 0.10283141D-01 0.11060983D+00 0.30223337D+05 0.30223337D+05 0.30223337D+05 0.11670372D+01  1  2  3  1  7  1       -2 -.244989103611D-04 0.100000000000D+01
0.799615921553D-07 0.000000000000D+00 0.000000000000D+00 0.387612947315D-07 0.000000000000D+00  7 -2 2 23 -13 13 23 21 2 0.10283141D-01 0.11060983D+00 0.30223337D+05 0.30223337D+05 0.30223337D+05 0.11670372D+01  1  2 15  1  7  1       -2 0.303350073738D-04 0.100000000000D+01
  </mgrwgt>
  </event>
  <event>
  8     66 0.28248871E-05 0.41293781E+03 0.75467711E-02 0.91137209E-01
       -2 -1    0    0    0  501 0.00000000E+00 0.00000000E+00 0.30272843E+03 0.30272860E+03 0.32000000E+00 0.0000E+00 0.9000E+01
        2 -1    0    0  501    0 0.00000000E+00 0.00000000E+00 -.15551244E+04 0.15551244E+04 0.32000000E+00 0.0000E+00 0.9000E+01
       25  2    1    2    0    0 0.56374316E+03 0.31946118E+03 -.58263522E+03 0.92158665E+03 0.29999393E+03 0.0000E+00 0.0000E+00
       23  2    1    2    0    0 -.56374316E+03 -.31946118E+03 -.66976076E+03 0.93626639E+03 0.90296645E+02 0.0000E+00 0.0000E+00
       23  1    3    3    0    0 0.22186349E+03 0.21478212E+03 -.38869813E+03 0.50473385E+03 0.91188000E+02 0.0000E+00 0.9000E+01
      -11  1    4    4    0    0 -.48065389E+03 -.23316423E+03 -.53775450E+03 0.75800635E+03 0.51099893E-03 0.0000E+00 0.9000E+01
       11  1    4    4    0    0 -.83089268E+02 -.86296954E+02 -.13200626E+03 0.17826004E+03 0.51099893E-03 0.0000E+00 0.9000E+01
       23  1    3    3    0    0 0.34187967E+03 0.10467907E+03 -.19393708E+03 0.41685280E+03 0.91188000E+02 0.0000E+00 0.9000E+01
#aMCatNLO 1  0  0  2  1 0.31679477D+02 0.00000000D+00  -5  7  0 0.00000000D+00 0.00000000D+00 0.00000000D+00 0.00000000D+00 0.00000000D+00
  <mgrwgt>
 0.2564223650D-03    9    2    0
 0.686134505806592D+03 0.000000000000000D+00 0.000000000000000D+00 0.686134505806592D+03
 0.686134505806592D+03 0.000000000000000D+00 0.000000000000000D+00 -.686134505806592D+03
 0.328592519791006D+03 0.221863489739912D+03 0.214782115114069D+03 -.655974669187558D+02
 0.535451008362874D+03 -.480653891585418D+03 -.233164228332738D+03 -.362499860222091D+02
 0.120863223728526D+03 -.830892682677160D+02 -.862969536092008D+02 -.160289783379611D+02
 0.387362259730778D+03 0.341879670113222D+03 0.104679066827870D+03 0.117876431278926D+03
 0.000000000000000D+00 0.000000000000000D+00 -.000000000000000D+00 -.000000000000000D+00
 0.694686473162865D+03 0.000000000000000D+00 0.000000000000000D+00 0.694686473162865D+03
 0.716296116845888D+03 0.000000000000000D+00 0.000000000000000D+00 -.716296116845888D+03
 0.323698254137596D+03 0.214338189895684D+03 0.214991676754734D+03 -.655974669187558D+02
 0.546535655077355D+03 -.493136475113013D+03 -.232816618172621D+03 -.362499860222091D+02
 0.122757380740116D+03 -.858998523969639D+02 -.862186855489847D+02 -.160289783379611D+02
 0.379643340787435D+03 0.333030936761778D+03 0.104925482933184D+03 0.117876431278926D+03
 0.383479592662516D+02 0.316672008525154D+02 -.881855966312222D+00 -.216096436830232D+02
0.152737456537D-04 0.000000000000D+00 0.000000000000D+00 0.107594284817D-05 0.000000000000D+00  7 -2 2 23 -11 11 23 21 0 0.46573620D-01 0.23924992D+00 0.45224809D+06 0.45224809D+06 0.45224809D+06 0.10716050D+01  1  2  2  2  7  2        2 0.995466256310D-04 0.100000000000D+01
-.848125411525D-06 0.000000000000D+00 -.586552049799D-07 0.107594284817D-05 0.000000000000D+00  7 -2 2 23 -11 11 23 21 2 0.46573620D-01 0.23924992D+00 0.45224809D+06 0.45224809D+06 0.45224809D+06 0.10716050D+01  1  2  3  2  7  2        2 -.634761470478D-05 0.100000000000D+01
0.956733121820D-06 0.000000000000D+00 0.000000000000D+00 0.107594284817D-05 0.000000000000D+00  7 -2 2 23 -11 11 23 21 2 0.46573620D-01 0.23924992D+00 0.45224809D+06 0.45224809D+06 0.45224809D+06 0.10716050D+01  1  2 15  2  7  2        2 0.716046607034D-05 0.100000000000D+01
0.500787303965D-04 0.000000000000D+00 0.000000000000D+00 0.107594284817D-05 0.000000000000D+00  7 -2 2 23 -11 11 23 21 2 0.46573620D-01 0.25121461D+00 0.47374293D+06 0.47374293D+06 0.47374293D+06 0.10701701D+01  1  2 12  2  7  2        2 0.338008449952D-03 0.100000000000D+01
-.499040068068D-04 0.000000000000D+00 0.000000000000D+00 0.107594284817D-05 0.000000000000D+00  7 -2 2 23 -11 11 23 21 2 0.46573620D-01 0.23924992D+00 0.45224809D+06 0.45224809D+06 0.45224809D+06 0.10716050D+01  1  2  4  2  7  2        2 -.373495951342D-03 0.100000000000D+01
-.261449546753D-03 0.000000000000D+00 -.346673049289D-04 0.107594284817D-05 0.000000000000D+00  7 -2 2 23 -11 11 23 21 2 0.46573620D-01 0.25121902D+00 0.45224809D+06 0.45224809D+06 0.45224809D+06 0.10716050D+01  1  2  5  2  7  2        2 -.177293598558D-02 0.100000000000D+01
0.262869869374D-03 0.000000000000D+00 0.346260390437D-04 0.107594284817D-05 0.000000000000D+00  7 -2 2 23 -11 11 23 21 2 0.46573620D-01 0.23924992D+00 0.45224809D+06 0.45224809D+06 0.45224809D+06 0.10716050D+01  1  2  6  2  7  2        2 0.196739376702D-02 0.100000000000D+01
0.738437742243D-06 0.000000000000D+00 0.000000000000D+00 0.107594284817D-05 0.000000000000D+00  7 -2 21 23 -11 11 23 -2 2 0.46573620D-01 0.25121461D+00 0.47374293D+06 0.47374293D+06 0.47374293D+06 0.10701701D+01  1  2 12  4  7  2        2 0.145587877682D-05 0.100000000000D+01
-.219810934328D-05 0.000000000000D+00 -.295323342269D-06 0.107594284817D-05 0.000000000000D+00  7 -2 21 23 -11 11 23 -2 2 0.46573620D-01 0.25121902D+00 0.45224809D+06 0.45224809D+06 0.45224809D+06 0.10716050D+01  1  2  5  4  7  2        2 -.436327079553D-05 0.100000000000D+01
  </mgrwgt>
  </event>
  <event>
  8     66 0.28248871E-05 0.34126792E+03 0.75467711E-02 0.94847320E-01
       -2 -1    0    0    0  501 0.00000000E+00 0.00000000E+00 0.20896839E+03 0.20896864E+03 0.32000000E+00 0.0000E+00 0.9000E+01
        2 -1    0    0  501    0 0.00000000E+00 0.00000000E+00 -.58766571E+03 0.58766580E+03 0.32000000E+00 0.0000E+00 0.9000E+01
       25  2    1    2    0    0 0.23909738E+03 0.13246756E+03 -.17166883E+03 0.44154419E+03 0.30129035E+03 0.0000E+00 0.0000E+00
       23  2    1    2    0    0 -.23909738E+03 -.13246756E+03 -.20702849E+03 0.35509024E+03 0.92266301E+02 0.0000E+00 0.0000E+00
       23  1    3    3    0    0 0.49528203E+02 -.55256951E+02 -.13695697E+02 0.11836045E+03 0.91188000E+02 0.0000E+00 0.9000E+01
      -13  1    4    4    0    0 -.14479984E+02 -.35562155E+02 -.68646071E+01 0.39006036E+02 0.10565837E+00 0.0000E+00 0.9000E+01
       13  1    4    4    0    0 -.22461740E+03 -.96905407E+02 -.20016389E+03 0.31608421E+03 0.10565837E+00 0.0000E+00 0.9000E+01
       23  1    3    3    0    0 0.18956918E+03 0.18772451E+03 -.15797313E+03 0.32318374E+03 0.91188000E+02 0.0000E+00 0.9000E+01
#aMCatNLO 1  0  0  2  1 0.25579061D+03 0.00000000D+00  -5  7  0 0.00000000D+00 0.00000000D+00 0.00000000D+00 0.00000000D+00 0.00000000D+00
  <mgrwgt>
 0.2310783355D-03    3    2    0
 0.350433576355923D+03 0.000000000000000D+00 0.000000000000000D+00 0.350433576355923D+03
 0.350433576355923D+03 0.000000000000000D+00 0.000000000000000D+00 -.350433576355923D+03
 0.127133207668456D+03 0.495282041301015D+02 -.552569489159453D+02 0.483862350283457D+02
 0.406264575690217D+02 -.144797088670492D+02 -.355620749505075D+02 0.132735040945299D+02
 0.251120675408855D+03 -.224617677038797D+03 -.969054887330785D+02 -.567258233337999D+02
 0.281986812065512D+03 0.189569181775745D+03 0.187724512599531D+03 -.493391578907565D+01
 0.000000000000000D+00 -.000000000000000D+00 -.000000000000000D+00 0.000000000000000D+00
 0.502406570166344D+03 0.000000000000000D+00 0.000000000000000D+00 0.502406570166344D+03
 0.499486230313096D+03 0.000000000000000D+00 0.000000000000000D+00 -.499486230313096D+03
 0.128479253203319D+03 0.744450176987771D+02 -.175607163661672D+02 0.483862350283457D+02
 0.295062524316132D+02 -.764325162160832D+01 -.252193125651624D+02 0.132735040945299D+02
 0.192614676191171D+03 -.181362856863207D+03 -.314659911928426D+02 -.567258233337999D+02
 0.395485337653964D+03 0.255608400657949D+03 0.287634147735177D+03 -.493391578907565D+01
 0.255807280999372D+03 -.141047309871911D+03 -.213388127611005D+03 0.292033985324832D+01
0.416999107133D-05 0.000000000000D+00 0.000000000000D+00 0.588505670977D-07 0.000000000000D+00  7 -2 2 23 -13 13 23 21 0 0.32149009D-01 0.90410135D-01 0.11646379D+06 0.11646379D+06 0.11646379D+06 0.11163304D+01  1  2  2  2  7  2        2 0.229247802942D-03 0.100000000000D+01
-.231468316690D-06 0.000000000000D+00 -.160138636978D-07 0.588505670977D-07 0.000000000000D+00  7 -2 2 23 -13 13 23 21 2 0.32149009D-01 0.90410135D-01 0.11646379D+06 0.11646379D+06 0.11646379D+06 0.11163304D+01  1  2  3  2  7  2        2 -.158579539116D-04 0.100000000000D+01
0.258187419455D-06 0.000000000000D+00 0.000000000000D+00 0.588505670977D-07 0.000000000000D+00  7 -2 2 23 -13 13 23 21 2 0.32149009D-01 0.90410135D-01 0.11646379D+06 0.11646379D+06 0.11646379D+06 0.11163304D+01  1  2 15  2  7  2        2 0.176884865145D-04 0.100000000000D+01
  </mgrwgt>
  </event>
  <event>
  8     66 0.28248871E-05 0.20931993E+03 0.75467711E-02 0.95324258E-01
       -2 -1    0    0    0  501 0.00000000E+00 0.00000000E+00 0.71375557E+02 0.71376275E+02 0.32000000E+00 0.0000E+00 0.9000E+01
        2 -1    0    0  501    0 0.00000000E+00 0.00000000E+00 -.37227530E+04 0.37227530E+04 0.32000000E+00 0.0000E+00 0.9000E+01
       25  2    1    2    0    0 0.27938337E+03 0.31348689E+03 -.12131151E+04 0.13182980E+04 0.29988681E+03 0.0000E+00 0.0000E+00
       23  2    1    2    0    0 -.27938337E+03 -.31348689E+03 -.24382623E+04 0.24758313E+04 0.91041479E+02 0.0000E+00 0.0000E+00
       23  1    3    3    0    0 -.18161449E+02 0.10394254E+03 -.37289373E+03 0.39811917E+03 0.91188000E+02 0.0000E+00 0.9000E+01
      -13  1    4    4    0    0 -.24302222E+02 -.19181555E+02 -.36462632E+03 0.36593837E+03 0.10565837E+00 0.0000E+00 0.9000E+01
       13  1    4    4    0    0 -.25508115E+03 -.29430533E+03 -.20736360E+04 0.21098930E+04 0.10565837E+00 0.0000E+00 0.9000E+01
       23  1    3    3    0    0 0.29754482E+03 0.20954435E+03 -.84022140E+03 0.92017879E+03 0.91188000E+02 0.0000E+00 0.9000E+01
#aMCatNLO 1  0  0  2  1 0.57213282D+01 0.00000000D+00  -5  7  0 0.00000000D+00 0.00000000D+00 0.00000000D+00 0.00000000D+00 0.00000000D+00
  <mgrwgt>
 0.6886698349D-03   11    2    0
 0.515475467853418D+03 0.000000000000000D+00 0.000000000000000D+00 0.515475467853418D+03
 0.515475467853418D+03 0.000000000000000D+00 0.000000000000000D+00 -.515475467853418D+03
 0.144468423854381D+03 -.181614490814002D+02 0.103942539805822D+03 0.377092075354021D+02
 0.553165796915701D+02 -.243019114693959D+02 -.191811843280110D+02 -.458412833097236D+02
 0.420562653401967D+03 -.255081459147190D+03 -.294305704803364D+03 -.158715300951228D+03
 0.410603278758918D+03 0.297544819697986D+03 0.209544349325553D+03 0.166847376725550D+03
 0.000000000000000D+00 -.000000000000000D+00 -.000000000000000D+00 -.000000000000000D+00
 0.516188053297345D+03 0.000000000000000D+00 0.000000000000000D+00 0.516188053297345D+03
 0.527096865850254D+03 0.000000000000000D+00 0.000000000000000D+00 -.527096865850254D+03
 0.144847124243808D+03 -.176445800594554D+02 0.104556790880739D+03 0.377092075354021D+02
 0.551491504897292D+02 -.241045618478752D+02 -.189466525375439D+02 -.458412833097236D+02
 0.418408003316155D+03 -.253582618363731D+03 -.292524471022113D+03 -.158715300951228D+03
 0.412562532973462D+03 0.299015424754663D+03 0.211292027554449D+03 0.166847376725550D+03
 0.123181081244443D+02 -.368366448360157D+01 -.437769487553144D+01 -.109088125529087D+02
0.274369303698D-04 0.000000000000D+00 0.000000000000D+00 0.216745014736D-05 0.000000000000D+00  7 -2 2 23 -13 13 23 21 0 0.10980911D-01 0.57273129D+00 0.21858433D+06 0.21858433D+06 0.21858433D+06 0.10948739D+01  1  2  2  2  7  2        2 0.105972403649D-03 0.100000000000D+01
-.150661040998D-05 0.000000000000D+00 -.105365036930D-06 0.216745014736D-05 0.000000000000D+00  7 -2 2 23 -13 13 23 21 2 0.10980911D-01 0.57273129D+00 0.21858433D+06 0.21858433D+06 0.21858433D+06 0.10948739D+01  1  2  3  2  7  2        2 -.697567798787D-05 0.100000000000D+01
0.169732680280D-05 0.000000000000D+00 0.000000000000D+00 0.216745014736D-05 0.000000000000D+00  7 -2 2 23 -13 13 23 21 2 0.10980911D-01 0.57273129D+00 0.21858433D+06 0.21858433D+06 0.21858433D+06 0.10948739D+01  1  2 15  2  7  2        2 0.785870397422D-05 0.100000000000D+01
0.386826277462D-04 0.000000000000D+00 0.000000000000D+00 0.216745014736D-05 0.000000000000D+00  7 -2 2 23 -13 13 23 21 2 0.10980911D-01 0.58603451D+00 0.22122397D+06 0.22122397D+06 0.22122397D+06 0.10944770D+01  1  2 12  2  7  2        2 0.153675153437D-03 0.100000000000D+01
-.250777029219D-03 0.000000000000D+00 0.000000000000D+00 0.216745014736D-05 0.000000000000D+00  7 -2 2 23 -13 13 23 21 2 0.10980911D-01 0.57273129D+00 0.21858433D+06 0.21858433D+06 0.21858433D+06 0.10948739D+01  1  2  4  2  7  2        2 -.116110959476D-02 0.100000000000D+01
-.113792059137D-02 0.000000000000D+00 -.745566606013D-04 0.216745014736D-05 0.000000000000D+00  7 -2 2 23 -13 13 23 21 2 0.10980911D-01 0.58581237D+00 0.21858433D+06 0.21858433D+06 0.21858433D+06 0.10948739D+01  1  2  5  2  7  2        2 -.453893886584D-02 0.100000000000D+01
0.114498177430D-02 0.000000000000D+00 0.751500011481D-04 0.216745014736D-05 0.000000000000D+00  7 -2 2 23 -13 13 23 21 2 0.10980911D-01 0.57273129D+00 0.21858433D+06 0.21858433D+06 0.21858433D+06 0.10948739D+01  1  2  6  2  7  2        2 0.530132017316D-02 0.100000000000D+01
0.207695037949D-03 0.000000000000D+00 0.000000000000D+00 0.216745014736D-05 0.423163839173D-06  7 -2 2 23 -13 13 23 21 2 0.10996091D-01 0.58564352D+00 0.22122397D+06 0.22122397D+06 0.22122397D+06 0.10944770D+01  1  2 11  2  7  2        2 0.827050973617D-03 0.100000000000D+01
0.188608469054D-05 0.000000000000D+00 0.000000000000D+00 0.216745014736D-05 0.000000000000D+00  7 -2 21 23 -13 13 23 -2 2 0.10980911D-01 0.58603451D+00 0.22122397D+06 0.22122397D+06 0.22122397D+06 0.10944770D+01  1  2 12  4  7  2        2 0.179036407921D-06 0.100000000000D+01
-.464528674943D-05 0.000000000000D+00 -.305267680609D-06 0.216745014736D-05 0.000000000000D+00  7 -2 21 23 -13 13 23 -2 2 0.10980911D-01 0.58581237D+00 0.21858433D+06 0.21858433D+06 0.21858433D+06 0.10948739D+01  1  2  5  4  7  2        2 -.443687933303D-06 0.100000000000D+01
0.851073949943D-06 0.000000000000D+00 0.000000000000D+00 0.216745014736D-05 0.170766696292D-08  7 -2 21 23 -13 13 23 -2 2 0.10996091D-01 0.58564352D+00 0.22122397D+06 0.22122397D+06 0.22122397D+06 0.10944770D+01  1  2 11  4  7  2        2 0.812171510312D-07 0.100000000000D+01
  </mgrwgt>
  </event>
  <event>
  8     66 0.28248871E-05 0.26021166E+03 0.75467711E-02 0.81642138E-01
       -2 -1    0    0    0  501 0.00000000E+00 0.00000000E+00 0.40982251E+03 0.40982264E+03 0.32000000E+00 0.0000E+00 0.9000E+01
        2 -1    0    0  501    0 0.00000000E+00 0.00000000E+00 -.77309064E+03 0.77309071E+03 0.32000000E+00 0.0000E+00 0.9000E+01
       25  2    1    2    0    0 -.11562473E+03 0.11076429E+03 -.71154433E+03 0.78859935E+03 0.29992630E+03 0.0000E+00 0.0000E+00
       23  2    1    2    0    0 0.11562473E+03 -.11076429E+03 0.34827621E+03 0.39431400E+03 0.92463036E+02 0.0000E+00 0.0000E+00
       23  1    3    3    0    0 -.16474097E+03 0.13588007E+03 -.51766542E+03 0.56735854E+03 0.91188000E+02 0.0000E+00 0.9000E+01
      -13  1    4    4    0    0 0.69757443E+02 -.94033659E+01 0.17223887E+03 0.18606656E+03 0.10565837E+00 0.0000E+00 0.9000E+01
       13  1    4    4    0    0 0.45867284E+02 -.10136092E+03 0.17603733E+03 0.20824744E+03 0.10565837E+00 0.0000E+00 0.9000E+01
       23  1    3    3    0    0 0.49116242E+02 -.25115779E+02 -.19387892E+03 0.22124080E+03 0.91188000E+02 0.0000E+00 0.9000E+01
#aMCatNLO 1  0  0  1  1 0.18624098D+04 0.00000000D+00  -5  7  0 0.00000000D+00 0.00000000D+00 0.00000000D+00 0.00000000D+00 0.00000000D+00
  <mgrwgt>
 0.3446556963D-03    3    2    0
 0.562876598123143D+03 0.000000000000000D+00 0.000000000000000D+00 0.562876598123143D+03
 0.562876598123143D+03 0.000000000000000D+00 0.000000000000000D+00 -.562876598123143D+03
 0.429121274027875D+03 -.164740969192444D+03 0.135880066294056D+03 -.360869556949273D+03
 0.251093645951460D+03 0.697574744464356D+02 -.940324601478775D+01 0.241025917196549D+03
 0.275626550002348D+03 0.458672527483570D+02 -.101361041562088D+03 0.252174799385196D+03
 0.169911726264602D+03 0.491162419976510D+02 -.251157787171799D+02 -.132331159632472D+03
 0.000000000000000D+00 0.000000000000000D+00 0.000000000000000D+00 -.000000000000000D+00
 0.160730980357063D+04 0.000000000000000D+00 0.000000000000000D+00 0.160730980357063D+04
 0.275824109246496D+04 0.000000000000000D+00 0.000000000000000D+00 -.275824109246496D+04
 0.103620793196643D+04 -.964244818328976D+03 -.735983703562407D+02 -.360869556949273D+03
 0.377699460289433D+03 -.273320727157406D+03 -.992933514825541D+02 0.241025917196549D+03
 0.501915687170448D+03 -.378370528729601D+03 -.212515812521567D+03 0.252174799385196D+03
 0.260387037632992D+03 -.185660705467460D+03 -.866298139149287D+02 -.132331159632472D+03
 0.218934077897629D+04 0.180159677968344D+04 0.472037348275290D+03 -.115093128889433D+04
0.295464357532D-04 0.000000000000D+00 0.000000000000D+00 0.110041366804D-05 0.000000000000D+00  7 -2 2 23 -13 13 23 21 0 0.63049632D-01 0.11893704D+00 0.67710107D+05 0.67710107D+05 0.67710107D+05 0.11358896D+01  1  2  2  1  7  1       -2 0.326386687839D-03 0.100000000000D+01
-.453351729046D-06 0.000000000000D+00 -.113466093047D-06 0.110041366804D-05 0.000000000000D+00  7 -2 2 23 -13 13 23 21 2 0.63049632D-01 0.11893704D+00 0.67710107D+05 0.67710107D+05 0.67710107D+05 0.11358896D+01  1  2  3  1  7  1       -2 -.646152249843D-05 0.100000000000D+01
0.173513734098D-05 0.000000000000D+00 0.000000000000D+00 0.110041366804D-05 0.000000000000D+00  7 -2 2 23 -13 13 23 21 2 0.63049632D-01 0.11893704D+00 0.67710107D+05 0.67710107D+05 0.67710107D+05 0.11358896D+01  1  2 15  1  7  1       -2 0.247305309504D-04 0.100000000000D+01
  </mgrwgt>
  </event>
  <event>
  9     66 0.28248871E-05 0.22482784E+03 0.75467711E-02 0.10409792E+00
       -2 -1    0    0    0  502 0.00000000E+00 0.00000000E+00 0.64276341E+02 0.64277138E+02 0.32000000E+00 0.0000E+00 0.9000E+01
        2 -1    0    0  501    0 0.00000000E+00 0.00000000E+00 -.95372925E+03 0.95372930E+03 0.32000000E+00 0.0000E+00 0.9000E+01
       25  2    1    2    0    0 0.17292956E+02 -.12247750E+03 -.68148462E+03 0.75478334E+03 0.29996136E+03 0.0000E+00 0.0000E+00
       23  2    1    2    0    0 -.12300540E+02 0.10404379E+03 -.15999238E+03 0.21158032E+03 0.90511101E+02 0.0000E+00 0.0000E+00
       23  1    3    3    0    0 0.12166083E+03 -.31430988E+02 -.38409470E+03 0.41428644E+03 0.91188000E+02 0.0000E+00 0.9000E+01
      -13  1    4    4    0    0 0.86086541E+01 0.10700266E+03 -.95365379E+02 0.14359055E+03 0.10565837E+00 0.0000E+00 0.9000E+01
       13  1    4    4    0    0 -.20909194E+02 -.29588766E+01 -.64627000E+02 0.67989776E+02 0.10565837E+00 0.0000E+00 0.9000E+01
       23  1    3    3    0    0 -.10436788E+03 -.91046514E+02 -.29738992E+03 0.34049689E+03 0.91188000E+02 0.0000E+00 0.9000E+01
       21  1    1    2  501  502 -.49924152E+01 0.18433716E+02 -.47975910E+02 0.51642778E+02 0.75000000E+00 0.0000E+00 0.9000E+01
#aMCatNLO 2  0  0  1  2 0.19097804D+02 0.00000000D+00  -5  7  0 0.00000000D+00 0.00000000D+00 0.00000000D+00 0.00000000D+00 0.00000000D+00
  <mgrwgt>
 0.2088319804D-03    2    2    0
 0.237387059033997D+03 0.000000000000000D+00 0.000000000000000D+00 0.237387059033997D+03
 0.237387059033997D+03 0.000000000000000D+00 0.000000000000000D+00 -.237387059033997D+03
 0.159987105687799D+03 0.119966747042328D+03 -.251758385698121D+02 -.474845174635688D+02
 0.127307826528106D+03 0.729242669452859D+01 0.111862911652494D+03 0.603389774925097D+02
 0.239492623285906D+02 -.211603112532643D+02 -.203194707905372D+01 -.110308469673253D+02
 0.163529923523497D+03 -.106098862483592D+03 -.846551260036286D+02 -.182361306161559D+01
 0.000000000000000D+00 -.000000000000000D+00 0.000000000000000D+00 -.000000000000000D+00
 0.244547776900837D+03 0.000000000000000D+00 0.000000000000000D+00 0.244547776900837D+03
 0.250663391356990D+03 0.000000000000000D+00 0.000000000000000D+00 -.250663391356990D+03
 0.162355463655752D+03 0.121660834234834D+03 -.314309918617010D+02 -.474845174635688D+02
 0.123144241200905D+03 0.860868982769358D+01 0.107002814895476D+03 0.603389774925097D+02
 0.238250150038256D+02 -.209092311941677D+02 -.295902111935827D+01 -.110308469673253D+02
 0.165833347828057D+03 -.104367877647133D+03 -.910465181030885D+02 -.182361306161559D+01
 0.200531005692870D+02 -.499241522122728D+01 0.184337161886716D+02 -.611561445615277D+01
-.440887231479D-07 0.000000000000D+00 0.000000000000D+00 0.193142063704D-06 0.000000000000D+00  7 -2 2 23 -13 13 23 21 2 0.95989038D-02 0.13895230D+00 0.50547559D+05 0.50547559D+05 0.50547559D+05 0.11468796D+01  1  2  8  1  7  1       -2 -.135924669794D-04 0.100000000000D+01
0.815716658317D-06 0.000000000000D+00 0.000000000000D+00 0.193142063704D-06 0.370023144617D-08  7 -2 2 23 -13 13 23 21 2 0.98884522D-02 0.14672347D+00 0.54906693D+05 0.54906693D+05 0.54906693D+05 0.11437364D+01  1  2  1  1  7  1       -2 0.222424447382D-03 0.100000000000D+01
  </mgrwgt>
  </event>
  <event>
  8     66 0.28248871E-05 0.20147169E+03 0.75467711E-02 0.96288079E-01
       -2 -1    0    0    0  501 0.00000000E+00 0.00000000E+00 0.51494311E+03 0.51494321E+03 0.32000000E+00 0.0000E+00 0.9000E+01
        2 -1    0    0  501    0 0.00000000E+00 0.00000000E+00 -.13650418E+03 0.13650455E+03 0.32000000E+00 0.0000E+00 0.9000E+01
       25  2    1    2    0    0 -.11372632E+03 -.58368671E+02 0.34695007E+03 0.47558265E+03 0.29910521E+03 0.0000E+00 0.0000E+00
       23  2    1    2    0    0 0.11372632E+03 0.58368671E+02 0.31488863E+02 0.17586511E+03 0.11660365E+03 0.0000E+00 0.0000E+00
       23  1    3    3    0    0 -.42578990E+02 -.55139273E+02 0.34092620E+03 0.35972105E+03 0.91188000E+02 0.0000E+00 0.9000E+01
      -13  1    4    4    0    0 0.45526980E+02 -.34600322E+02 0.39415731E+01 0.57318717E+02 0.10565837E+00 0.0000E+00 0.9000E+01
       13  1    4    4    0    0 0.68199341E+02 0.92968993E+02 0.27547290E+02 0.11854640E+03 0.10565837E+00 0.0000E+00 0.9000E+01
       23  1    3    3    0    0 -.71147330E+02 -.32293986E+01 0.60238705E+01 0.11586160E+03 0.91188000E+02 0.0000E+00 0.9000E+01
#aMCatNLO 1  0  0  1  1 0.33779346D+03 0.00000000D+00  -5  7  0 0.00000000D+00 0.00000000D+00 0.00000000D+00 0.00000000D+00 0.00000000D+00
  <mgrwgt>
 0.1549979574D-03    3    2    0
 0.265126461430683D+03 0.000000000000000D+00 0.000000000000000D+00 0.265126461430683D+03
 0.265126461430683D+03 0.000000000000000D+00 0.000000000000000D+00 -.265126461430683D+03
 0.198621959379866D+03 -.425792758536880D+02 -.551394187884815D+02 0.162117491861123D+03
 0.676061051916012D+02 0.455270621544887D+02 -.345996951348769D+02 -.360656785231159D+02
 0.125981068363194D+03 0.681997420697042D+02 0.929686146260913D+02 -.507627960426018D+02
 0.138043789926706D+03 -.711475283705049D+02 -.322950070273292D+01 -.752890172954049D+02
 0.000000000000000D+00 0.000000000000000D+00 -.000000000000000D+00 -.000000000000000D+00
 0.434299564588090D+03 0.000000000000000D+00 0.000000000000000D+00 0.434299564588090D+03
 0.552178048331810D+03 0.000000000000000D+00 0.000000000000000D+00 -.552178048331810D+03
 0.254322205014111D+03 -.171424982368330D+03 -.263804259237099D+02 0.162117491861123D+03
 0.470510737291784D+02 0.129113748659917D+02 -.273197139590749D+02 -.360656785231159D+02
 0.119871594742445D+03 -.173616298546966D+01 0.108578651226298D+03 -.507627960426018D+02
 0.207462199954038D+03 -.169431084867556D+03 0.187078705646742D+02 -.752890172954049D+02
 0.357770539480127D+03 0.329680855355364D+03 -.735863819081877D+02 -.117878483743721D+03
0.320305262428D-05 0.000000000000D+00 0.000000000000D+00 0.174078097986D-09 0.000000000000D+00  7 -2 2 23 -13 13 23 21 0 0.79222053D-01 0.21000679D-01 0.40590841D+05 0.40590841D+05 0.40590841D+05 0.11553456D+01  1  2  2  1  7  1       -2 0.152445794208D-03 0.100000000000D+01
-.161637837507D-06 0.000000000000D+00 -.123005654604D-07 0.174078097986D-09 0.000000000000D+00  7 -2 2 23 -13 13 23 21 2 0.79222053D-01 0.21000679D-01 0.40590841D+05 0.40590841D+05 0.40590841D+05 0.11553456D+01  1  2  3  1  7  1       -2 -.102687655412D-04 0.100000000000D+01
0.201810742708D-06 0.000000000000D+00 0.000000000000D+00 0.174078097986D-09 0.000000000000D+00  7 -2 2 23 -13 13 23 21 2 0.79222053D-01 0.21000679D-01 0.40590841D+05 0.40590841D+05 0.40590841D+05 0.11553456D+01  1  2 15  1  7  1       -2 0.128209287660D-04 0.100000000000D+01
  </mgrwgt>
  </event>
  <event>
  8     66 0.28248871E-05 0.41820090E+03 0.75467711E-02 0.94198549E-01
       -2 -1    0    0    0  501 0.00000000E+00 0.00000000E+00 0.20175518E+03 0.20175543E+03 0.32000000E+00 0.0000E+00 0.9000E+01
        2 -1    0    0  501    0 0.00000000E+00 0.00000000E+00 -.12752146E+04 0.12752146E+04 0.32000000E+00 0.0000E+00 0.9000E+01
       25  2    1    2    0    0 -.38214078E+03 0.65056535E+02 -.22378786E+03 0.53856546E+03 0.29951263E+03 0.0000E+00 0.0000E+00
       23  2    1    2    0    0 0.38214078E+03 -.65056535E+02 -.84967157E+03 0.93840461E+03 0.91637974E+02 0.0000E+00 0.0000E+00
       23  1    3    3    0    0 -.26792905E+03 0.81665466E+02 -.31176803E+02 0.29621355E+03 0.91188000E+02 0.0000E+00 0.9000E+01
      -13  1    4    4    0    0 0.31987851E+02 -.28222984E+02 -.58257437E+02 0.72205952E+02 0.10565837E+00 0.0000E+00 0.9000E+01
       13  1    4    4    0    0 0.35015293E+03 -.36833551E+02 -.79141413E+03 0.86619866E+03 0.10565837E+00 0.0000E+00 0.9000E+01
       23  1    3    3    0    0 -.11421174E+03 -.16608931E+02 -.19261105E+03 0.24235191E+03 0.91188000E+02 0.0000E+00 0.9000E+01
#aMCatNLO 1  0  0  2  2 0.19014144D+03 0.00000000D+00  -5  7  0 0.00000000D+00 0.00000000D+00 0.00000000D+00 0.00000000D+00 0.00000000D+00
  <mgrwgt>
 0.3678896225D-03    4    2    0
 0.507229105079715D+03 0.000000000000000D+00 0.000000000000000D+00 0.507229105079715D+03
 0.507229105079715D+03 0.000000000000000D+00 0.000000000000000D+00 -.507229105079715D+03
 0.398273198708956D+03 -.267929047986162D+03 0.816654662739514D+02 0.268050492126671D+03
 0.434798818468086D+02 0.319874280202918D+02 -.282229722467738D+02 -.841239630645866D+01
 0.423673498070737D+03 0.350153356015695D+03 -.368335626876277D+02 -.235658967362113D+03
 0.149031631532929D+03 -.114211736049824D+03 -.166089313395500D+02 -.239791284580990D+02
 0.000000000000000D+00 -.000000000000000D+00 0.000000000000000D+00 0.000000000000000D+00
 0.850788249181313D+03 0.000000000000000D+00 0.000000000000000D+00 0.850788249181313D+03
 0.543064300115628D+03 0.000000000000000D+00 0.000000000000000D+00 -.543064300115628D+03
 0.361925367445459D+03 -.223883483017708D+03 0.264544884478915D+02 0.268050492126671D+03
 0.521111700833423D+02 0.375259308215943D+02 -.351654681727833D+02 -.841239630645866D+01
 0.477376759040496D+03 0.402359804970472D+03 -.102274183047110D+03 -.235658967362113D+03
 0.140710353082226D+03 -.974242150314495D+02 -.376520363914168D+02 -.239791284580990D+02
 0.361728899645418D+03 -.118578037742908D+03 0.148637199163419D+03 0.307723949065685D+03
0.193135199115D-04 0.000000000000D+00 0.000000000000D+00 0.114238597724D-05 0.000000000000D+00  7 -2 2 23 -13 13 23 21 0 0.31039281D-01 0.19618688D+00 0.17489199D+06 0.17489199D+06 0.17489199D+06 0.11023281D+01  1  2  2  2  7  2        2 0.396721866692D-03 0.100000000000D+01
-.102437863451D-05 0.000000000000D+00 -.741690018269D-07 0.114238597724D-05 0.000000000000D+00  7 -2 2 23 -13 13 23 21 2 0.31039281D-01 0.19618688D+00 0.17489199D+06 0.17489199D+06 0.17489199D+06 0.11023281D+01  1  2  3  2  7  2        2 -.255686033014D-04 0.100000000000D+01
0.119505673444D-05 0.000000000000D+00 0.000000000000D+00 0.114238597724D-05 0.000000000000D+00  7 -2 2 23 -13 13 23 21 2 0.31039281D-01 0.19618688D+00 0.17489199D+06 0.17489199D+06 0.17489199D+06 0.11023281D+01  1  2 15  2  7  2        2 0.298287474339D-04 0.100000000000D+01
-.132581100184D-05 0.000000000000D+00 0.000000000000D+00 0.114238597724D-05 0.000000000000D+00  7 -2 2 23 -13 13 23 21 2 0.31039281D-01 0.19618688D+00 0.17489199D+06 0.17489199D+06 0.17489199D+06 0.11023281D+01  1  2  4  2  7  2        2 -.330923883189D-04 0.100000000000D+01
  </mgrwgt>
  </event>
  <event>
  8     66 0.28248871E-05 0.92521991E+02 0.75467711E-02 0.10472790E+00
       -2 -1    0    0    0  501 0.00000000E+00 0.00000000E+00 0.46498212E+02 0.46499313E+02 0.32000000E+00 0.0000E+00 0.9000E+01
        2 -1    0    0  501    0 0.00000000E+00 0.00000000E+00 -.19906009E+04 0.19906009E+04 0.32000000E+00 0.0000E+00 0.9000E+01
       25  2    1    2    0    0 -.10668589E+02 0.95327315E+02 -.53313340E+03 0.61981046E+03 0.30121865E+03 0.0000E+00 0.0000E+00
       23  2    1    2    0    0 0.10668589E+02 -.95327315E+02 -.14109693E+04 0.14172897E+04 0.93138914E+02 0.0000E+00 0.0000E+00
       23  1    3    3    0    0 -.82919644E+02 0.29464092E+01 -.40591146E+03 0.42422130E+03 0.91188000E+02 0.0000E+00 0.9000E+01
      -13  1    4    4    0    0 -.49576603E+00 -.30681011E+02 -.98205838E+02 0.10288813E+03 0.10565837E+00 0.0000E+00 0.9000E+01
       13  1    4    4    0    0 0.11164355E+02 -.64646304E+02 -.13127634E+04 0.13144016E+04 0.10565837E+00 0.0000E+00 0.9000E+01
       23  1    3    3    0    0 0.72251054E+02 0.92380906E+02 -.12722194E+03 0.19558916E+03 0.91188000E+02 0.0000E+00 0.9000E+01
#aMCatNLO 1  0  0  1  2 0.69315271D+02 0.00000000D+00  -5  7  0 0.00000000D+00 0.00000000D+00 0.00000000D+00 0.00000000D+00 0.00000000D+00
  <mgrwgt>
 0.3226009927D-03    9    2    0
 0.304237617794128D+03 0.000000000000000D+00 0.000000000000000D+00 0.304237617794128D+03
 0.304237617794128D+03 0.000000000000000D+00 0.000000000000000D+00 -.304237617794128D+03
 0.123337400310476D+03 -.829196410089622D+02 0.294641107994689D+01 -.353762180560618D+01
 0.306850111804529D+02 -.495780906919170D+00 -.306809664088346D+02 -.491188031260492D-01
 0.206123558464410D+03 0.111643704598182D+02 -.646463508842564D+02 -.195405034488921D+03
 0.248329265632916D+03 0.722510514560631D+02 0.923809062131441D+02 0.198991775097654D+03
 0.000000000000000D+00 -.000000000000000D+00 -.000000000000000D+00 0.000000000000000D+00
 0.341790494680491D+03 0.000000000000000D+00 0.000000000000000D+00 0.341790494680491D+03
 0.339959535154265D+03 0.000000000000000D+00 0.000000000000000D+00 -.339959535154265D+03
 0.115820726103083D+03 -.707538221051808D+02 0.897614285282507D+01 -.353762180560618D+01
 0.292807851234477D+02 0.255464029011249D+01 -.291690894231690D+02 -.491188031260492D-01
 0.205325884223875D+03 0.320945369687814D+02 -.542727549094306D+02 -.195405034488921D+03
 0.261983185076801D+03 0.982103151147171D+02 0.105247068213505D+03 0.198991775097654D+03
 0.693394493075484D+02 -.621056702684302D+02 -.307813667337308D+02 0.183095952622586D+01
0.260459805764D-05 0.000000000000D+00 0.000000000000D+00 0.454264401545D-07 0.000000000000D+00  7 -2 2 23 -13 13 23 21 0 0.71536577D-02 0.30624637D+00 0.33880600D+05 0.33880600D+05 0.33880600D+05 0.11624658D+01  1  2  2  1  7  1       -2 0.241881135499D-03 0.100000000000D+01
-.100273676847D-06 0.000000000000D+00 -.100023423478D-07 0.454264401545D-07 0.000000000000D+00  7 -2 2 23 -13 13 23 21 2 0.71536577D-02 0.30624637D+00 0.33880600D+05 0.33880600D+05 0.33880600D+05 0.11624658D+01  1  2  3  1  7  1       -2 -.125837066792D-04 0.100000000000D+01
0.157330918733D-06 0.000000000000D+00 0.000000000000D+00 0.454264401545D-07 0.000000000000D+00  7 -2 2 23 -13 13 23 21 2 0.71536577D-02 0.30624637D+00 0.33880600D+05 0.33880600D+05 0.33880600D+05 0.11624658D+01  1  2 15  1  7  1       -2 0.197440265000D-04 0.100000000000D+01
0.160407939686D-05 0.000000000000D+00 0.000000000000D+00 0.454264401545D-07 0.000000000000D+00  7 -2 2 23 -13 13 23 21 2 0.84083832D-02 0.30624637D+00 0.50135423D+05 0.50135423D+05 0.50135423D+05 0.11471921D+01  1  2 12  1  7  1       -2 0.152909969975D-03 0.100000000000D+01
-.155545357988D-05 0.000000000000D+00 0.000000000000D+00 0.454264401545D-07 0.000000000000D+00  7 -2 2 23 -13 13 23 21 2 0.71536577D-02 0.30624637D+00 0.33880600D+05 0.33880600D+05 0.33880600D+05 0.11624658D+01  1  2  4  1  7  1       -2 -.195199500186D-03 0.100000000000D+01
-.318261148837D-05 0.000000000000D+00 -.154870119738D-05 0.454264401545D-07 0.000000000000D+00  7 -2 2 23 -13 13 23 21 2 0.91944166D-02 0.30624637D+00 0.33880600D+05 0.33880600D+05 0.33880600D+05 0.11624658D+01  1  2  5  1  7  1       -2 -.274110208596D-03 0.100000000000D+01
0.350776585502D-05 0.000000000000D+00 0.150117507152D-05 0.454264401545D-07 0.000000000000D+00  7 -2 2 23 -13 13 23 21 2 0.71536577D-02 0.30624637D+00 0.33880600D+05 0.33880600D+05 0.33880600D+05 0.11624658D+01  1  2  6  1  7  1       -2 0.440202234595D-03 0.100000000000D+01
0.388500546520D-07 0.000000000000D+00 0.000000000000D+00 0.454264401545D-07 0.000000000000D+00  7 21 2 23 -13 13 23 2 2 0.84083832D-02 0.30624637D+00 0.50135423D+05 0.50135423D+05 0.50135423D+05 0.11471921D+01  1  2 12  3  7  1       -2 0.563911448736D-04 0.100000000000D+01
-.818987492509D-07 0.000000000000D+00 -.525633644882D-07 0.454264401545D-07 0.000000000000D+00  7 21 2 23 -13 13 23 2 2 0.91944166D-02 0.30624637D+00 0.33880600D+05 0.33880600D+05 0.33880600D+05 0.11624658D+01  1  2  5  3  7  1       -2 -.106634103233D-03 0.100000000000D+01
  </mgrwgt>
  </event>
  <event>
  9     66 0.28248871E-05 0.48422827E+03 0.75467711E-02 0.92355991E-01
       21 -1    0    0  502  501 0.00000000E+00 0.00000000E+00 0.13020112E+04 0.13020115E+04 0.75000000E+00 0.0000E+00 0.9000E+01
        2 -1    0    0  501    0 0.00000000E+00 0.00000000E+00 -.83791512E+03 0.83791518E+03 0.32000000E+00 0.0000E+00 0.9000E+01
       25  2    1    2    0    0 0.27419589E+03 -.30316125E+03 0.20808943E+03 0.54806358E+03 0.29997059E+03 0.0000E+00 0.0000E+00
       23  2    1    2    0    0 -.14767074E+03 0.49220532E+03 -.54756628E+03 0.75671282E+03 0.93341981E+02 0.0000E+00 0.0000E+00
       23  1    3    3    0    0 0.10660543E+03 -.19140559E+02 0.14016961E+03 0.19923316E+03 0.91188000E+02 0.0000E+00 0.9000E+01
      -11  1    4    4    0    0 -.34614311E+02 0.55698821E+02 -.11199557E+03 0.12978257E+03 0.51099893E-03 0.0000E+00 0.9000E+01
       11  1    4    4    0    0 -.11305643E+03 0.43650650E+03 -.43557072E+03 0.62693024E+03 0.51099893E-03 0.0000E+00 0.9000E+01
       23  1    3    3    0    0 0.16759046E+03 -.28402069E+03 0.67919814E+02 0.34883043E+03 0.91188000E+02 0.0000E+00 0.9000E+01
        2  1    1    2  502    0 -.12652514E+03 -.18904407E+03 0.80357299E+03 0.83515024E+03 0.32000000E+00 0.0000E+00 0.9000E+01
#aMCatNLO 2  0  0  1  2 0.22747807D+03 0.00000000D+00  -5  7  0 0.00000000D+00 0.00000000D+00 0.00000000D+00 0.00000000D+00 0.00000000D+00
  <mgrwgt>
 0.4259380203D-04    2    2    0
 0.619566511212652D+03 0.000000000000000D+00 0.000000000000000D+00 0.619566511212652D+03
 0.619566511212652D+03 0.000000000000000D+00 0.000000000000000D+00 -.619566511212652D+03
 0.240223766904005D+03 0.820832186542557D+02 -.557797504327379D+02 0.198854649175143D+03
 0.101012063494403D+03 -.450060616127953D+02 0.401722723718195D+02 -.810190096334611D+02
 0.485761508226643D+03 -.164582658537947D+03 0.359520004547507D+03 -.282173984827385D+03
 0.412135683800253D+03 0.127505501496487D+03 -.343912526486588D+03 0.164338345285703D+03
 0.000000000000000D+00 -.000000000000000D+00 -.000000000000000D+00 0.000000000000000D+00
 0.169929223063911D+04 0.000000000000000D+00 0.000000000000000D+00 0.169929223063911D+04
 0.642017366932164D+03 0.000000000000000D+00 0.000000000000000D+00 -.642017366932164D+03
 0.244109610357912D+03 0.106605431579968D+03 -.191405586170152D+02 0.198854649175143D+03
 0.104233339810259D+03 -.346143113883649D+02 0.556988209311771D+02 -.810190096334611D+02
 0.531922776358732D+03 -.113056433236612D+03 0.436506500753003D+03 -.282173984827385D+03
 0.379574310783263D+03 0.167590455319714D+03 -.284020692233994D+03 0.164338345285703D+03
 0.108146956026111D+04 -.126525142274706D+03 -.189044070833172D+03 0.105727486370695D+04
-.160533021270D-04 0.000000000000D+00 0.000000000000D+00 0.858139925483D-06 0.000000000000D+00  7 21 2 23 -11 11 23 2 2 0.19895364D+00 0.12440215D+00 0.37681522D+06 0.37681522D+06 0.37681522D+06 0.10773020D+01  1  2 13  3  7  1       -2 -.784214182840D-04 0.100000000000D+01
0.265634307240D-04 0.000000000000D+00 0.000000000000D+00 0.858139925483D-06 0.192846174323D-10  7 21 2 23 -11 11 23 2 2 0.20030944D+00 0.12891003D+00 0.37681522D+06 0.37681522D+06 0.37681522D+06 0.10773020D+01  1  2  1  3  7  1       -2 0.121015220317D-03 0.100000000000D+01
  </mgrwgt>
  </event>
  <event>
  7     66 0.28248871E-05 0.27980214E+03 0.75467711E-02 0.98573916E-01
       -2 -1    0    0    0  501 0.00000000E+00 0.00000000E+00 0.86231495E+02 0.86232089E+02 0.32000000E+00 0.0000E+00 0.9000E+01
        2 -1    0    0  501    0 0.00000000E+00 0.00000000E+00 -.10754014E+04 0.10754015E+04 0.32000000E+00 0.0000E+00 0.9000E+01
       25  2    1    2    0    0 -.55285162E+02 0.18504334E+03 -.60990620E+03 0.70638340E+03 0.29949033E+03 0.0000E+00 0.0000E+00
       23  1    3    3    0    0 -.11779066E+03 0.38034685E+02 -.16802731E+03 0.22774922E+03 0.91188000E+02 0.0000E+00 0.9000E+01
      -13  1    1    2    0    0 0.48406334E+01 -.16887594E+03 -.17110406E+03 0.24045608E+03 0.10565837E+00 0.0000E+00 0.9000E+01
       13  1    1    2    0    0 0.50444529E+02 -.16167397E+02 -.20815968E+03 0.21479409E+03 0.10565837E+00 0.0000E+00 0.9000E+01
       23  1    3    3    0    0 0.62505501E+02 0.14700866E+03 -.44187889E+03 0.47863419E+03 0.91188000E+02 0.0000E+00 0.9000E+01
#aMCatNLO 1  0  0  2  2 0.14345679D+03 0.00000000D+00  -5  7  0 0.00000000D+00 0.00000000D+00 0.00000000D+00 0.00000000D+00 0.00000000D+00
  <mgrwgt>
 0.5682042370D-03    3    2    0
 0.304522324338366D+03 0.000000000000000D+00 0.000000000000000D+00 0.304522324338366D+03
 0.304522324338366D+03 0.000000000000000D+00 0.000000000000000D+00 -.304522324338366D+03
 0.161489781870534D+03 -.117791714771534D+03 0.380382049530926D+02 0.494156371983673D+02
 0.180727210776061D+03 0.484586345149360D+01 -.168877829194451D+03 0.641803796255067D+02
 0.715940120491480D+02 0.504416213696928D+02 -.161732863189020D+02 -.481639928217845D+02
 0.195233643980988D+03 0.625042299503479D+02 0.147012910560260D+03 -.654320240020894D+02
 0.000000000000000D+00 0.000000000000000D+00 -.000000000000000D+00 0.000000000000000D+00
 0.575489139906030D+03 0.000000000000000D+00 0.000000000000000D+00 0.575489139906030D+03
 0.332445803585510D+03 0.000000000000000D+00 0.000000000000000D+00 -.332445803585510D+03
 0.194044548629326D+03 -.159052881328267D+03 0.399788850546678D+02 0.494156371983673D+02
 0.182663981389590D+03 -.373271230055839D+02 -.166894262502784D+03 0.641803796255067D+02
 0.615061774283635D+02 0.349948174589619D+02 -.154467604476261D+02 -.481639928217845D+02
 0.187497074277711D+03 0.180868149281538D+02 0.149102041835268D+03 -.654320240020894D+02
 0.282223161766550D+03 0.143298371946736D+03 -.673990393952553D+01 0.243043336320520D+03
0.503383879265D-05 0.000000000000D+00 0.000000000000D+00 0.169214103675D-09 0.000000000000D+00  7 -2 2 23 -13 13 23 21 0 0.13266433D-01 0.16544642D+00 0.78289238D+05 0.78289238D+05 0.78289238D+05 0.11305508D+01  1  2  2  2  7  2        2 0.561970924557D-03 0.100000000000D+01
-.277220561484D-06 0.000000000000D+00 -.193312664040D-07 0.169214103675D-09 0.000000000000D+00  7 -2 2 23 -13 13 23 21 2 0.13266433D-01 0.16544642D+00 0.78289238D+05 0.78289238D+05 0.78289238D+05 0.11305508D+01  1  2  3  2  7  2        2 -.395567092572D-04 0.100000000000D+01
0.320904740354D-06 0.000000000000D+00 0.000000000000D+00 0.169214103675D-09 0.000000000000D+00  7 -2 2 23 -13 13 23 21 2 0.13266433D-01 0.16544642D+00 0.78289238D+05 0.78289238D+05 0.78289238D+05 0.11305508D+01  1  2 15  2  7  2        2 0.457900216545D-04 0.100000000000D+01
  </mgrwgt>
  </event>
  <event>
  9     66 0.28248871E-05 0.45014210E+03 0.75467711E-02 0.94062306E-01
       21 -1    0    0  502  501 0.00000000E+00 0.00000000E+00 0.11197856E+03 0.11198107E+03 0.75000000E+00 0.0000E+00 0.9000E+01
        2 -1    0    0  501    0 0.00000000E+00 0.00000000E+00 -.26286832E+04 0.26286832E+04 0.32000000E+00 0.0000E+00 0.9000E+01
       25  2    1    2    0    0 -.31188532E+03 0.12745571E+03 -.11842964E+04 0.12673354E+04 0.30010593E+03 0.0000E+00 0.0000E+00
       23  2    1    2    0    0 0.42613578E+03 -.21377975E+03 -.10519768E+04 0.11584529E+04 0.89802291E+02 0.0000E+00 0.0000E+00
       23  1    3    3    0    0 -.18584871E+03 0.16283954E+03 -.93476132E+03 0.97115933E+03 0.91188000E+02 0.0000E+00 0.9000E+01
      -13  1    4    4    0    0 0.42811684E+03 -.20234953E+03 -.10277748E+04 0.11316141E+04 0.10565837E+00 0.0000E+00 0.9000E+01
       13  1    4    4    0    0 -.19810661E+01 -.11430220E+02 -.24201979E+02 0.26838806E+02 0.10565837E+00 0.0000E+00 0.9000E+01
       23  1    3    3    0    0 -.12603662E+03 -.35383833E+02 -.24953512E+03 0.29617608E+03 0.91188000E+02 0.0000E+00 0.9000E+01
        2  1    1    2  502    0 -.11425046E+03 0.86324040E+02 -.28043140E+03 0.31487597E+03 0.32000000E+00 0.0000E+00 0.9000E+01
#aMCatNLO 2  0  0  1  2 0.14319569D+03 0.00000000D+00  -5  7  0 0.00000000D+00 0.00000000D+00 0.00000000D+00 0.00000000D+00 0.00000000D+00
  <mgrwgt>
 0.1500308959D-04    2    2    0
 0.464495938406424D+03 0.000000000000000D+00 0.000000000000000D+00 0.464495938406424D+03
 0.464495938406424D+03 0.000000000000000D+00 0.000000000000000D+00 -.464495938406424D+03
 0.323722399852423D+03 -.222901340330344D+03 0.190835344302494D+03 -.101871510571390D+03
 0.409359068883417D+03 0.374043698186046D+03 -.161493380752822D+03 0.398252068096075D+02
 0.110034831240092D+02 -.336855504480607D+01 -.103820628590209D+02 0.139364578060782D+01
 0.184906924953000D+03 -.147773802810896D+03 -.189599006906514D+02 0.606526579811744D+02
 0.000000000000000D+00 -.000000000000000D+00 0.000000000000000D+00 0.000000000000000D+00
 0.555401126165638D+03 0.000000000000000D+00 0.000000000000000D+00 0.555401126165638D+03
 0.529994288125478D+03 0.000000000000000D+00 0.000000000000000D+00 -.529994288125478D+03
 0.282399564870675D+03 -.185848705989266D+03 0.162839542836392D+03 -.101871510571390D+03
 0.475201039488475D+03 0.428117439373072D+03 -.202349793521375D+03 0.398252068096075D+02
 0.116838830377639D+02 -.198166143018781D+01 -.114299559165575D+02 0.139364578060782D+01
 0.170678763904407D+03 -.126036615787533D+03 -.353838333788308D+02 0.606526579811744D+02
 0.145432162989795D+03 -.114250456166085D+03 0.863240399803719D+02 0.254068380401609D+02
-.268821188386D-06 0.000000000000D+00 0.000000000000D+00 0.647368650490D-06 0.000000000000D+00  7 21 2 23 -13 13 23 2 2 0.18074930D-01 0.35443425D+00 0.27628108D+06 0.27628108D+06 0.27628108D+06 0.10872083D+01  1  2 13  3  7  1       -2 -.564525961223D-04 0.100000000000D+01
0.479218961263D-06 0.000000000000D+00 0.000000000000D+00 0.647368650490D-06 0.701424698940D-11  7 21 2 23 -13 13 23 2 2 0.17227660D-01 0.40441286D+00 0.27628108D+06 0.27628108D+06 0.27628108D+06 0.10872083D+01  1  2  1  3  7  1       -2 0.714556857101D-04 0.100000000000D+01
  </mgrwgt>
  </event>
  <event>
  8     66 0.28248871E-05 0.16073878E+03 0.75467711E-02 0.10198628E+00
       -2 -1    0    0    0  501 0.00000000E+00 0.00000000E+00 0.29101298E+03 0.29101315E+03 0.32000000E+00 0.0000E+00 0.9000E+01
        2 -1    0    0  501    0 0.00000000E+00 0.00000000E+00 -.28729033E+03 0.28729051E+03 0.32000000E+00 0.0000E+00 0.9000E+01
       25  2    1    2    0    0 -.15328517E+03 0.68183593E+02 -.10372105E+03 0.35927160E+03 0.30028767E+03 0.0000E+00 0.0000E+00
       23  2    1    2    0    0 0.15328517E+03 -.68183593E+02 0.10744369E+03 0.21903206E+03 0.91024991E+02 0.0000E+00 0.0000E+00
       23  1    3    3    0    0 -.25950269E+02 0.14159588E+03 -.40888716E+02 0.17524254E+03 0.91188000E+02 0.0000E+00 0.9000E+01
      -11  1    4    4    0    0 0.11249233E+03 -.13769024E+01 0.60011265E+02 0.12750597E+03 0.51099893E-03 0.0000E+00 0.9000E+01
       11  1    4    4    0    0 0.40792843E+02 -.66806690E+02 0.47432429E+02 0.91526090E+02 0.51099893E-03 0.0000E+00 0.9000E+01
       23  1    3    3    0    0 -.12733490E+03 -.73412291E+02 -.62832331E+02 0.18402906E+03 0.91188000E+02 0.0000E+00 0.9000E+01
#aMCatNLO 1  0  0  2  1 0.13684830D+02 0.00000000D+00  -5  7  0 0.00000000D+00 0.00000000D+00 0.00000000D+00 0.00000000D+00 0.00000000D+00
  <mgrwgt>
 0.5934556859D-04    9    2    0
 0.289145840755885D+03 0.000000000000000D+00 0.000000000000000D+00 0.289145840755885D+03
 0.289145840755885D+03 0.000000000000000D+00 0.000000000000000D+00 -.289145840755885D+03
 0.175509388424388D+03 -.259502685346435D+02 0.141595883612467D+03 -.420176556710075D+02
 0.127122298503214D+03 0.112492329187188D+03 -.137690239450061D+01 0.591917121781215D+02
 0.912226490883070D+02 0.407928428314417D+02 -.668066901223349D+02 0.468442294772367D+02
 0.184437345495862D+03 -.127334903483986D+03 -.734122910956318D+02 -.640182859843507D+02
 0.000000000000000D+00 0.000000000000000D+00 0.000000000000000D+00 -.000000000000000D+00
 0.291198259660571D+03 0.000000000000000D+00 0.000000000000000D+00 0.291198259660571D+03
 0.312974879219514D+03 0.000000000000000D+00 0.000000000000000D+00 -.312974879219514D+03
 0.173249543661849D+03 -.284300347654747D+02 0.138298238492707D+03 -.420176556710075D+02
 0.125584006354145D+03 0.110695521984703D+03 -.376633428076294D+01 0.591917121781215D+02
 0.919315520775379D+02 0.394905690792855D+02 -.685384810589148D+02 0.468442294772367D+02
 0.187688477277895D+03 -.129980814352604D+03 -.769308788377902D+02 -.640182859843507D+02
 0.257195595086580D+02 0.822475805409018D+01 0.109374556847614D+02 -.217766195589435D+02
0.694534455257D-06 0.000000000000D+00 0.000000000000D+00 0.146311349746D-06 0.000000000000D+00  7 -2 2 23 -11 11 23 21 0 0.44771255D-01 0.44198540D-01 0.71329911D+05 0.71329911D+05 0.71329911D+05 0.11339654D+01  1  2  2  2  7  2        2 0.458372423097D-04 0.100000000000D+01
-.382895166977D-07 0.000000000000D+00 -.266719518331D-08 0.146311349746D-06 0.000000000000D+00  7 -2 2 23 -11 11 23 21 2 0.44771255D-01 0.44198540D-01 0.71329911D+05 0.71329911D+05 0.71329911D+05 0.11339654D+01  1  2  3  2  7  2        2 -.324940768405D-05 0.100000000000D+01
0.450792188064D-07 0.000000000000D+00 0.000000000000D+00 0.146311349746D-06 0.000000000000D+00  7 -2 2 23 -11 11 23 21 2 0.44771255D-01 0.44198540D-01 0.71329911D+05 0.71329911D+05 0.71329911D+05 0.11339654D+01  1  2 15  2  7  2        2 0.382561005241D-05 0.100000000000D+01
0.713940405072D-05 0.000000000000D+00 0.000000000000D+00 0.146311349746D-06 0.000000000000D+00  7 -2 2 23 -11 11 23 21 2 0.44771255D-01 0.47990176D-01 0.75091337D+05 0.75091337D+05 0.75091337D+05 0.11320766D+01  1  2 12  2  7  2        2 0.552036889090D-03 0.100000000000D+01
-.726551943691D-05 0.000000000000D+00 0.000000000000D+00 0.146311349746D-06 0.000000000000D+00  7 -2 2 23 -11 11 23 21 2 0.44771255D-01 0.44198540D-01 0.71329911D+05 0.71329911D+05 0.71329911D+05 0.11339654D+01  1  2  4  2  7  2        2 -.616582206386D-03 0.100000000000D+01
-.119954541286D-04 0.000000000000D+00 -.117550662720D-05 0.146311349746D-06 0.000000000000D+00  7 -2 2 23 -11 11 23 21 2 0.44771255D-01 0.48065988D-01 0.71329911D+05 0.71329911D+05 0.71329911D+05 0.11339654D+01  1  2  5  2  7  2        2 -.929205673280D-03 0.100000000000D+01
0.120557435814D-04 0.000000000000D+00 0.117138306894D-05 0.146311349746D-06 0.000000000000D+00  7 -2 2 23 -11 11 23 21 2 0.44771255D-01 0.44198540D-01 0.71329911D+05 0.71329911D+05 0.71329911D+05 0.11339654D+01  1  2  6  2  7  2        2 0.102310055621D-02 0.100000000000D+01
0.102103293494D-06 0.000000000000D+00 0.000000000000D+00 0.146311349746D-06 0.000000000000D+00  7 -2 21 23 -11 11 23 -2 2 0.44771255D-01 0.47990176D-01 0.75091337D+05 0.75091337D+05 0.75091337D+05 0.11320766D+01  1  2 12  4  7  2        2 0.268041947571D-04 0.100000000000D+01
-.164307677426D-06 0.000000000000D+00 -.163745515413D-07 0.146311349746D-06 0.000000000000D+00  7 -2 21 23 -11 11 23 -2 2 0.44771255D-01 0.48065988D-01 0.71329911D+05 0.71329911D+05 0.71329911D+05 0.11339654D+01  1  2  5  4  7  2        2 -.432216364783D-04 0.100000000000D+01
  </mgrwgt>
  </event>
  <event>
  8     66 0.28248871E-05 0.19212692E+03 0.75467711E-02 0.10456130E+00
       -2 -1    0    0    0  501 0.00000000E+00 0.00000000E+00 0.10697360E+03 0.10697408E+03 0.32000000E+00 0.0000E+00 0.9000E+01
        2 -1    0    0  501    0 0.00000000E+00 0.00000000E+00 -.65809561E+03 0.65809569E+03 0.32000000E+00 0.0000E+00 0.9000E+01
       25  2    1    2    0    0 -.99312202E+02 -.84320145E+02 -.50119671E+03 0.59858668E+03 0.30022503E+03 0.0000E+00 0.0000E+00
       23  2    1    2    0    0 0.99312202E+02 0.84320145E+02 -.49925298E+02 0.16648309E+03 0.90836572E+02 0.0000E+00 0.0000E+00
       23  1    3    3    0    0 0.28240255E+00 0.46385840E+02 -.58976180E+02 0.11808966E+03 0.91188000E+02 0.0000E+00 0.9000E+01
      -11  1    4    4    0    0 0.10259663E+03 0.42822502E+02 -.55886076E+02 0.12443106E+03 0.51099893E-03 0.0000E+00 0.9000E+01
       11  1    4    4    0    0 -.32844325E+01 0.41497643E+02 0.59607779E+01 0.42052024E+02 0.51099893E-03 0.0000E+00 0.9000E+01
       23  1    3    3    0    0 -.99594605E+02 -.13070598E+03 -.44222053E+03 0.48049702E+03 0.91188000E+02 0.0000E+00 0.9000E+01
#aMCatNLO 1  0  0  1  2 0.10198253D+02 0.00000000D+00  -5  7  0 0.00000000D+00 0.00000000D+00 0.00000000D+00 0.00000000D+00 0.00000000D+00
  <mgrwgt>
 0.1451348574D-03    6    2    0
 0.265328230892869D+03 0.000000000000000D+00 0.000000000000000D+00 0.265328230892869D+03
 0.265328230892869D+03 0.000000000000000D+00 0.000000000000000D+00 -.265328230892869D+03
 0.109004148037241D+03 0.282402550102596D+00 0.463858398426111D+02 0.376155161631483D+02
 0.121356099658981D+03 0.102596634466288D+03 0.428225019767924D+02 0.486566218009331D+02
 0.668188380349662D+02 -.328443248955911D+01 0.414976427722125D+02 0.522677267911511D+02
 0.233477376054550D+03 -.995946045268317D+02 -.130705984591616D+03 -.138539864755232D+03
 0.000000000000000D+00 -.000000000000000D+00 0.000000000000000D+00 -.000000000000000D+00
 0.270278931219760D+03 0.000000000000000D+00 0.000000000000000D+00 0.270278931219760D+03
 0.270681721528273D+03 0.000000000000000D+00 0.000000000000000D+00 -.270681721528273D+03
 0.108209176531495D+03 0.111593611491126D+01 0.444724878097872D+02 0.376155161631483D+02
 0.121411503989023D+03 0.103528229922002D+03 0.406840517280982D+02 0.486566218009331D+02
 0.660748242723701D+02 -.277446686795904D+01 0.403270315335604D+02 0.522677267911511D+02
 0.235058943889694D+03 -.977966450794504D+02 -.134833148162254D+03 -.138539864755232D+03
 0.102062040654506D+02 -.407305408950408D+01 0.934957709080803D+01 -.402790308513183D+00
0.566799233614D-06 0.000000000000D+00 0.000000000000D+00 0.182486614450D-06 0.000000000000D+00  7 -2 2 23 -11 11 23 21 0 0.16457520D-01 0.10124552D+00 0.49071629D+05 0.49071629D+05 0.49071629D+05 0.11480120D+01  1  2  2  1  7  1       -2 0.844949434061D-04 0.100000000000D+01
-.302421817076D-07 0.000000000000D+00 -.217665829874D-08 0.182486614450D-06 0.000000000000D+00  7 -2 2 23 -11 11 23 21 2 0.16457520D-01 0.10124552D+00 0.49071629D+05 0.49071629D+05 0.49071629D+05 0.11480120D+01  1  2  3  1  7  1       -2 -.594165537329D-05 0.100000000000D+01
0.353154679999D-07 0.000000000000D+00 0.000000000000D+00 0.182486614450D-06 0.000000000000D+00  7 -2 2 23 -11 11 23 21 2 0.16457520D-01 0.10124552D+00 0.49071629D+05 0.49071629D+05 0.49071629D+05 0.11480120D+01  1  2 15  1  7  1       -2 0.693839955830D-05 0.100000000000D+01
0.659898838609D-06 0.000000000000D+00 0.000000000000D+00 0.182486614450D-06 0.000000000000D+00  7 -2 2 23 -11 11 23 21 2 0.16927440D-01 0.10124552D+00 0.51349797D+05 0.51349797D+05 0.51349797D+05 0.11462792D+01  1  2 12  1  7  1       -2 0.123579745489D-03 0.100000000000D+01
-.484972667812D-06 0.000000000000D+00 0.000000000000D+00 0.182486614450D-06 0.000000000000D+00  7 -2 2 23 -11 11 23 21 2 0.16457520D-01 0.10124552D+00 0.49071629D+05 0.49071629D+05 0.49071629D+05 0.11480120D+01  1  2  4  1  7  1       -2 -.952821620299D-04 0.100000000000D+01
0.124391422167D-07 0.000000000000D+00 0.000000000000D+00 0.182486614450D-06 0.000000000000D+00  7 21 2 23 -11 11 23 2 2 0.16927440D-01 0.10124552D+00 0.51349797D+05 0.51349797D+05 0.51349797D+05 0.11462792D+01  1  2 12  3  7  1       -2 0.313455863919D-04 0.100000000000D+01
  </mgrwgt>
  </event>
  <event>
  8     66 0.28248871E-05 0.21183921E+03 0.75467711E-02 0.10112666E+00
       -2 -1    0    0    0  501 0.00000000E+00 0.00000000E+00 0.10823665E+03 0.10823713E+03 0.32000000E+00 0.0000E+00 0.9000E+01
       21 -1    0    0  501  502 0.00000000E+00 0.00000000E+00 -.14286190E+04 0.14286192E+04 0.75000000E+00 0.0000E+00 0.9000E+01
       25  2    1    2    0    0 -.16731044E+03 0.32929565E+02 -.35917445E+03 0.50172216E+03 0.30600931E+03 0.0000E+00 0.0000E+00
       23  1    3    3    0    0 0.10845885E+02 -.50484504E+01 -.25874207E+03 0.27460122E+03 0.91188000E+02 0.0000E+00 0.9000E+01
      -13  1    1    2    0    0 -.12709172E+02 -.97485974E+02 -.70268308E+03 0.70952700E+03 0.10565837E+00 0.0000E+00 0.9000E+01
       13  1    1    2    0    0 0.57718502E+02 0.20418738E+02 -.12525550E+03 0.13941772E+03 0.10565837E+00 0.0000E+00 0.9000E+01
       23  1    3    3    0    0 -.17815632E+03 0.37978015E+02 -.10043239E+03 0.22712094E+03 0.91188000E+02 0.0000E+00 0.9000E+01
       -2  1    1    2    0  502 0.12230111E+03 0.44137671E+02 -.13326930E+03 0.18618943E+03 0.32000000E+00 0.0000E+00 0.9000E+01
#aMCatNLO 2  0  0  2  2 0.13002190D+03 0.00000000D+00  -5  7  0 0.00000000D+00 0.00000000D+00 0.00000000D+00 0.00000000D+00 0.00000000D+00
  <mgrwgt>
 0.2780518096D-05    1    2    0
 0.315498797802439D+03 0.000000000000000D+00 0.000000000000000D+00 0.315498797802439D+03
 0.315498797802439D+03 0.000000000000000D+00 0.000000000000000D+00 -.315498797802439D+03
 0.102761208893871D+03 0.301887646319988D+02 0.193267280749502D+01 -.364625557955375D+02
 0.187501998827241D+03 0.237592183070297D+02 -.843248236551691D+02 -.165776425420427D+03
 0.753946082943175D+02 0.708451686615513D+02 0.251548646423498D+02 -.570454397782859D+01
 0.265339779589448D+03 -.124793151600580D+03 0.572372862053243D+02 0.207943525193793D+03
 0.000000000000000D+00 0.000000000000000D+00 0.000000000000000D+00 0.000000000000000D+00
 0.426355718857970D+03 0.000000000000000D+00 0.000000000000000D+00 0.426355718857970D+03
 0.362676752968399D+03 0.000000000000000D+00 0.000000000000000D+00 -.362676752968399D+03
 0.989337085851336D+02 0.108455185059168D+02 -.504817824598690D+01 -.364625557955375D+02
 0.192734648786786D+03 -.127068025173178D+02 -.974851721421116D+02 -.165776425420427D+03
 0.614876893308774D+02 0.577176788548566D+02 0.204172394035812D+02 -.570454397782859D+01
 0.291098298245460D+03 -.178157504198136D+03 0.379784402690819D+02 0.207943525193793D+03
 0.144778126878112D+03 0.122301109354680D+03 0.441376707154354D+02 0.636789658895705D+02
0.109350251623D-06 0.000000000000D+00 0.000000000000D+00 0.245611087928D-11 0.315948808052D-16  7 -2 21 23 -13 13 23 -2 2 0.16651836D-01 0.21978749D+00 0.85624544D+05 0.85624544D+05 0.85624544D+05 0.11272955D+01  1  2  1  4  7  2        2 0.278051809567D-05 0.100000000000D+01
  </mgrwgt>
  </event>
  <event>
  8     66 0.28248871E-05 0.17679616E+03 0.75467711E-02 0.97234137E-01
       -2 -1    0    0    0  501 0.00000000E+00 0.00000000E+00 0.19528098E+03 0.19528125E+03 0.32000000E+00 0.0000E+00 0.9000E+01
        2 -1    0    0  501    0 0.00000000E+00 0.00000000E+00 -.18026576E+04 0.18026576E+04 0.32000000E+00 0.0000E+00 0.9000E+01
       25  2    1    2    0    0 -.12427346E+03 0.31739600E+03 -.15798890E+04 0.16438136E+04 0.29981655E+03 0.0000E+00 0.0000E+00
       23  2    1    2    0    0 0.12427346E+03 -.31739600E+03 -.27487616E+02 0.35412522E+03 0.92005367E+02 0.0000E+00 0.0000E+00
       23  1    3    3    0    0 -.10066423E+03 0.24792715E+03 -.68111585E+03 0.73745184E+03 0.91188000E+02 0.0000E+00 0.9000E+01
      -11  1    4    4    0    0 0.53682106E+02 -.55650964E+02 0.17610214E+02 0.79302698E+02 0.51099893E-03 0.0000E+00 0.9000E+01
       11  1    4    4    0    0 0.70591352E+02 -.26174504E+03 -.45097830E+02 0.27482252E+03 0.51099893E-03 0.0000E+00 0.9000E+01
       23  1    3    3    0    0 -.23609231E+02 0.69468848E+02 -.89877313E+03 0.90636179E+03 0.91188000E+02 0.0000E+00 0.9000E+01
#aMCatNLO 1  0  0  1  2 0.48345818D+02 0.00000000D+00  -5  7  0 0.00000000D+00 0.00000000D+00 0.00000000D+00 0.00000000D+00 0.00000000D+00
  <mgrwgt>
 0.1894809083D-03    9    2    0
 0.593316976769985D+03 0.000000000000000D+00 0.000000000000000D+00 0.593316976769985D+03
 0.593316976769985D+03 0.000000000000000D+00 0.000000000000000D+00 -.593316976769985D+03
 0.319031830542639D+03 -.100664226504905D+03 0.247927154133265D+03 -.147867837276862D+03
 0.157376406809795D+03 0.536821056489253D+02 -.556509642307962D+02 0.137071277566244D+03
 0.401631348593554D+03 0.705913515620358D+02 -.261745038114818D+03 0.296334500657609D+03
 0.308594367593982D+03 -.236092307060561D+02 0.694688482123494D+02 -.285537940946992D+03
 0.000000000000000D+00 -.000000000000000D+00 -.000000000000000D+00 0.000000000000000D+00
 0.638562605118388D+03 0.000000000000000D+00 0.000000000000000D+00 0.638562605118388D+03
 0.606865847809271D+03 0.000000000000000D+00 0.000000000000000D+00 -.606865847809271D+03
 0.316132377126517D+03 -.877844343234277D+02 0.249105247462275D+03 -.147867837276862D+03
 0.159478464206617D+03 0.601072549900008D+02 -.550632664271390D+02 0.137071277566244D+03
 0.403857256955889D+03 0.869249637504428D+02 -.260251029571305D+03 0.296334500657609D+03
 0.308150299089762D+03 -.111029480156770D+02 0.706127772447947D+02 -.285537940946992D+03
 0.578100555488741D+02 -.481448364013389D+02 -.440372870862636D+01 0.316967573091167D+02
0.138636938837D-04 0.000000000000D+00 0.000000000000D+00 0.147616297237D-05 0.000000000000D+00  7 -2 2 23 -11 11 23 21 0 0.30043251D-01 0.27733196D+00 0.13993417D+06 0.13993417D+06 0.13993417D+06 0.11099404D+01  1  2  2  1  7  1       -2 0.156828666132D-03 0.100000000000D+01
-.570959428269D-06 0.000000000000D+00 -.532402349076D-07 0.147616297237D-05 0.000000000000D+00  7 -2 2 23 -11 11 23 21 2 0.30043251D-01 0.27733196D+00 0.13993417D+06 0.13993417D+06 0.13993417D+06 0.11099404D+01  1  2  3  1  7  1       -2 -.795703161196D-05 0.100000000000D+01
0.840481324202D-06 0.000000000000D+00 0.000000000000D+00 0.147616297237D-05 0.000000000000D+00  7 -2 2 23 -11 11 23 21 2 0.30043251D-01 0.27733196D+00 0.13993417D+06 0.13993417D+06 0.13993417D+06 0.11099404D+01  1  2 15  1  7  1       -2 0.117131553221D-04 0.100000000000D+01
0.450073797307D-04 0.000000000000D+00 0.000000000000D+00 0.147616297237D-05 0.000000000000D+00  7 -2 2 23 -11 11 23 21 2 0.32659453D-01 0.27733196D+00 0.15981178D+06 0.15981178D+06 0.15981178D+06 0.11053869D+01  1  2 12  1  7  1       -2 0.533374222531D-03 0.100000000000D+01
-.448169878028D-04 0.000000000000D+00 0.000000000000D+00 0.147616297237D-05 0.000000000000D+00  7 -2 2 23 -11 11 23 21 2 0.30043251D-01 0.27733196D+00 0.13993417D+06 0.13993417D+06 0.13993417D+06 0.11099404D+01  1  2  4  1  7  1       -2 -.624580611237D-03 0.100000000000D+01
-.993475381594D-04 0.000000000000D+00 -.190934875254D-04 0.147616297237D-05 0.000000000000D+00  7 -2 2 23 -11 11 23 21 2 0.33056691D-01 0.27733196D+00 0.13993417D+06 0.13993417D+06 0.13993417D+06 0.11099404D+01  1  2  5  1  7  1       -2 -.116799812775D-02 0.100000000000D+01
0.100798668997D-03 0.000000000000D+00 0.190065928691D-04 0.147616297237D-05 0.000000000000D+00  7 -2 2 23 -11 11 23 21 2 0.30043251D-01 0.27733196D+00 0.13993417D+06 0.13993417D+06 0.13993417D+06 0.11099404D+01  1  2  6  1  7  1       -2 0.140475514711D-02 0.100000000000D+01
0.629639037945D-06 0.000000000000D+00 0.000000000000D+00 0.147616297237D-05 0.000000000000D+00  7 21 2 23 -11 11 23 2 2 0.32659453D-01 0.27733196D+00 0.15981178D+06 0.15981178D+06 0.15981178D+06 0.11053869D+01  1  2 12  3  7  1       -2 0.860028995222D-04 0.100000000000D+01
-.149385526787D-05 0.000000000000D+00 -.298224807395D-06 0.147616297237D-05 0.000000000000D+00  7 21 2 23 -11 11 23 2 2 0.33056691D-01 0.27733196D+00 0.13993417D+06 0.13993417D+06 0.13993417D+06 0.11099404D+01  1  2  5  3  7  1       -2 -.202657411728D-03 0.100000000000D+01
  </mgrwgt>
  </event>
  <event>
  7     66 0.28248871E-05 0.14413024E+03 0.75467711E-02 0.97197746E-01
       -2 -1    0    0    0  501 0.00000000E+00 0.00000000E+00 0.41920221E+03 0.41920233E+03 0.32000000E+00 0.0000E+00 0.9000E+01
        2 -1    0    0  501    0 0.00000000E+00 0.00000000E+00 -.26424710E+03 0.26424730E+03 0.32000000E+00 0.0000E+00 0.9000E+01
       25  2    1    2    0    0 -.20456378E+02 0.13374572E+03 0.23464362E+03 0.40339032E+03 0.29893099E+03 0.0000E+00 0.0000E+00
       23  1    3    3    0    0 -.67155975E+02 0.15296847E+03 0.23070071E+03 0.29907750E+03 0.91188000E+02 0.0000E+00 0.9000E+01
      -13  1    1    2    0    0 -.65328452E+02 0.37017505E+02 -.62963776E+01 0.75350898E+02 0.10565837E+00 0.0000E+00 0.9000E+01
       13  1    1    2    0    0 0.85784830E+02 -.17076322E+03 -.73392144E+02 0.20470841E+03 0.10565837E+00 0.0000E+00 0.9000E+01
       23  1    3    3    0    0 0.46699598E+02 -.19222758E+02 0.39429105E+01 0.10431282E+03 0.91188000E+02 0.0000E+00 0.9000E+01
#aMCatNLO 1  0  0  1  2 0.20591365D+03 0.00000000D+00  -5  7  0 0.00000000D+00 0.00000000D+00 0.00000000D+00 0.00000000D+00 0.00000000D+00
  <mgrwgt>
 0.1284520757D-02    8    2    0
 0.332825895297219D+03 0.000000000000000D+00 0.000000000000000D+00 0.332825895297219D+03
 0.332825895297219D+03 0.000000000000000D+00 0.000000000000000D+00 -.332825895297219D+03
 0.253377186739307D+03 -.671567846633057D+02 0.152973767981194D+03 0.167253520140079D+03
 0.788239861292923D+02 -.653227372494382D+02 0.370100962415407D+02 -.240086143653403D+02
 0.227267611596077D+03 0.857802643586107D+02 -.170763325679812D+03 -.123013007970389D+03
 0.106183006129761D+03 0.466992575541332D+02 -.192205385429234D+02 -.202318978043503D+02
 0.000000000000000D+00 0.000000000000000D+00 -.000000000000000D+00 0.000000000000000D+00
 0.587535077403122D+03 0.000000000000000D+00 0.000000000000000D+00 0.587535077403122D+03
 0.392710910700504D+03 0.000000000000000D+00 0.000000000000000D+00 -.392710910700504D+03
 0.310379926861377D+03 -.135027394141032D+03 0.204485477446953D+03 0.167253520140079D+03
 0.105526802208876D+03 -.875166928738690D+02 0.538546273695072D+02 -.240086143653403D+02
 0.184820599682251D+03 0.361690445916230D+02 -.133109932575722D+03 -.123013007970389D+03
 0.960457589018260D+02 0.223529757858049D+02 -.742457932299153D+00 -.202318978043503D+02
 0.283472900449296D+03 0.164022066637473D+03 -.124487714308439D+03 0.194824166702618D+03
0.216203992410D-04 0.000000000000D+00 0.000000000000D+00 0.293493492509D-10 0.000000000000D+00  7 -2 2 23 -13 13 23 21 0 0.64492671D-01 0.40653425D-01 0.78609062D+05 0.78609062D+05 0.78609062D+05 0.11304020D+01  1  2  2  1  7  1       -2 0.755614677963D-03 0.100000000000D+01
-.115818036331D-05 0.000000000000D+00 -.830280258675D-07 0.293493492509D-10 0.000000000000D+00  7 -2 2 23 -13 13 23 21 2 0.64492671D-01 0.40653425D-01 0.78609062D+05 0.78609062D+05 0.78609062D+05 0.11304020D+01  1  2  3  1  7  1       -2 -.517224047532D-04 0.100000000000D+01
0.134735702210D-05 0.000000000000D+00 0.000000000000D+00 0.293493492509D-10 0.000000000000D+00  7 -2 2 23 -13 13 23 21 2 0.64492671D-01 0.40653425D-01 0.78609062D+05 0.78609062D+05 0.78609062D+05 0.11304020D+01  1  2 15  1  7  1       -2 0.601707190450D-04 0.100000000000D+01
0.221253075623D-05 0.000000000000D+00 0.000000000000D+00 0.293493492509D-10 0.000000000000D+00  7 -2 2 23 -13 13 23 21 2 0.11587883D+00 0.40653425D-01 0.16078549D+06 0.16078549D+06 0.16078549D+06 0.11051800D+01  1  2 12  1  7  1       -2 0.243866170283D-04 0.100000000000D+01
-.118295978880D-04 0.000000000000D+00 -.655072903261D-05 0.293493492509D-10 0.000000000000D+00  7 -2 2 23 -13 13 23 21 2 0.12731513D+00 0.40653425D-01 0.78609062D+05 0.78609062D+05 0.78609062D+05 0.11304020D+01  1  2  5  1  7  1       -2 -.109211930603D-03 0.100000000000D+01
0.141527812814D-04 0.000000000000D+00 0.528143681923D-05 0.293493492509D-10 0.000000000000D+00  7 -2 2 23 -13 13 23 21 2 0.64492671D-01 0.40653425D-01 0.78609062D+05 0.78609062D+05 0.78609062D+05 0.11304020D+01  1  2  6  1  7  1       -2 0.632039624406D-03 0.100000000000D+01
0.142254032130D-06 0.000000000000D+00 0.000000000000D+00 0.293493492509D-10 0.000000000000D+00  7 21 2 23 -13 13 23 2 2 0.11587883D+00 0.40653425D-01 0.16078549D+06 0.16078549D+06 0.16078549D+06 0.11051800D+01  1  2 12  3  7  1       -2 0.143560825401D-04 0.100000000000D+01
-.482371794263D-06 0.000000000000D+00 -.482394886981D-06 0.293493492509D-10 0.000000000000D+00  7 21 2 23 -13 13 23 2 2 0.12731513D+00 0.40653425D-01 0.78609062D+05 0.78609062D+05 0.78609062D+05 0.11304020D+01  1  2  5  3  7  1       -2 -.411126285406D-04 0.100000000000D+01
  </mgrwgt>
  </event>
  <event>
  7     66 0.28248871E-05 0.16074180E+03 0.75467711E-02 0.88870898E-01
       -2 -1    0    0    0  501 0.00000000E+00 0.00000000E+00 0.18976740E+03 0.18976767E+03 0.32000000E+00 0.0000E+00 0.9000E+01
        2 -1    0    0  501    0 0.00000000E+00 0.00000000E+00 -.35862505E+04 0.35862505E+04 0.32000000E+00 0.0000E+00 0.9000E+01
       25  2    1    2    0    0 -.52047877E+03 0.45064371E+03 -.84780407E+03 0.11325548E+04 0.29988468E+03 0.0000E+00 0.0000E+00
       23  1    3    3    0    0 -.22769548E+03 0.35156091E+03 -.48628149E+03 0.64824782E+03 0.91188000E+02 0.0000E+00 0.9000E+01
      -11  1    1    2    0    0 0.41207716E+03 -.33562439E+03 -.17348873E+04 0.18144656E+04 0.51099893E-03 0.0000E+00 0.9000E+01
       11  1    1    2    0    0 0.10840162E+03 -.11501932E+03 -.81379171E+03 0.82899777E+03 0.51099893E-03 0.0000E+00 0.9000E+01
       23  1    3    3    0    0 -.29278330E+03 0.99082804E+02 -.36152258E+03 0.48430702E+03 0.91188000E+02 0.0000E+00 0.9000E+01
#aMCatNLO 1  0  0  2  1 0.25498788D+03 0.00000000D+00  -5  7  0 0.00000000D+00 0.00000000D+00 0.00000000D+00 0.00000000D+00 0.00000000D+00
  <mgrwgt>
 0.2396472625D-03    9    2    0
 0.824956955903245D+03 0.000000000000000D+00 0.000000000000000D+00 0.824956955903245D+03
 0.824956955903245D+03 0.000000000000000D+00 0.000000000000000D+00 -.824956955903245D+03
 0.482539549536836D+03 -.227695478908561D+03 0.351560908720479D+03 0.221560063791841D+03
 0.581205814596105D+03 0.412077158204035D+03 -.335624392975172D+03 -.235263429896904D+03
 0.221999987249555D+03 0.108401615981681D+03 -.115019320124596D+03 -.155896247515578D+03
 0.364168560423995D+03 -.292783295277155D+03 0.990828043792894D+02 0.169599613620641D+03
 0.000000000000000D+00 -.000000000000000D+00 -.000000000000000D+00 -.000000000000000D+00
 0.959801482002802D+03 0.000000000000000D+00 0.000000000000000D+00 0.959801482002802D+03
 0.964735475168469D+03 0.000000000000000D+00 0.000000000000000D+00 -.964735475168469D+03
 0.490993302365950D+03 -.166693686678080D+03 0.394820876573727D+03 0.221560063791841D+03
 0.610049299000832D+03 0.486721477387621D+03 -.282689704825206D+03 -.235263429896904D+03
 0.228018415171755D+03 0.136599872497362D+03 -.950222737136140D+02 -.155896247515578D+03
 0.340440327059257D+03 -.248632340459356D+03 0.130392849810280D+03 0.169599613620641D+03
 0.255035613573478D+03 -.207995322747547D+03 -.147501747845188D+03 -.493399316566694D+01
0.143780515374D-03 0.000000000000D+00 0.000000000000D+00 0.579938153806D-08 0.000000000000D+00  7 -2 2 23 -11 11 23 21 0 0.29195007D-01 0.55173087D+00 0.51872073D+06 0.51872073D+06 0.51872073D+06 0.10673840D+01  1  2  2  2  7  2        2 0.130309995860D-03 0.100000000000D+01
-.780877821348D-05 0.000000000000D+00 -.552155037317D-06 0.579938153806D-08 0.000000000000D+00  7 -2 2 23 -11 11 23 21 2 0.29195007D-01 0.55173087D+00 0.51872073D+06 0.51872073D+06 0.51872073D+06 0.10673840D+01  1  2  3  2  7  2        2 -.806310212830D-05 0.100000000000D+01
0.879238626027D-05 0.000000000000D+00 0.000000000000D+00 0.579938153806D-08 0.000000000000D+00  7 -2 2 23 -11 11 23 21 2 0.29195007D-01 0.55173087D+00 0.51872073D+06 0.51872073D+06 0.51872073D+06 0.10673840D+01  1  2 15  2  7  2        2 0.907874528254D-05 0.100000000000D+01
0.576811032205D-04 0.000000000000D+00 0.000000000000D+00 0.579938153806D-08 0.000000000000D+00  7 -2 2 23 -11 11 23 21 2 0.29195007D-01 0.68328085D+00 0.73753411D+06 0.73753411D+06 0.73753411D+06 0.10567803D+01  1  2 12  2  7  2        2 0.108128722280D-04 0.100000000000D+01
-.545139759263D-04 0.000000000000D+00 0.000000000000D+00 0.579938153806D-08 0.000000000000D+00  7 -2 2 23 -11 11 23 21 2 0.29195007D-01 0.55173087D+00 0.51872073D+06 0.51872073D+06 0.51872073D+06 0.10673840D+01  1  2  4  2  7  2        2 -.562894403320D-04 0.100000000000D+01
-.182076625719D-03 0.000000000000D+00 -.541118264308D-04 0.579938153806D-08 0.000000000000D+00  7 -2 2 23 -11 11 23 21 2 0.29195007D-01 0.66645190D+00 0.51872073D+06 0.51872073D+06 0.51872073D+06 0.10673840D+01  1  2  5  2  7  2        2 -.457901045505D-04 0.100000000000D+01
0.193303487389D-03 0.000000000000D+00 0.553899382984D-04 0.579938153806D-08 0.000000000000D+00  7 -2 2 23 -11 11 23 21 2 0.29195007D-01 0.55173087D+00 0.51872073D+06 0.51872073D+06 0.51872073D+06 0.10673840D+01  1  2  6  2  7  2        2 0.199599184144D-03 0.100000000000D+01
0.173704955775D-05 0.000000000000D+00 0.000000000000D+00 0.579938153806D-08 0.000000000000D+00  7 -2 21 23 -11 11 23 -2 2 0.29195007D-01 0.68328085D+00 0.73753411D+06 0.73753411D+06 0.73753411D+06 0.10567803D+01  1  2 12  4  7  2        2 0.381061533397D-08 0.100000000000D+01
-.442151659661D-05 0.000000000000D+00 -.148185147593D-05 0.579938153806D-08 0.000000000000D+00  7 -2 21 23 -11 11 23 -2 2 0.29195007D-01 0.66645190D+00 0.51872073D+06 0.51872073D+06 0.51872073D+06 0.10673840D+01  1  2  5  4  7  2        2 -.146986516389D-07 0.100000000000D+01
  </mgrwgt>
  </event>
  <event>
  9     66 0.28248871E-05 0.30309111E+03 0.75467711E-02 0.10039815E+00
       -2 -1    0    0    0  501 0.00000000E+00 0.00000000E+00 0.37907397E+03 0.37907411E+03 0.32000000E+00 0.0000E+00 0.9000E+01
        2 -1    0    0  502    0 0.00000000E+00 0.00000000E+00 -.25836387E+03 0.25836407E+03 0.32000000E+00 0.0000E+00 0.9000E+01
       25  2    1    2    0    0 -.22940622E+03 -.87286057E+01 0.83011788E+02 0.38508601E+03 0.29782021E+03 0.0000E+00 0.0000E+00
       23  2    1    2    0    0 0.21655182E+03 0.75314835E+01 0.28358247E+02 0.23640011E+03 0.90163238E+02 0.0000E+00 0.0000E+00
       23  1    3    3    0    0 -.22268063E+03 -.82501764E+02 0.83074010E+02 0.26759997E+03 0.91188000E+02 0.0000E+00 0.9000E+01
      -11  1    4    4    0    0 0.76377352E+02 -.40325909E+02 0.15213510E+02 0.87699086E+02 0.51099893E-03 0.0000E+00 0.9000E+01
       11  1    4    4    0    0 0.14017447E+03 0.47857392E+02 0.13144737E+02 0.14870103E+03 0.51099893E-03 0.0000E+00 0.9000E+01
       23  1    3    3    0    0 -.67255859E+01 0.73773158E+02 -.62221629E-01 0.11748603E+03 0.91188000E+02 0.0000E+00 0.9000E+01
       21  1    1    2  502  501 0.12854397E+02 0.11971222E+01 0.93400670E+01 0.15952053E+02 0.75000000E+00 0.0000E+00 0.9000E+01
#aMCatNLO 2  0  0  2  2 0.12910021D+02 0.00000000D+00  -5  7  0 0.00000000D+00 0.00000000D+00 0.00000000D+00 0.00000000D+00 0.00000000D+00
  <mgrwgt>
 0.3657915353D-04    2    2    0
 0.305644827202433D+03 0.000000000000000D+00 0.000000000000000D+00 0.305644827202433D+03
 0.305644827202433D+03 0.000000000000000D+00 0.000000000000000D+00 -.305644827202433D+03
 0.252084299041739D+03 -.217329985935032D+03 -.820034613722032D+02 0.356980673961673D+02
 0.879173148066087D+02 0.782096423517450D+02 -.401552685107838D+02 -.510388913797796D+00
 0.151827930696504D+03 0.143334475533875D+03 0.481516818224610D+02 -.137245838071639D+02
 0.119460109860015D+03 -.421413195058847D+01 0.740070480605260D+02 -.214630946752056D+02
 0.000000000000000D+00 0.000000000000000D+00 0.000000000000000D+00 0.000000000000000D+00
 0.316253815333871D+03 0.000000000000000D+00 0.000000000000000D+00 0.316253815333871D+03
 0.309665910710856D+03 0.000000000000000D+00 0.000000000000000D+00 -.309665910710856D+03
 0.256871188212270D+03 -.222680629996887D+03 -.825017636050996D+02 0.356980673961673D+02
 0.863709398271721D+02 0.763773516346555D+02 -.403259086328114D+02 -.510388913797796D+00
 0.148753404506273D+03 0.140174466895429D+03 0.478573921365267D+02 -.137245838071639D+02
 0.119430432077351D+03 -.672558588253627D+01 0.737731578806451D+02 -.214630946752056D+02
 0.144937614216605D+02 0.128543973493384D+02 0.119712222073911D+01 0.658790462301550D+01
-.102256051679D-05 0.000000000000D+00 0.000000000000D+00 0.388506838468D-08 0.000000000000D+00  7 -2 2 23 -11 11 23 21 2 0.56360982D-01 0.39230951D-01 0.91864221D+05 0.91864221D+05 0.91864221D+05 0.11247589D+01  1  2  8  2  7  2        2 -.619198620671D-04 0.100000000000D+01
0.177374009678D-05 0.000000000000D+00 0.000000000000D+00 0.388506838468D-08 0.157152315684D-09  7 -2 2 23 -11 11 23 21 2 0.58317283D-01 0.39747076D-01 0.95871648D+05 0.95871648D+05 0.95871648D+05 0.11232277D+01  1  2  1  2  7  2        2 0.984990155928D-04 0.100000000000D+01
  </mgrwgt>
  </event>
  <event>
  9     66 0.28248871E-05 0.26936902E+03 0.75467711E-02 0.10171061E+00
       -2 -1    0    0    0  501 0.00000000E+00 0.00000000E+00 0.31670670E+02 0.31672287E+02 0.32000000E+00 0.0000E+00 0.9000E+01
        2 -1    0    0  502    0 0.00000000E+00 0.00000000E+00 -.36635821E+04 0.36635821E+04 0.32000000E+00 0.0000E+00 0.9000E+01
       25  2    1    2    0    0 -.19165832E+03 -.22536717E+02 -.29801592E+04 0.30014637E+04 0.30032474E+03 0.0000E+00 0.0000E+00
       23  2    1    2    0    0 0.19939993E+03 0.53222244E+01 -.58089696E+03 0.62046056E+03 0.87985056E+02 0.0000E+00 0.0000E+00
       23  1    3    3    0    0 -.13129998E+02 -.76508155E+02 -.17339282E+04 0.17380587E+04 0.91188000E+02 0.0000E+00 0.9000E+01
      -13  1    4    4    0    0 0.14777783E+03 -.30086566E+02 -.34747980E+03 0.37879508E+03 0.10565837E+00 0.0000E+00 0.9000E+01
       13  1    4    4    0    0 0.51622103E+02 0.35408791E+02 -.23341716E+03 0.24166548E+03 0.10565837E+00 0.0000E+00 0.9000E+01
       23  1    3    3    0    0 -.17852832E+03 0.53971438E+02 -.12462310E+04 0.12634050E+04 0.91188000E+02 0.0000E+00 0.9000E+01
       21  1    1    2  502  501 -.77416123E+01 0.17214492E+02 -.70855319E+02 0.73330144E+02 0.75000000E+00 0.0000E+00 0.9000E+01
#aMCatNLO 2  0  0  2  2 0.18875151D+02 0.00000000D+00  -5  7  0 0.00000000D+00 0.00000000D+00 0.00000000D+00 0.00000000D+00 0.00000000D+00
  <mgrwgt>
 0.1822333210D-03    2    2    0
 0.330476332845533D+03 0.000000000000000D+00 0.000000000000000D+00 0.330476332845533D+03
 0.330476332845533D+03 0.000000000000000D+00 0.000000000000000D+00 -.330476332845533D+03
 0.180475949081288D+03 -.152537794995573D+02 -.717856477174303D+02 -.137369792332810D+03
 0.201088794818640D+03 0.145408893147882D+03 -.248187180654707D+02 0.136663778773702D+03
 0.670127411133738D+02 0.508392360614742D+02 0.371493852716070D+02 0.229347492280920D+02
 0.212375180677764D+03 -.180994349709799D+03 0.594549805112939D+02 -.222287356689841D+02
 0.000000000000000D+00 -.000000000000000D+00 0.000000000000000D+00 0.000000000000000D+00
 0.344046207624787D+03 0.000000000000000D+00 0.000000000000000D+00 0.344046207624787D+03
 0.337240527181142D+03 0.000000000000000D+00 0.000000000000000D+00 -.337240527181142D+03
 0.182240516338034D+03 -.131299980892776D+02 -.765081548318164D+02 -.137369792332810D+03
 0.203520324466723D+03 0.147777964882672D+03 -.300866604572274D+02 0.136663778773702D+03
 0.666679766340855D+02 0.516219648602253D+02 0.354088849061528D+02 0.229347492280920D+02
 0.208793306808884D+03 -.178528319381438D+03 0.539714379425507D+02 -.222287356689841D+02
 0.200646105582029D+02 -.774161227218154D+01 0.172144924403404D+02 0.680568044364552D+01
-.505896787077D-05 0.000000000000D+00 0.000000000000D+00 0.567521322723D-07 0.000000000000D+00  7 -2 2 23 -13 13 23 21 2 0.46802570D-02 0.55231179D+00 0.72559671D+05 0.72559671D+05 0.72559671D+05 0.11333361D+01  1  2  8  2  7  2        2 -.121522712512D-03 0.100000000000D+01
0.152925830587D-04 0.000000000000D+00 0.000000000000D+00 0.567521322723D-07 0.108635231189D-08  7 -2 2 23 -13 13 23 21 2 0.48724357D-02 0.56361651D+00 0.78300573D+05 0.78300573D+05 0.78300573D+05 0.11305455D+01  1  2  1  2  7  2        2 0.303756033480D-03 0.100000000000D+01
  </mgrwgt>
  </event>
  <event>
  8     66 0.28248871E-05 0.28816574E+03 0.75467711E-02 0.94519493E-01
       -2 -1    0    0    0  501 0.00000000E+00 0.00000000E+00 0.13819000E+03 0.13819037E+03 0.32000000E+00 0.0000E+00 0.9000E+01
        2 -1    0    0  501    0 0.00000000E+00 0.00000000E+00 -.70037380E+03 0.70037387E+03 0.32000000E+00 0.0000E+00 0.9000E+01
       25  2    1    2    0    0 0.14277328E+03 -.15213301E+03 -.22249411E+03 0.42930524E+03 0.30211041E+03 0.0000E+00 0.0000E+00
       23  2    1    2    0    0 -.14277328E+03 0.15213301E+03 -.33968970E+03 0.40925900E+03 0.92602259E+02 0.0000E+00 0.0000E+00
       23  1    3    3    0    0 -.46225006E+02 0.79336711E+01 -.50693058E+02 0.11438851E+03 0.91188000E+02 0.0000E+00 0.9000E+01
      -13  1    4    4    0    0 -.12290367E+03 0.14115226E+03 -.22653433E+03 0.29384875E+03 0.10565837E+00 0.0000E+00 0.9000E+01
       13  1    4    4    0    0 -.19869605E+02 0.10980750E+02 -.11315537E+03 0.11541026E+03 0.10565837E+00 0.0000E+00 0.9000E+01
       23  1    3    3    0    0 0.18899828E+03 -.16006668E+03 -.17180105E+03 0.31491673E+03 0.91188000E+02 0.0000E+00 0.9000E+01
#aMCatNLO 1  0  0  1  2 0.33544893D+03 0.00000000D+00  -5  7  0 0.00000000D+00 0.00000000D+00 0.00000000D+00 0.00000000D+00 0.00000000D+00
  <mgrwgt>
 0.3728424177D-03    3    2    0
 0.311102616723449D+03 0.000000000000000D+00 0.000000000000000D+00 0.311102616723449D+03
 0.311102616723449D+03 0.000000000000000D+00 0.000000000000000D+00 -.311102616723449D+03
 0.108361833106348D+03 -.462250056155584D+02 0.793367069909166D+01 0.350334305378165D+02
 0.191347202908378D+03 -.122903807437505D+03 0.141152424605819D+03 -.398045123839397D+02
 0.533018402181458D+02 -.198694718077016D+02 0.109805820941105D+02 -.482256889800259D+02
 0.269194357214026D+03 0.188998284860765D+03 -.160066677399021D+03 0.529967708261491D+02
 0.000000000000000D+00 0.000000000000000D+00 -.000000000000000D+00 -.000000000000000D+00
 0.392973996752886D+03 0.000000000000000D+00 0.000000000000000D+00 0.392973996752886D+03
 0.106492326511138D+04 0.000000000000000D+00 0.000000000000000D+00 -.106492326511138D+04
 0.148390663376395D+03 -.109956494713565D+03 0.196663582888215D+02 0.350334305378165D+02
 0.296328216459503D+03 -.243955330201953D+03 0.163437478963677D+03 -.398045123839397D+02
 0.721617394854329D+02 -.510122294112792D+02 0.167138271636485D+02 -.482256889800259D+02
 0.189989478231679D+03 0.750189857163238D+02 -.139083588387847D+03 0.529967708261491D+02
 0.751027164311254D+03 0.329905068610473D+03 -.607340760282999D+02 -.671949268358491D+03
0.404394873510D-05 0.000000000000D+00 0.000000000000D+00 0.141556723068D-07 0.000000000000D+00  7 -2 2 23 -13 13 23 21 0 0.21260033D-01 0.10774985D+00 0.83039492D+05 0.83039492D+05 0.83039492D+05 0.11284065D+01  1  2  2  1  7  1       -2 0.369116860605D-03 0.100000000000D+01
-.223061587903D-06 0.000000000000D+00 -.155298279390D-07 0.141556723068D-07 0.000000000000D+00  7 -2 2 23 -13 13 23 21 2 0.21260033D-01 0.10774985D+00 0.83039492D+05 0.83039492D+05 0.83039492D+05 0.11284065D+01  1  2  3  1  7  1       -2 -.259247253849D-04 0.100000000000D+01
0.255117035895D-06 0.000000000000D+00 0.000000000000D+00 0.141556723068D-07 0.000000000000D+00  7 -2 2 23 -13 13 23 21 2 0.21260033D-01 0.10774985D+00 0.83039492D+05 0.83039492D+05 0.83039492D+05 0.11284065D+01  1  2 15  1  7  1       -2 0.296502825017D-04 0.100000000000D+01
  </mgrwgt>
  </event>
  <event>
  8     66 0.28248871E-05 0.24325732E+03 0.75467711E-02 0.92162110E-01
       -2 -1    0    0    0  501 0.00000000E+00 0.00000000E+00 0.10316316E+04 0.10316316E+04 0.32000000E+00 0.0000E+00 0.9000E+01
        2 -1    0    0  501    0 0.00000000E+00 0.00000000E+00 -.21022345E+03 0.21022369E+03 0.32000000E+00 0.0000E+00 0.9000E+01
       25  2    1    2    0    0 0.15539308E+03 0.73953410E+02 -.50226114E+02 0.34903649E+03 0.29947903E+03 0.0000E+00 0.0000E+00
       23  2    1    2    0    0 -.15539308E+03 -.73953410E+02 0.87163425E+03 0.89281884E+03 0.88108386E+02 0.0000E+00 0.0000E+00
       23  1    3    3    0    0 0.31972011E+02 0.11917208E+03 0.48668321E+02 0.16095978E+03 0.91188000E+02 0.0000E+00 0.9000E+01
      -13  1    4    4    0    0 -.12699056E+03 -.52046796E+02 0.47116219E+03 0.49074361E+03 0.10565837E+00 0.0000E+00 0.9000E+01
       13  1    4    4    0    0 -.28402521E+02 -.21906614E+02 0.40047206E+03 0.40207522E+03 0.10565837E+00 0.0000E+00 0.9000E+01
       23  1    3    3    0    0 0.12342107E+03 -.45218668E+02 -.98894435E+02 0.18807671E+03 0.91188000E+02 0.0000E+00 0.9000E+01
#aMCatNLO 1  0  0  2  2 0.54920731D+03 0.00000000D+00  -5  7  0 0.00000000D+00 0.00000000D+00 0.00000000D+00 0.00000000D+00 0.00000000D+00
  <mgrwgt>
 0.2932976588D-03    5    2    0
 0.465696606753253D+03 0.000000000000000D+00 0.000000000000000D+00 0.465696606753253D+03
 0.465696606753253D+03 0.000000000000000D+00 0.000000000000000D+00 -.465696606753253D+03
 0.171691399120948D+03 0.319720112206721D+02 0.119172078110043D+03 -.770616083763350D+02
 0.238799446660830D+03 -.126990699742119D+03 -.520468394918933D+02 0.195421760311975D+03
 0.182917558932940D+03 -.284023796505960D+02 -.219065709976691D+02 0.179366218511995D+03
 0.337984808791789D+03 0.123421068172043D+03 -.452186676204810D+02 -.297726370447635D+03
 0.000000000000000D+00 0.000000000000000D+00 -.000000000000000D+00 -.000000000000000D+00
 0.665656581348813D+03 0.000000000000000D+00 0.000000000000000D+00 0.665656581348813D+03
 0.114375747159983D+04 0.000000000000000D+00 0.000000000000000D+00 -.114375747159983D+04
 0.226966207765280D+03 -.545025479514003D+02 0.185173942293753D+03 -.770616083763350D+02
 0.318127823952508D+03 -.247796221536510D+03 0.401581942018843D+02 0.195421760311975D+03
 0.217825779255765D+03 -.115329363890741D+03 0.444406074401064D+02 0.179366218511995D+03
 0.318339634740020D+03 -.189451276508958D+02 0.634425896443214D+02 -.297726370447635D+03
 0.728154607235074D+03 0.436573261029546D+03 -.333215333580065D+03 -.478100890251021D+03
0.470257463649D-04 0.000000000000D+00 0.000000000000D+00 0.107569553147D-06 0.000000000000D+00  7 -2 2 23 -13 13 23 21 0 0.15871257D+00 0.32342091D-01 0.59174125D+05 0.59174125D+05 0.59174125D+05 0.11409152D+01  1  2  2  2  7  2        2 0.244696258425D-03 0.100000000000D+01
-.127289960217D-05 0.000000000000D+00 -.180591248205D-06 0.107569553147D-06 0.000000000000D+00  7 -2 2 23 -13 13 23 21 2 0.15871257D+00 0.32342091D-01 0.59174125D+05 0.59174125D+05 0.59174125D+05 0.11409152D+01  1  2  3  2  7  2        2 -.862169183612D-05 0.100000000000D+01
0.289902829138D-05 0.000000000000D+00 0.000000000000D+00 0.107569553147D-06 0.000000000000D+00  7 -2 2 23 -13 13 23 21 2 0.15871257D+00 0.32342091D-01 0.59174125D+05 0.59174125D+05 0.59174125D+05 0.11409152D+01  1  2 15  2  7  2        2 0.196358994142D-04 0.100000000000D+01
0.170031094428D-04 0.000000000000D+00 -.167316838962D-04 0.107569553147D-06 0.000000000000D+00  7 -2 2 23 -13 13 23 21 2 0.15871257D+00 0.10724351D+00 0.59174125D+05 0.59174125D+05 0.59174125D+05 0.11409152D+01  1  2  5  2  7  2        2 0.306080908981D-04 0.100000000000D+01
0.301510784081D-05 0.000000000000D+00 -.232472877552D-05 0.107569553147D-06 0.000000000000D+00  7 -2 21 23 -13 13 23 -2 2 0.15871257D+00 0.10724351D+00 0.59174125D+05 0.59174125D+05 0.59174125D+05 0.11409152D+01  1  2  5  4  7  2        2 0.697910193350D-05 0.100000000000D+01
  </mgrwgt>
  </event>
  <event>
  8     66 0.28248871E-05 0.28663502E+03 0.75467711E-02 0.95313245E-01
       -2 -1    0    0    0  501 0.00000000E+00 0.00000000E+00 0.18952603E+03 0.18952630E+03 0.32000000E+00 0.0000E+00 0.9000E+01
        2 -1    0    0  501    0 0.00000000E+00 0.00000000E+00 -.10428114E+04 0.10428115E+04 0.32000000E+00 0.0000E+00 0.9000E+01
       25  2    1    2    0    0 0.16738453E+03 0.19413657E+03 -.66402649E+02 0.39986799E+03 0.29963062E+03 0.0000E+00 0.0000E+00
       23  2    1    2    0    0 -.16738453E+03 -.19413657E+03 -.78688273E+03 0.83246978E+03 0.90082736E+02 0.0000E+00 0.0000E+00
       23  1    3    3    0    0 0.75353311E+02 0.10008545E+03 -.15307821E+03 0.21781508E+03 0.91188000E+02 0.0000E+00 0.9000E+01
      -13  1    4    4    0    0 -.21255970E+02 -.43148459E+02 -.66526409E+02 0.82093727E+02 0.10565837E+00 0.0000E+00 0.9000E+01
       13  1    4    4    0    0 -.14612856E+03 -.15098811E+03 -.72035633E+03 0.75037605E+03 0.10565837E+00 0.0000E+00 0.9000E+01
       23  1    3    3    0    0 0.92031223E+02 0.94051117E+02 0.86675558E+02 0.18205291E+03 0.91188000E+02 0.0000E+00 0.9000E+01
#aMCatNLO 1  0  0  1  2 0.32202450D+03 0.00000000D+00  -5  7  0 0.00000000D+00 0.00000000D+00 0.00000000D+00 0.00000000D+00 0.00000000D+00
  <mgrwgt>
 0.2468466789D-03    5    2    0
 0.444567321756763D+03 0.000000000000000D+00 0.000000000000000D+00 0.444567321756763D+03
 0.444567321756763D+03 0.000000000000000D+00 0.000000000000000D+00 -.444567321756763D+03
 0.154984791274034D+03 0.753533109651035D+02 0.100085449462519D+03 -.313297218913921D+01
 0.499371188582239D+02 -.212557986201814D+02 -.431483109175703D+02 -.134212566415877D+02
 0.348707120332733D+03 -.146128735325267D+03 -.150988255841947D+03 -.278290486867216D+03
 0.335505613048534D+03 0.920312229803452D+02 0.940511172969981D+02 0.294844715697943D+03
 0.000000000000000D+00 -.000000000000000D+00 -.000000000000000D+00 0.000000000000000D+00
 0.811963341509443D+03 0.000000000000000D+00 0.000000000000000D+00 0.811963341509443D+03
 0.549270598366263D+03 0.000000000000000D+00 0.000000000000000D+00 -.549270598366263D+03
 0.208454431744437D+03 0.126274379248038D+03 0.138502579039818D+03 -.313297218913921D+01
 0.375540021645414D+02 -.899751424803954D+01 -.339001133639896D+02 -.134212566415877D+02
 0.295688926877649D+03 -.558431165944976D+02 -.828727502034099D+02 -.278290486867216D+03
 0.403955954432816D+03 0.195636366799426D+03 0.172215467912285D+03 0.294844715697943D+03
 0.415580624656263D+03 -.257070115204927D+03 -.193945183384704D+03 0.262692743143180D+03
0.792368080995D-05 0.000000000000D+00 0.000000000000D+00 0.830087043415D-06 0.000000000000D+00  7 -2 2 23 -13 13 23 21 0 0.29157875D-01 0.16043255D+00 0.82159633D+05 0.82159633D+05 0.82159633D+05 0.11287933D+01  1  2  2  1  7  1       -2 0.252051910740D-03 0.100000000000D+01
-.337106328752D-06 0.000000000000D+00 -.304290206633D-07 0.830087043415D-06 0.000000000000D+00  7 -2 2 23 -13 13 23 21 2 0.29157875D-01 0.16043255D+00 0.82159633D+05 0.82159633D+05 0.82159633D+05 0.11287933D+01  1  2  3  1  7  1       -2 -.136633999364D-04 0.100000000000D+01
0.474762900328D-06 0.000000000000D+00 0.000000000000D+00 0.830087043415D-06 0.000000000000D+00  7 -2 2 23 -13 13 23 21 2 0.29157875D-01 0.16043255D+00 0.82159633D+05 0.82159633D+05 0.82159633D+05 0.11287933D+01  1  2 15  1  7  1       -2 0.192428169657D-04 0.100000000000D+01
-.146464006452D-05 0.000000000000D+00 -.241191888263D-05 0.830087043415D-06 0.000000000000D+00  7 -2 2 23 -13 13 23 21 2 0.64139439D-01 0.16043255D+00 0.82159633D+05 0.82159633D+05 0.82159633D+05 0.11287933D+01  1  2  5  1  7  1       -2 -.133059211678D-04 0.100000000000D+01
0.267672661499D-07 0.000000000000D+00 -.206090496317D-06 0.830087043415D-06 0.000000000000D+00  7 21 2 23 -13 13 23 2 2 0.64139439D-01 0.16043255D+00 0.82159633D+05 0.82159633D+05 0.82159633D+05 0.11287933D+01  1  2  5  3  7  1       -2 0.252127230882D-05 0.100000000000D+01
  </mgrwgt>
  </event>
  <event>
  7     66 0.28248871E-05 0.60065557E+03 0.75467711E-02 0.84294652E-01
       -2 -1    0    0    0  501 0.00000000E+00 0.00000000E+00 0.55555771E+03 0.55555780E+03 0.32000000E+00 0.0000E+00 0.9000E+01
        2 -1    0    0  501    0 0.00000000E+00 0.00000000E+00 -.11108539E+04 0.11108539E+04 0.32000000E+00 0.0000E+00 0.9000E+01
       25  2    1    2    0    0 0.35122361E+03 -.46019708E+03 -.76160078E+03 0.10026295E+04 0.30015129E+03 0.0000E+00 0.0000E+00
       23  1    3    3    0    0 0.66311985E+02 -.15798704E+03 -.39934747E+03 0.44401671E+03 0.91188000E+02 0.0000E+00 0.9000E+01
      -13  1    1    2    0    0 -.27908398E+03 0.32214249E+03 0.25971318E+03 0.49911381E+03 0.10565837E+00 0.0000E+00 0.9000E+01
       13  1    1    2    0    0 -.72139631E+02 0.13805459E+03 -.53408574E+02 0.16466840E+03 0.10565837E+00 0.0000E+00 0.9000E+01
       23  1    3    3    0    0 0.28491163E+03 -.30221004E+03 -.36225330E+03 0.55861279E+03 0.91188000E+02 0.0000E+00 0.9000E+01
#aMCatNLO 1  0  0  2  1 0.11853758D+04 0.00000000D+00  -5  7  0 0.00000000D+00 0.00000000D+00 0.00000000D+00 0.00000000D+00 0.00000000D+00
  <mgrwgt>
 0.1334222236D-02    5    2    0
 0.785584844572622D+03 0.000000000000000D+00 0.000000000000000D+00 0.785584844572622D+03
 0.785584844572622D+03 0.000000000000000D+00 0.000000000000000D+00 -.785584844572622D+03
 0.329791657984467D+03 0.663120268417513D+02 -.157987097070591D+03 -.266627227768453D+03
 0.621159467696740D+03 -.279084109356343D+03 0.322142850813077D+03 0.451857419861728D+03
 0.155774003202943D+03 -.721396065944246D+02 0.138054359357697D+03 0.155277062319264D+01
 0.464444560261092D+03 0.284911689109016D+03 -.302210113100183D+03 -.186782962716468D+03
 0.000000000000000D+00 -.000000000000000D+00 0.000000000000000D+00 -.000000000000000D+00
 0.157162570287824D+04 0.000000000000000D+00 0.000000000000000D+00 0.157162570287824D+04
 0.158196437817382D+04 0.000000000000000D+00 0.000000000000000D+00 -.158196437817382D+04
 0.538054811556928D+03 0.106200668181835D+03 -.445891319029427D+03 -.266627227768453D+03
 0.508473958403073D+03 -.227163010220828D+03 -.526080343427087D+02 0.451857419861728D+03
 0.844951194120650D+02 -.610961683902557D+02 0.583461422536266D+02 0.155277062319264D+01
 0.837145305758482D+03 0.344736385250234D+03 -.734006785481527D+03 -.186782962716468D+03
 0.118542088592151D+04 -.162677874820985D+03 0.117415999660004D+04 -.103386752955807D+02
0.397931573177D-03 0.000000000000D+00 0.000000000000D+00 0.942031530303D-09 0.000000000000D+00  7 -2 2 23 -13 13 23 21 0 0.85470427D-01 0.17090061D+00 0.36078711D+06 0.36078711D+06 0.36078711D+06 0.10786728D+01  1  2  2  2  7  2        2 0.129683922115D-02 0.100000000000D+01
-.201708680204D-04 0.000000000000D+00 -.152816201879D-05 0.942031530303D-09 0.000000000000D+00  7 -2 2 23 -13 13 23 21 2 0.85470427D-01 0.17090061D+00 0.36078711D+06 0.36078711D+06 0.36078711D+06 0.10786728D+01  1  2  3  2  7  2        2 -.764859750871D-04 0.100000000000D+01
0.239701741787D-04 0.000000000000D+00 0.000000000000D+00 0.942031530303D-09 0.000000000000D+00  7 -2 2 23 -13 13 23 21 2 0.85470427D-01 0.17090061D+00 0.36078711D+06 0.36078711D+06 0.36078711D+06 0.10786728D+01  1  2 15  2  7  2        2 0.908925755305D-04 0.100000000000D+01
0.842285769456D-04 0.000000000000D+00 -.114981709660D-03 0.942031530303D-09 0.000000000000D+00  7 -2 2 23 -13 13 23 21 2 0.85470427D-01 0.47771006D+00 0.36078711D+06 0.36078711D+06 0.36078711D+06 0.10786728D+01  1  2  5  2  7  2        2 0.227225527188D-04 0.100000000000D+01
0.161494488972D-04 0.000000000000D+00 -.132688408306D-04 0.942031530303D-09 0.000000000000D+00  7 -2 21 23 -13 13 23 -2 2 0.85470427D-01 0.47771006D+00 0.36078711D+06 0.36078711D+06 0.36078711D+06 0.10786728D+01  1  2  5  4  7  2        2 0.253861636086D-06 0.100000000000D+01
  </mgrwgt>
  </event>
  <event>
  8     66 0.28248871E-05 0.20976689E+03 0.75467711E-02 0.88646034E-01
       -2 -1    0    0    0  501 0.00000000E+00 0.00000000E+00 0.23150598E+03 0.23150620E+03 0.32000000E+00 0.0000E+00 0.9000E+01
        2 -1    0    0  501    0 0.00000000E+00 0.00000000E+00 -.17652170E+04 0.17652170E+04 0.32000000E+00 0.0000E+00 0.9000E+01
       25  2    1    2    0    0 -.81973863E+02 -.11470444E+03 0.10777704E+03 0.34659571E+03 0.29771778E+03 0.0000E+00 0.0000E+00
       23  2    1    2    0    0 0.81973863E+02 0.11470444E+03 -.16414880E+04 0.16501275E+04 0.92525379E+02 0.0000E+00 0.0000E+00
       23  1    3    3    0    0 -.10041981E+03 -.26304737E+02 -.46621526E+02 0.14582488E+03 0.91188000E+02 0.0000E+00 0.9000E+01
      -13  1    4    4    0    0 0.26169892E+00 0.46748880E+02 -.23348824E+03 0.23812243E+03 0.10565837E+00 0.0000E+00 0.9000E+01
       13  1    4    4    0    0 0.81712164E+02 0.67955565E+02 -.14079998E+04 0.14120051E+04 0.10565837E+00 0.0000E+00 0.9000E+01
       23  1    3    3    0    0 0.18445945E+02 -.88399707E+02 0.15439856E+03 0.20077084E+03 0.91188000E+02 0.0000E+00 0.9000E+01
#aMCatNLO 1  0  0  2  1 0.84795445D+03 0.00000000D+00  -5  7  0 0.00000000D+00 0.00000000D+00 0.00000000D+00 0.00000000D+00 0.00000000D+00
  <mgrwgt>
 0.5749473077D-03    3    2    0
 0.639264054591962D+03 0.000000000000000D+00 0.000000000000000D+00 0.639264054591962D+03
 0.639264054591962D+03 0.000000000000000D+00 0.000000000000000D+00 -.639264054591962D+03
 0.171813172104631D+03 -.100419807817122D+03 -.263047372650026D+02 0.102119722679055D+03
 0.917933723148820D+02 0.261592728693023D+00 0.467488518619157D+02 -.789968329730724D+02
 0.516155402961626D+03 0.817122702388734D+02 0.679555925038777D+02 -.505095577436919D+03
 0.498766161802784D+03 0.184459448495556D+02 -.883997071007908D+02 0.481972687730936D+03
 0.000000000000000D+00 0.000000000000000D+00 0.000000000000000D+00 0.000000000000000D+00
 0.251349752557604D+04 0.000000000000000D+00 0.000000000000000D+00 0.251349752557604D+04
 0.870011226662513D+03 0.000000000000000D+00 0.000000000000000D+00 -.870011226662513D+03
 0.260371021444294D+03 -.179295239829479D+03 -.130009986840963D+03 0.102119722679055D+03
 0.853637751452827D+02 -.320703313642586D+02 0.423890710744195D+01 -.789968329730724D+02
 0.550678017621505D+03 -.112989313460275D+03 -.188037633969882D+03 -.505095577436919D+03
 0.637751739207498D+03 -.188973349446813D+03 -.361114152309846D+03 0.481972687730936D+03
 0.184934419881998D+04 0.513328234100827D+03 0.674922866013248D+03 0.164348629891353D+04
0.560983054792D-04 0.000000000000D+00 0.000000000000D+00 0.129150217301D-06 0.000000000000D+00  7 -2 2 23 -13 13 23 21 0 0.35616323D-01 0.27157186D+00 0.44002146D+05 0.44002146D+05 0.44002146D+05 0.11522090D+01  1  2  2  2  7  2        2 0.514605371793D-03 0.100000000000D+01
0.158863927646D-05 0.000000000000D+00 -.215432264063D-06 0.129150217301D-06 0.000000000000D+00  7 -2 2 23 -13 13 23 21 2 0.35616323D-01 0.27157186D+00 0.44002146D+05 0.44002146D+05 0.44002146D+05 0.11522090D+01  1  2  3  2  7  2        2 0.193469458627D-04 0.100000000000D+01
0.336622905801D-05 0.000000000000D+00 0.000000000000D+00 0.129150217301D-06 0.000000000000D+00  7 -2 2 23 -13 13 23 21 2 0.35616323D-01 0.27157186D+00 0.44002146D+05 0.44002146D+05 0.44002146D+05 0.11522090D+01  1  2 15  2  7  2        2 0.409949900596D-04 0.100000000000D+01
  </mgrwgt>
  </event>
  <event>
  8     66 0.28248871E-05 0.33764664E+03 0.75467711E-02 0.90541497E-01
       -2 -1    0    0    0  501 0.00000000E+00 0.00000000E+00 0.51321718E+03 0.51321728E+03 0.32000000E+00 0.0000E+00 0.9000E+01
        2 -1    0    0  501    0 0.00000000E+00 0.00000000E+00 -.94025769E+03 0.94025775E+03 0.32000000E+00 0.0000E+00 0.9000E+01
       25  2    1    2    0    0 -.86525009E+02 0.54008225E+03 0.16209378E+03 0.64438286E+03 0.29963221E+03 0.0000E+00 0.0000E+00
       23  2    1    2    0    0 0.86525009E+02 -.54008225E+03 -.58913429E+03 0.80909217E+03 0.91517774E+02 0.0000E+00 0.0000E+00
       23  1    3    3    0    0 -.10017371E+03 0.87103355E+02 0.32541122E+02 0.16430442E+03 0.91188000E+02 0.0000E+00 0.9000E+01
      -13  1    4    4    0    0 0.10335132E+03 -.50728241E+03 -.54910778E+03 0.75467629E+03 0.10565837E+00 0.0000E+00 0.9000E+01
       13  1    4    4    0    0 -.16826316E+02 -.32799841E+02 -.40026514E+02 0.54415875E+02 0.10565837E+00 0.0000E+00 0.9000E+01
       23  1    3    3    0    0 0.13648698E+02 0.45297890E+03 0.12955266E+03 0.48007844E+03 0.91188000E+02 0.0000E+00 0.9000E+01
#aMCatNLO 1  0  0  1  2 0.25244145D+03 0.00000000D+00  -5  7  0 0.00000000D+00 0.00000000D+00 0.00000000D+00 0.00000000D+00 0.00000000D+00
  <mgrwgt>
 0.2896619847D-03    9    2    0
 0.694662878013124D+03 0.000000000000000D+00 0.000000000000000D+00 0.694662878013124D+03
 0.694662878013124D+03 0.000000000000000D+00 0.000000000000000D+00 -.694662878013124D+03
 0.181893084106547D+03 -.100173706818201D+03 0.871033546935255D+02 0.845462995359722D+02
 0.620742068249917D+03 0.103351485129241D+03 -.507283043390956D+03 -.342495400997989D+03
 0.446245995568124D+02 -.168264763126993D+02 -.327992085955192D+02 -.251482901210330D+02
 0.542066004112972D+03 0.136486980016590D+02 0.452978897292950D+03 0.283097391583050D+03
 0.000000000000000D+00 -.000000000000000D+00 0.000000000000000D+00 0.000000000000000D+00
 0.119068885872814D+04 0.000000000000000D+00 0.000000000000000D+00 0.119068885872814D+04
 0.738909358449977D+03 0.000000000000000D+00 0.000000000000000D+00 -.738909358449977D+03
 0.161848464107276D+03 -.718015977565339D+02 0.746734744354832D+02 0.845462995359722D+02
 0.685094158586055D+03 0.211133997999695D+03 -.554502787470564D+03 -.342495400997989D+03
 0.449463315975622D+02 -.943337460395220D+01 -.360381419006013D+02 -.251482901210330D+02
 0.520184961073908D+03 0.101325908952009D+03 0.414567327990744D+03 0.283097391583050D+03
 0.517524301813314D+03 -.231224934591219D+03 0.101300126944938D+03 0.451779500278161D+03
0.593474119037D-04 0.000000000000D+00 0.000000000000D+00 0.233503372672D-05 0.000000000000D+00  7 -2 2 23 -13 13 23 21 0 0.78956501D-01 0.14465504D+00 0.34685334D+06 0.34685334D+06 0.34685334D+06 0.10799196D+01  1  2  2  1  7  1       -2 0.295647420670D-03 0.100000000000D+01
-.318781007634D-05 0.000000000000D+00 -.227909688243D-06 0.233503372672D-05 0.000000000000D+00  7 -2 2 23 -13 13 23 21 2 0.78956501D-01 0.14465504D+00 0.34685334D+06 0.34685334D+06 0.34685334D+06 0.10799196D+01  1  2  3  1  7  1       -2 -.185202820181D-04 0.100000000000D+01
0.361815546602D-05 0.000000000000D+00 0.000000000000D+00 0.233503372672D-05 0.000000000000D+00  7 -2 2 23 -13 13 23 21 2 0.78956501D-01 0.14465504D+00 0.34685334D+06 0.34685334D+06 0.34685334D+06 0.10799196D+01  1  2 15  1  7  1       -2 0.210204679737D-04 0.100000000000D+01
0.731485010162D-04 0.000000000000D+00 0.000000000000D+00 0.233503372672D-05 0.000000000000D+00  7 -2 2 23 -13 13 23 21 2 0.13628401D+00 0.14465504D+00 0.53103769D+06 0.53103769D+06 0.53103769D+06 0.10666668D+01  1  2 12  1  7  1       -2 0.106554663127D-03 0.100000000000D+01
-.881904569643D-04 0.000000000000D+00 0.000000000000D+00 0.233503372672D-05 0.000000000000D+00  7 -2 2 23 -13 13 23 21 2 0.78956501D-01 0.14465504D+00 0.34685334D+06 0.34685334D+06 0.34685334D+06 0.10799196D+01  1  2  4  1  7  1       -2 -.512361808002D-03 0.100000000000D+01
-.948411234951D-04 0.000000000000D+00 -.189313121825D-04 0.233503372672D-05 0.000000000000D+00  7 -2 2 23 -13 13 23 21 2 0.13947155D+00 0.14465504D+00 0.34685334D+06 0.34685334D+06 0.34685334D+06 0.10799196D+01  1  2  5  1  7  1       -2 -.135943518086D-03 0.100000000000D+01
0.928695939908D-04 0.000000000000D+00 0.162323081331D-04 0.233503372672D-05 0.000000000000D+00  7 -2 2 23 -13 13 23 21 2 0.78956501D-01 0.14465504D+00 0.34685334D+06 0.34685334D+06 0.34685334D+06 0.10799196D+01  1  2  6  1  7  1       -2 0.539546281123D-03 0.100000000000D+01
0.442828566327D-05 0.000000000000D+00 0.000000000000D+00 0.233503372672D-05 0.000000000000D+00  7 21 2 23 -13 13 23 2 2 0.13628401D+00 0.14465504D+00 0.53103769D+06 0.53103769D+06 0.53103769D+06 0.10666668D+01  1  2 12  3  7  1       -2 0.550185426773D-04 0.100000000000D+01
-.496848878435D-05 0.000000000000D+00 -.118673639462D-05 0.233503372672D-05 0.000000000000D+00  7 21 2 23 -13 13 23 2 2 0.13947155D+00 0.14465504D+00 0.34685334D+06 0.34685334D+06 0.34685334D+06 0.10799196D+01  1  2  5  3  7  1       -2 -.612997827435D-04 0.100000000000D+01
  </mgrwgt>
  </event>
  <event>
  8     66 0.28248871E-05 0.30213217E+03 0.75467711E-02 0.92438234E-01
       -2 -1    0    0    0  501 0.00000000E+00 0.00000000E+00 0.95649372E+02 0.95649907E+02 0.32000000E+00 0.0000E+00 0.9000E+01
        2 -1    0    0  501    0 0.00000000E+00 0.00000000E+00 -.33208582E+04 0.33208582E+04 0.32000000E+00 0.0000E+00 0.9000E+01
       25  2    1    2    0    0 -.26096225E+03 0.38107667E+02 -.30729751E+04 0.30988764E+04 0.30050792E+03 0.0000E+00 0.0000E+00
       23  2    1    2    0    0 0.26096225E+03 -.38107667E+02 -.15223371E+03 0.31763178E+03 0.90340210E+02 0.0000E+00 0.0000E+00
       23  1    3    3    0    0 -.15613471E+03 -.13887085E+02 -.25145970E+04 0.25211276E+04 0.91188000E+02 0.0000E+00 0.9000E+01
      -11  1    4    4    0    0 -.54505809E+01 -.39401293E-01 -.14132433E+02 0.15147146E+02 0.51099893E-03 0.0000E+00 0.9000E+01
       11  1    4    4    0    0 0.26641283E+03 -.38068266E+02 -.13810128E+03 0.30248463E+03 0.51099893E-03 0.0000E+00 0.9000E+01
       23  1    3    3    0    0 -.10482755E+03 0.51994752E+02 -.55837811E+03 0.57774876E+03 0.91188000E+02 0.0000E+00 0.9000E+01
#aMCatNLO 1  0  0  2  2 0.46888884D+03 0.00000000D+00  -5  7  0 0.00000000D+00 0.00000000D+00 0.00000000D+00 0.00000000D+00 0.00000000D+00
  <mgrwgt>
 0.3964172982D-03    6    2    0
 0.563594662289941D+03 0.000000000000000D+00 0.000000000000000D+00 0.563594662289941D+03
 0.563594662289941D+03 0.000000000000000D+00 0.000000000000000D+00 -.563594662289941D+03
 0.446555311899911D+03 -.156134705130847D+03 -.138870853426045D+02 -.408075358183287D+03
 0.547405950113763D+01 -.545058091696679D+01 -.394012915208055D-01 0.504918436798853D+00
 0.521683219906422D+03 0.266412834432104D+03 -.380682656301102D+02 0.446909823939573D+03
 0.153476733272412D+03 -.104827548384290D+03 0.519947522642355D+02 -.393393841930848D+02
 0.000000000000000D+00 0.000000000000000D+00 0.000000000000000D+00 -.000000000000000D+00
 0.732326313073348D+03 0.000000000000000D+00 0.000000000000000D+00 0.732326313073348D+03
 0.106125599034113D+04 0.000000000000000D+00 0.000000000000000D+00 -.106125599034113D+04
 0.533074491056821D+03 -.292527699743123D+03 -.154127248071417D+03 -.408075358183287D+03
 0.752133623806366D+01 -.725991841945146D+01 -.189977386051604D+01 0.504918436798853D+00
 0.499105277122262D+03 0.124289351096577D+03 -.184200554075121D+03 0.446909823939573D+03
 0.181123418562366D+03 -.151413632809984D+03 0.409463775080721D+01 -.393393841930848D+02
 0.572757780434967D+03 0.326911899875981D+03 0.336132938256247D+03 -.328929677267783D+03
0.621184639651D-04 0.000000000000D+00 0.000000000000D+00 0.128151199454D-05 0.000000000000D+00  7 -2 2 23 -11 11 23 21 0 0.14715330D-01 0.51090131D+00 0.91283849D+05 0.91283849D+05 0.91283849D+05 0.11249867D+01  1  2  2  2  7  2        2 0.306623437581D-03 0.100000000000D+01
-.181999616442D-05 0.000000000000D+00 -.238551257793D-06 0.128151199454D-05 0.000000000000D+00  7 -2 2 23 -11 11 23 21 2 0.14715330D-01 0.51090131D+00 0.91283849D+05 0.91283849D+05 0.91283849D+05 0.11249867D+01  1  2  3  2  7  2        2 -.113697239330D-04 0.100000000000D+01
0.367690393424D-05 0.000000000000D+00 0.000000000000D+00 0.128151199454D-05 0.000000000000D+00  7 -2 2 23 -11 11 23 21 2 0.14715330D-01 0.51090131D+00 0.91283849D+05 0.91283849D+05 0.91283849D+05 0.11249867D+01  1  2 15  2  7  2        2 0.229700388813D-04 0.100000000000D+01
-.587279913968D-05 0.000000000000D+00 -.110765237263D-04 0.128151199454D-05 0.000000000000D+00  7 -2 2 23 -11 11 23 21 2 0.14715330D-01 0.96613357D+00 0.91283849D+05 0.91283849D+05 0.91283849D+05 0.11249867D+01  1  2  5  2  7  2        2 -.453936331639D-09 0.100000000000D+01
0.125168192413D-04 0.000000000000D+00 0.934914328199D-05 0.128151199454D-05 0.000000000000D+00  7 -2 2 23 -11 11 23 21 2 0.14715330D-01 0.51090131D+00 0.91283849D+05 0.91283849D+05 0.91283849D+05 0.11249867D+01  1  2  6  2  7  2        2 0.781939995673D-04 0.100000000000D+01
0.222263017515D-06 0.000000000000D+00 -.767277108724D-06 0.128151199454D-05 0.000000000000D+00  7 -2 21 23 -11 11 23 -2 2 0.14715330D-01 0.96613357D+00 0.91283849D+05 0.91283849D+05 0.91283849D+05 0.11249867D+01  1  2  5  4  7  2        2 0.778038161233D-13 0.100000000000D+01
  </mgrwgt>
  </event>
  <event>
  8     66 0.28248871E-05 0.14045212E+03 0.75467711E-02 0.97487144E-01
       -2 -1    0    0    0  501 0.00000000E+00 0.00000000E+00 0.15508936E+03 0.15508969E+03 0.32000000E+00 0.0000E+00 0.9000E+01
        2 -1    0    0  501    0 0.00000000E+00 0.00000000E+00 -.59081146E+03 0.59081154E+03 0.32000000E+00 0.0000E+00 0.9000E+01
       25  2    1    2    0    0 0.18784284E+03 -.10805206E+03 -.27567713E+03 0.46095091E+03 0.29919505E+03 0.0000E+00 0.0000E+00
       23  2    1    2    0    0 -.18784284E+03 0.10805206E+03 -.16004496E+03 0.28495033E+03 0.92855363E+02 0.0000E+00 0.0000E+00
       23  1    3    3    0    0 0.11885455E+03 0.55008967E+02 -.17821738E+03 0.23922599E+03 0.91188000E+02 0.0000E+00 0.9000E+01
      -13  1    4    4    0    0 -.95526369E+00 0.23094340E+02 0.22937496E+01 0.23227861E+02 0.10565837E+00 0.0000E+00 0.9000E+01
       13  1    4    4    0    0 -.18688758E+03 0.84957719E+02 -.16233871E+03 0.26172247E+03 0.10565837E+00 0.0000E+00 0.9000E+01
       23  1    3    3    0    0 0.68988296E+02 -.16306103E+03 -.97459756E+02 0.22172492E+03 0.91188000E+02 0.0000E+00 0.9000E+01
#aMCatNLO 1  0  0  1  2 0.17210971D+03 0.00000000D+00  -5  7  0 0.00000000D+00 0.00000000D+00 0.00000000D+00 0.00000000D+00 0.00000000D+00
  <mgrwgt>
 0.2031523131D-03    7    2    0
 0.302702373985113D+03 0.000000000000000D+00 0.000000000000000D+00 0.302702373985113D+03
 0.302702373985113D+03 0.000000000000000D+00 0.000000000000000D+00 -.302702373985113D+03
 0.166476582402010D+03 0.118854547655703D+03 0.550089666356712D+02 -.474005404556431D+02
 0.302689881181689D+02 -.955025993182900D+00 0.230942593869501D+02 0.195436626664107D+02
 0.205622248121542D+03 -.186887818854762D+03 0.849578015493227D+02 -.116457735755214D+02
 0.203036929328506D+03 0.689882971922423D+02 -.163061027571944D+03 0.395026513647538D+02
 0.000000000000000D+00 0.000000000000000D+00 -.000000000000000D+00 0.000000000000000D+00
 0.581792631098761D+03 0.000000000000000D+00 0.000000000000000D+00 0.581792631098761D+03
 0.342422728913067D+03 0.000000000000000D+00 0.000000000000000D+00 -.342422728913067D+03
 0.148753473110405D+03 0.788354868964576D+02 0.731471064958780D+02 -.474005404556431D+02
 0.344259976411265D+02 -.916817864358996D+01 0.268167683274403D+02 0.195436626664107D+02
 0.272132228547992D+03 -.247539666911448D+03 0.112447494759527D+03 -.116457735755214D+02
 0.174082184859364D+03 0.211123016129985D+02 -.141361830057361D+03 0.395026513647538D+02
 0.294821475852941D+03 0.156760057045582D+03 -.710495395254843D+02 0.239369902185694D+03
0.273077062182D-05 0.000000000000D+00 0.000000000000D+00 0.489291591281D-07 0.000000000000D+00  7 -2 2 23 -13 13 23 21 0 0.23859934D-01 0.90894102D-01 0.86186015D+05 0.86186015D+05 0.86186015D+05 0.11270590D+01  1  2  2  1  7  1       -2 0.250639978924D-03 0.100000000000D+01
-.151536552807D-06 0.000000000000D+00 -.104868782162D-07 0.489291591281D-07 0.000000000000D+00  7 -2 2 23 -13 13 23 21 2 0.23859934D-01 0.90894102D-01 0.86186015D+05 0.86186015D+05 0.86186015D+05 0.11270590D+01  1  2  3  1  7  1       -2 -.176675303086D-04 0.100000000000D+01
0.169498548025D-06 0.000000000000D+00 0.000000000000D+00 0.489291591281D-07 0.000000000000D+00  7 -2 2 23 -13 13 23 21 2 0.23859934D-01 0.90894102D-01 0.86186015D+05 0.86186015D+05 0.86186015D+05 0.11270590D+01  1  2 15  1  7  1       -2 0.197617055360D-04 0.100000000000D+01
0.114279809606D-05 0.000000000000D+00 0.000000000000D+00 0.489291591281D-07 0.000000000000D+00  7 -2 2 23 -13 13 23 21 2 0.46119521D-01 0.90894102D-01 0.15322275D+06 0.15322275D+06 0.15322275D+06 0.11068241D+01  1  2 12  1  7  1       -2 0.390695050582D-04 0.100000000000D+01
-.241982114885D-05 0.000000000000D+00 -.842201749644D-06 0.489291591281D-07 0.000000000000D+00  7 -2 2 23 -13 13 23 21 2 0.50642162D-01 0.90894102D-01 0.86186015D+05 0.86186015D+05 0.86186015D+05 0.11270590D+01  1  2  5  1  7  1       -2 -.722202283183D-04 0.100000000000D+01
0.816819332717D-07 0.000000000000D+00 0.000000000000D+00 0.489291591281D-07 0.000000000000D+00  7 21 2 23 -13 13 23 2 2 0.46119521D-01 0.90894102D-01 0.15322275D+06 0.15322275D+06 0.15322275D+06 0.11068241D+01  1  2 12  3  7  1       -2 0.301485388229D-04 0.100000000000D+01
-.144594341834D-06 0.000000000000D+00 -.685695783588D-07 0.489291591281D-07 0.000000000000D+00  7 21 2 23 -13 13 23 2 2 0.50642162D-01 0.90894102D-01 0.86186015D+05 0.86186015D+05 0.86186015D+05 0.11270590D+01  1  2  5  3  7  1       -2 -.465796565957D-04 0.100000000000D+01
  </mgrwgt>
  </event>
  <event>
  7     66 0.28248871E-05 0.86675446E+03 0.75467711E-02 0.85240781E-01
       -2 -1    0    0    0  501 0.00000000E+00 0.00000000E+00 0.44997122E+03 0.44997134E+03 0.32000000E+00 0.0000E+00 0.9000E+01
        2 -1    0    0  501    0 0.00000000E+00 0.00000000E+00 -.24648709E+04 0.24648710E+04 0.32000000E+00 0.0000E+00 0.9000E+01
       23  2    1    2    0    0 0.46842262E+03 -.70484632E+03 -.18337985E+03 0.87050309E+03 0.88990888E+02 0.0000E+00 0.0000E+00
       23  1    1    2    0    0 -.29891661E+03 0.28580315E+03 -.64756037E+03 0.77374690E+03 0.91188000E+02 0.0000E+00 0.9000E+01
      -11  1    3    3    0    0 0.47341370E+02 -.11306076E+03 -.53091682E+01 0.12268712E+03 0.51099893E-03 0.0000E+00 0.9000E+01
       11  1    3    3    0    0 0.42108125E+03 -.59178556E+03 -.17807068E+03 0.74781597E+03 0.51099893E-03 0.0000E+00 0.9000E+01
       23  1    1    2    0    0 -.16950601E+03 0.41904317E+03 -.11839595E+04 0.12705923E+04 0.91188000E+02 0.0000E+00 0.9000E+01
#aMCatNLO 1  0  0  2  1 0.68262091D+03 0.00000000D+00  -5  7  0 0.00000000D+00 0.00000000D+00 0.00000000D+00 0.00000000D+00 0.00000000D+00
  <mgrwgt>
 0.3342698365D-03    7    2    0
 0.105314822833441D+04 0.000000000000000D+00 0.000000000000000D+00 0.105314822833441D+04
 0.105314822833441D+04 0.000000000000000D+00 0.000000000000000D+00 -.105314822833441D+04
 0.451304461678245D+03 -.298916613305569D+03 0.285803147925491D+03 -.155967575837093D+03
 0.164704337411803D+03 0.473413703536667D+02 -.113060764839033D+03 0.110016257295505D+03
 0.864536928237674D+03 0.421081249026952D+03 -.591785555586878D+03 0.468939802323567D+03
 0.625750729341092D+03 -.169506006075049D+03 0.419043172500419D+03 -.422988483781979D+03
 0.000000000000000D+00 -.000000000000000D+00 0.000000000000000D+00 -.000000000000000D+00
 0.137226092769182D+04 0.000000000000000D+00 0.000000000000000D+00 0.137226092769182D+04
 0.154636112091433D+04 0.000000000000000D+00 0.000000000000000D+00 -.154636112091433D+04
 0.340627659424149D+03 -.213861911593570D+03 0.194033886416313D+03 -.155967575837093D+03
 0.210441292294473D+03 0.876325756009176D+02 -.156532719668467D+03 0.110016257295505D+03
 0.114223457077159D+04 0.636611528332676D+03 -.824330660873668D+03 0.468939802323567D+03
 0.520845540571560D+03 -.463598409898956D+02 0.286175354495272D+03 -.422988483781979D+03
 0.704472985544386D+03 -.464022351350128D+03 0.500654139630549D+03 -.174100193222506D+03
0.325997170350D-03 0.000000000000D+00 0.000000000000D+00 0.926845148376D-09 0.000000000000D+00  7 -2 2 23 -11 11 23 21 0 0.69226353D-01 0.37921092D+00 0.75126329D+06 0.75126329D+06 0.75126329D+06 0.10562335D+01  1  2  2  2  7  2        2 0.282662438963D-03 0.100000000000D+01
-.172754906936D-04 0.000000000000D+00 -.125191497117D-05 0.926845148376D-09 0.000000000000D+00  7 -2 2 23 -11 11 23 21 2 0.69226353D-01 0.37921092D+00 0.75126329D+06 0.75126329D+06 0.75126329D+06 0.10562335D+01  1  2  3  2  7  2        2 -.167110808977D-04 0.100000000000D+01
0.200638497411D-04 0.000000000000D+00 0.000000000000D+00 0.926845148376D-09 0.000000000000D+00  7 -2 2 23 -11 11 23 21 2 0.69226353D-01 0.37921092D+00 0.75126329D+06 0.75126329D+06 0.75126329D+06 0.10562335D+01  1  2 15  2  7  2        2 0.194083411054D-04 0.100000000000D+01
-.104806112700D-03 0.000000000000D+00 0.000000000000D+00 0.926845148376D-09 0.000000000000D+00  7 -2 2 23 -11 11 23 21 2 0.69226353D-01 0.37921092D+00 0.75126329D+06 0.75126329D+06 0.75126329D+06 0.10562335D+01  1  2  4  2  7  2        2 -.101381978606D-03 0.100000000000D+01
-.141354522686D-03 0.000000000000D+00 -.870804781300D-04 0.926845148376D-09 0.000000000000D+00  7 -2 2 23 -11 11 23 21 2 0.69226353D-01 0.59665226D+00 0.75126329D+06 0.75126329D+06 0.75126329D+06 0.10562335D+01  1  2  5  2  7  2        2 -.152821536961D-04 0.100000000000D+01
0.171175667472D-03 0.000000000000D+00 0.788426403424D-04 0.926845148376D-09 0.000000000000D+00  7 -2 2 23 -11 11 23 21 2 0.69226353D-01 0.37921092D+00 0.75126329D+06 0.75126329D+06 0.75126329D+06 0.10562335D+01  1  2  6  2  7  2        2 0.165583165050D-03 0.100000000000D+01
-.388931794715D-05 0.000000000000D+00 -.454988183532D-05 0.926845148376D-09 0.000000000000D+00  7 -2 21 23 -11 11 23 -2 2 0.69226353D-01 0.59665226D+00 0.75126329D+06 0.75126329D+06 0.75126329D+06 0.10562335D+01  1  2  5  4  7  2        2 -.889543431898D-08 0.100000000000D+01
  </mgrwgt>
  </event>
  <event>
  8     66 0.28248871E-05 0.23684060E+03 0.75467711E-02 0.93643396E-01
       -2 -1    0    0    0  501 0.00000000E+00 0.00000000E+00 0.13314271E+03 0.13314310E+03 0.32000000E+00 0.0000E+00 0.9000E+01
        2 -1    0    0  501    0 0.00000000E+00 0.00000000E+00 -.16075233E+04 0.16075234E+04 0.32000000E+00 0.0000E+00 0.9000E+01
       25  2    1    2    0    0 0.31179717E+03 0.40348158E+02 -.32724993E+03 0.54781981E+03 0.30686899E+03 0.0000E+00 0.0000E+00
       23  2    1    2    0    0 -.31179717E+03 -.40348158E+02 -.11471307E+04 0.11928467E+04 0.90160231E+02 0.0000E+00 0.0000E+00
       23  1    3    3    0    0 0.25155669E+03 0.11821133E+03 -.28170197E+03 0.40611075E+03 0.91188000E+02 0.0000E+00 0.9000E+01
      -13  1    4    4    0    0 -.31061480E+03 -.49694472E+02 -.11330453E+04 0.11759008E+04 0.10565837E+00 0.0000E+00 0.9000E+01
       13  1    4    4    0    0 -.11823659E+01 0.93463141E+01 -.14085396E+02 0.16945829E+02 0.10565837E+00 0.0000E+00 0.9000E+01
       23  1    3    3    0    0 0.60240475E+02 -.77863176E+02 -.45547957E+02 0.14170906E+03 0.91188000E+02 0.0000E+00 0.9000E+01
#aMCatNLO 1  0  0  1  2 0.30851314D+03 0.00000000D+00  -5  7  0 0.00000000D+00 0.00000000D+00 0.00000000D+00 0.00000000D+00 0.00000000D+00
  <mgrwgt>
 0.2193971287D-03    7    2    0
 0.462634173657093D+03 0.000000000000000D+00 0.000000000000000D+00 0.462634173657093D+03
 0.462634173657093D+03 0.000000000000000D+00 0.000000000000000D+00 -.462634173657093D+03
 0.315116620804855D+03 0.251556692722828D+03 0.118211333760346D+03 0.117168870782402D+03
 0.406705370317868D+03 -.310615226437867D+03 -.496945527611272D+02 -.257794279952481D+03
 0.943434031820922D+01 -.118194092499953D+01 0.934639516687548D+01 0.504668479504932D+00
 0.194012015873255D+03 0.602404746400381D+02 -.778631761660939D+02 0.140120740690574D+03
 0.000000000000000D+00 -.000000000000000D+00 0.000000000000000D+00 0.000000000000000D+00
 0.103167888167170D+04 0.000000000000000D+00 0.000000000000000D+00 0.103167888167170D+04
 0.531414067371748D+03 0.000000000000000D+00 0.000000000000000D+00 -.531414067371748D+03
 0.414743801558496D+03 0.369968926433208D+03 0.114418612037680D+03 0.117168870782402D+03
 0.325732459670433D+03 -.191784835248741D+03 -.535006679897127D+02 -.257794279952481D+03
 0.945129968558864D+01 0.188205699758751D+01 0.924825588586484D+01 0.504668479504932D+00
 0.225419490369363D+03 0.128288857619725D+03 -.800427531593850D+02 0.140120740690574D+03
 0.587745897759563D+03 -.308355005801780D+03 0.987655322555331D+01 0.500264814299948D+03
0.106280835029D-04 0.000000000000D+00 0.000000000000D+00 0.696546357173D-08 0.000000000000D+00  7 -2 2 23 -13 13 23 21 0 0.20483526D-01 0.24731131D+00 0.14088731D+06 0.14088731D+06 0.14088731D+06 0.11097063D+01  1  2  2  1  7  1       -2 0.294770543993D-03 0.100000000000D+01
-.559066840357D-06 0.000000000000D+00 -.408146390900D-07 0.696546357173D-08 0.000000000000D+00  7 -2 2 23 -13 13 23 21 2 0.20483526D-01 0.24731131D+00 0.14088731D+06 0.14088731D+06 0.14088731D+06 0.11097063D+01  1  2  3  1  7  1       -2 -.190945301521D-04 0.100000000000D+01
0.692880247983D-06 0.000000000000D+00 0.000000000000D+00 0.696546357173D-08 0.000000000000D+00  7 -2 2 23 -13 13 23 21 2 0.20483526D-01 0.24731131D+00 0.14088731D+06 0.14088731D+06 0.14088731D+06 0.11097063D+01  1  2 15  1  7  1       -2 0.236648318803D-04 0.100000000000D+01
0.638821614653D-06 0.000000000000D+00 0.000000000000D+00 0.696546357173D-08 0.000000000000D+00  7 -2 2 23 -13 13 23 21 2 0.45394452D-01 0.24731131D+00 0.29783560D+06 0.29783560D+06 0.29783560D+06 0.10847846D+01  1  2 12  1  7  1       -2 0.490715680263D-05 0.100000000000D+01
-.766662382683D-05 0.000000000000D+00 -.324329046255D-05 0.696546357173D-08 0.000000000000D+00  7 -2 2 23 -13 13 23 21 2 0.51628041D-01 0.24731131D+00 0.14088731D+06 0.14088731D+06 0.14088731D+06 0.11097063D+01  1  2  5  1  7  1       -2 -.495265175857D-04 0.100000000000D+01
0.551306407412D-07 0.000000000000D+00 0.000000000000D+00 0.696546357173D-08 0.000000000000D+00  7 21 2 23 -13 13 23 2 2 0.45394452D-01 0.24731131D+00 0.29783560D+06 0.29783560D+06 0.29783560D+06 0.10847846D+01  1  2 12  3  7  1       -2 0.450183285268D-05 0.100000000000D+01
-.581640621218D-06 0.000000000000D+00 -.330468195042D-06 0.696546357173D-08 0.000000000000D+00  7 21 2 23 -13 13 23 2 2 0.51628041D-01 0.24731131D+00 0.14088731D+06 0.14088731D+06 0.14088731D+06 0.11097063D+01  1  2  5  3  7  1       -2 -.398261890613D-04 0.100000000000D+01
  </mgrwgt>
  </event>
  <event>
  8     66 0.28248871E-05 0.32948611E+03 0.75467711E-02 0.84858137E-01
       -2 -1    0    0    0  501 0.00000000E+00 0.00000000E+00 0.20174729E+03 0.20174755E+03 0.32000000E+00 0.0000E+00 0.9000E+01
        2 -1    0    0  501    0 0.00000000E+00 0.00000000E+00 -.75346783E+03 0.75346790E+03 0.32000000E+00 0.0000E+00 0.9000E+01
       25  2    1    2    0    0 0.19316001E+03 0.19937767E+03 -.52065887E+03 0.66220852E+03 0.30061973E+03 0.0000E+00 0.0000E+00
       23  2    1    2    0    0 -.19316001E+03 -.19937767E+03 -.31061668E+02 0.29300693E+03 0.88464605E+02 0.0000E+00 0.0000E+00
       23  1    3    3    0    0 0.29803890E+02 0.15997414E+03 -.38491268E+03 0.42773007E+03 0.91188000E+02 0.0000E+00 0.9000E+01
      -13  1    4    4    0    0 -.13796945E+03 -.11110974E+03 0.17741833E+02 0.17803294E+03 0.10565837E+00 0.0000E+00 0.9000E+01
       13  1    4    4    0    0 -.55190568E+02 -.88267922E+02 -.48803501E+02 0.11497399E+03 0.10565837E+00 0.0000E+00 0.9000E+01
       23  1    3    3    0    0 0.16335612E+03 0.39403525E+02 -.13574619E+03 0.23447844E+03 0.91188000E+02 0.0000E+00 0.9000E+01
#aMCatNLO 1  0  0  1  1 0.12192849D+04 0.00000000D+00  -5  7  0 0.00000000D+00 0.00000000D+00 0.00000000D+00 0.00000000D+00 0.00000000D+00
  <mgrwgt>
 0.2396348117D-03    5    2    0
 0.389884917502368D+03 0.000000000000000D+00 0.000000000000000D+00 0.389884917502368D+03
 0.389884917502368D+03 0.000000000000000D+00 0.000000000000000D+00 -.389884917502368D+03
 0.251625719012784D+03 0.298038903563696D+02 0.159974140394601D+03 -.168879405640043D+03
 0.230643038284724D+03 -.137969564367610D+03 -.111109776800983D+03 0.147699789832811D+03
 0.106312007045977D+03 -.551904500329118D+02 -.882678892567933D+02 0.215647117638767D+02
 0.191189070661251D+03 0.163356124044152D+03 0.394035256631747D+02 -.385095956644292D+00
 0.000000000000000D+00 0.000000000000000D+00 -.000000000000000D+00 0.000000000000000D+00
 0.177898643919691D+04 0.000000000000000D+00 0.000000000000000D+00 0.177898643919691D+04
 0.107583025609850D+04 0.000000000000000D+00 0.000000000000000D+00 -.107583025609850D+04
 0.575963292497575D+03 -.337216118750918D+03 0.425656550009370D+03 -.168879405640043D+03
 0.500968043939134D+03 -.462425184640707D+03 0.123760663142830D+03 0.147699789832811D+03
 0.186295479170728D+03 -.184956312994435D+03 0.566842566297217D+01 0.215647117638767D+02
 0.184079898534516D+03 -.306853671898699D+01 0.159876807211009D+03 -.385095956644292D+00
 0.140750998115345D+04 0.987666153105048D+03 -.714962446026181D+03 0.703156183098408D+03
0.534969265667D-05 0.000000000000D+00 0.000000000000D+00 0.758635034825D-07 0.000000000000D+00  7 -2 2 23 -13 13 23 21 0 0.31038070D-01 0.11591815D+00 0.10856110D+06 0.10856110D+06 0.10856110D+06 0.11188063D+01  1  2  2  1  7  1       -2 0.233201102088D-03 0.100000000000D+01
-.286967599308D-06 0.000000000000D+00 -.205442284080D-07 0.758635034825D-07 0.000000000000D+00  7 -2 2 23 -13 13 23 21 2 0.31038070D-01 0.11591815D+00 0.10856110D+06 0.10856110D+06 0.10856110D+06 0.11188063D+01  1  2  3  1  7  1       -2 -.156582928445D-04 0.100000000000D+01
0.334676499015D-06 0.000000000000D+00 0.000000000000D+00 0.758635034825D-07 0.000000000000D+00  7 -2 2 23 -13 13 23 21 2 0.31038070D-01 0.11591815D+00 0.10856110D+06 0.10856110D+06 0.10856110D+06 0.11188063D+01  1  2 15  1  7  1       -2 0.182615132941D-04 0.100000000000D+01
0.926555651888D-05 0.000000000000D+00 -.370679423883D-05 0.758635034825D-07 0.000000000000D+00  7 -2 2 23 -13 13 23 21 2 0.30648471D+00 0.11591815D+00 0.10856110D+06 0.10856110D+06 0.10856110D+06 0.11188063D+01  1  2  5  1  7  1       -2 0.148866313740D-05 0.100000000000D+01
0.194474258752D-05 0.000000000000D+00 -.101149574595D-05 0.758635034825D-07 0.000000000000D+00  7 21 2 23 -13 13 23 2 2 0.30648471D+00 0.11591815D+00 0.10856110D+06 0.10856110D+06 0.10856110D+06 0.11188063D+01  1  2  5  3  7  1       -2 0.234182601784D-05 0.100000000000D+01
  </mgrwgt>
  </event>
  <event>
  8     66 0.28248871E-05 0.13673080E+03 0.75467711E-02 0.10228336E+00
       -2 -1    0    0    0  501 0.00000000E+00 0.00000000E+00 0.29780717E+02 0.29782436E+02 0.32000000E+00 0.0000E+00 0.9000E+01
        2 -1    0    0  501    0 0.00000000E+00 0.00000000E+00 -.24039756E+04 0.24039757E+04 0.32000000E+00 0.0000E+00 0.9000E+01
       25  2    1    2    0    0 0.11607235E+03 0.10311350E+03 -.12396257E+04 0.12847041E+04 0.29947860E+03 0.0000E+00 0.0000E+00
       23  2    1    2    0    0 -.11607235E+03 -.10311350E+03 -.11345692E+04 0.11490540E+04 0.94724368E+02 0.0000E+00 0.0000E+00
       23  1    3    3    0    0 -.41930708E+02 0.96408116E+02 -.73533393E+03 0.74838757E+03 0.91188000E+02 0.0000E+00 0.9000E+01
      -11  1    4    4    0    0 -.19576368E+02 0.12097047E+02 -.64478376E+02 0.68461915E+02 0.51099893E-03 0.0000E+00 0.9000E+01
       11  1    4    4    0    0 -.96495980E+02 -.11521055E+03 -.10700908E+04 0.10805921E+04 0.51099893E-03 0.0000E+00 0.9000E+01
       23  1    3    3    0    0 0.15800306E+03 0.67053854E+01 -.50429179E+03 0.53631650E+03 0.91188000E+02 0.0000E+00 0.9000E+01
#aMCatNLO 1  0  0  2  1 0.39252484D+02 0.00000000D+00  -5  7  0 0.00000000D+00 0.00000000D+00 0.00000000D+00 0.00000000D+00 0.00000000D+00
  <mgrwgt>
 0.4795103624D-03    9    2    0
 0.267570993753123D+03 0.000000000000000D+00 0.000000000000000D+00 0.267570993753123D+03
 0.267570993753123D+03 0.000000000000000D+00 0.000000000000000D+00 -.267570993753123D+03
 0.141211524560342D+03 -.419307079824612D+02 0.964081158464992D+02 -.239318668656159D+02
 0.252932978445964D+02 -.195763684692187D+02 0.120970472651564D+02 0.104965785319511D+02
 0.166863389895755D+03 -.964959799860026D+02 -.115210548512669D+03 -.725151449385130D+02
 0.201773775205552D+03 0.158003056437683D+03 0.670538540101366D+01 0.859504332721779D+02
 0.000000000000000D+00 0.000000000000000D+00 0.000000000000000D+00 -.000000000000000D+00
 0.275088866284330D+03 0.000000000000000D+00 0.000000000000000D+00 0.275088866284330D+03
 0.324943237806306D+03 0.000000000000000D+00 0.000000000000000D+00 -.324943237806306D+03
 0.139684731348240D+03 -.500579819992834D+02 0.901001499128372D+02 -.239318668656159D+02
 0.259515436863453D+02 -.210590541950339D+02 0.109462639853740D+02 0.104965785319511D+02
 0.178084489761293D+03 -.106476483038372D+03 -.122956894104665D+03 -.725151449385130D+02
 0.192858869845181D+03 0.146585005912458D+03 -.215670951455936D+01 0.859504332721779D+02
 0.634524694495768D+02 0.310085133202309D+02 0.240671897210132D+02 -.498543715219768D+02
0.263400269005D-05 0.000000000000D+00 0.000000000000D+00 0.221875652941D-07 0.000000000000D+00  7 -2 2 23 -11 11 23 21 0 0.45817827D-02 0.36984254D+00 0.61260211D+05 0.61260211D+05 0.61260211D+05 0.11396165D+01  1  2  2  2  7  2        2 0.280694230592D-03 0.100000000000D+01
-.145252625180D-06 0.000000000000D+00 -.101152638786D-07 0.221875652941D-07 0.000000000000D+00  7 -2 2 23 -11 11 23 21 2 0.45817827D-02 0.36984254D+00 0.61260211D+05 0.61260211D+05 0.61260211D+05 0.11396165D+01  1  2  3  2  7  2        2 -.201029003438D-04 0.100000000000D+01
0.167096055607D-06 0.000000000000D+00 0.000000000000D+00 0.221875652941D-07 0.000000000000D+00  7 -2 2 23 -11 11 23 21 2 0.45817827D-02 0.36984254D+00 0.61260211D+05 0.61260211D+05 0.61260211D+05 0.11396165D+01  1  2 15  2  7  2        2 0.231260216437D-04 0.100000000000D+01
0.554872827660D-05 0.000000000000D+00 0.000000000000D+00 0.221875652941D-07 0.000000000000D+00  7 -2 2 23 -11 11 23 21 2 0.45817827D-02 0.45357587D+00 0.71798546D+05 0.71798546D+05 0.71798546D+05 0.11337242D+01  1  2 12  2  7  2        2 0.364899349551D-03 0.100000000000D+01
-.562796508147D-05 0.000000000000D+00 0.000000000000D+00 0.221875652941D-07 0.000000000000D+00  7 -2 2 23 -11 11 23 21 2 0.45817827D-02 0.36984254D+00 0.61260211D+05 0.61260211D+05 0.61260211D+05 0.11396165D+01  1  2  4  2  7  2        2 -.778907927009D-03 0.100000000000D+01
-.836148608114D-05 0.000000000000D+00 -.131570221443D-05 0.221875652941D-07 0.000000000000D+00  7 -2 2 23 -11 11 23 21 2 0.45817827D-02 0.45255952D+00 0.61260211D+05 0.61260211D+05 0.61260211D+05 0.11396165D+01  1  2  5  2  7  2        2 -.563458877566D-03 0.100000000000D+01
0.848007628002D-05 0.000000000000D+00 0.128934878303D-05 0.221875652941D-07 0.000000000000D+00  7 -2 2 23 -11 11 23 21 2 0.45817827D-02 0.36984254D+00 0.61260211D+05 0.61260211D+05 0.61260211D+05 0.11396165D+01  1  2  6  2  7  2        2 0.117363888022D-02 0.100000000000D+01
0.161263915094D-06 0.000000000000D+00 0.000000000000D+00 0.221875652941D-07 0.000000000000D+00  7 -2 21 23 -11 11 23 -2 2 0.45817827D-02 0.45357587D+00 0.71798546D+05 0.71798546D+05 0.71798546D+05 0.11337242D+01  1  2 12  4  7  2        2 0.821865524649D-06 0.100000000000D+01
-.225572995004D-06 0.000000000000D+00 -.379166483806D-07 0.221875652941D-07 0.000000000000D+00  7 -2 21 23 -11 11 23 -2 2 0.45817827D-02 0.45255952D+00 0.61260211D+05 0.61260211D+05 0.61260211D+05 0.11396165D+01  1  2  5  4  7  2        2 -.120028025224D-05 0.100000000000D+01
  </mgrwgt>
  </event>
  <event>
  8     66 0.28248871E-05 0.25155372E+03 0.75467711E-02 0.10161884E+00
       -2 -1    0    0    0  501 0.00000000E+00 0.00000000E+00 0.12797189E+03 0.12797229E+03 0.32000000E+00 0.0000E+00 0.9000E+01
        2 -1    0    0  501    0 0.00000000E+00 0.00000000E+00 -.13906568E+04 0.13906569E+04 0.32000000E+00 0.0000E+00 0.9000E+01
       25  2    1    2    0    0 -.55917601E+02 -.17943603E+03 -.12592095E+04 0.13079230E+04 0.29954988E+03 0.0000E+00 0.0000E+00
       23  2    1    2    0    0 0.55917601E+02 0.17943603E+03 -.34754862E+01 0.21070613E+03 0.95188898E+02 0.0000E+00 0.0000E+00
       23  1    3    3    0    0 -.25095206E+01 0.46734218E+02 -.31416692E+03 0.33046405E+03 0.91188000E+02 0.0000E+00 0.9000E+01
      -13  1    4    4    0    0 0.44433921E+02 0.18573974E+03 0.10856321E+02 0.19128904E+03 0.10565837E+00 0.0000E+00 0.9000E+01
       13  1    4    4    0    0 0.11483680E+02 -.63037082E+01 -.14331808E+02 0.19417094E+02 0.10565837E+00 0.0000E+00 0.9000E+01
       23  1    3    3    0    0 -.53408081E+02 -.22617025E+03 -.94504255E+03 0.97745899E+03 0.91188000E+02 0.0000E+00 0.9000E+01
#aMCatNLO 1  0  0  2  1 0.74829324D+01 0.00000000D+00  -5  7  0 0.00000000D+00 0.00000000D+00 0.00000000D+00 0.00000000D+00 0.00000000D+00
  <mgrwgt>
 0.6037071040D-03   11    2    0
 0.421859355389938D+03 0.000000000000000D+00 0.000000000000000D+00 0.421859355389938D+03
 0.421859355389938D+03 0.000000000000000D+00 0.000000000000000D+00 -.421859355389938D+03
 0.124636925270597D+03 -.250952064185932D+01 0.467342183272221D+02 -.709135173320299D+02
 0.360553322240973D+03 0.444339618623073D+02 0.185739976060089D+03 0.305818545064584D+03
 0.135002881960011D+02 0.114836393934138D+02 -.630394416598743D+01 0.326252902044303D+01
 0.345028175072305D+03 -.534080806138618D+02 -.226170250221324D+03 -.238167556752997D+03
 0.000000000000000D+00 -.000000000000000D+00 0.000000000000000D+00 -.000000000000000D+00
 0.425562804244596D+03 0.000000000000000D+00 0.000000000000000D+00 0.425562804244596D+03
 0.425672830180590D+03 0.000000000000000D+00 0.000000000000000D+00 -.425672830180590D+03
 0.124445457617983D+03 -.150979014389670D+01 0.462646103525208D+02 -.709135173320299D+02
 0.360223810197640D+03 0.473269118701578D+02 0.184381057434652D+03 0.305818545064584D+03
 0.136167744428678D+02 0.115924778998584D+02 -.635506937491633D+01 0.326252902044303D+01
 0.345465850893632D+03 -.506366765168971D+02 -.227472074530682D+03 -.238167556752997D+03
 0.748374127306255D+01 -.677292310922232D+01 0.318147611842536D+01 -.110025935993661D+00
0.483530475871D-05 0.000000000000D+00 0.000000000000D+00 0.122731124645D-06 0.000000000000D+00  7 -2 2 23 -13 13 23 21 0 0.19688017D-01 0.21394724D+00 0.77344931D+05 0.77344931D+05 0.77344931D+05 0.11309941D+01  1  2  2  2  7  2        2 0.190280813754D-03 0.100000000000D+01
-.211927157403D-06 0.000000000000D+00 -.185688434384D-07 0.122731124645D-06 0.000000000000D+00  7 -2 2 23 -13 13 23 21 2 0.19688017D-01 0.21394724D+00 0.77344931D+05 0.77344931D+05 0.77344931D+05 0.11309941D+01  1  2  3  2  7  2        2 -.106678882779D-04 0.100000000000D+01
0.286206776223D-06 0.000000000000D+00 0.000000000000D+00 0.122731124645D-06 0.000000000000D+00  7 -2 2 23 -13 13 23 21 2 0.19688017D-01 0.21394724D+00 0.77344931D+05 0.77344931D+05 0.77344931D+05 0.11309941D+01  1  2 15  2  7  2        2 0.144069403401D-04 0.100000000000D+01
0.213277017815D-05 0.000000000000D+00 0.000000000000D+00 0.122731124645D-06 0.000000000000D+00  7 -2 2 23 -13 13 23 21 2 0.19688017D-01 0.21681203D+00 0.79403043D+05 0.79403043D+05 0.79403043D+05 0.11300354D+01  1  2 12  2  7  2        2 0.104651784764D-03 0.100000000000D+01
-.225948703638D-05 0.000000000000D+00 0.000000000000D+00 0.122731124645D-06 0.000000000000D+00  7 -2 2 23 -13 13 23 21 2 0.19688017D-01 0.21394724D+00 0.77344931D+05 0.77344931D+05 0.77344931D+05 0.11309941D+01  1  2  4  2  7  2        2 -.113736981919D-03 0.100000000000D+01
-.295481249096D-03 0.000000000000D+00 -.372123570553D-04 0.122731124645D-06 0.000000000000D+00  7 -2 2 23 -13 13 23 21 2 0.19688017D-01 0.21709579D+00 0.77344931D+05 0.77344931D+05 0.77344931D+05 0.11309941D+01  1  2  5  2  7  2        2 -.144980928496D-01 0.100000000000D+01
0.295997275832D-03 0.000000000000D+00 0.372083863000D-04 0.122731124645D-06 0.000000000000D+00  7 -2 2 23 -13 13 23 21 2 0.19688017D-01 0.21394724D+00 0.77344931D+05 0.77344931D+05 0.77344931D+05 0.11309941D+01  1  2  6  2  7  2        2 0.148997698447D-01 0.100000000000D+01
0.631395346457D-06 0.000000000000D+00 0.000000000000D+00 0.122731124645D-06 0.149284420419D-07  7 -2 2 23 -13 13 23 21 2 0.19860855D-01 0.21588126D+00 0.79403043D+05 0.79403043D+05 0.79403043D+05 0.11300354D+01  1  2 11  2  7  2        2 0.307707734188D-04 0.100000000000D+01
0.119779734353D-06 0.000000000000D+00 0.000000000000D+00 0.122731124645D-06 0.000000000000D+00  7 -2 21 23 -13 13 23 -2 2 0.19688017D-01 0.21681203D+00 0.79403043D+05 0.79403043D+05 0.79403043D+05 0.11300354D+01  1  2 12  4  7  2        2 0.245816715561D-05 0.100000000000D+01
-.789017049419D-06 0.000000000000D+00 -.997356071311D-07 0.122731124645D-06 0.000000000000D+00  7 -2 21 23 -13 13 23 -2 2 0.19688017D-01 0.21709579D+00 0.77344931D+05 0.77344931D+05 0.77344931D+05 0.11309941D+01  1  2  5  4  7  2        2 -.161759926013D-04 0.100000000000D+01
0.206894176098D-08 0.000000000000D+00 0.000000000000D+00 0.122731124645D-06 0.249931846459D-10  7 -2 21 23 -13 13 23 -2 2 0.19860855D-01 0.21588126D+00 0.79403043D+05 0.79403043D+05 0.79403043D+05 0.11300354D+01  1  2 11  4  7  2        2 0.424922346434D-07 0.100000000000D+01
  </mgrwgt>
  </event>
  <event>
  8     66 0.28248871E-05 0.15830421E+03 0.75467711E-02 0.10400686E+00
       -2 -1    0    0    0  501 0.00000000E+00 0.00000000E+00 0.44079457E+02 0.44080618E+02 0.32000000E+00 0.0000E+00 0.9000E+01
        2 -1    0    0  501    0 0.00000000E+00 0.00000000E+00 -.25662794E+04 0.25662794E+04 0.32000000E+00 0.0000E+00 0.9000E+01
       25  2    1    2    0    0 0.10514173E+03 -.71990113E+02 -.23681084E+04 0.23904071E+04 0.29978502E+03 0.0000E+00 0.0000E+00
       23  2    1    2    0    0 -.10514173E+03 0.71990113E+02 -.15409151E+03 0.21995296E+03 0.91639254E+02 0.0000E+00 0.0000E+00
       23  1    3    3    0    0 0.12555929E+03 0.57004021E+02 -.11059834E+04 0.11182706E+04 0.91188000E+02 0.0000E+00 0.9000E+01
      -13  1    4    4    0    0 -.14045995E+02 -.60737024E+01 -.74331013E+02 0.75889989E+02 0.10565837E+00 0.0000E+00 0.9000E+01
       13  1    4    4    0    0 -.91095739E+02 0.78063815E+02 -.79760495E+02 0.14406297E+03 0.10565837E+00 0.0000E+00 0.9000E+01
       23  1    3    3    0    0 -.20417558E+02 -.12899413E+03 -.12621250E+04 0.12721365E+04 0.91188000E+02 0.0000E+00 0.9000E+01
#aMCatNLO 1  0  0  2  1 0.13572320D+02 0.00000000D+00  -5  7  0 0.00000000D+00 0.00000000D+00 0.00000000D+00 0.00000000D+00 0.00000000D+00
  <mgrwgt>
 0.4962843377D-03    9    2    0
 0.336335761225169D+03 0.000000000000000D+00 0.000000000000000D+00 0.336335761225169D+03
 0.336335761225169D+03 0.000000000000000D+00 0.000000000000000D+00 -.336335761225169D+03
 0.192631329617893D+03 0.125559292297536D+03 0.570040204731507D+02 -.988786305224530D+02
 0.157912145632393D+02 -.140458923812374D+02 -.607381403530838D+01 -.389668418805635D+01
 0.259985043063169D+03 -.910958421376215D+02 0.780639267139063D+02 0.230650804264371D+03
 0.204263935206038D+03 -.204175577786770D+02 -.128994133151749D+03 -.127875489553861D+03
 0.000000000000000D+00 -.000000000000000D+00 0.000000000000000D+00 -.000000000000000D+00
 0.340742624613824D+03 0.000000000000000D+00 0.000000000000000D+00 0.340742624613824D+03
 0.347019159843547D+03 0.000000000000000D+00 0.000000000000000D+00 -.347019159843547D+03
 0.192424925667451D+03 0.126846500196656D+03 0.533393146561508D+02 -.988786305224530D+02
 0.158161354165691D+02 -.139402318965529D+02 -.637463148143744D+01 -.389668418805635D+01
 0.257942774759472D+03 -.893644567384121D+02 0.731346389521631D+02 0.230650804264371D+03
 0.206624595284536D+03 -.190439949424797D+02 -.132904693146967D+03 -.127875489553861D+03
 0.149533533293434D+02 -.449781661921133D+01 0.128053710200903D+02 -.627653522972367D+01
0.294458699285D-05 0.000000000000D+00 0.000000000000D+00 0.758495211133D-06 0.000000000000D+00  7 -2 2 23 -13 13 23 21 0 0.67815458D-02 0.39481231D+00 0.52870895D+05 0.52870895D+05 0.52870895D+05 0.11451688D+01  1  2  2  2  7  2        2 0.142477860431D-03 0.100000000000D+01
-.134820853114D-06 0.000000000000D+00 -.113079893801D-07 0.758495211133D-06 0.000000000000D+00  7 -2 2 23 -13 13 23 21 2 0.67815458D-02 0.39481231D+00 0.52870895D+05 0.52870895D+05 0.52870895D+05 0.11451688D+01  1  2  3  2  7  2        2 -.855498089762D-05 0.100000000000D+01
0.175909735361D-06 0.000000000000D+00 0.000000000000D+00 0.758495211133D-06 0.000000000000D+00  7 -2 2 23 -13 13 23 21 2 0.67815458D-02 0.39481231D+00 0.52870895D+05 0.52870895D+05 0.52870895D+05 0.11451688D+01  1  2 15  2  7  2        2 0.111622526557D-04 0.100000000000D+01
0.524120657509D-05 0.000000000000D+00 0.000000000000D+00 0.758495211133D-06 0.000000000000D+00  7 -2 2 23 -13 13 23 21 2 0.67815458D-02 0.40988077D+00 0.55638094D+05 0.55638094D+05 0.55638094D+05 0.11432361D+01  1  2 12  2  7  2        2 0.290826884935D-03 0.100000000000D+01
-.502575770987D-05 0.000000000000D+00 0.000000000000D+00 0.758495211133D-06 0.000000000000D+00  7 -2 2 23 -13 13 23 21 2 0.67815458D-02 0.39481231D+00 0.52870895D+05 0.52870895D+05 0.52870895D+05 0.11451688D+01  1  2  4  2  7  2        2 -.318906609852D-03 0.100000000000D+01
-.495500060924D-04 0.000000000000D+00 -.718017284871D-05 0.758495211133D-06 0.000000000000D+00  7 -2 2 23 -13 13 23 21 2 0.67815458D-02 0.40924222D+00 0.52870895D+05 0.52870895D+05 0.52870895D+05 0.11451688D+01  1  2  5  2  7  2        2 -.277815150906D-02 0.100000000000D+01
0.497802981945D-04 0.000000000000D+00 0.717554923315D-05 0.758495211133D-06 0.000000000000D+00  7 -2 2 23 -13 13 23 21 2 0.67815458D-02 0.39481231D+00 0.52870895D+05 0.52870895D+05 0.52870895D+05 0.11451688D+01  1  2  6  2  7  2        2 0.315878063589D-02 0.100000000000D+01
0.944398960869D-07 0.000000000000D+00 0.000000000000D+00 0.758495211133D-06 0.000000000000D+00  7 -2 21 23 -13 13 23 -2 2 0.67815458D-02 0.40988077D+00 0.55638094D+05 0.55638094D+05 0.55638094D+05 0.11432361D+01  1  2 12  4  7  2        2 0.568641395336D-06 0.100000000000D+01
-.312939969032D-06 0.000000000000D+00 -.458278856831D-07 0.758495211133D-06 0.000000000000D+00  7 -2 21 23 -13 13 23 -2 2 0.67815458D-02 0.40924222D+00 0.52870895D+05 0.52870895D+05 0.52870895D+05 0.11451688D+01  1  2  5  4  7  2        2 -.191883774841D-05 0.100000000000D+01
  </mgrwgt>
  </event>
  <event>
  8     66 0.28248871E-05 0.14128811E+03 0.75467711E-02 0.10866591E+00
       -2 -1    0    0    0  501 0.00000000E+00 0.00000000E+00 0.28240639E+02 0.28242452E+02 0.32000000E+00 0.0000E+00 0.9000E+01
        2 -1    0    0  501    0 0.00000000E+00 0.00000000E+00 -.13522252E+04 0.13522252E+04 0.32000000E+00 0.0000E+00 0.9000E+01
       25  2    1    2    0    0 -.19195542E+02 -.15110076E+02 -.10414979E+04 0.10841417E+04 0.30008082E+03 0.0000E+00 0.0000E+00
       23  2    1    2    0    0 0.19195542E+02 0.15110076E+02 -.28248660E+03 0.29632596E+03 0.86102341E+02 0.0000E+00 0.0000E+00
       23  1    3    3    0    0 -.80397577E+02 -.10093560E+03 -.63694688E+03 0.65625326E+03 0.91188000E+02 0.0000E+00 0.9000E+01
      -11  1    4    4    0    0 -.19570593E+01 0.13563425E+02 -.27256790E+03 0.27291218E+03 0.51099893E-03 0.0000E+00 0.9000E+01
       11  1    4    4    0    0 0.21152601E+02 0.15466511E+01 -.99187004E+01 0.23413784E+02 0.51099893E-03 0.0000E+00 0.9000E+01
       23  1    3    3    0    0 0.61202035E+02 0.85825519E+02 -.40455105E+03 0.42788843E+03 0.91188000E+02 0.0000E+00 0.9000E+01
#aMCatNLO 1  0  0  1  2 0.86330183D+01 0.00000000D+00  -5  7  0 0.00000000D+00 0.00000000D+00 0.00000000D+00 0.00000000D+00 0.00000000D+00
  <mgrwgt>
 0.4441843125D-04   11    2    0
 0.195420008887203D+03 0.000000000000000D+00 0.000000000000000D+00 0.195420008887203D+03
 0.195420008887203D+03 0.000000000000000D+00 0.000000000000000D+00 -.195420008887203D+03
 0.160244144419554D+03 -.804005879715213D+02 -.100937966139584D+03 -.266497077318476D+02
 0.406052111011502D+02 -.195414974813661D+01 0.135652218312121D+02 -.382223654945744D+02
 0.490997164515827D+02 0.211553505696401D+02 0.154930892445149D+01 0.442812933388136D+02
 0.140890945802119D+03 0.611993871500178D+02 0.858234353839203D+02 0.205907798876084D+02
 0.000000000000000D+00 -.000000000000000D+00 0.000000000000000D+00 0.000000000000000D+00
 0.204839804876242D+03 0.000000000000000D+00 0.000000000000000D+00 0.204839804876242D+03
 0.197455724257086D+03 0.000000000000000D+00 0.000000000000000D+00 -.197455724257086D+03
 0.159845904150529D+03 -.773306315426983D+02 -.102689961693998D+03 -.266497077318476D+02
 0.404291115887442D+02 -.117695645203607D+01 0.131216848523467D+02 -.382223654945744D+02
 0.495005784100739D+02 0.221010176106701D+02 0.100962554774786D+01 0.442812933388136D+02
 0.141159756643138D+03 0.639045114458027D+02 0.842796461314554D+02 0.205907798876084D+02
 0.113601783408426D+02 -.749794106173841D+01 0.427900516244787D+01 0.738408061915571D+01
0.311933665838D-06 0.000000000000D+00 0.000000000000D+00 0.555474314526D-08 0.000000000000D+00  7 -2 2 23 -11 11 23 21 0 0.43448560D-02 0.20803478D+00 0.27607157D+05 0.27607157D+05 0.27607157D+05 0.11707002D+01  1  2  2  1  7  1       -2 0.130721430917D-03 0.100000000000D+01
-.167750664531D-07 0.000000000000D+00 -.119790741084D-08 0.555474314526D-08 0.000000000000D+00  7 -2 2 23 -11 11 23 21 2 0.43448560D-02 0.20803478D+00 0.27607157D+05 0.27607157D+05 0.27607157D+05 0.11707002D+01  1  2  3  1  7  1       -2 -.963474364292D-05 0.100000000000D+01
0.197626649803D-07 0.000000000000D+00 0.000000000000D+00 0.555474314526D-08 0.000000000000D+00  7 -2 2 23 -11 11 23 21 2 0.43448560D-02 0.20803478D+00 0.27607157D+05 0.27607157D+05 0.27607157D+05 0.11707002D+01  1  2 15  1  7  1       -2 0.113506680477D-04 0.100000000000D+01
0.132882306655D-05 0.000000000000D+00 0.000000000000D+00 0.555474314526D-08 0.000000000000D+00  7 -2 2 23 -11 11 23 21 2 0.45762289D-02 0.20803478D+00 0.29102666D+05 0.29102666D+05 0.29102666D+05 0.11685615D+01  1  2 12  1  7  1       -2 0.705154250347D-03 0.100000000000D+01
-.134442455596D-05 0.000000000000D+00 0.000000000000D+00 0.555474314526D-08 0.000000000000D+00  7 -2 2 23 -11 11 23 21 2 0.43448560D-02 0.20803478D+00 0.27607157D+05 0.27607157D+05 0.27607157D+05 0.11707002D+01  1  2  4  1  7  1       -2 -.772168979490D-03 0.100000000000D+01
-.532319925395D-05 0.000000000000D+00 -.714042628774D-06 0.555474314526D-08 0.000000000000D+00  7 -2 2 23 -11 11 23 21 2 0.46032688D-02 0.20803478D+00 0.27607157D+05 0.27607157D+05 0.27607157D+05 0.11707002D+01  1  2  5  1  7  1       -2 -.280912575364D-02 0.100000000000D+01
0.535670001017D-05 0.000000000000D+00 0.712852604522D-06 0.555474314526D-08 0.000000000000D+00  7 -2 2 23 -11 11 23 21 2 0.43448560D-02 0.20803478D+00 0.27607157D+05 0.27607157D+05 0.27607157D+05 0.11707002D+01  1  2  6  1  7  1       -2 0.307661561367D-02 0.100000000000D+01
0.174393939859D-08 0.000000000000D+00 0.000000000000D+00 0.555474314526D-08 0.543180561860D-09  7 -2 2 23 -11 11 23 21 2 0.45542904D-02 0.21020191D+00 0.29102666D+05 0.29102666D+05 0.29102666D+05 0.11685615D+01  1  2 11  1  7  1       -2 0.915948269450D-06 0.100000000000D+01
0.194803732119D-07 0.000000000000D+00 0.000000000000D+00 0.555474314526D-08 0.000000000000D+00  7 21 2 23 -11 11 23 2 2 0.45762289D-02 0.20803478D+00 0.29102666D+05 0.29102666D+05 0.29102666D+05 0.11685615D+01  1  2 12  3  7  1       -2 0.174231733765D-03 0.100000000000D+01
-.521528211409D-07 0.000000000000D+00 -.710707948077D-08 0.555474314526D-08 0.000000000000D+00  7 21 2 23 -11 11 23 2 2 0.46032688D-02 0.20803478D+00 0.27607157D+05 0.27607157D+05 0.27607157D+05 0.11707002D+01  1  2  5  3  7  1       -2 -.463783870153D-03 0.100000000000D+01
0.160460124611D-10 0.000000000000D+00 0.000000000000D+00 0.555474314526D-08 0.453016935843D-11  7 21 2 23 -11 11 23 2 2 0.45542904D-02 0.21020191D+00 0.29102666D+05 0.29102666D+05 0.29102666D+05 0.11685615D+01  1  2 11  3  7  1       -2 0.142133151027D-06 0.100000000000D+01
  </mgrwgt>
  </event>
  <event>
  8     66 0.28248871E-05 0.41995652E+03 0.75467711E-02 0.84325238E-01
       -2 -1    0    0    0  501 0.00000000E+00 0.00000000E+00 0.11195305E+03 0.11195350E+03 0.32000000E+00 0.0000E+00 0.9000E+01
        2 -1    0    0  501    0 0.00000000E+00 0.00000000E+00 -.21014673E+04 0.21014673E+04 0.32000000E+00 0.0000E+00 0.9000E+01
       25  2    1    2    0    0 -.52889015E+02 -.38678669E+03 -.15096041E+04 0.15878768E+04 0.30007847E+03 0.0000E+00 0.0000E+00
       23  2    1    2    0    0 0.52889015E+02 0.38678669E+03 -.47991012E+03 0.62554397E+03 0.92684132E+02 0.0000E+00 0.0000E+00
       23  1    3    3    0    0 -.73021312E+02 -.25012656E+03 -.56449178E+03 0.62838016E+03 0.91188000E+02 0.0000E+00 0.9000E+01
      -11  1    4    4    0    0 0.70305220E+02 0.35674096E+03 -.41368300E+03 0.55076361E+03 0.51099893E-03 0.0000E+00 0.9000E+01
       11  1    4    4    0    0 -.17416205E+02 0.30045724E+02 -.66227128E+02 0.74780360E+02 0.51099893E-03 0.0000E+00 0.9000E+01
       23  1    3    3    0    0 0.20132297E+02 -.13666013E+03 -.94511234E+03 0.95949668E+03 0.91188000E+02 0.0000E+00 0.9000E+01
#aMCatNLO 1  0  0  1  2 0.12558904D+04 0.00000000D+00  -5  7  0 0.00000000D+00 0.00000000D+00 0.00000000D+00 0.00000000D+00 0.00000000D+00
  <mgrwgt>
 0.3575268292D-03    5    2    0
 0.485042471739756D+03 0.000000000000000D+00 0.000000000000000D+00 0.485042471739756D+03
 0.485042471739756D+03 0.000000000000000D+00 0.000000000000000D+00 -.485042471739756D+03
 0.276063760064005D+03 -.730213121263891D+02 -.250126558770990D+03 0.735424639005998D+00
 0.408256452083604D+03 0.703052200246078D+02 0.356740961375457D+03 0.185651267655511D+03
 0.348016846199319D+02 -.174162046611155D+02 0.300457236390314D+02 0.225556170261191D+01
 0.250963046711972D+03 0.201322967628968D+02 -.136660126243499D+03 -.188642253997128D+03
 0.000000000000000D+00 -.000000000000000D+00 0.000000000000000D+00 0.000000000000000D+00
 0.181063198537361D+04 0.000000000000000D+00 0.000000000000000D+00 0.181063198537361D+04
 0.118112063007782D+04 0.000000000000000D+00 0.000000000000000D+00 -.118112063007782D+04
 0.419368592749926D+03 0.262504119792796D+03 -.314079307633379D+03 0.735424639005998D+00
 0.670786484065315D+03 0.590911351944934D+03 0.257510947660909D+03 0.185651267655511D+03
 0.274990973453295D+02 0.126420701562918D+02 0.243164729839057D+02 0.225556170261191D+01
 0.469269141981828D+03 0.367622912084104D+03 -.202893496174834D+03 -.188642253997128D+03
 0.140482929930902D+04 -.123368045397813D+04 0.235145383163398D+03 0.629511355295790D+03
0.175110713849D-04 0.000000000000D+00 0.000000000000D+00 0.802789969901D-06 0.000000000000D+00  7 -2 2 23 -11 11 23 21 0 0.17223583D-01 0.32330270D+00 0.17636348D+06 0.17636348D+06 0.17636348D+06 0.11020452D+01  1  2  2  1  7  1       -2 0.347135923162D-03 0.100000000000D+01
-.948281116474D-06 0.000000000000D+00 -.672471248892D-07 0.802789969901D-06 0.000000000000D+00  7 -2 2 23 -11 11 23 21 2 0.17223583D-01 0.32330270D+00 0.17636348D+06 0.17636348D+06 0.17636348D+06 0.11020452D+01  1  2  3  1  7  1       -2 -.228308874522D-04 0.100000000000D+01
0.108832259939D-05 0.000000000000D+00 0.000000000000D+00 0.802789969901D-06 0.000000000000D+00  7 -2 2 23 -11 11 23 21 2 0.17223583D-01 0.32330270D+00 0.17636348D+06 0.17636348D+06 0.17636348D+06 0.11020452D+01  1  2 15  1  7  1       -2 0.262025367232D-04 0.100000000000D+01
0.577263931424D-04 0.000000000000D+00 -.185491704784D-04 0.802789969901D-06 0.000000000000D+00  7 -2 2 23 -11 11 23 21 2 0.26857646D+00 0.32330270D+00 0.17636348D+06 0.17636348D+06 0.17636348D+06 0.11020452D+01  1  2  5  1  7  1       -2 0.254373301798D-05 0.100000000000D+01
0.135562960717D-04 0.000000000000D+00 -.570499881050D-05 0.802789969901D-06 0.000000000000D+00  7 21 2 23 -11 11 23 2 2 0.26857646D+00 0.32330270D+00 0.17636348D+06 0.17636348D+06 0.17636348D+06 0.11020452D+01  1  2  5  3  7  1       -2 0.447552370658D-05 0.100000000000D+01
  </mgrwgt>
  </event>
  <event>
  8     66 0.28248871E-05 0.19760383E+03 0.75467711E-02 0.10478461E+00
       -2 -1    0    0    0  501 0.00000000E+00 0.00000000E+00 0.85237599E+02 0.85238200E+02 0.32000000E+00 0.0000E+00 0.9000E+01
        2 -1    0    0  501    0 0.00000000E+00 0.00000000E+00 -.74325214E+03 0.74325221E+03 0.32000000E+00 0.0000E+00 0.9000E+01
       25  2    1    2    0    0 -.18144581E+02 -.16643908E+02 -.20370962E+03 0.36409139E+03 0.30076350E+03 0.0000E+00 0.0000E+00
       23  2    1    2    0    0 0.18144581E+02 0.16643908E+02 -.45430492E+03 0.46439902E+03 0.93098033E+02 0.0000E+00 0.0000E+00
       23  1    3    3    0    0 0.88479872E+02 -.74364059E+02 -.75440807E+02 0.16542451E+03 0.91188000E+02 0.0000E+00 0.9000E+01
      -11  1    4    4    0    0 0.40410218E+00 -.38422318E+02 -.17656887E+03 0.18070142E+03 0.51099893E-03 0.0000E+00 0.9000E+01
       11  1    4    4    0    0 0.17740479E+02 0.55066226E+02 -.27773605E+03 0.28369760E+03 0.51099893E-03 0.0000E+00 0.9000E+01
       23  1    3    3    0    0 -.10662445E+03 0.57720151E+02 -.12826882E+03 0.19866688E+03 0.91188000E+02 0.0000E+00 0.9000E+01
#aMCatNLO 1  0  0  1  2 0.46764457D+02 0.00000000D+00  -5  7  0 0.00000000D+00 0.00000000D+00 0.00000000D+00 0.00000000D+00 0.00000000D+00
  <mgrwgt>
 0.2116840736D-03    4    2    0
 0.251700825213957D+03 0.000000000000000D+00 0.000000000000000D+00 0.251700825213957D+03
 0.251700825213957D+03 0.000000000000000D+00 0.000000000000000D+00 -.251700825213957D+03
 0.173641604453771D+03 0.884798724220828D+02 -.743640586562731D+02 0.920730927558006D+02
 0.665959486044798D+02 0.404102205116886D+00 -.384223178844561D+02 -.543928539453864D+02
 0.103866127007665D+03 0.177404791067929D+02 0.550662258546228D+02 -.862621499312501D+02
 0.159297970361998D+03 -.106624453733993D+03 0.577201506861065D+02 0.485819111208360D+02
 0.000000000000000D+00 -.000000000000000D+00 -.000000000000000D+00 -.000000000000000D+00
 0.257496298232034D+03 0.000000000000000D+00 0.000000000000000D+00 0.257496298232034D+03
 0.368820011348820D+03 0.000000000000000D+00 0.000000000000000D+00 -.368820011348820D+03
 0.174034833217968D+03 0.984349965954516D+02 -.616925349198833D+02 0.920730927558006D+02
 0.640991457793260D+02 0.414633421299705D+01 -.336589637676099D+02 -.543928539453864D+02
 0.109354025046468D+03 0.238456759506687D+02 0.628373139269803D+02 -.862621499312501D+02
 0.158081116950575D+03 -.975368427201850D+02 0.692874477547451D+02 0.485819111208360D+02
 0.120747188586517D+03 -.288901640389323D+02 -.367732629942322D+02 -.111323713116786D+03
0.120648419523D-05 0.000000000000D+00 0.000000000000D+00 0.293823291599D-07 0.000000000000D+00  7 -2 2 23 -11 11 23 21 0 0.13113528D-01 0.11434653D+00 0.39047272D+05 0.39047272D+05 0.39047272D+05 0.11568619D+01  1  2  2  1  7  1       -2 0.222653106207D-03 0.100000000000D+01
-.622551362090D-07 0.000000000000D+00 -.463321698427D-08 0.293823291599D-07 0.000000000000D+00  7 -2 2 23 -11 11 23 21 2 0.13113528D-01 0.11434653D+00 0.39047272D+05 0.39047272D+05 0.39047272D+05 0.11568619D+01  1  2  3  1  7  1       -2 -.153760705732D-04 0.100000000000D+01
0.744721655539D-07 0.000000000000D+00 0.000000000000D+00 0.293823291599D-07 0.000000000000D+00  7 -2 2 23 -11 11 23 21 2 0.13113528D-01 0.11434653D+00 0.39047272D+05 0.39047272D+05 0.39047272D+05 0.11568619D+01  1  2 15  1  7  1       -2 0.183934907708D-04 0.100000000000D+01
-.566288063595D-07 0.000000000000D+00 0.000000000000D+00 0.293823291599D-07 0.000000000000D+00  7 -2 2 23 -11 11 23 21 2 0.13113528D-01 0.11434653D+00 0.39047272D+05 0.39047272D+05 0.39047272D+05 0.11568619D+01  1  2  4  1  7  1       -2 -.139864527826D-04 0.100000000000D+01
  </mgrwgt>
  </event>
  <event>
  8     66 0.28248871E-05 0.41010411E+03 0.75467711E-02 0.84664548E-01
       -2 -1    0    0    0  501 0.00000000E+00 0.00000000E+00 0.81386612E+02 0.81387241E+02 0.32000000E+00 0.0000E+00 0.9000E+01
        2 -1    0    0  501    0 0.00000000E+00 0.00000000E+00 -.23016677E+04 0.23016678E+04 0.32000000E+00 0.0000E+00 0.9000E+01
       25  2    1    2    0    0 -.34612303E+03 -.10118160E+03 -.93338353E+03 0.10433867E+04 0.29565531E+03 0.0000E+00 0.0000E+00
       23  2    1    2    0    0 0.34612303E+03 0.10118160E+03 -.12868976E+04 0.13396683E+04 0.92557810E+02 0.0000E+00 0.0000E+00
       23  1    3    3    0    0 -.16532829E+03 0.61650226E+02 -.31190695E+03 0.36977749E+03 0.91188000E+02 0.0000E+00 0.9000E+01
      -13  1    4    4    0    0 0.24627283E+03 0.58285197E+02 -.10318674E+04 0.10624489E+04 0.10565837E+00 0.0000E+00 0.9000E+01
       13  1    4    4    0    0 0.99850193E+02 0.42896403E+02 -.25503023E+03 0.27721939E+03 0.10565837E+00 0.0000E+00 0.9000E+01
       23  1    3    3    0    0 -.18079474E+03 -.16283183E+03 -.62147657E+03 0.67360918E+03 0.91188000E+02 0.0000E+00 0.9000E+01
#aMCatNLO 1  0  0  1  2 0.12165306D+04 0.00000000D+00  -5  7  0 0.00000000D+00 0.00000000D+00 0.00000000D+00 0.00000000D+00 0.00000000D+00
  <mgrwgt>
 0.2952587196D-03    5    2    0
 0.432811409115816D+03 0.000000000000000D+00 0.000000000000000D+00 0.432811409115816D+03
 0.432811409115816D+03 0.000000000000000D+00 0.000000000000000D+00 -.432811409115816D+03
 0.217969042208452D+03 -.165328289400658D+03 0.616502256093232D+02 0.897833972594154D+02
 0.278226041281095D+03 0.246273025525527D+03 0.582852172209347D+02 -.115594811297744D+03
 0.109042948143653D+03 0.998500024060035D+02 0.428963827973552D+02 0.895778445170220D+01
 0.260384786598433D+03 -.180794738530873D+03 -.162831825627613D+03 0.168536295866266D+02
 0.000000000000000D+00 0.000000000000000D+00 -.000000000000000D+00 0.000000000000000D+00
 0.203189281231076D+04 0.000000000000000D+00 0.000000000000000D+00 0.203189281231076D+04
 0.103438044276962D+04 0.000000000000000D+00 0.000000000000000D+00 -.103438044276962D+04
 0.613914454181535D+03 -.508891337098332D+03 0.318660092123003D+03 0.897833972594154D+02
 0.251821853149524D+03 0.273663266589493D+02 0.222043170329320D+03 -.115594811297744D+03
 0.111828502237758D+03 0.863137747625835D+01 0.111134474099262D+03 0.895778445170220D+01
 0.515502319348384D+03 -.501231602521081D+03 0.768779923870882D+02 0.168536295866266D+02
 0.157320612616318D+04 0.974125235484206D+03 -.728715728938673D+03 0.997512369541133D+03
0.112377005958D-04 0.000000000000D+00 0.000000000000D+00 0.793992859814D-08 0.000000000000D+00  7 -2 2 23 -13 13 23 21 0 0.12521067D-01 0.35410278D+00 0.16818538D+06 0.16818538D+06 0.16818538D+06 0.11036513D+01  1  2  2  1  7  1       -2 0.288656929875D-03 0.100000000000D+01
-.622112152726D-06 0.000000000000D+00 -.431557292424D-07 0.793992859814D-08 0.000000000000D+00  7 -2 2 23 -13 13 23 21 2 0.12521067D-01 0.35410278D+00 0.16818538D+06 0.16818538D+06 0.16818538D+06 0.11036513D+01  1  2  3  1  7  1       -2 -.194642196413D-04 0.100000000000D+01
0.721433998639D-06 0.000000000000D+00 0.000000000000D+00 0.793992859814D-08 0.000000000000D+00  7 -2 2 23 -13 13 23 21 2 0.12521067D-01 0.35410278D+00 0.16818538D+06 0.16818538D+06 0.16818538D+06 0.11036513D+01  1  2 15  1  7  1       -2 0.225717336411D-04 0.100000000000D+01
0.564828610944D-04 0.000000000000D+00 -.178340535627D-04 0.793992859814D-08 0.000000000000D+00  7 -2 2 23 -13 13 23 21 2 0.29873232D+00 0.35410278D+00 0.16818538D+06 0.16818538D+06 0.16818538D+06 0.11036513D+01  1  2  5  1  7  1       -2 0.124914472746D-05 0.100000000000D+01
0.137541655075D-04 0.000000000000D+00 -.588251309421D-05 0.793992859814D-08 0.000000000000D+00  7 21 2 23 -13 13 23 2 2 0.29873232D+00 0.35410278D+00 0.16818538D+06 0.16818538D+06 0.16818538D+06 0.11036513D+01  1  2  5  3  7  1       -2 0.224513102044D-05 0.100000000000D+01
  </mgrwgt>
  </event>
  <event>
  8     66 0.28248871E-05 0.76882822E+02 0.75467711E-02 0.10236396E+00
       -2 -1    0    0    0  501 0.00000000E+00 0.00000000E+00 0.31384606E+03 0.31384622E+03 0.32000000E+00 0.0000E+00 0.9000E+01
        2 -1    0    0  501    0 0.00000000E+00 0.00000000E+00 -.29797691E+03 0.29797708E+03 0.32000000E+00 0.0000E+00 0.9000E+01
       25  2    1    2    0    0 0.18692210E+03 -.92323142E+01 0.12639154E+03 0.37655898E+03 0.30132496E+03 0.0000E+00 0.0000E+00
       23  2    1    2    0    0 -.18692210E+03 0.92323142E+01 -.11052239E+03 0.23526433E+03 0.90049989E+02 0.0000E+00 0.0000E+00
       23  1    3    3    0    0 0.51755441E+02 -.57374101E+02 0.16351846E+03 0.20254370E+03 0.91188000E+02 0.0000E+00 0.9000E+01
      -11  1    4    4    0    0 -.42136348E+02 -.26461782E+01 0.13423577E+02 0.44301992E+02 0.51099893E-03 0.0000E+00 0.9000E+01
       11  1    4    4    0    0 -.14478575E+03 0.11878492E+02 -.12394597E+03 0.19096234E+03 0.51099893E-03 0.0000E+00 0.9000E+01
       23  1    3    3    0    0 0.13516666E+03 0.48141787E+02 -.37126917E+02 0.17401528E+03 0.91188000E+02 0.0000E+00 0.9000E+01
#aMCatNLO 1  0  0  1  2 0.50518681D+02 0.00000000D+00  -5  7  0 0.00000000D+00 0.00000000D+00 0.00000000D+00 0.00000000D+00 0.00000000D+00
  <mgrwgt>
 0.1879186886D-03    9    2    0
 0.305808735161211D+03 0.000000000000000D+00 0.000000000000000D+00 0.305808735161211D+03
 0.305808735161211D+03 0.000000000000000D+00 0.000000000000000D+00 -.305808735161211D+03
 0.198369182647512D+03 0.517554409052773D+02 -.573741012990693D+02 0.158318249475752D+03
 0.439686108380696D+02 -.421363477735881D+02 -.264617819903257D+01 0.122786268072538D+02
 0.194242534257692D+03 -.144785750580450D+03 0.118784924244356D+02 -.128942428864315D+03
 0.175037142579149D+03 0.135166657448761D+03 0.481417870736662D+02 -.416544474186902D+02
 0.000000000000000D+00 0.000000000000000D+00 0.000000000000000D+00 0.000000000000000D+00
 0.360370196158359D+03 0.000000000000000D+00 0.000000000000000D+00 0.360370196158359D+03
 0.318771561908813D+03 0.000000000000000D+00 0.000000000000000D+00 -.318771561908813D+03
 0.199117372405663D+03 0.397126178942804D+02 -.684888057470117D+02 0.158318249475752D+03
 0.468241773565584D+02 -.448871363600261D+02 -.518496849007255D+01 0.122786268072538D+02
 0.203026796011035D+03 -.156821992237689D+03 0.769862117233826D+00 -.128942428864315D+03
 0.164731961475627D+03 0.124872525149898D+03 0.386410049110952D+02 -.416544474186902D+02
 0.654414508182888D+02 0.371239855535370D+02 0.342629072087552D+02 0.415986342495462D+02
0.253852055405D-05 0.000000000000D+00 0.000000000000D+00 0.583580615854D-07 0.000000000000D+00  7 -2 2 23 -11 11 23 21 0 0.48284035D-01 0.45842628D-01 0.56887679D+05 0.56887679D+05 0.56887679D+05 0.11423978D+01  1  2  2  1  7  1       -2 0.139415062601D-03 0.100000000000D+01
-.130436573883D-06 0.000000000000D+00 -.974858733535D-08 0.583580615854D-07 0.000000000000D+00  7 -2 2 23 -11 11 23 21 2 0.48284035D-01 0.45842628D-01 0.56887679D+05 0.56887679D+05 0.56887679D+05 0.11423978D+01  1  2  3  1  7  1       -2 -.934895604326D-05 0.100000000000D+01
0.157857004570D-06 0.000000000000D+00 0.000000000000D+00 0.583580615854D-07 0.000000000000D+00  7 -2 2 23 -11 11 23 21 2 0.48284035D-01 0.45842628D-01 0.56887679D+05 0.56887679D+05 0.56887679D+05 0.11423978D+01  1  2 15  1  7  1       -2 0.113142974621D-04 0.100000000000D+01
0.469744771411D-05 0.000000000000D+00 0.000000000000D+00 0.583580615854D-07 0.000000000000D+00  7 -2 2 23 -11 11 23 21 2 0.57793783D-01 0.45842628D-01 0.70933552D+05 0.70933552D+05 0.70933552D+05 0.11341708D+01  1  2 12  1  7  1       -2 0.232280967659D-03 0.100000000000D+01
-.481649749369D-05 0.000000000000D+00 0.000000000000D+00 0.583580615854D-07 0.000000000000D+00  7 -2 2 23 -11 11 23 21 2 0.48284035D-01 0.45842628D-01 0.56887679D+05 0.56887679D+05 0.56887679D+05 0.11423978D+01  1  2  4  1  7  1       -2 -.345219304759D-03 0.100000000000D+01
-.804380493576D-05 0.000000000000D+00 -.177740137128D-05 0.583580615854D-07 0.000000000000D+00  7 -2 2 23 -11 11 23 21 2 0.58777970D-01 0.45842628D-01 0.56887679D+05 0.56887679D+05 0.56887679D+05 0.11423978D+01  1  2  5  1  7  1       -2 -.390692545424D-03 0.100000000000D+01
0.826680119167D-05 0.000000000000D+00 0.174357394448D-05 0.583580615854D-07 0.000000000000D+00  7 -2 2 23 -11 11 23 21 2 0.48284035D-01 0.45842628D-01 0.56887679D+05 0.56887679D+05 0.56887679D+05 0.11423978D+01  1  2  6  1  7  1       -2 0.592517563584D-03 0.100000000000D+01
0.123771539291D-06 0.000000000000D+00 0.000000000000D+00 0.583580615854D-07 0.000000000000D+00  7 21 2 23 -11 11 23 2 2 0.57793783D-01 0.45842628D-01 0.70933552D+05 0.70933552D+05 0.70933552D+05 0.11341708D+01  1  2 12  3  7  1       -2 0.649166576946D-04 0.100000000000D+01
-.207349372212D-06 0.000000000000D+00 -.502109922163D-07 0.583580615854D-07 0.000000000000D+00  7 21 2 23 -11 11 23 2 2 0.58777970D-01 0.45842628D-01 0.56887679D+05 0.56887679D+05 0.56887679D+05 0.11423978D+01  1  2  5  3  7  1       -2 -.107265054129D-03 0.100000000000D+01
  </mgrwgt>
  </event>
  <event>
  8     66 0.28248871E-05 0.17989701E+03 0.75467711E-02 0.96291021E-01
       -2 -1    0    0    0  501 0.00000000E+00 0.00000000E+00 0.29236381E+03 0.29236399E+03 0.32000000E+00 0.0000E+00 0.9000E+01
        2 -1    0    0  501    0 0.00000000E+00 0.00000000E+00 -.22556523E+03 0.22556545E+03 0.32000000E+00 0.0000E+00 0.9000E+01
       25  2    1    2    0    0 -.49709270E+02 0.57481283E+01 0.18876242E+03 0.35869341E+03 0.30087483E+03 0.0000E+00 0.0000E+00
       23  2    1    2    0    0 0.49709270E+02 -.57481283E+01 -.12196383E+03 0.15923603E+03 0.89313408E+02 0.0000E+00 0.0000E+00
       23  1    3    3    0    0 0.32923054E+02 -.10213978E+03 0.97837695E+02 0.17147574E+03 0.91188000E+02 0.0000E+00 0.9000E+01
      -11  1    4    4    0    0 0.28246142E+02 0.85641215E+01 0.47738487E+01 0.29899471E+02 0.51099893E-03 0.0000E+00 0.9000E+01
       11  1    4    4    0    0 0.21463128E+02 -.14312250E+02 -.12673768E+03 0.12933656E+03 0.51099893E-03 0.0000E+00 0.9000E+01
       23  1    3    3    0    0 -.82632324E+02 0.10788791E+03 0.90924721E+02 0.18721768E+03 0.91188000E+02 0.0000E+00 0.9000E+01
#aMCatNLO 1  0  0  2  2 0.34360005D+03 0.00000000D+00  -5  7  0 0.00000000D+00 0.00000000D+00 0.00000000D+00 0.00000000D+00 0.00000000D+00
  <mgrwgt>
 0.2676287714D-03    5    2    0
 0.256801895387121D+03 0.000000000000000D+00 0.000000000000000D+00 0.256801895387121D+03
 0.256801895387121D+03 0.000000000000000D+00 0.000000000000000D+00 -.256801895387121D+03
 0.160195297681569D+03 0.329230540525966D+02 -.102139779671779D+03 0.763598060221257D+02
 0.295304084237800D+02 0.282461419051446D+02 0.856412147075324D+01 0.925371592319109D+00
 0.146909174940130D+03 0.214631282621307D+02 -.143122497805469D+02 -.144626412916217D+03
 0.176968909728763D+03 -.826323242198720D+02 0.107887907981573D+03 0.673412353017726D+02
 0.000000000000000D+00 -.000000000000000D+00 -.000000000000000D+00 -.000000000000000D+00
 0.377357596824523D+03 0.000000000000000D+00 0.000000000000000D+00 0.377357596824523D+03
 0.740557761251665D+03 0.000000000000000D+00 0.000000000000000D+00 -.740557761251665D+03
 0.203801048825728D+03 0.142091410173917D+03 -.848459034810632D+02 0.763598060221257D+02
 0.550896973556924D+02 0.536250720273789D+02 0.125845179572496D+02 0.925371592319109D+00
 0.189436917923946D+03 0.122338728795292D+03 0.166793173236197D+01 -.144626412916217D+03
 0.169612340162031D+03 0.213129644515681D+02 0.124354373327028D+03 0.673412353017726D+02
 0.499975353808790D+03 -.339368175448156D+03 -.537609195355766D+02 -.363200164427142D+03
0.286882037599D-05 0.000000000000D+00 0.000000000000D+00 0.109872560537D-06 0.000000000000D+00  7 -2 2 23 -11 11 23 21 0 0.44979079D-01 0.34702373D-01 0.32362935D+05 0.32362935D+05 0.32362935D+05 0.11642932D+01  1  2  2  2  7  2        2 0.244389570493D-03 0.100000000000D+01
-.134830794385D-06 0.000000000000D+00 -.110170256215D-07 0.109872560537D-06 0.000000000000D+00  7 -2 2 23 -11 11 23 21 2 0.44979079D-01 0.34702373D-01 0.32362935D+05 0.32362935D+05 0.32362935D+05 0.11642932D+01  1  2  3  2  7  2        2 -.155701619389D-04 0.100000000000D+01
0.175636862260D-06 0.000000000000D+00 0.000000000000D+00 0.109872560537D-06 0.000000000000D+00  7 -2 2 23 -11 11 23 21 2 0.44979079D-01 0.34702373D-01 0.32362935D+05 0.32362935D+05 0.32362935D+05 0.11642932D+01  1  2 15  2  7  2        2 0.202824169382D-04 0.100000000000D+01
0.608722837005D-06 0.000000000000D+00 -.109158311714D-05 0.109872560537D-06 0.000000000000D+00  7 -2 2 23 -11 11 23 21 2 0.44979079D-01 0.13364409D+00 0.32362935D+05 0.32362935D+05 0.32362935D+05 0.11642932D+01  1  2  5  2  7  2        2 0.156437194400D-04 0.100000000000D+01
0.116875893819D-06 0.000000000000D+00 -.174753387346D-06 0.109872560537D-06 0.000000000000D+00  7 -2 21 23 -11 11 23 -2 2 0.44979079D-01 0.13364409D+00 0.32362935D+05 0.32362935D+05 0.32362935D+05 0.11642932D+01  1  2  5  4  7  2        2 0.288322651406D-05 0.100000000000D+01
  </mgrwgt>
  </event>
  <event>
  8     66 0.28248871E-05 0.29316924E+03 0.75467711E-02 0.96145630E-01
       -2 -1    0    0    0  501 0.00000000E+00 0.00000000E+00 0.75692286E+03 0.75692293E+03 0.32000000E+00 0.0000E+00 0.9000E+01
        2 -1    0    0  501    0 0.00000000E+00 0.00000000E+00 -.27134423E+03 0.27134442E+03 0.32000000E+00 0.0000E+00 0.9000E+01
       25  2    1    2    0    0 0.37937725E+03 0.91258020E+02 0.35808512E+03 0.60770339E+03 0.29803243E+03 0.0000E+00 0.0000E+00
       23  2    1    2    0    0 -.37937725E+03 -.91258020E+02 0.12749352E+03 0.42056396E+03 0.91456695E+02 0.0000E+00 0.0000E+00
       23  1    3    3    0    0 0.16658773E+02 0.35330141E+02 0.21632011E+02 0.10153290E+03 0.91188000E+02 0.0000E+00 0.9000E+01
      -13  1    4    4    0    0 -.30431275E+03 -.10665057E+03 0.11790548E+03 0.34333993E+03 0.10565837E+00 0.0000E+00 0.9000E+01
       13  1    4    4    0    0 -.75064502E+02 0.15392550E+02 0.95880341E+01 0.77224036E+02 0.10565837E+00 0.0000E+00 0.9000E+01
       23  1    3    3    0    0 0.36271847E+03 0.55927879E+02 0.33645311E+03 0.50617049E+03 0.91188000E+02 0.0000E+00 0.9000E+01
#aMCatNLO 1  0  0  1  2 0.19574043D+03 0.00000000D+00  -5  7  0 0.00000000D+00 0.00000000D+00 0.00000000D+00 0.00000000D+00 0.00000000D+00
  <mgrwgt>
 0.1538817858D-05    1    2    0
 0.453196185070682D+03 0.000000000000000D+00 0.000000000000000D+00 0.453196185070682D+03
 0.453196185070682D+03 0.000000000000000D+00 0.000000000000000D+00 -.453196185070682D+03
 0.103596325294689D+03 0.166587734720494D+02 0.353301409156674D+02 -.298532021707716D+02
 0.326341171825926D+03 -.304313052033114D+03 -.106650732940193D+03 -.501771656665610D+02
 0.824708120677446D+02 -.750641963756138D+02 0.153927131135842D+02 -.304936985064033D+02
 0.393984060953005D+03 0.362718474936678D+03 0.559278789109413D+02 0.110524066343736D+03
 0.000000000000000D+00 0.000000000000000D+00 -.000000000000000D+00 -.000000000000000D+00
 0.534983567521316D+03 0.000000000000000D+00 0.000000000000000D+00 0.534983567521316D+03
 0.713432385958947D+03 0.000000000000000D+00 0.000000000000000D+00 -.713432385958947D+03
 0.113574923644743D+03 0.166547038682636D+01 0.607455715706992D+02 -.298532021707716D+02
 0.355995092460345D+03 -.351420919517617D+03 -.267972988734318D+02 -.501771656665610D+02
 0.998035405367223D+02 -.876482498661556D+02 0.367241793708954D+02 -.304936985064033D+02
 0.371116483639405D+03 0.309896637737858D+03 0.145467170737911D+03 0.110524066343736D+03
 0.307925913199048D+03 0.127507061259089D+03 -.216139622806074D+03 -.178448818437631D+03
0.147778002223D-06 0.000000000000D+00 0.000000000000D+00 0.480265345562D-07 0.000000000000D+00  7 -2 2 23 -13 13 23 21 2 0.11644969D+00 0.41745286D-01 0.19204215D+06 0.19204215D+06 0.19204215D+06 0.10991822D+01  1  2 14  1  7  1       -2 0.153881785818D-05 0.100000000000D+01
  </mgrwgt>
  </event>
  <event>
  9     66 0.28248871E-05 0.36278848E+03 0.75467711E-02 0.98102239E-01
       -2 -1    0    0    0  501 0.00000000E+00 0.00000000E+00 0.35818162E+03 0.35818176E+03 0.32000000E+00 0.0000E+00 0.9000E+01
        2 -1    0    0  502    0 0.00000000E+00 0.00000000E+00 -.48165525E+03 0.48165535E+03 0.32000000E+00 0.0000E+00 0.9000E+01
       25  2    1    2    0    0 -.31122410E+03 -.54138239E+02 -.19077418E+03 0.47537317E+03 0.29965559E+03 0.0000E+00 0.0000E+00
       23  2    1    2    0    0 0.31887973E+03 0.70804011E+02 0.58776206E+02 0.34422577E+03 0.91319472E+02 0.0000E+00 0.0000E+00
       23  1    3    3    0    0 -.18883534E+03 0.38735793E+02 -.20544353E+03 0.29611069E+03 0.91188000E+02 0.0000E+00 0.9000E+01
      -11  1    4    4    0    0 0.90745863E+02 -.11306926E+02 -.10535490E+02 0.92052457E+02 0.51099893E-03 0.0000E+00 0.9000E+01
       11  1    4    4    0    0 0.22813387E+03 0.82110937E+02 0.69311696E+02 0.25217331E+03 0.51099893E-03 0.0000E+00 0.9000E+01
       23  1    3    3    0    0 -.12238876E+03 -.92874032E+02 0.14669349E+02 0.17926248E+03 0.91188000E+02 0.0000E+00 0.9000E+01
       21  1    1    2  502  501 -.76556316E+01 -.16665772E+02 0.85243470E+01 0.20238173E+02 0.75000000E+00 0.0000E+00 0.9000E+01
#aMCatNLO 2  0  0  2  1 0.18340028D+02 0.00000000D+00  -5  7  0 0.00000000D+00 0.00000000D+00 0.00000000D+00 0.00000000D+00 0.00000000D+00
  <mgrwgt>
 0.7120085724D-04    2    2    0
 0.404345953086625D+03 0.000000000000000D+00 0.000000000000000D+00 0.404345953086625D+03
 0.404345953086625D+03 0.000000000000000D+00 0.000000000000000D+00 -.404345953086625D+03
 0.267560450663161D+03 -.191362915896104D+03 0.332334325415809D+02 -.159840910896801D+03
 0.909483005696358D+02 0.898821436815875D+02 -.131871829131677D+02 0.434647334306147D+01
 0.263035934571425D+03 0.225626205445471D+03 0.766519300509494D+02 0.111378633101710D+03
 0.187147220369027D+03 -.124145433230954D+03 -.966981796793627D+02 0.441158044520291D+02
 0.000000000000000D+00 -.000000000000000D+00 -.000000000000000D+00 0.000000000000000D+00
 0.421361594542065D+03 0.000000000000000D+00 0.000000000000000D+00 0.421361594542065D+03
 0.409422176952366D+03 0.000000000000000D+00 0.000000000000000D+00 -.409422176952366D+03
 0.266502560069784D+03 -.188835337680006D+03 0.387357925788051D+02 -.159840910896801D+03
 0.915508062754504D+02 0.907458634256040D+02 -.113069257671891D+02 0.434647334306147D+01
 0.266819167058543D+03 0.228133868746717D+03 0.821109367189583D+02 0.111378633101710D+03
 0.184027309438941D+03 -.122388762881092D+03 -.928740318567154D+02 0.441158044520291D+02
 0.218839286517112D+02 -.765563161122387D+01 -.166657716738590D+02 0.119394175896992D+02
-.212544957055D-05 0.000000000000D+00 0.000000000000D+00 0.486918026320D-06 0.000000000000D+00  7 -2 2 23 -11 11 23 21 2 0.52878785D-01 0.73180946D-01 0.13161548D+06 0.13161548D+06 0.13161548D+06 0.11120611D+01  1  2  8  2  7  2        2 -.718893318026D-04 0.100000000000D+01
0.467768133111D-05 0.000000000000D+00 0.000000000000D+00 0.486918026320D-06 0.952018667845D-08  7 -2 2 23 -11 11 23 21 2 0.55104024D-01 0.74099671D-01 0.13844249D+06 0.13844249D+06 0.13844249D+06 0.11103104D+01  1  2  1  2  7  2        2 0.143090189044D-03 0.100000000000D+01
  </mgrwgt>
  </event>
  <event>
  8     66 0.28248871E-05 0.38025704E+03 0.75467711E-02 0.90542197E-01
       -2 -1    0    0    0  501 0.00000000E+00 0.00000000E+00 0.95970636E+03 0.95970641E+03 0.32000000E+00 0.0000E+00 0.9000E+01
        2 -1    0    0  501    0 0.00000000E+00 0.00000000E+00 -.31436923E+03 0.31436939E+03 0.32000000E+00 0.0000E+00 0.9000E+01
       25  2    1    2    0    0 -.29879552E+03 -.10751977E+03 -.10740589E+03 0.45051324E+03 0.30097656E+03 0.0000E+00 0.0000E+00
       23  2    1    2    0    0 0.29879552E+03 0.10751977E+03 0.75274302E+03 0.82356257E+03 0.10389412E+03 0.0000E+00 0.0000E+00
       23  1    3    3    0    0 -.18431612E+03 -.17553787E+03 -.10218237E+03 0.28903714E+03 0.91188000E+02 0.0000E+00 0.9000E+01
      -13  1    4    4    0    0 0.19268026E+03 0.11139594E+03 0.57425995E+03 0.61588086E+03 0.10565837E+00 0.0000E+00 0.9000E+01
       13  1    4    4    0    0 0.10611527E+03 -.38761644E+01 0.17848307E+03 0.20768171E+03 0.10565837E+00 0.0000E+00 0.9000E+01
       23  1    3    3    0    0 -.11447940E+03 0.68018099E+02 -.52235121E+01 0.16147610E+03 0.91188000E+02 0.0000E+00 0.9000E+01
#aMCatNLO 1  0  0  2  1 0.54490589D+03 0.00000000D+00  -5  7  0 0.00000000D+00 0.00000000D+00 0.00000000D+00 0.00000000D+00 0.00000000D+00
  <mgrwgt>
 0.2931919435D-03    3    2    0
 0.549274327844897D+03 0.000000000000000D+00 0.000000000000000D+00 0.549274327844897D+03
 0.549274327844897D+03 0.000000000000000D+00 0.000000000000000D+00 -.549274327844897D+03
 0.395246313156438D+03 -.184316124808332D+03 -.175537873603042D+03 -.288302649634578D+03
 0.376940893595865D+03 0.192680352446797D+03 0.111396052913239D+03 0.304219720664487D+03
 0.136016015489253D+03 0.106115171931524D+03 -.387627849223023D+01 0.849994189425224D+02
 0.190345433448239D+03 -.114479399569989D+03 0.680180991820332D+02 -.100916489972431D+03
 0.000000000000000D+00 0.000000000000000D+00 0.000000000000000D+00 0.000000000000000D+00
 0.166608769208969D+04 0.000000000000000D+00 0.000000000000000D+00 0.166608769208969D+04
 0.683631151967457D+03 0.000000000000000D+00 0.000000000000000D+00 -.683631151967457D+03
 0.539564580579018D+03 -.213208910221235D+03 -.392731750801187D+03 -.288302649634578D+03
 0.353389030148102D+03 0.170107588362890D+03 -.582887344964668D+02 0.304219720664487D+03
 0.146794501474898D+03 0.973741702659300D+02 -.695844480305695D+02 0.849994189425224D+02
 0.186519225352263D+03 -.126127391468029D+03 -.195426010327001D+02 -.100916489972431D+03
 0.112345150650287D+04 0.718545430604446D+02 0.540147534360924D+03 0.982456540122234D+03
0.729564666533D-04 0.000000000000D+00 0.000000000000D+00 0.620900657183D-08 0.000000000000D+00  7 -2 2 23 -13 13 23 21 0 0.14764715D+00 0.48364514D-01 0.14459542D+06 0.14459542D+06 0.14459542D+06 0.11088117D+01  1  2  2  2  7  2        2 0.289086136931D-03 0.100000000000D+01
-.338666876191D-05 0.000000000000D+00 -.280172041828D-06 0.620900657183D-08 0.000000000000D+00  7 -2 2 23 -13 13 23 21 2 0.14764715D+00 0.48364514D-01 0.14459542D+06 0.14459542D+06 0.14459542D+06 0.11088117D+01  1  2  3  2  7  2        2 -.164987795294D-04 0.100000000000D+01
0.422945878790D-05 0.000000000000D+00 0.000000000000D+00 0.620900657183D-08 0.000000000000D+00  7 -2 2 23 -13 13 23 21 2 0.14764715D+00 0.48364514D-01 0.14459542D+06 0.14459542D+06 0.14459542D+06 0.11088117D+01  1  2 15  2  7  2        2 0.206045860921D-04 0.100000000000D+01
  </mgrwgt>
  </event>
  <event>
  8     66 0.28248871E-05 0.29691258E+03 0.75467711E-02 0.82923004E-01
       -2 -1    0    0    0  501 0.00000000E+00 0.00000000E+00 0.35247135E+03 0.35247150E+03 0.32000000E+00 0.0000E+00 0.9000E+01
        2 -1    0    0  501    0 0.00000000E+00 0.00000000E+00 -.10997167E+04 0.10997168E+04 0.32000000E+00 0.0000E+00 0.9000E+01
       25  2    1    2    0    0 0.58312699E+01 -.24132182E+03 -.10119035E+04 0.10827822E+04 0.30033070E+03 0.0000E+00 0.0000E+00
       23  2    1    2    0    0 -.58312699E+01 0.24132182E+03 0.26465807E+03 0.36940605E+03 0.90259129E+02 0.0000E+00 0.0000E+00
       23  1    3    3    0    0 -.22106871E+02 -.14466767E+02 -.98481124E+02 0.13679102E+03 0.91188000E+02 0.0000E+00 0.9000E+01
      -13  1    4    4    0    0 -.40542580E+02 0.12519341E+03 0.17343392E+03 0.21770720E+03 0.10565837E+00 0.0000E+00 0.9000E+01
       13  1    4    4    0    0 0.34711310E+02 0.11612842E+03 0.91224149E+02 0.15169885E+03 0.10565837E+00 0.0000E+00 0.9000E+01
       23  1    3    3    0    0 0.27938141E+02 -.22685506E+03 -.91342233E+03 0.94599121E+03 0.91188000E+02 0.0000E+00 0.9000E+01
#aMCatNLO 1  0  0  2  1 0.15696777D+04 0.00000000D+00  -5  7  0 0.00000000D+00 0.00000000D+00 0.00000000D+00 0.00000000D+00 0.00000000D+00
  <mgrwgt>
 0.4391154156D-03    3    2    0
 0.622590382593716D+03 0.000000000000000D+00 0.000000000000000D+00 0.622590382593716D+03
 0.622590382593716D+03 0.000000000000000D+00 0.000000000000000D+00 -.622590382593716D+03
 0.100432611807958D+03 -.221068713406816D+02 -.144667674538289D+02 -.327636543983020D+02
 0.357979959866274D+03 -.405426831137125D+02 0.125193420872502D+03 0.332915229273221D+03
 0.231662668511338D+03 0.347114132194438D+02 0.116128404115038D+03 0.197425691164543D+03
 0.555105525001861D+03 0.279381412349503D+02 -.226855057533711D+03 -.497577266039461D+03
 0.000000000000000D+00 -.000000000000000D+00 0.000000000000000D+00 0.000000000000000D+00
 0.243425416893034D+04 0.000000000000000D+00 0.000000000000000D+00 0.243425416893034D+04
 0.143180363829983D+04 0.000000000000000D+00 0.000000000000000D+00 -.143180363829983D+04
 0.134029879734284D+03 0.911618217283332D+02 -.162733686502464D+02 -.327636543983020D+02
 0.522397588729904D+03 0.384767197715675D+03 0.118409857658910D+03 0.332915229273221D+03
 0.414179420776725D+03 0.346717350294633D+03 0.111152004335569D+03 0.197425691164543D+03
 0.932980720274927D+03 0.746831739386925D+03 -.238321191726032D+03 -.497577266039461D+03
 0.186247019771432D+04 -.156947810912557D+04 0.250326983817995D+02 0.100245053063051D+04
0.451002295975D-04 0.000000000000D+00 0.000000000000D+00 0.142654598873D-05 0.000000000000D+00  7 -2 2 23 -13 13 23 21 0 0.54226377D-01 0.16918721D+00 0.88157080D+05 0.88157080D+05 0.88157080D+05 0.11262422D+01  1  2  2  2  7  2        2 0.418190430493D-03 0.100000000000D+01
-.835322216134D-06 0.000000000000D+00 -.173196756818D-06 0.142654598873D-05 0.000000000000D+00  7 -2 2 23 -13 13 23 21 2 0.54226377D-01 0.16918721D+00 0.88157080D+05 0.88157080D+05 0.88157080D+05 0.11262422D+01  1  2  3  2  7  2        2 -.982455661161D-05 0.100000000000D+01
0.261444626727D-05 0.000000000000D+00 0.000000000000D+00 0.142654598873D-05 0.000000000000D+00  7 -2 2 23 -13 13 23 21 2 0.54226377D-01 0.16918721D+00 0.88157080D+05 0.88157080D+05 0.88157080D+05 0.11262422D+01  1  2 15  2  7  2        2 0.307495417513D-04 0.100000000000D+01
  </mgrwgt>
  </event>
  <event>
  8     66 0.28248871E-05 0.15068969E+03 0.75467711E-02 0.81039675E-01
       -2 -1    0    0    0  501 0.00000000E+00 0.00000000E+00 0.14190816E+03 0.14190852E+03 0.32000000E+00 0.0000E+00 0.9000E+01
        2 -1    0    0  501    0 0.00000000E+00 0.00000000E+00 -.49169554E+03 0.49169565E+03 0.32000000E+00 0.0000E+00 0.9000E+01
       25  2    1    2    0    0 -.75417523E+02 -.17530236E+02 -.39687719E+03 0.50315403E+03 0.29942839E+03 0.0000E+00 0.0000E+00
       23  2    1    2    0    0 0.75417523E+02 0.17530236E+02 0.47089802E+02 0.13045014E+03 0.93833242E+02 0.0000E+00 0.0000E+00
       23  1    3    3    0    0 -.33798326E+01 0.10640035E+02 -.34248152E+01 0.91932662E+02 0.91188000E+02 0.0000E+00 0.9000E+01
      -13  1    4    4    0    0 0.32257255E+02 -.15305584E+02 0.64304955E+02 0.73552225E+02 0.10565837E+00 0.0000E+00 0.9000E+01
       13  1    4    4    0    0 0.43160268E+02 0.32835820E+02 -.17215154E+02 0.56897913E+02 0.10565837E+00 0.0000E+00 0.9000E+01
       23  1    3    3    0    0 -.72037690E+02 -.28170271E+02 -.39345237E+03 0.41122137E+03 0.91188000E+02 0.0000E+00 0.9000E+01
#aMCatNLO 1  0  0  2  1 0.20212231D+04 0.00000000D+00  -5  7  0 0.00000000D+00 0.00000000D+00 0.00000000D+00 0.00000000D+00 0.00000000D+00
  <mgrwgt>
 0.2264321842D-03    5    2    0
 0.264151010624691D+03 0.000000000000000D+00 0.000000000000000D+00 0.264151010624691D+03
 0.264151010624691D+03 0.000000000000000D+00 0.000000000000000D+00 -.264151010624691D+03
 0.107989288978846D+03 -.337983382212583D+01 0.106400347037122D+02 0.567609159104681D+02
 0.130789028947065D+03 0.322572463193580D+02 -.153056403013687D+02 0.125821212550880D+03
 0.568407067911154D+02 0.431602794995716D+02 0.328358767650299D+02 0.170253170045136D+02
 0.232682996532356D+03 -.720376919968038D+02 -.281702711673733D+02 -.199607445465861D+03
 0.000000000000000D+00 0.000000000000000D+00 0.000000000000000D+00 -.000000000000000D+00
 0.203499830033199D+04 0.000000000000000D+00 0.000000000000000D+00 0.203499830033199D+04
 0.207576145346744D+04 0.000000000000000D+00 0.000000000000000D+00 -.207576145346744D+04
 0.432600462953497D+03 -.414318831717897D+03 -.628173010603087D+02 0.567609159104681D+02
 0.406011430079122D+03 -.375801252595397D+03 -.882480729242911D+02 0.125821212550880D+03
 0.401161398653377D+02 -.305432068534648D+02 0.196610216849892D+02 0.170253170045136D+02
 0.121039759997135D+04 -.116902129571906D+04 -.224261402257078D+03 -.199607445465861D+03
 0.202163412093013D+04 0.198968458688582D+04 0.355665754556689D+03 -.407631531354504D+02
0.168252280176D-05 0.000000000000D+00 0.000000000000D+00 0.390390488689D-07 0.000000000000D+00  7 -2 2 23 -13 13 23 21 0 0.21832060D-01 0.75645504D-01 0.22707383D+05 0.22707383D+05 0.22707383D+05 0.11787274D+01  1  2  2  2  7  2        2 0.218867511487D-03 0.100000000000D+01
-.576673623210D-07 0.000000000000D+00 -.646133057720D-08 0.390390488689D-07 0.000000000000D+00  7 -2 2 23 -13 13 23 21 2 0.21832060D-01 0.75645504D-01 0.22707383D+05 0.22707383D+05 0.22707383D+05 0.11787274D+01  1  2  3  2  7  2        2 -.104226266154D-04 0.100000000000D+01
0.993006708504D-07 0.000000000000D+00 0.000000000000D+00 0.390390488689D-07 0.000000000000D+00  7 -2 2 23 -13 13 23 21 2 0.21832060D-01 0.75645504D-01 0.22707383D+05 0.22707383D+05 0.22707383D+05 0.11787274D+01  1  2 15  2  7  2        2 0.179473062973D-04 0.100000000000D+01
0.556408569459D-05 0.000000000000D+00 -.142124691849D-05 0.390390488689D-07 0.000000000000D+00  7 -2 2 23 -13 13 23 21 2 0.21832060D-01 0.88397224D+00 0.22707383D+05 0.22707383D+05 0.22707383D+05 0.11787274D+01  1  2  5  2  7  2        2 0.399643750814D-07 0.100000000000D+01
0.133463295688D-05 0.000000000000D+00 -.408097455875D-06 0.390390488689D-07 0.000000000000D+00  7 -2 21 23 -13 13 23 -2 2 0.21832060D-01 0.88397224D+00 0.22707383D+05 0.22707383D+05 0.22707383D+05 0.11787274D+01  1  2  5  4  7  2        2 0.286385784765D-10 0.100000000000D+01
  </mgrwgt>
  </event>
  <event>
  8     66 0.28248871E-05 0.27842080E+03 0.75467711E-02 0.87988813E-01
       -2 -1    0    0    0  501 0.00000000E+00 0.00000000E+00 0.13569545E+03 0.13569583E+03 0.32000000E+00 0.0000E+00 0.9000E+01
        2 -1    0    0  501    0 0.00000000E+00 0.00000000E+00 -.76263625E+03 0.76263632E+03 0.32000000E+00 0.0000E+00 0.9000E+01
       25  2    1    2    0    0 -.16041705E+03 -.90520495E+02 -.16373971E+03 0.38841191E+03 0.30020915E+03 0.0000E+00 0.0000E+00
       23  2    1    2    0    0 0.16041705E+03 0.90520495E+02 -.46320109E+03 0.50992023E+03 0.10740486E+03 0.0000E+00 0.0000E+00
       23  1    3    3    0    0 0.39167478E+02 0.17283321E+02 -.13965759E+02 0.10170102E+03 0.91188000E+02 0.0000E+00 0.9000E+01
      -13  1    4    4    0    0 0.37713188E+02 -.23239319E+02 -.73522663E+02 0.85836727E+02 0.10565837E+00 0.0000E+00 0.9000E+01
       13  1    4    4    0    0 0.12270386E+03 0.11375981E+03 -.38967842E+03 0.42408350E+03 0.10565837E+00 0.0000E+00 0.9000E+01
       23  1    3    3    0    0 -.19958453E+03 -.10780382E+03 -.14977395E+03 0.28671089E+03 0.91188000E+02 0.0000E+00 0.9000E+01
#aMCatNLO 1  0  0  1  1 0.85560168D+03 0.00000000D+00  -5  7  0 0.00000000D+00 0.00000000D+00 0.00000000D+00 0.00000000D+00 0.00000000D+00
  <mgrwgt>
 0.2194946621D-03    5    2    0
 0.321693129936228D+03 0.000000000000000D+00 0.000000000000000D+00 0.321693129936228D+03
 0.321693129936228D+03 0.000000000000000D+00 0.000000000000000D+00 -.321693129936228D+03
 0.128391919434184D+03 0.391674642834978D+02 0.172833129634191D+02 0.796016988926961D+02
 0.482065106265880D+02 0.377130967665504D+02 -.232393653276458D+02 -.190137292038243D+02
 0.212411507939966D+03 0.122703994150479D+03 0.113759882927116D+03 -.130847497344268D+03
 0.254376321871718D+03 -.199584555200527D+03 -.107803830562889D+03 0.702595276553965D+02
 0.000000000000000D+00 -.000000000000000D+00 0.000000000000000D+00 0.000000000000000D+00
 0.117532118647099D+04 0.000000000000000D+00 0.000000000000000D+00 0.117532118647099D+04
 0.821186968691432D+03 0.000000000000000D+00 0.000000000000000D+00 -.821186968691432D+03
 0.230600301522172D+03 0.157106834595627D+03 -.117653133298078D+03 0.796016988926961D+02
 0.136483820792384D+03 0.983892343504348D+02 -.926599698024263D+02 -.190137292038243D+02
 0.346905583170745D+03 0.306455902073934D+03 -.964738107354902D+02 -.130847497344268D+03
 0.356524241018624D+03 0.111402127189078D+01 -.337426496914739D+03 0.702595276553965D+02
 0.925994208658500D+03 -.563065992291887D+03 0.644213410750733D+03 0.354134217779560D+03
0.242915264556D-05 0.000000000000D+00 0.000000000000D+00 0.382475099417D-08 0.000000000000D+00  7 -2 2 23 -13 13 23 21 0 0.20876258D-01 0.11732869D+00 0.77518143D+05 0.77518143D+05 0.77518143D+05 0.11309124D+01  1  2  2  1  7  1       -2 0.206155596138D-03 0.100000000000D+01
-.131528515475D-06 0.000000000000D+00 -.932858576954D-08 0.382475099417D-08 0.000000000000D+00  7 -2 2 23 -13 13 23 21 2 0.20876258D-01 0.11732869D+00 0.77518143D+05 0.77518143D+05 0.77518143D+05 0.11309124D+01  1  2  3  1  7  1       -2 -.142763815109D-04 0.100000000000D+01
0.152199887814D-06 0.000000000000D+00 0.000000000000D+00 0.382475099417D-08 0.000000000000D+00  7 -2 2 23 -13 13 23 21 2 0.20876258D-01 0.11732869D+00 0.77518143D+05 0.77518143D+05 0.77518143D+05 0.11309124D+01  1  2 15  1  7  1       -2 0.165200957108D-04 0.100000000000D+01
0.351135102338D-05 0.000000000000D+00 -.149240951746D-05 0.382475099417D-08 0.000000000000D+00  7 -2 2 23 -13 13 23 21 2 0.17686630D+00 0.11732869D+00 0.77518143D+05 0.77518143D+05 0.77518143D+05 0.11309124D+01  1  2  5  1  7  1       -2 0.404049468083D-05 0.100000000000D+01
0.712548418180D-06 0.000000000000D+00 -.385456559794D-06 0.382475099417D-08 0.000000000000D+00  7 21 2 23 -13 13 23 2 2 0.17686630D+00 0.11732869D+00 0.77518143D+05 0.77518143D+05 0.77518143D+05 0.11309124D+01  1  2  5  3  7  1       -2 0.705485707791D-05 0.100000000000D+01
  </mgrwgt>
  </event>
  <event>
  8     66 0.28248871E-05 0.13244326E+04 0.75467711E-02 0.81155607E-01
       -2 -1    0    0    0  501 0.00000000E+00 0.00000000E+00 0.10522025E+04 0.10522025E+04 0.32000000E+00 0.0000E+00 0.9000E+01
        2 -1    0    0  501    0 0.00000000E+00 0.00000000E+00 -.16736238E+04 0.16736239E+04 0.32000000E+00 0.0000E+00 0.9000E+01
       25  2    1    2    0    0 -.23420175E+03 0.12868157E+04 -.33380567E+03 0.13829519E+04 0.30064051E+03 0.0000E+00 0.0000E+00
       23  2    1    2    0    0 0.23420175E+03 -.12868157E+04 -.28761572E+03 0.13428744E+04 0.99216068E+02 0.0000E+00 0.0000E+00
       23  1    3    3    0    0 -.38483670E+02 0.13800639E+03 -.75355977E+02 0.18579702E+03 0.91188000E+02 0.0000E+00 0.9000E+01
      -11  1    4    4    0    0 0.71182930E+02 -.60033549E+03 -.99685347E+02 0.61270456E+03 0.51099893E-03 0.0000E+00 0.9000E+01
       11  1    4    4    0    0 0.16301882E+03 -.68648022E+03 -.18793037E+03 0.73016988E+03 0.51099893E-03 0.0000E+00 0.9000E+01
       23  1    3    3    0    0 -.19571808E+03 0.11488093E+04 -.25844969E+03 0.11971549E+04 0.91188000E+02 0.0000E+00 0.9000E+01
#aMCatNLO 1  0  0  2  2 0.11300242D+04 0.00000000D+00  -5  7  0 0.00000000D+00 0.00000000D+00 0.00000000D+00 0.00000000D+00 0.00000000D+00
  <mgrwgt>
 0.2041167387D-03    6    2    0
 0.132702344883924D+04 0.000000000000000D+00 0.000000000000000D+00 0.132702344883924D+04
 0.132702344883924D+04 0.000000000000000D+00 0.000000000000000D+00 -.132702344883924D+04
 0.173178021893477D+03 -.384836697199677D+02 0.138006389707751D+03 -.338912892592528D+02
 0.605934900445276D+03 0.711829297586814D+02 -.600335487236419D+03 0.410779363309342D+02
 0.705915325858937D+03 0.163018817993624D+03 -.686480224701521D+03 -.220502461718890D+02
 0.116901864948078D+04 -.195718078032338D+03 0.114880932223019D+04 0.148635991002076D+02
 0.000000000000000D+00 -.000000000000000D+00 -.000000000000000D+00 -.000000000000000D+00
 0.190794176987903D+04 0.000000000000000D+00 0.000000000000000D+00 0.190794176987903D+04
 0.212788901645477D+04 0.000000000000000D+00 0.000000000000000D+00 -.212788901645477D+04
 0.228439485982121D+03 0.635106530379048D+01 0.206592332610938D+03 -.338912892592528D+02
 0.461205367454439D+03 0.190313570744796D+03 -.418095370586594D+03 0.410779363309342D+02
 0.560565258989577D+03 0.304402896926772D+03 -.470197907877524D+03 -.220502461718890D+02
 0.163439029730402D+04 0.117241628224448D+03 0.162755948174271D+04 0.148635991002076D+02
 0.115123037660363D+04 -.618309161199807D+03 -.945858535889531D+03 -.219947246575742D+03
0.513330204544D-03 0.000000000000D+00 0.000000000000D+00 0.701049784284D-07 0.000000000000D+00  7 -2 2 23 -11 11 23 21 0 0.16187731D+00 0.25748060D+00 0.17541218D+07 0.17541218D+07 0.17541218D+07 0.10319940D+01  1  2  2  2  7  2        2 0.140978173052D-03 0.100000000000D+01
-.285182122718D-04 0.000000000000D+00 -.197132314840D-05 0.701049784284D-07 0.000000000000D+00  7 -2 2 23 -11 11 23 21 2 0.16187731D+00 0.25748060D+00 0.17541218D+07 0.17541218D+07 0.17541218D+07 0.10319940D+01  1  2  3  2  7  2        2 -.834126132675D-05 0.100000000000D+01
0.313100437922D-04 0.000000000000D+00 0.000000000000D+00 0.701049784284D-07 0.000000000000D+00  7 -2 2 23 -11 11 23 21 2 0.16187731D+00 0.25748060D+00 0.17541218D+07 0.17541218D+07 0.17541218D+07 0.10319940D+01  1  2 15  2  7  2        2 0.915784113444D-05 0.100000000000D+01
-.175213001471D-03 0.000000000000D+00 -.140872655150D-03 0.701049784284D-07 0.000000000000D+00  7 -2 2 23 -11 11 23 21 2 0.16187731D+00 0.47585377D+00 0.17541218D+07 0.17541218D+07 0.17541218D+07 0.10319940D+01  1  2  5  2  7  2        2 -.737062064224D-05 0.100000000000D+01
0.238305593666D-03 0.000000000000D+00 0.117924198933D-03 0.701049784284D-07 0.000000000000D+00  7 -2 2 23 -11 11 23 21 2 0.16187731D+00 0.25748060D+00 0.17541218D+07 0.17541218D+07 0.17541218D+07 0.10319940D+01  1  2  6  2  7  2        2 0.697017475518D-04 0.100000000000D+01
-.396545712844D-05 0.000000000000D+00 -.943957441988D-05 0.701049784284D-07 0.000000000000D+00  7 -2 21 23 -11 11 23 -2 2 0.16187731D+00 0.47585377D+00 0.17541218D+07 0.17541218D+07 0.17541218D+07 0.10319940D+01  1  2  5  4  7  2        2 -.914103586876D-08 0.100000000000D+01
  </mgrwgt>
  </event>
  <event>
  8     66 0.28248871E-05 0.18308251E+03 0.75467711E-02 0.10716617E+00
       -2 -1    0    0    0  501 0.00000000E+00 0.00000000E+00 0.75043080E+02 0.75043762E+02 0.32000000E+00 0.0000E+00 0.9000E+01
        2 -1    0    0  501    0 0.00000000E+00 0.00000000E+00 -.64983005E+03 0.64983013E+03 0.32000000E+00 0.0000E+00 0.9000E+01
       25  2    1    2    0    0 -.49704007E+02 -.66607856E+02 -.36088556E+03 0.47706459E+03 0.30074098E+03 0.0000E+00 0.0000E+00
       23  2    1    2    0    0 0.49704007E+02 0.66607856E+02 -.21390141E+03 0.24780930E+03 0.93533645E+02 0.0000E+00 0.0000E+00
       23  1    3    3    0    0 -.10996227E+03 -.88355988E+02 -.31411730E+03 0.35620698E+03 0.91188000E+02 0.0000E+00 0.9000E+01
      -11  1    4    4    0    0 0.61339347E+01 -.11065536E+01 -.13476947E+03 0.13491353E+03 0.51099893E-03 0.0000E+00 0.9000E+01
       11  1    4    4    0    0 0.43570072E+02 0.67714409E+02 -.79131941E+02 0.11289578E+03 0.51099893E-03 0.0000E+00 0.9000E+01
       23  1    3    3    0    0 0.60258267E+02 0.21748132E+02 -.46768257E+02 0.12085761E+03 0.91188000E+02 0.0000E+00 0.9000E+01
#aMCatNLO 1  0  0  1  2 0.12574250D+02 0.00000000D+00  -5  7  0 0.00000000D+00 0.00000000D+00 0.00000000D+00 0.00000000D+00 0.00000000D+00
  <mgrwgt>
 0.1096329319D-03    4    2    0
 0.220829174689168D+03 0.000000000000000D+00 0.000000000000000D+00 0.220829174689168D+03
 0.220829174689168D+03 0.000000000000000D+00 0.000000000000000D+00 -.220829174689168D+03
 0.175825065226057D+03 -.109962273949853D+03 -.883559886846210D+02 -.519684499392440D+02
 0.460345821428747D+02 0.613393530912984D+01 -.110655253127423D+01 -.456106690609557D+02
 0.823061373422406D+02 0.435700722778376D+02 0.677144096410090D+02 0.170501546290178D+02
 0.137492564667164D+03 0.602582663628859D+02 0.217481315748863D+02 0.805289643711818D+02
 0.000000000000000D+00 0.000000000000000D+00 -.000000000000000D+00 -.000000000000000D+00
 0.223411048758210D+03 0.000000000000000D+00 0.000000000000000D+00 0.223411048758210D+03
 0.236778086807767D+03 0.000000000000000D+00 0.000000000000000D+00 -.236778086807767D+03
 0.178942136423671D+03 -.115008698174770D+03 -.881890945577992D+02 -.519684499392440D+02
 0.458776531932677D+02 0.482651982988115D+01 -.106331400136127D+01 -.456106690609557D+02
 0.811634256600540D+02 0.412447818932268D+02 0.677913110846947D+02 0.170501546290178D+02
 0.135854095660607D+03 0.563700173870401D+02 0.218767228087516D+02 0.805289643711818D+02
 0.183518246283779D+02 0.125673790646225D+02 -.415625334285824D+00 -.133670380495579D+02
0.830717198848D-06 0.000000000000D+00 0.000000000000D+00 0.114249030701D-07 0.000000000000D+00  7 -2 2 23 -11 11 23 21 0 0.11545148D-01 0.99973912D-01 0.33519206D+05 0.33519206D+05 0.33519206D+05 0.11628926D+01  1  2  2  1  7  1       -2 0.218369810291D-03 0.100000000000D+01
-.441792378999D-07 0.000000000000D+00 -.319017277644D-08 0.114249030701D-07 0.000000000000D+00  7 -2 2 23 -11 11 23 21 2 0.11545148D-01 0.99973912D-01 0.33519206D+05 0.33519206D+05 0.33519206D+05 0.11628926D+01  1  2  3  1  7  1       -2 -.157049601249D-04 0.100000000000D+01
0.530494560595D-07 0.000000000000D+00 0.000000000000D+00 0.114249030701D-07 0.000000000000D+00  7 -2 2 23 -11 11 23 21 2 0.11545148D-01 0.99973912D-01 0.33519206D+05 0.33519206D+05 0.33519206D+05 0.11628926D+01  1  2 15  1  7  1       -2 0.188581703005D-04 0.100000000000D+01
-.314755262124D-06 0.000000000000D+00 0.000000000000D+00 0.114249030701D-07 0.000000000000D+00  7 -2 2 23 -11 11 23 21 2 0.11545148D-01 0.99973912D-01 0.33519206D+05 0.33519206D+05 0.33519206D+05 0.11628926D+01  1  2  4  1  7  1       -2 -.111890088551D-03 0.100000000000D+01
  </mgrwgt>
  </event>
  <event>
  8     66 0.28248871E-05 0.17320501E+03 0.75467711E-02 0.10012045E+00
       -2 -1    0    0    0  501 0.00000000E+00 0.00000000E+00 0.27065202E+03 0.27065221E+03 0.32000000E+00 0.0000E+00 0.9000E+01
        2 -1    0    0  501    0 0.00000000E+00 0.00000000E+00 -.34869222E+03 0.34869237E+03 0.32000000E+00 0.0000E+00 0.9000E+01
       25  2    1    2    0    0 -.31686403E+01 -.22305967E+03 -.55007725E+02 0.37786612E+03 0.29998550E+03 0.0000E+00 0.0000E+00
       23  2    1    2    0    0 0.31686403E+01 0.22305967E+03 -.23032479E+02 0.24147846E+03 0.89530407E+02 0.0000E+00 0.0000E+00
       23  1    3    3    0    0 -.79088702E+02 -.13119842E+03 -.11940688E+03 0.21457238E+03 0.91188000E+02 0.0000E+00 0.9000E+01
      -11  1    4    4    0    0 0.22013995E+02 0.70593039E+01 -.65693120E+01 0.24033427E+02 0.51099893E-03 0.0000E+00 0.9000E+01
       11  1    4    4    0    0 -.18845355E+02 0.21600037E+03 -.16463167E+02 0.21744503E+03 0.51099893E-03 0.0000E+00 0.9000E+01
       23  1    3    3    0    0 0.75920062E+02 -.91861245E+02 0.64399159E+02 0.16329374E+03 0.91188000E+02 0.0000E+00 0.9000E+01
#aMCatNLO 1  0  0  1  2 0.63878790D+02 0.00000000D+00  -5  7  0 0.00000000D+00 0.00000000D+00 0.00000000D+00 0.00000000D+00 0.00000000D+00
  <mgrwgt>
 0.2694733793D-03    9    2    0
 0.307204098926906D+03 0.000000000000000D+00 0.000000000000000D+00 0.307204098926906D+03
 0.307204098926906D+03 0.000000000000000D+00 0.000000000000000D+00 -.307204098926906D+03
 0.201129641568809D+03 -.790887020152561D+02 -.131198424643178D+03 -.931119324162476D+02
 0.233921068911642D+02 0.220139950956033D+02 0.705930385198813D+01 -.356944167394734D+01
 0.217100963323824D+03 -.188453548440456D+02 0.216000365382234D+03 0.110237485310447D+02
 0.172785486070014D+03 0.759200617636985D+02 -.918612445910442D+02 0.856576255591503D+02
 0.000000000000000D+00 -.000000000000000D+00 -.000000000000000D+00 0.000000000000000D+00
 0.399368797317234D+03 0.000000000000000D+00 0.000000000000000D+00 0.399368797317234D+03
 0.320130973677181D+03 0.000000000000000D+00 0.000000000000000D+00 -.320130973677181D+03
 0.186290671820055D+03 -.691104875824273D+02 -.113766742112968D+03 -.931119324162476D+02
 0.252921820483490D+02 0.232678846252952D+02 0.924981642883072D+01 -.356944167394734D+01
 0.236787738879146D+03 -.715521201285704D+01 0.236422742545792D+03 0.110237485310447D+02
 0.169349354631469D+03 0.847319249713835D+02 -.764671474837871D+02 0.856576255591503D+02
 0.101779823615397D+03 -.317341100013944D+02 -.554386693778673D+02 0.792378236400532D+02
0.336008069390D-05 0.000000000000D+00 0.000000000000D+00 0.139659327434D-06 0.000000000000D+00  7 -2 2 23 -11 11 23 21 0 0.41638798D-01 0.53644983D-01 0.80734526D+05 0.80734526D+05 0.80734526D+05 0.11294296D+01  1  2  2  1  7  1       -2 0.205900489268D-03 0.100000000000D+01
-.185288469421D-06 0.000000000000D+00 -.129035945941D-07 0.139659327434D-06 0.000000000000D+00  7 -2 2 23 -11 11 23 21 2 0.41638798D-01 0.53644983D-01 0.80734526D+05 0.80734526D+05 0.80734526D+05 0.11294296D+01  1  2  3  1  7  1       -2 -.144835301442D-04 0.100000000000D+01
0.209538756655D-06 0.000000000000D+00 0.000000000000D+00 0.139659327434D-06 0.000000000000D+00  7 -2 2 23 -11 11 23 21 2 0.41638798D-01 0.53644983D-01 0.80734526D+05 0.80734526D+05 0.80734526D+05 0.11294296D+01  1  2 15  1  7  1       -2 0.163791136485D-04 0.100000000000D+01
0.647059655672D-05 0.000000000000D+00 0.000000000000D+00 0.139659327434D-06 0.000000000000D+00  7 -2 2 23 -11 11 23 21 2 0.54816034D-01 0.53644983D-01 0.10013728D+06 0.10013728D+06 0.10013728D+06 0.11216732D+01  1  2 12  1  7  1       -2 0.292432795328D-03 0.100000000000D+01
-.662358534288D-05 0.000000000000D+00 0.000000000000D+00 0.139659327434D-06 0.000000000000D+00  7 -2 2 23 -11 11 23 21 2 0.41638798D-01 0.53644983D-01 0.80734526D+05 0.80734526D+05 0.80734526D+05 0.11294296D+01  1  2  4  1  7  1       -2 -.517748882466D-03 0.100000000000D+01
-.901020194977D-05 0.000000000000D+00 -.170662967749D-05 0.139659327434D-06 0.000000000000D+00  7 -2 2 23 -11 11 23 21 2 0.55785446D-01 0.53644983D-01 0.80734526D+05 0.80734526D+05 0.80734526D+05 0.11294296D+01  1  2  5  1  7  1       -2 -.399483838780D-03 0.100000000000D+01
0.918420116456D-05 0.000000000000D+00 0.163614732166D-05 0.139659327434D-06 0.000000000000D+00  7 -2 2 23 -11 11 23 21 2 0.41638798D-01 0.53644983D-01 0.80734526D+05 0.80734526D+05 0.80734526D+05 0.11294296D+01  1  2  6  1  7  1       -2 0.717905732793D-03 0.100000000000D+01
0.234796607192D-06 0.000000000000D+00 0.000000000000D+00 0.139659327434D-06 0.000000000000D+00  7 21 2 23 -11 11 23 2 2 0.54816034D-01 0.53644983D-01 0.10013728D+06 0.10013728D+06 0.10013728D+06 0.11216732D+01  1  2 12  3  7  1       -2 0.112403909391D-03 0.100000000000D+01
-.305174488506D-06 0.000000000000D+00 -.647701774026D-07 0.139659327434D-06 0.000000000000D+00  7 21 2 23 -11 11 23 2 2 0.55785446D-01 0.53644983D-01 0.80734526D+05 0.80734526D+05 0.80734526D+05 0.11294296D+01  1  2  5  3  7  1       -2 -.143832409721D-03 0.100000000000D+01
  </mgrwgt>
  </event>
  <event>
  8     66 0.28248871E-05 0.24003452E+03 0.75467711E-02 0.10348633E+00
       -2 -1    0    0    0  501 0.00000000E+00 0.00000000E+00 0.92256796E+03 0.92256802E+03 0.32000000E+00 0.0000E+00 0.9000E+01
        2 -1    0    0  501    0 0.00000000E+00 0.00000000E+00 -.13579013E+03 0.13579051E+03 0.32000000E+00 0.0000E+00 0.9000E+01
       25  2    1    2    0    0 -.33539825E+02 -.16824454E+03 0.79422826E+03 0.86390660E+03 0.29343644E+03 0.0000E+00 0.0000E+00
       23  2    1    2    0    0 0.33539825E+02 0.16824454E+03 -.74504298E+01 0.19445193E+03 0.91240875E+02 0.0000E+00 0.0000E+00
       23  1    3    3    0    0 0.46198564E+02 -.15634337E+03 0.64407884E+03 0.67061939E+03 0.91188000E+02 0.0000E+00 0.9000E+01
      -11  1    4    4    0    0 0.13493947E+02 0.68718085E+02 0.41857696E+02 0.81586325E+02 0.51099893E-03 0.0000E+00 0.9000E+01
       11  1    4    4    0    0 0.20045878E+02 0.99526460E+02 -.49308125E+02 0.11286560E+03 0.51099893E-03 0.0000E+00 0.9000E+01
       23  1    3    3    0    0 -.79738389E+02 -.11901177E+02 0.15014942E+03 0.19328722E+03 0.91188000E+02 0.0000E+00 0.9000E+01
#aMCatNLO 1  0  0  2  1 0.10814293D+02 0.00000000D+00  -5  7  0 0.00000000D+00 0.00000000D+00 0.00000000D+00 0.00000000D+00 0.00000000D+00
  <mgrwgt>
 0.9073470124D-03    4    2    0
 0.353943296397183D+03 0.000000000000000D+00 0.000000000000000D+00 0.353943296397183D+03
 0.353943296397183D+03 0.000000000000000D+00 0.000000000000000D+00 -.353943296397183D+03
 0.286781524206601D+03 0.461985635965146D+02 -.156343367883090D+03 0.217602470856497D+03
 0.754568278164644D+02 0.134939473904928D+02 0.687180850275544D+02 -.280975272593864D+02
 0.223548258513808D+03 0.200458776184482D+02 0.995264598865918D+02 -.199164430703640D+03
 0.122099982257494D+03 -.797383886054556D+02 -.119011770310564D+02 0.965948710652906D+01
 0.000000000000000D+00 0.000000000000000D+00 0.000000000000000D+00 0.000000000000000D+00
 0.366710019398898D+03 0.000000000000000D+00 0.000000000000000D+00 0.366710019398898D+03
 0.356282141060230D+03 0.000000000000000D+00 0.000000000000000D+00 -.356282141060230D+03
 0.288601127638032D+03 0.441545798759992D+02 -.160233883068048D+03 0.217602470856497D+03
 0.744404108399957D+02 0.129614539018870D+02 0.677045378145707D+02 -.280975272593864D+02
 0.222085915822294D+03 0.184628111239544D+02 0.965132537764792D+02 -.199164430703640D+03
 0.122841737956640D+03 -.806085171833465D+02 -.135573783066212D+02 0.965948710652906D+01
 0.150229682021659D+02 0.502967228150598D+01 0.957346978361953D+01 0.104278783386680D+02
0.122360247604D-03 0.000000000000D+00 0.000000000000D+00 0.705009208445D-08 0.000000000000D+00  7 -2 2 23 -11 11 23 21 0 0.14193357D+00 0.20890823D-01 0.57616569D+05 0.57616569D+05 0.57616569D+05 0.11419181D+01  1  2  2  2  7  2        2 0.142221190132D-02 0.100000000000D+01
-.555125535901D-05 0.000000000000D+00 -.469895568994D-06 0.705009208445D-08 0.000000000000D+00  7 -2 2 23 -11 11 23 21 2 0.14193357D+00 0.20890823D-01 0.57616569D+05 0.57616569D+05 0.57616569D+05 0.11419181D+01  1  2  3  2  7  2        2 -.841366296375D-04 0.100000000000D+01
0.746556913742D-05 0.000000000000D+00 0.000000000000D+00 0.705009208445D-08 0.000000000000D+00  7 -2 2 23 -11 11 23 21 2 0.14193357D+00 0.20890823D-01 0.57616569D+05 0.57616569D+05 0.57616569D+05 0.11419181D+01  1  2 15  2  7  2        2 0.113150591159D-03 0.100000000000D+01
-.358846128785D-04 0.000000000000D+00 0.000000000000D+00 0.705009208445D-08 0.000000000000D+00  7 -2 2 23 -11 11 23 21 2 0.14193357D+00 0.20890823D-01 0.57616569D+05 0.57616569D+05 0.57616569D+05 0.11419181D+01  1  2  4  2  7  2        2 -.543878850491D-03 0.100000000000D+01
  </mgrwgt>
  </event>
  <event>
  9     66 0.28248871E-05 0.66682437E+03 0.75467711E-02 0.89752190E-01
       -2 -1    0    0    0  501 0.00000000E+00 0.00000000E+00 0.42479591E+03 0.42479603E+03 0.32000000E+00 0.0000E+00 0.9000E+01
        2 -1    0    0  502    0 0.00000000E+00 0.00000000E+00 -.21858068E+04 0.21858068E+04 0.32000000E+00 0.0000E+00 0.9000E+01
       25  2    1    2    0    0 -.39755145E+03 -.60467764E+03 -.17536091E+03 0.80459043E+03 0.30484767E+03 0.0000E+00 0.0000E+00
       23  2    1    2    0    0 0.18393567E+03 0.54736290E+03 -.80625975E+03 0.99584803E+03 0.90664359E+02 0.0000E+00 0.0000E+00
       23  1    3    3    0    0 -.31903414E+03 -.32570433E+03 -.25064169E+02 0.46562813E+03 0.91188000E+02 0.0000E+00 0.9000E+01
      -13  1    4    4    0    0 0.12974627E+03 0.25043625E+03 -.41267863E+03 0.49985605E+03 0.10565837E+00 0.0000E+00 0.9000E+01
       13  1    4    4    0    0 0.54189403E+02 0.29692665E+03 -.39358112E+03 0.49599198E+03 0.10565837E+00 0.0000E+00 0.9000E+01
       23  1    3    3    0    0 -.78517313E+02 -.27897330E+03 -.15029675E+03 0.33896229E+03 0.91188000E+02 0.0000E+00 0.9000E+01
       21  1    1    2  502  501 0.21361578E+03 0.57314736E+02 -.77939025E+03 0.81016443E+03 0.75000000E+00 0.0000E+00 0.9000E+01
#aMCatNLO 2  0  0  2  1 0.22117115D+03 0.00000000D+00  -5  7  0 0.00000000D+00 0.00000000D+00 0.00000000D+00 0.00000000D+00 0.00000000D+00
  <mgrwgt>
 0.1689617842D-04    2    2    0
 0.746505661578080D+03 0.000000000000000D+00 0.000000000000000D+00 0.746505661578080D+03
 0.746505661578080D+03 0.000000000000000D+00 0.000000000000000D+00 -.746505661578080D+03
 0.486877020263636D+03 -.246032442713195D+03 -.306117425146123D+03 0.272936147608343D+03
 0.359632721905446D+03 0.178662923256146D+03 0.263560869290231D+03 -.167185294501838D+03
 0.358503404981380D+03 0.103581270608569D+03 0.310178956575230D+03 -.146917074093720D+03
 0.287998176005699D+03 -.362117511515197D+02 -.267622400719338D+03 0.411662209872142D+02
 0.000000000000000D+00 0.000000000000000D+00 0.000000000000000D+00 -.000000000000000D+00
 0.783014456874518D+03 0.000000000000000D+00 0.000000000000000D+00 0.783014456874518D+03
 0.118582904596970D+04 0.000000000000000D+00 0.000000000000000D+00 -.118582904596970D+04
 0.539143288521263D+03 -.319034136532043D+03 -.325704334127583D+03 0.272936147608343D+03
 0.327877001011061D+03 0.129746372716059D+03 0.250436187204179D+03 -.167185294501838D+03
 0.335688220656139D+03 0.541893004180225D+02 0.296926715785614D+03 -.146917074093720D+03
 0.306595796626908D+03 -.785173144673800D+02 -.278973304715256D+03 0.411662209872142D+02
 0.459539196028846D+03 0.213615777865341D+03 0.573147358530464D+02 -.402814589095180D+03
-.304227161028D-04 0.000000000000D+00 0.000000000000D+00 0.124417521434D-07 0.000000000000D+00  7 -2 2 23 -13 13 23 21 2 0.62306048D-01 0.33891772D+00 0.61923139D+06 0.61923139D+06 0.61923139D+06 0.10620072D+01  1  2 13  2  7  2        2 -.533638793064D-04 0.100000000000D+01
0.433553830116D-04 0.000000000000D+00 0.000000000000D+00 0.124417521434D-07 0.208540283510D-11  7 -2 2 23 -13 13 23 21 2 0.65353203D-01 0.33627786D+00 0.61923139D+06 0.61923139D+06 0.61923139D+06 0.10620072D+01  1  2  1  2  7  2        2 0.702600577285D-04 0.100000000000D+01
  </mgrwgt>
  </event>
  <event>
  8     66 0.28248871E-05 0.16583361E+03 0.75467711E-02 0.98611580E-01
       -2 -1    0    0    0  501 0.00000000E+00 0.00000000E+00 0.76876022E+03 0.76876029E+03 0.32000000E+00 0.0000E+00 0.9000E+01
        2 -1    0    0  501    0 0.00000000E+00 0.00000000E+00 -.13447197E+03 0.13447235E+03 0.32000000E+00 0.0000E+00 0.9000E+01
       25  2    1    2    0    0 0.23561536E+02 0.24529954E+03 0.37172298E+03 0.53156182E+03 0.28922826E+03 0.0000E+00 0.0000E+00
       23  2    1    2    0    0 -.23561536E+02 -.24529954E+03 0.26256528E+03 0.37167082E+03 0.92041639E+02 0.0000E+00 0.0000E+00
       23  1    3    3    0    0 -.73571929E+02 0.38075382E+02 0.18574333E+03 0.22288651E+03 0.91188000E+02 0.0000E+00 0.9000E+01
      -13  1    4    4    0    0 0.55043836E+01 -.22335867E+03 0.24383525E+03 0.33071896E+03 0.10565837E+00 0.0000E+00 0.9000E+01
       13  1    4    4    0    0 -.29065919E+02 -.21940870E+02 0.18730033E+02 0.40951859E+02 0.10565837E+00 0.0000E+00 0.9000E+01
       23  1    3    3    0    0 0.97133465E+02 0.20722415E+03 0.18597965E+03 0.30867530E+03 0.91188000E+02 0.0000E+00 0.9000E+01
#aMCatNLO 1  0  0  2  1 0.79639029D+02 0.00000000D+00  -5  7  0 0.00000000D+00 0.00000000D+00 0.00000000D+00 0.00000000D+00 0.00000000D+00
  <mgrwgt>
 0.2004755017D-02    9    2    0
 0.321522782950231D+03 0.000000000000000D+00 0.000000000000000D+00 0.321522782950231D+03
 0.321522782950231D+03 0.000000000000000D+00 0.000000000000000D+00 -.321522782950231D+03
 0.129856369584998D+03 -.735719294778531D+02 0.380753820562117D+02 0.410470687379137D+02
 0.224019087214740D+03 0.550442825843454D+01 -.223358931088203D+03 0.162800678502346D+02
 0.390464685952348D+02 -.290659641227439D+02 -.219406054544904D+02 -.140856761166939D+02
 0.250123640505489D+03 0.971334653421625D+02 0.207224154486482D+03 -.432414604714544D+02
 0.000000000000000D+00 -.000000000000000D+00 -.000000000000000D+00 -.000000000000000D+00
 0.335664348002387D+03 0.000000000000000D+00 0.000000000000000D+00 0.335664348002387D+03
 0.459671727434727D+03 0.000000000000000D+00 0.000000000000000D+00 -.459671727434727D+03
 0.128692953232713D+03 -.634289066942954D+02 0.503838943646535D+02 0.410470687379137D+02
 0.204816374190924D+03 0.223278637562791D+02 -.202943768141792D+03 0.162800678502346D+02
 0.349585283513172D+02 -.261627100668235D+02 -.184175197783193D+02 -.140856761166939D+02
 0.279490456687998D+03 0.117910498504668D+03 0.232436990331449D+03 -.432414604714544D+02
 0.147377762974162D+03 -.506467454998283D+02 -.614595967759911D+02 -.124007379432341D+03
0.902859367556D-04 0.000000000000D+00 0.000000000000D+00 0.113730044746D-08 0.000000000000D+00  7 -2 2 23 -13 13 23 21 0 0.11827084D+00 0.20688029D-01 0.99036033D+05 0.99036033D+05 0.99036033D+05 0.11220674D+01  1  2  2  2  7  2        2 0.168905834622D-02 0.100000000000D+01
-.501307969102D-05 0.000000000000D+00 -.346721769975D-06 0.113730044746D-08 0.000000000000D+00  7 -2 2 23 -13 13 23 21 2 0.11827084D+00 0.20688029D-01 0.99036033D+05 0.99036033D+05 0.99036033D+05 0.11220674D+01  1  2  3  2  7  2        2 -.118077475150D-03 0.100000000000D+01
0.576764222427D-05 0.000000000000D+00 0.000000000000D+00 0.113730044746D-08 0.000000000000D+00  7 -2 2 23 -13 13 23 21 2 0.11827084D+00 0.20688029D-01 0.99036033D+05 0.99036033D+05 0.99036033D+05 0.11220674D+01  1  2 15  2  7  2        2 0.135850350160D-03 0.100000000000D+01
0.194768831411D-03 0.000000000000D+00 0.000000000000D+00 0.113730044746D-08 0.000000000000D+00  7 -2 2 23 -13 13 23 21 2 0.11827084D+00 0.29880788D-01 0.12741297D+06 0.12741297D+06 0.12741297D+06 0.11131890D+01  1  2 12  2  7  2        2 0.293739826692D-02 0.100000000000D+01
-.197116494138D-03 0.000000000000D+00 0.000000000000D+00 0.113730044746D-08 0.000000000000D+00  7 -2 2 23 -13 13 23 21 2 0.11827084D+00 0.20688029D-01 0.99036033D+05 0.99036033D+05 0.99036033D+05 0.11220674D+01  1  2  4  2  7  2        2 -.464285815761D-02 0.100000000000D+01
-.241621669736D-03 0.000000000000D+00 -.417196649515D-04 0.113730044746D-08 0.000000000000D+00  7 -2 2 23 -13 13 23 21 2 0.11827084D+00 0.30618214D-01 0.99036033D+05 0.99036033D+05 0.99036033D+05 0.11220674D+01  1  2  5  2  7  2        2 -.361926285697D-02 0.100000000000D+01
0.242142622703D-03 0.000000000000D+00 0.387068428092D-04 0.113730044746D-08 0.000000000000D+00  7 -2 2 23 -13 13 23 21 2 0.11827084D+00 0.20688029D-01 0.99036033D+05 0.99036033D+05 0.99036033D+05 0.11220674D+01  1  2  6  2  7  2        2 0.570339816581D-02 0.100000000000D+01
0.871854652519D-05 0.000000000000D+00 0.000000000000D+00 0.113730044746D-08 0.000000000000D+00  7 -2 21 23 -13 13 23 -2 2 0.11827084D+00 0.29880788D-01 0.12741297D+06 0.12741297D+06 0.12741297D+06 0.11131890D+01  1  2 12  4  7  2        2 0.679119796217D-03 0.100000000000D+01
-.994757229376D-05 0.000000000000D+00 -.195682044027D-05 0.113730044746D-08 0.000000000000D+00  7 -2 21 23 -13 13 23 -2 2 0.11827084D+00 0.30618214D-01 0.99036033D+05 0.99036033D+05 0.99036033D+05 0.11220674D+01  1  2  5  4  7  2        2 -.759871418204D-03 0.100000000000D+01
  </mgrwgt>
  </event>
  <event>
  8     66 0.28248871E-05 0.36994295E+03 0.75467711E-02 0.91823075E-01
       -2 -1    0    0    0  501 0.00000000E+00 0.00000000E+00 0.63829473E+03 0.63829481E+03 0.32000000E+00 0.0000E+00 0.9000E+01
        2 -1    0    0  501    0 0.00000000E+00 0.00000000E+00 -.45894708E+03 0.45894720E+03 0.32000000E+00 0.0000E+00 0.9000E+01
       25  2    1    2    0    0 -.20467933E+03 0.25584207E+03 -.27849675E+03 0.52662114E+03 0.30400756E+03 0.0000E+00 0.0000E+00
       23  2    1    2    0    0 0.20467933E+03 -.25584207E+03 0.45784439E+03 0.57062086E+03 0.92940274E+02 0.0000E+00 0.0000E+00
       23  1    3    3    0    0 -.20170489E+03 0.17666130E+03 -.80070390E+02 0.29431377E+03 0.91188000E+02 0.0000E+00 0.9000E+01
      -11  1    4    4    0    0 0.20675976E+03 -.22737308E+03 0.44085604E+03 0.53740317E+03 0.51099893E-03 0.0000E+00 0.9000E+01
       11  1    4    4    0    0 -.20804307E+01 -.28468987E+02 0.16988351E+02 0.33217698E+02 0.51099893E-03 0.0000E+00 0.9000E+01
       23  1    3    3    0    0 -.29744383E+01 0.79180762E+02 -.19842636E+03 0.23230736E+03 0.91188000E+02 0.0000E+00 0.9000E+01
#aMCatNLO 1  0  0  2  1 0.41927014D+03 0.00000000D+00  -5  7  0 0.00000000D+00 0.00000000D+00 0.00000000D+00 0.00000000D+00 0.00000000D+00
  <mgrwgt>
 0.2039818561D-03    5    2    0
 0.541242652152116D+03 0.000000000000000D+00 0.000000000000000D+00 0.541242652152116D+03
 0.541242652152116D+03 0.000000000000000D+00 0.000000000000000D+00 -.541242652152116D+03
 0.311592100027988D+03 -.201704888000050D+03 0.176661304204077D+03 -.129924236421283D+03
 0.471687543581465D+03 0.206759757089684D+03 -.227373079172840D+03 0.357828205268384D+03
 0.308558768269408D+02 -.208043074727182D+01 -.284689870766984D+02 0.117163867080226D+02
 0.268349783867840D+03 -.297443834236242D+01 0.791807620454619D+02 -.239620355555123D+03
 0.000000000000000D+00 -.000000000000000D+00 -.000000000000000D+00 -.000000000000000D+00
 0.624207972890980D+03 0.000000000000000D+00 0.000000000000000D+00 0.624207972890980D+03
 0.158411238577575D+04 0.000000000000000D+00 0.000000000000000D+00 -.158411238577575D+04
 0.306712965919371D+03 -.105307541528151D+03 0.240390529361497D+03 -.129924236421283D+03
 0.524068540920056D+03 0.362003906888331D+03 -.124739658866251D+03 0.357828205268384D+03
 0.263362632179458D+02 0.683615564835969D+01 -.225741449172366D+02 0.117163867080226D+02
 0.303727561676190D+03 0.862157383589018D+02 0.138145257032696D+03 -.239620355555123D+03
 0.104747502693317D+04 -.349748259367441D+03 -.231221982610705D+03 -.959904412884770D+03
0.365314138403D-04 0.000000000000D+00 0.000000000000D+00 0.224715171506D-07 0.000000000000D+00  7 -2 2 23 -11 11 23 21 0 0.98199203D-01 0.70607258D-01 0.13685778D+06 0.13685778D+06 0.13685778D+06 0.11107082D+01  1  2  2  2  7  2        2 0.270567711322D-03 0.100000000000D+01
-.167222714455D-05 0.000000000000D+00 -.140290248089D-06 0.224715171506D-07 0.000000000000D+00  7 -2 2 23 -11 11 23 21 2 0.98199203D-01 0.70607258D-01 0.13685778D+06 0.13685778D+06 0.13685778D+06 0.11107082D+01  1  2  3  2  7  2        2 -.152793434284D-04 0.100000000000D+01
0.227262791522D-05 0.000000000000D+00 0.000000000000D+00 0.224715171506D-07 0.000000000000D+00  7 -2 2 23 -11 11 23 21 2 0.98199203D-01 0.70607258D-01 0.13685778D+06 0.13685778D+06 0.13685778D+06 0.11107082D+01  1  2 15  2  7  2        2 0.207652785178D-04 0.100000000000D+01
-.340247951659D-04 0.000000000000D+00 -.121772428008D-04 0.224715171506D-07 0.000000000000D+00  7 -2 2 23 -11 11 23 21 2 0.98199203D-01 0.21887204D+00 0.13685778D+06 0.13685778D+06 0.13685778D+06 0.11107082D+01  1  2  5  2  7  2        2 -.689601134413D-04 0.100000000000D+01
-.383801831358D-05 0.000000000000D+00 -.157723887589D-05 0.224715171506D-07 0.000000000000D+00  7 -2 21 23 -11 11 23 -2 2 0.98199203D-01 0.21887204D+00 0.13685778D+06 0.13685778D+06 0.13685778D+06 0.11107082D+01  1  2  5  4  7  2        2 -.311167688563D-05 0.100000000000D+01
  </mgrwgt>
  </event>
  <event>
  8     66 0.28248871E-05 0.11716570E+03 0.75467711E-02 0.10778903E+00
       -2 -1    0    0    0  501 0.00000000E+00 0.00000000E+00 0.32765780E+02 0.32767343E+02 0.32000000E+00 0.0000E+00 0.9000E+01
        2 -1    0    0  501    0 0.00000000E+00 0.00000000E+00 -.13723704E+04 0.13723705E+04 0.32000000E+00 0.0000E+00 0.9000E+01
       25  2    1    2    0    0 0.66485528E+02 0.21458013E+02 -.93646066E+03 0.98567872E+03 0.29953833E+03 0.0000E+00 0.0000E+00
       23  2    1    2    0    0 -.66485528E+02 -.21458013E+02 -.40314398E+03 0.41945907E+03 0.92412525E+02 0.0000E+00 0.0000E+00
       23  1    3    3    0    0 -.42174464E+01 -.42643925E+02 -.75275877E+03 0.75947173E+03 0.91188000E+02 0.0000E+00 0.9000E+01
      -13  1    4    4    0    0 -.31336561E+02 0.13859358E+02 -.32486461E+03 0.32666663E+03 0.10565837E+00 0.0000E+00 0.9000E+01
       13  1    4    4    0    0 -.35148967E+02 -.35317372E+02 -.78279370E+02 0.92792443E+02 0.10565837E+00 0.0000E+00 0.9000E+01
       23  1    3    3    0    0 0.70702974E+02 0.64101939E+02 -.18370189E+03 0.22620700E+03 0.91188000E+02 0.0000E+00 0.9000E+01
#aMCatNLO 1  0  0  2  1 0.41735264D+02 0.00000000D+00  -5  7  0 0.00000000D+00 0.00000000D+00 0.00000000D+00 0.00000000D+00 0.00000000D+00
  <mgrwgt>
 0.3668139038D-03    9    2    0
 0.212056386643505D+03 0.000000000000000D+00 0.000000000000000D+00 0.212056386643505D+03
 0.212056386643505D+03 0.000000000000000D+00 0.000000000000000D+00 -.212056386643505D+03
 0.138555782757652D+03 -.421728076493338D+01 -.426438719243676D+02 -.951113469667709D+02
 0.561677641875882D+02 -.313367369887140D+02 0.138592572333059D+02 -.445055910832981D+02
 0.601791598496845D+02 -.351491587837504D+02 -.353173894155434D+02 0.337453688952936D+02
 0.169210066492086D+03 0.707031765373977D+02 0.641020041066051D+02 0.105871569154775D+03
 0.000000000000000D+00 0.000000000000000D+00 -.000000000000000D+00 -.000000000000000D+00
 0.229514574352133D+03 0.000000000000000D+00 0.000000000000000D+00 0.229514574352133D+03
 0.239578194799064D+03 0.000000000000000D+00 0.000000000000000D+00 -.239578194799064D+03
 0.135859067997848D+03 -.112335007153533D+02 -.311460294915526D+02 -.951113469667709D+02
 0.592095639020564D+02 -.342866965442556D+02 0.186935084957345D+02 -.445055910832981D+02
 0.593048523381926D+02 -.382041177546690D+02 -.303110701817465D+02 0.337453688952936D+02
 0.171787842872200D+03 0.619845655433270D+02 0.783896427711875D+02 0.105871569154775D+03
 0.429314420408990D+02 0.217397494709508D+02 -.356260515936228D+02 -.100636204469311D+02
0.624579972248D-06 0.000000000000D+00 0.000000000000D+00 0.405268189571D-07 0.000000000000D+00  7 -2 2 23 -13 13 23 21 0 0.50410123D-02 0.21113403D+00 0.25097569D+05 0.25097569D+05 0.25097569D+05 0.11745945D+01  1  2  2  2  7  2        2 0.205144093272D-03 0.100000000000D+01
-.311118196049D-07 0.000000000000D+00 -.239855154912D-08 0.405268189571D-07 0.000000000000D+00  7 -2 2 23 -13 13 23 21 2 0.50410123D-02 0.21113403D+00 0.25097569D+05 0.25097569D+05 0.25097569D+05 0.11745945D+01  1  2  3  2  7  2        2 -.140984809228D-04 0.100000000000D+01
0.395500064720D-07 0.000000000000D+00 0.000000000000D+00 0.405268189571D-07 0.000000000000D+00  7 -2 2 23 -13 13 23 21 2 0.50410123D-02 0.21113403D+00 0.25097569D+05 0.25097569D+05 0.25097569D+05 0.11745945D+01  1  2 15  2  7  2        2 0.179222886614D-04 0.100000000000D+01
0.662699704945D-06 0.000000000000D+00 0.000000000000D+00 0.405268189571D-07 0.000000000000D+00  7 -2 2 23 -13 13 23 21 2 0.50410123D-02 0.24629819D+00 0.32734522D+05 0.32734522D+05 0.32734522D+05 0.11638371D+01  1  2 12  2  7  2        2 0.223779011765D-03 0.100000000000D+01
-.627001261748D-06 0.000000000000D+00 0.000000000000D+00 0.405268189571D-07 0.000000000000D+00  7 -2 2 23 -13 13 23 21 2 0.50410123D-02 0.21113403D+00 0.25097569D+05 0.25097569D+05 0.25097569D+05 0.11745945D+01  1  2  4  2  7  2        2 -.284128843622D-03 0.100000000000D+01
-.164229255637D-05 0.000000000000D+00 -.461317236394D-06 0.405268189571D-07 0.000000000000D+00  7 -2 2 23 -13 13 23 21 2 0.50410123D-02 0.24949631D+00 0.25097569D+05 0.25097569D+05 0.25097569D+05 0.11745945D+01  1  2  5  2  7  2        2 -.550565099447D-03 0.100000000000D+01
0.170189190608D-05 0.000000000000D+00 0.454962003733D-06 0.405268189571D-07 0.000000000000D+00  7 -2 2 23 -13 13 23 21 2 0.50410123D-02 0.21113403D+00 0.25097569D+05 0.25097569D+05 0.25097569D+05 0.11745945D+01  1  2  6  2  7  2        2 0.771221062453D-03 0.100000000000D+01
0.154455626715D-07 0.000000000000D+00 0.000000000000D+00 0.405268189571D-07 0.000000000000D+00  7 -2 21 23 -13 13 23 -2 2 0.50410123D-02 0.24629819D+00 0.32734522D+05 0.32734522D+05 0.32734522D+05 0.11638371D+01  1  2 12  4  7  2        2 0.181873587288D-05 0.100000000000D+01
-.369439089056D-07 0.000000000000D+00 -.114661273493D-07 0.405268189571D-07 0.000000000000D+00  7 -2 21 23 -13 13 23 -2 2 0.50410123D-02 0.24949631D+00 0.25097569D+05 0.25097569D+05 0.25097569D+05 0.11745945D+01  1  2  5  4  7  2        2 -.427886419225D-05 0.100000000000D+01
  </mgrwgt>
  </event>
  <event>
  8     66 0.28248871E-05 0.23511193E+03 0.75467711E-02 0.94716357E-01
       -2 -1    0    0    0  501 0.00000000E+00 0.00000000E+00 0.29919500E+03 0.29919517E+03 0.32000000E+00 0.0000E+00 0.9000E+01
        2 -1    0    0  501    0 0.00000000E+00 0.00000000E+00 -.54140739E+03 0.54140749E+03 0.32000000E+00 0.0000E+00 0.9000E+01
       25  2    1    2    0    0 0.21784382E+03 0.23689225E+03 -.24875975E+03 0.50585689E+03 0.30072565E+03 0.0000E+00 0.0000E+00
       23  2    1    2    0    0 -.21784382E+03 -.23689225E+03 0.65473575E+01 0.33474577E+03 0.91858547E+02 0.0000E+00 0.0000E+00
       23  1    3    3    0    0 0.23303943E+03 0.94804275E+02 -.18221895E+03 0.32375025E+03 0.91188000E+02 0.0000E+00 0.9000E+01
      -11  1    4    4    0    0 -.84865853E+01 -.58796597E+02 0.75444684E+01 0.59883061E+02 0.51099893E-03 0.0000E+00 0.9000E+01
       11  1    4    4    0    0 -.20935723E+03 -.17809566E+03 -.99711084E+00 0.27486271E+03 0.51099893E-03 0.0000E+00 0.9000E+01
       23  1    3    3    0    0 -.15195614E+02 0.14208798E+03 -.66540794E+02 0.18210664E+03 0.91188000E+02 0.0000E+00 0.9000E+01
#aMCatNLO 1  0  0  1  2 0.19741818D+03 0.00000000D+00  -5  7  0 0.00000000D+00 0.00000000D+00 0.00000000D+00 0.00000000D+00 0.00000000D+00
  <mgrwgt>
 0.1074227231D-03    7    2    0
 0.402475461907137D+03 0.000000000000000D+00 0.000000000000000D+00 0.402475461907137D+03
 0.402475461907137D+03 0.000000000000000D+00 0.000000000000000D+00 -.402475461907137D+03
 0.283259050503836D+03 0.233039431368932D+03 0.948042747382009D+02 -.928720155210556D+02
 0.648054710500472D+02 -.848658530502451D+01 -.587965970293511D+02 0.258976277996103D+02
 0.286736498723510D+03 -.209357232276969D+03 -.178095655394750D+03 0.816658222456585D+02
 0.170149903536881D+03 -.151956137869383D+02 0.142087977685900D+03 -.146914345242131D+02
 0.000000000000000D+00 0.000000000000000D+00 0.000000000000000D+00 0.000000000000000D+00
 0.100445501719189D+04 0.000000000000000D+00 0.000000000000000D+00 0.100445501719189D+04
 0.430916093118216D+03 0.000000000000000D+00 0.000000000000000D+00 -.430916093118216D+03
 0.230238980641343D+03 0.178088135515151D+03 0.659859195931875D+02 -.928720155210556D+02
 0.752666266577062D+02 -.234762110000493D+02 -.666576738257835D+02 0.258976277996103D+02
 0.360992556877748D+03 -.278673079288214D+03 -.214447276686134D+03 0.816658222456585D+02
 0.162308163171082D+03 -.507731632118163D+02 0.123429883484744D+03 -.146914345242131D+02
 0.606564782962225D+03 0.174834317984928D+03 0.916891474339860D+02 0.573538924073671D+03
0.418249933482D-05 0.000000000000D+00 0.000000000000D+00 0.160786378355D-06 0.000000000000D+00  7 -2 2 23 -11 11 23 21 0 0.46030021D-01 0.83293465D-01 0.14875778D+06 0.14875778D+06 0.14875778D+06 0.11078370D+01  1  2  2  1  7  1       -2 0.129560930783D-03 0.100000000000D+01
-.231848449953D-06 0.000000000000D+00 -.160618987231D-07 0.160786378355D-06 0.000000000000D+00  7 -2 2 23 -11 11 23 21 2 0.46030021D-01 0.83293465D-01 0.14875778D+06 0.14875778D+06 0.14875778D+06 0.11078370D+01  1  2  3  1  7  1       -2 -.881442766383D-05 0.100000000000D+01
0.268437753676D-06 0.000000000000D+00 0.000000000000D+00 0.160786378355D-06 0.000000000000D+00  7 -2 2 23 -11 11 23 21 2 0.46030021D-01 0.83293465D-01 0.14875778D+06 0.14875778D+06 0.14875778D+06 0.11078370D+01  1  2 15  1  7  1       -2 0.102054819107D-04 0.100000000000D+01
0.581963661798D-05 0.000000000000D+00 0.000000000000D+00 0.160786378355D-06 0.000000000000D+00  7 -2 2 23 -11 11 23 21 2 0.11387913D+00 0.83293465D-01 0.24603670D+06 0.24603670D+06 0.24603670D+06 0.10909816D+01  1  2 12  1  7  1       -2 0.290824678863D-04 0.100000000000D+01
-.884125705141D-05 0.000000000000D+00 -.124532173864D-05 0.160786378355D-06 0.000000000000D+00  7 -2 2 23 -11 11 23 21 2 0.11848829D+00 0.83293465D-01 0.14875778D+06 0.14875778D+06 0.14875778D+06 0.11078370D+01  1  2  5  1  7  1       -2 -.419693151246D-04 0.100000000000D+01
0.579340018232D-06 0.000000000000D+00 0.000000000000D+00 0.160786378355D-06 0.000000000000D+00  7 21 2 23 -11 11 23 2 2 0.11387913D+00 0.83293465D-01 0.24603670D+06 0.24603670D+06 0.24603670D+06 0.10909816D+01  1  2 12  3  7  1       -2 0.262131354010D-04 0.100000000000D+01
-.849058540253D-06 0.000000000000D+00 -.130238012429D-06 0.160786378355D-06 0.000000000000D+00  7 21 2 23 -11 11 23 2 2 0.11848829D+00 0.83293465D-01 0.14875778D+06 0.14875778D+06 0.14875778D+06 0.11078370D+01  1  2  5  3  7  1       -2 -.368555501389D-04 0.100000000000D+01
  </mgrwgt>
  </event>
  <event>
  8     66 0.28248871E-05 0.21159944E+03 0.75467711E-02 0.10166593E+00
       -2 -1    0    0    0  501 0.00000000E+00 0.00000000E+00 0.12507333E+02 0.12511426E+02 0.32000000E+00 0.0000E+00 0.9000E+01
        2 -1    0    0  501    0 0.00000000E+00 0.00000000E+00 -.38410552E+04 0.38410552E+04 0.32000000E+00 0.0000E+00 0.9000E+01
       25  2    1    2    0    0 -.64594532E+02 0.55792484E+02 -.27741279E+04 0.27916296E+04 0.30020849E+03 0.0000E+00 0.0000E+00
       23  2    1    2    0    0 0.64594532E+02 -.55792484E+02 -.10544200E+04 0.10619370E+04 0.92862722E+02 0.0000E+00 0.0000E+00
       23  1    3    3    0    0 0.80286241E+02 0.21168442E+02 -.75975821E+03 0.76970239E+03 0.91188000E+02 0.0000E+00 0.9000E+01
      -13  1    4    4    0    0 0.76489085E+02 -.90937112E+01 -.58482603E+03 0.58987691E+03 0.10565837E+00 0.0000E+00 0.9000E+01
       13  1    4    4    0    0 -.11894553E+02 -.46698772E+02 -.46959392E+03 0.47206008E+03 0.10565837E+00 0.0000E+00 0.9000E+01
       23  1    3    3    0    0 -.14488077E+03 0.34624041E+02 -.20143697E+04 0.20219272E+04 0.91188000E+02 0.0000E+00 0.9000E+01
#aMCatNLO 1  0  0  1  1 0.12185489D+03 0.00000000D+00  -5  7  0 0.00000000D+00 0.00000000D+00 0.00000000D+00 0.00000000D+00 0.00000000D+00
  <mgrwgt>
 0.2073109590D-03    4    2    0
 0.219201430884875D+03 0.000000000000000D+00 0.000000000000000D+00 0.219201430884875D+03
 0.219201430884875D+03 0.000000000000000D+00 0.000000000000000D+00 -.219201430884875D+03
 0.130767323737036D+03 0.802861648092023D+02 0.211685082646995D+02 0.434841075730389D+02
 0.777722171541408D+02 0.764891882854076D+02 -.909384476422822D+01 0.107342360657112D+02
 0.484762241379752D+02 -.118944735429358D+02 -.466987965701110D+02 -.526195825857643D+01
 0.181387096740598D+03 -.144880879551674D+03 0.346241330696397D+02 -.489563853801736D+02
 0.000000000000000D+00 0.000000000000000D+00 0.000000000000000D+00 -.000000000000000D+00
 0.273792687836521D+03 0.000000000000000D+00 0.000000000000000D+00 0.273792687836521D+03
 0.307719815531759D+03 0.000000000000000D+00 0.000000000000000D+00 -.307719815531759D+03
 0.112646674427842D+03 0.481419857809456D+02 0.128648167222010D+02 0.434841075730389D+02
 0.607681973862811D+02 0.581941521691208D+02 -.138199364318665D+02 0.107342360657112D+02
 0.567614762621522D+02 -.257917001103758D+02 -.502888177248213D+02 -.526195825857643D+01
 0.224846379485568D+03 -.198526280742776D+03 0.207661072114305D+02 -.489563853801736D+02
 0.126489775806437D+03 0.117981842903085D+03 0.304778302230562D+02 -.339271276952374D+02
0.533614929758D-05 0.000000000000D+00 0.000000000000D+00 0.275700635838D-07 0.000000000000D+00  7 -2 2 23 -13 13 23 21 0 0.19245209D-02 0.59093188D+00 0.44774323D+05 0.44774323D+05 0.44774323D+05 0.11515363D+01  1  2  2  1  7  1       -2 0.244719609973D-03 0.100000000000D+01
-.296003694976D-06 0.000000000000D+00 -.204922183431D-07 0.275700635838D-07 0.000000000000D+00  7 -2 2 23 -13 13 23 21 2 0.19245209D-02 0.59093188D+00 0.44774323D+05 0.44774323D+05 0.44774323D+05 0.11515363D+01  1  2  3  1  7  1       -2 -.180008569836D-04 0.100000000000D+01
0.352057745597D-06 0.000000000000D+00 0.000000000000D+00 0.275700635838D-07 0.000000000000D+00  7 -2 2 23 -13 13 23 21 2 0.19245209D-02 0.59093188D+00 0.44774323D+05 0.44774323D+05 0.44774323D+05 0.11515363D+01  1  2 15  1  7  1       -2 0.214096689873D-04 0.100000000000D+01
-.671196924583D-06 0.000000000000D+00 0.000000000000D+00 0.275700635838D-07 0.000000000000D+00  7 -2 2 23 -13 13 23 21 2 0.19245209D-02 0.59093188D+00 0.44774323D+05 0.44774323D+05 0.44774323D+05 0.11515363D+01  1  2  4  1  7  1       -2 -.408174629314D-04 0.100000000000D+01
  </mgrwgt>
  </event>
  <event>
  8     66 0.28248871E-05 0.16075347E+03 0.75467711E-02 0.98385696E-01
       -2 -1    0    0    0  501 0.00000000E+00 0.00000000E+00 0.10780992E+03 0.10781040E+03 0.32000000E+00 0.0000E+00 0.9000E+01
        2 -1    0    0  501    0 0.00000000E+00 0.00000000E+00 -.13956326E+04 0.13956326E+04 0.32000000E+00 0.0000E+00 0.9000E+01
       25  2    1    2    0    0 0.25638583E+03 -.69415808E+02 -.10857018E+04 0.11574627E+04 0.30069773E+03 0.0000E+00 0.0000E+00
       23  2    1    2    0    0 -.25638583E+03 0.69415808E+02 -.20212079E+03 0.34598031E+03 0.91089568E+02 0.0000E+00 0.0000E+00
       23  1    3    3    0    0 0.17930705E+03 0.64230850E+02 -.71805133E+03 0.74845813E+03 0.91188000E+02 0.0000E+00 0.9000E+01
      -13  1    4    4    0    0 -.20199428E+03 0.13250505E+02 -.14007633E+03 0.24616794E+03 0.10565837E+00 0.0000E+00 0.9000E+01
       13  1    4    4    0    0 -.54391551E+02 0.56165304E+02 -.62044466E+02 0.99812369E+02 0.10565837E+00 0.0000E+00 0.9000E+01
       23  1    3    3    0    0 0.77078790E+02 -.13364666E+03 -.36765052E+03 0.40900455E+03 0.91188000E+02 0.0000E+00 0.9000E+01
#aMCatNLO 1  0  0  2  1 0.54450319D+02 0.00000000D+00  -5  7  0 0.00000000D+00 0.00000000D+00 0.00000000D+00 0.00000000D+00 0.00000000D+00
  <mgrwgt>
 0.1593281628D-03    7    2    0
 0.387896151595677D+03 0.000000000000000D+00 0.000000000000000D+00 0.387896151595677D+03
 0.387896151595677D+03 0.000000000000000D+00 0.000000000000000D+00 -.387896151595677D+03
 0.258498808379241D+03 0.179307045332882D+03 0.642308502926967D+02 -.149096492092056D+03
 0.244532154388494D+03 -.201994482771283D+03 0.132504472524646D+02 0.137181008552385D+03
 0.904362910954385D+02 -.543913522724688D+02 0.561653610386717D+02 0.454505859639538D+02
 0.182325049328180D+03 0.770787897108699D+02 -.133646658583833D+03 -.335351024242833D+02
 0.000000000000000D+00 -.000000000000000D+00 -.000000000000000D+00 -.000000000000000D+00
 0.390425876062664D+03 0.000000000000000D+00 0.000000000000000D+00 0.390425876062664D+03
 0.859317330087891D+03 0.000000000000000D+00 0.000000000000000D+00 -.859317330087891D+03
 0.272488404967191D+03 0.197100294376249D+03 0.696878002250293D+02 -.149096492092056D+03
 0.231852181986793D+03 -.186030962512361D+03 0.181462440001188D+02 0.137181008552385D+03
 0.881648464896397D+02 -.484064727111478D+02 0.580008430261137D+02 0.454505859639538D+02
 0.185195366923179D+03 0.893943071668724D+02 -.129869655183027D+03 -.335351024242833D+02
 0.472042405783752D+03 -.520571663196120D+02 -.159652320682344D+02 -.468891454025227D+03
0.310378422473D-05 0.000000000000D+00 0.000000000000D+00 0.249688365361D-06 0.000000000000D+00  7 -2 2 23 -13 13 23 21 0 0.16586181D-01 0.21471274D+00 0.11255905D+06 0.11255905D+06 0.11255905D+06 0.11175299D+01  1  2  2  2  7  2        2 0.159381599551D-03 0.100000000000D+01
-.168017145585D-06 0.000000000000D+00 -.119193486681D-07 0.249688365361D-06 0.000000000000D+00  7 -2 2 23 -13 13 23 21 2 0.16586181D-01 0.21471274D+00 0.11255905D+06 0.11255905D+06 0.11255905D+06 0.11175299D+01  1  2  3  2  7  2        2 -.107750322571D-04 0.100000000000D+01
0.197714278172D-06 0.000000000000D+00 0.000000000000D+00 0.249688365361D-06 0.000000000000D+00  7 -2 2 23 -13 13 23 21 2 0.16586181D-01 0.21471274D+00 0.11255905D+06 0.11255905D+06 0.11255905D+06 0.11175299D+01  1  2 15  2  7  2        2 0.126795257566D-04 0.100000000000D+01
0.571869278931D-04 0.000000000000D+00 0.000000000000D+00 0.249688365361D-06 0.000000000000D+00  7 -2 2 23 -13 13 23 21 2 0.16586181D-01 0.47545594D+00 0.13217729D+06 0.13217729D+06 0.13217729D+06 0.11119133D+01  1  2 12  2  7  2        2 0.398354162684D-03 0.100000000000D+01
-.567685452862D-04 0.000000000000D+00 -.840934851090D-06 0.249688365361D-06 0.000000000000D+00  7 -2 2 23 -13 13 23 21 2 0.16586181D-01 0.47617286D+00 0.11255905D+06 0.11255905D+06 0.11255905D+06 0.11175299D+01  1  2  5  2  7  2        2 -.400312127072D-03 0.100000000000D+01
0.493002088777D-05 0.000000000000D+00 0.000000000000D+00 0.249688365361D-06 0.000000000000D+00  7 -2 21 23 -13 13 23 -2 2 0.16586181D-01 0.47545594D+00 0.13217729D+06 0.13217729D+06 0.13217729D+06 0.11119133D+01  1  2 12  4  7  2        2 0.215659196052D-05 0.100000000000D+01
-.485075211310D-05 0.000000000000D+00 -.726420210922D-07 0.249688365361D-06 0.000000000000D+00  7 -2 21 23 -13 13 23 -2 2 0.16586181D-01 0.47617286D+00 0.11255905D+06 0.11255905D+06 0.11255905D+06 0.11175299D+01  1  2  5  4  7  2        2 -.215655784386D-05 0.100000000000D+01
  </mgrwgt>
  </event>
  <event>
  9     66 0.28248871E-05 0.29616318E+03 0.75467711E-02 0.98776063E-01
       21 -1    0    0  502  501 0.00000000E+00 0.00000000E+00 0.10853306E+03 0.10853565E+03 0.75000000E+00 0.0000E+00 0.9000E+01
        2 -1    0    0  501    0 0.00000000E+00 0.00000000E+00 -.15294257E+04 0.15294258E+04 0.32000000E+00 0.0000E+00 0.9000E+01
       25  2    1    2    0    0 -.98440524E+02 0.28493472E+03 -.60864314E+03 0.74284071E+03 0.30081144E+03 0.0000E+00 0.0000E+00
       23  2    1    2    0    0 0.16163445E+02 -.22909299E+03 -.39722794E+03 0.46835279E+03 0.93911917E+02 0.0000E+00 0.0000E+00
       23  1    3    3    0    0 -.12866120E+02 0.17652959E+03 -.51621199E+03 0.55327959E+03 0.91188000E+02 0.0000E+00 0.9000E+01
      -11  1    4    4    0    0 -.23926967E+02 -.14835207E+03 -.18906279E+03 0.24150689E+03 0.51099893E-03 0.0000E+00 0.9000E+01
       11  1    4    4    0    0 0.40090412E+02 -.80740917E+02 -.20816514E+03 0.22684590E+03 0.51099893E-03 0.0000E+00 0.9000E+01
       23  1    3    3    0    0 -.85574404E+02 0.10840513E+03 -.92431149E+02 0.18956112E+03 0.91188000E+02 0.0000E+00 0.9000E+01
        2  1    1    2  502    0 0.82277080E+02 -.55841738E+02 -.41502159E+03 0.42676790E+03 0.32000000E+00 0.0000E+00 0.9000E+01
#aMCatNLO 2  0  0  1  1 0.99437506D+02 0.00000000D+00  -5  7  0 0.00000000D+00 0.00000000D+00 0.00000000D+00 0.00000000D+00 0.00000000D+00
  <mgrwgt>
 0.4333480024D-04    1    2    0
 0.333663476873851D+03 0.000000000000000D+00 0.000000000000000D+00 0.333663476873851D+03
 0.333663476873851D+03 0.000000000000000D+00 0.000000000000000D+00 -.333663476873851D+03
 0.209746701539150D+03 0.137038280604941D+02 0.158496474766252D+03 -.101830742144564D+03
 0.162820296504383D+03 -.464538990111956D+01 -.161438542367473D+03 0.206510615879068D+02
 0.109652730020358D+03 0.527528155952233D+02 -.893349337273231D+02 -.354983276173496D+02
 0.185107225683810D+03 -.618112537545979D+02 0.922770013285441D+02 0.116678008174007D+03
 0.000000000000000D+00 0.000000000000000D+00 -.000000000000000D+00 -.000000000000000D+00
 0.356646574463672D+03 0.000000000000000D+00 0.000000000000000D+00 0.356646574463672D+03
 0.465433438306556D+03 0.000000000000000D+00 0.000000000000000D+00 -.465433438306556D+03
 0.223635830794455D+03 -.128661204873988D+02 0.176529590632894D+03 -.101830742144564D+03
 0.151681582828985D+03 -.239269670960000D+02 -.148352069316156D+03 0.206510615879068D+02
 0.968837860102954D+02 0.400904118415546D+02 -.807409165568149D+02 -.354983276173496D+02
 0.202493605992057D+03 -.855744038273396D+02 0.108405133373878D+03 0.116678008174007D+03
 0.147385207144435D+03 0.822770795691838D+02 -.558417381338012D+02 -.108786863842884D+03
0.616043820286D-07 0.000000000000D+00 0.000000000000D+00 0.214185385572D-07 0.264077207528D-12  7 21 2 23 -11 11 23 2 2 0.16697587D-01 0.23529636D+00 0.12406547D+06 0.12406547D+06 0.12406547D+06 0.11141170D+01  1  2  1  3  7  1       -2 0.433348002423D-04 0.100000000000D+01
  </mgrwgt>
  </event>
  <event>
  8     66 0.28248871E-05 0.93794755E+02 0.75467711E-02 0.10236474E+00
       -2 -1    0    0    0  501 0.00000000E+00 0.00000000E+00 0.52698413E+02 0.52699385E+02 0.32000000E+00 0.0000E+00 0.9000E+01
        2 -1    0    0  501    0 0.00000000E+00 0.00000000E+00 -.17386979E+04 0.17386979E+04 0.32000000E+00 0.0000E+00 0.9000E+01
       25  2    1    2    0    0 0.93074670E+02 0.18823002E+03 -.87214196E+03 0.94593583E+03 0.30011591E+03 0.0000E+00 0.0000E+00
       23  2    1    2    0    0 -.93074670E+02 -.18823002E+03 -.81385753E+03 0.84546148E+03 0.91365272E+02 0.0000E+00 0.0000E+00
       23  1    3    3    0    0 0.18422887E+02 0.15196795E+03 -.22427747E+03 0.28644249E+03 0.91188000E+02 0.0000E+00 0.9000E+01
      -11  1    4    4    0    0 -.45156410E+02 -.11866265E+03 -.63617743E+03 0.64872309E+03 0.51099893E-03 0.0000E+00 0.9000E+01
       11  1    4    4    0    0 -.47918260E+02 -.69567373E+02 -.17768010E+03 0.19673840E+03 0.51099893E-03 0.0000E+00 0.9000E+01
       23  1    3    3    0    0 0.74651783E+02 0.36262066E+02 -.64786448E+03 0.65949334E+03 0.91188000E+02 0.0000E+00 0.9000E+01
#aMCatNLO 1  0  0  1  2 0.19777347D+02 0.00000000D+00  -5  7  0 0.00000000D+00 0.00000000D+00 0.00000000D+00 0.00000000D+00 0.00000000D+00
  <mgrwgt>
 0.3186012838D-03    6    2    0
 0.302700374428809D+03 0.000000000000000D+00 0.000000000000000D+00 0.302700374428809D+03
 0.302700374428809D+03 0.000000000000000D+00 0.000000000000000D+00 -.302700374428809D+03
 0.222993769751882D+03 0.184228871602432D+02 0.151967953173953D+03 0.134079485533603D+03
 0.147878872110819D+03 -.451564097537870D+02 -.118662645840486D+03 -.758171217935073D+02
 0.873274095509902D+02 -.479182604982648D+02 -.695673728931263D+02 0.221426601485805D+02
 0.147200697443925D+03 0.746517830918086D+02 0.362620655596595D+02 -.804050238886762D+02
 0.000000000000000D+00 -.000000000000000D+00 0.000000000000000D+00 -.000000000000000D+00
 0.311605868709554D+03 0.000000000000000D+00 0.000000000000000D+00 0.311605868709554D+03
 0.314045031005797D+03 0.000000000000000D+00 0.000000000000000D+00 -.314045031005797D+03
 0.219485907413140D+03 0.227308675713336D+02 0.146167066836099D+03 0.134079485533603D+03
 0.150190392773499D+03 -.422544085534226D+02 -.122570318928389D+03 -.758171217935073D+02
 0.882652186845815D+02 -.462086913546211D+02 -.718693834276796D+02 0.221426601485805D+02
 0.147782188921832D+03 0.775237353229540D+02 0.323948547390781D+02 -.804050238886762D+02
 0.199271919222973D+02 -.117915029862439D+02 0.158777807808918D+02 -.243916229624321D+01
0.165401835624D-05 0.000000000000D+00 0.000000000000D+00 0.465838019828D-06 0.000000000000D+00  7 -2 2 23 -11 11 23 21 0 0.81075252D-02 0.26749206D+00 0.65771940D+05 0.65771940D+05 0.65771940D+05 0.11369670D+01  1  2  2  1  7  1       -2 0.171394048584D-03 0.100000000000D+01
-.888197784558D-07 0.000000000000D+00 -.635186600100D-08 0.465838019828D-06 0.000000000000D+00  7 -2 2 23 -11 11 23 21 2 0.81075252D-02 0.26749206D+00 0.65771940D+05 0.65771940D+05 0.65771940D+05 0.11369670D+01  1  2  3  1  7  1       -2 -.118976392132D-04 0.100000000000D+01
0.103827879116D-06 0.000000000000D+00 0.000000000000D+00 0.465838019828D-06 0.000000000000D+00  7 -2 2 23 -11 11 23 21 2 0.81075252D-02 0.26749206D+00 0.65771940D+05 0.65771940D+05 0.65771940D+05 0.11369670D+01  1  2 15  1  7  1       -2 0.139080131416D-04 0.100000000000D+01
0.279176935642D-05 0.000000000000D+00 0.000000000000D+00 0.465838019828D-06 0.000000000000D+00  7 -2 2 23 -11 11 23 21 2 0.84930224D-02 0.26749206D+00 0.70925213D+05 0.70925213D+05 0.70925213D+05 0.11341752D+01  1  2 12  1  7  1       -2 0.346525730523D-03 0.100000000000D+01
-.192408928306D-05 0.000000000000D+00 0.000000000000D+00 0.465838019828D-06 0.000000000000D+00  7 -2 2 23 -11 11 23 21 2 0.81075252D-02 0.26749206D+00 0.65771940D+05 0.65771940D+05 0.65771940D+05 0.11369670D+01  1  2  4  1  7  1       -2 -.257736739517D-03 0.100000000000D+01
0.301004861982D-07 0.000000000000D+00 0.000000000000D+00 0.465838019828D-06 0.000000000000D+00  7 21 2 23 -11 11 23 2 2 0.84930224D-02 0.26749206D+00 0.70925213D+05 0.70925213D+05 0.70925213D+05 0.11341752D+01  1  2 12  3  7  1       -2 0.564078702650D-04 0.100000000000D+01
  </mgrwgt>
  </event>
  <event>
  8     66 0.28248871E-05 0.26462699E+03 0.75467711E-02 0.99745558E-01
       -2 -1    0    0    0  501 0.00000000E+00 0.00000000E+00 0.52392209E+03 0.52392219E+03 0.32000000E+00 0.0000E+00 0.9000E+01
        2 -1    0    0  501    0 0.00000000E+00 0.00000000E+00 -.25774547E+03 0.25774567E+03 0.32000000E+00 0.0000E+00 0.9000E+01
       25  2    1    2    0    0 0.19823007E+03 -.60532293E+02 0.38078239E+03 0.52734238E+03 0.30022566E+03 0.0000E+00 0.0000E+00
       23  2    1    2    0    0 -.19823007E+03 0.60532293E+02 -.11460576E+03 0.25432547E+03 0.92669566E+02 0.0000E+00 0.0000E+00
       23  1    3    3    0    0 0.26806186E+02 -.83328243E+02 0.28040299E+03 0.30757642E+03 0.91188000E+02 0.0000E+00 0.9000E+01
      -13  1    4    4    0    0 -.17667574E+03 0.52009491E+02 -.13093567E+03 0.22597227E+03 0.10565837E+00 0.0000E+00 0.9000E+01
       13  1    4    4    0    0 -.21554323E+02 0.85228025E+01 0.16329911E+02 0.28353204E+02 0.10565837E+00 0.0000E+00 0.9000E+01
       23  1    3    3    0    0 0.17142388E+03 0.22795950E+02 0.10037940E+03 0.21976596E+03 0.91188000E+02 0.0000E+00 0.9000E+01
#aMCatNLO 1  0  0  1  2 0.10459117D+03 0.00000000D+00  -5  7  0 0.00000000D+00 0.00000000D+00 0.00000000D+00 0.00000000D+00 0.00000000D+00
  <mgrwgt>
 0.3700327821D-03    3    2    0
 0.367476068885418D+03 0.000000000000000D+00 0.000000000000000D+00 0.367476068885418D+03
 0.367476068885418D+03 0.000000000000000D+00 0.000000000000000D+00 -.367476068885418D+03
 0.225573712729276D+03 0.268061859684319D+02 -.833282425762252D+02 0.186831691405536D+03
 0.287756872779946D+03 -.176675946971059D+03 0.520095472682465D+02 -.221098698745438D+03
 0.242408918990351D+02 -.215541209806366D+02 0.852274590711671D+01 0.709954301455492D+01
 0.197380660362579D+03 0.171423881983264D+03 0.227959494008619D+02 0.271674643253467D+02
 0.000000000000000D+00 0.000000000000000D+00 0.000000000000000D+00 -.000000000000000D+00
 0.376093564563837D+03 0.000000000000000D+00 0.000000000000000D+00 0.376093564563837D+03
 0.927597620369767D+03 0.000000000000000D+00 0.000000000000000D+00 -.927597620369767D+03
 0.237822174570392D+03 0.161471337794470D+02 -.114356130271382D+03 0.186831691405536D+03
 0.291824922736400D+03 -.190007512432708D+03 0.132021271889890D+02 -.221098698745438D+03
 0.243346246703470D+02 -.226714571081476D+02 0.527024472150661D+01 0.709954301455492D+01
 0.188375306008632D+03 0.162550706604597D+03 -.303335364291409D+01 0.271674643253467D+02
 0.561334156947834D+03 0.339811291568117D+02 0.989171120038004D+02 -.551504055805931D+03
0.163082869834D-04 0.000000000000D+00 0.000000000000D+00 0.404741627946D-06 0.000000000000D+00  7 -2 2 23 -13 13 23 21 0 0.80603422D-01 0.39653172D-01 0.70027443D+05 0.70027443D+05 0.70027443D+05 0.11346451D+01  1  2  2  1  7  1       -2 0.362789436659D-03 0.100000000000D+01
-.787259585961D-06 0.000000000000D+00 -.626281160868D-07 0.404741627946D-06 0.000000000000D+00  7 -2 2 23 -13 13 23 21 2 0.80603422D-01 0.39653172D-01 0.70027443D+05 0.70027443D+05 0.70027443D+05 0.11346451D+01  1  2  3  1  7  1       -2 -.225467716911D-04 0.100000000000D+01
0.104017353855D-05 0.000000000000D+00 0.000000000000D+00 0.404741627946D-06 0.000000000000D+00  7 -2 2 23 -13 13 23 21 2 0.80603422D-01 0.39653172D-01 0.70027443D+05 0.70027443D+05 0.70027443D+05 0.11346451D+01  1  2 15  1  7  1       -2 0.297901171493D-04 0.100000000000D+01
  </mgrwgt>
  </event>
  <event>
  8     66 0.28248871E-05 0.26557949E+03 0.75467711E-02 0.95426501E-01
       -2 -1    0    0    0  501 0.00000000E+00 0.00000000E+00 0.39188722E+02 0.39190028E+02 0.32000000E+00 0.0000E+00 0.9000E+01
        2 -1    0    0  501    0 0.00000000E+00 0.00000000E+00 -.24022995E+04 0.24022996E+04 0.32000000E+00 0.0000E+00 0.9000E+01
       25  2    1    2    0    0 -.13383398E+03 -.12114606E+03 -.19540310E+04 0.19851594E+04 0.30005489E+03 0.0000E+00 0.0000E+00
       23  2    1    2    0    0 0.13383398E+03 0.12114606E+03 -.40907984E+03 0.45633018E+03 0.91120865E+02 0.0000E+00 0.0000E+00
       23  1    3    3    0    0 0.61540959E+02 -.63250898E+02 -.72046398E+03 0.73155421E+03 0.91188000E+02 0.0000E+00 0.9000E+01
      -11  1    4    4    0    0 0.76627897E+02 0.60377615E+02 -.11584998E+03 0.15145464E+03 0.51099893E-03 0.0000E+00 0.9000E+01
       11  1    4    4    0    0 0.57206079E+02 0.60768445E+02 -.29322986E+03 0.30487553E+03 0.51099893E-03 0.0000E+00 0.9000E+01
       23  1    3    3    0    0 -.19537494E+03 -.57895163E+02 -.12335670E+04 0.12536052E+04 0.91188000E+02 0.0000E+00 0.9000E+01
#aMCatNLO 1  0  0  2  2 0.33631201D+03 0.00000000D+00  -5  7  0 0.00000000D+00 0.00000000D+00 0.00000000D+00 0.00000000D+00 0.00000000D+00
  <mgrwgt>
 0.2467777922D-03    5    2    0
 0.306830031740428D+03 0.000000000000000D+00 0.000000000000000D+00 0.306830031740428D+03
 0.306830031740428D+03 0.000000000000000D+00 0.000000000000000D+00 -.306830031740428D+03
 0.136143395346974D+03 0.615409594261364D+02 -.632508979849641D+02 -.493133548808929D+02
 0.156452402904704D+03 0.766278968954040D+02 0.603776153765235D+02 0.122311337796165D+03
 0.837854486988677D+02 0.572060790747244D+02 0.607684454327268D+02 0.739337340168100D+01
 0.237278816530310D+03 -.195374935396265D+03 -.578951628242862D+02 -.803913563169535D+02
 0.000000000000000D+00 0.000000000000000D+00 0.000000000000000D+00 -.000000000000000D+00
 0.457670610757492D+03 0.000000000000000D+00 0.000000000000000D+00 0.457670610757492D+03
 0.612232504660781D+03 0.000000000000000D+00 0.000000000000000D+00 -.612232504660781D+03
 0.170572572006363D+03 0.255050738865061D+02 -.133031707548618D+03 -.493133548808929D+02
 0.129737346584634D+03 0.430036250839124D+02 -.473328374135345D+01 0.122311337796165D+03
 0.515667035994974D+02 0.413036312502603D+02 0.299745391191301D+02 0.739337340168100D+01
 0.347897941163632D+03 -.264127021708153D+03 -.191028459542015D+03 -.803913563169535D+02
 0.370128552064146D+03 0.154314691487474D+03 0.298818911712856D+03 -.154561893903289D+03
0.344637550253D-05 0.000000000000D+00 0.000000000000D+00 0.687836327878D-06 0.000000000000D+00  7 -2 2 23 -11 11 23 21 0 0.60291362D-02 0.36958465D+00 0.70532463D+05 0.70532463D+05 0.70532463D+05 0.11343800D+01  1  2  2  2  7  2        2 0.244125747361D-03 0.100000000000D+01
-.186612596003D-06 0.000000000000D+00 -.132349893812D-07 0.687836327878D-06 0.000000000000D+00  7 -2 2 23 -11 11 23 21 2 0.60291362D-02 0.36958465D+00 0.70532463D+05 0.70532463D+05 0.70532463D+05 0.11343800D+01  1  2  3  2  7  2        2 -.170101849403D-04 0.100000000000D+01
0.220033767186D-06 0.000000000000D+00 0.000000000000D+00 0.687836327878D-06 0.000000000000D+00  7 -2 2 23 -11 11 23 21 2 0.60291362D-02 0.36958465D+00 0.70532463D+05 0.70532463D+05 0.70532463D+05 0.11343800D+01  1  2 15  2  7  2        2 0.200566047154D-04 0.100000000000D+01
-.569145945067D-06 0.000000000000D+00 -.758244944826D-06 0.687836327878D-06 0.000000000000D+00  7 -2 2 23 -11 11 23 21 2 0.60291362D-02 0.77728013D+00 0.70532463D+05 0.70532463D+05 0.70532463D+05 0.11343800D+01  1  2  5  2  7  2        2 -.394380494887D-06 0.100000000000D+01
0.123199583678D-08 0.000000000000D+00 -.609664886965D-07 0.687836327878D-06 0.000000000000D+00  7 -2 21 23 -11 11 23 -2 2 0.60291362D-02 0.77728013D+00 0.70532463D+05 0.70532463D+05 0.70532463D+05 0.11343800D+01  1  2  5  4  7  2        2 0.556547989293D-11 0.100000000000D+01
  </mgrwgt>
  </event>
  <event>
  8     66 0.28248871E-05 0.11925516E+03 0.75467711E-02 0.10504820E+00
       -2 -1    0    0    0  501 0.00000000E+00 0.00000000E+00 0.35151945E+02 0.35153401E+02 0.32000000E+00 0.0000E+00 0.9000E+01
        2 -1    0    0  501    0 0.00000000E+00 0.00000000E+00 -.15601362E+04 0.15601362E+04 0.32000000E+00 0.0000E+00 0.9000E+01
       25  2    1    2    0    0 0.68235223E+02 -.14208101E+02 -.73627225E+03 0.79832541E+03 0.30061392E+03 0.0000E+00 0.0000E+00
       23  2    1    2    0    0 -.68235223E+02 0.14208101E+02 -.78871197E+03 0.79696419E+03 0.90705139E+02 0.0000E+00 0.0000E+00
       23  1    3    3    0    0 0.15428677E+03 -.81252663E+01 -.37131755E+03 0.41238623E+03 0.91188000E+02 0.0000E+00 0.9000E+01
      -13  1    4    4    0    0 -.17783172E+02 -.37074118E+02 -.34775555E+03 0.35017805E+03 0.10565837E+00 0.0000E+00 0.9000E+01
       13  1    4    4    0    0 -.50452051E+02 0.51282220E+02 -.44095642E+03 0.44678614E+03 0.10565837E+00 0.0000E+00 0.9000E+01
       23  1    3    3    0    0 -.86051550E+02 -.60828350E+01 -.36495470E+03 0.38593919E+03 0.91188000E+02 0.0000E+00 0.9000E+01
#aMCatNLO 1  0  0  2  1 0.19644629D+02 0.00000000D+00  -5  7  0 0.00000000D+00 0.00000000D+00 0.00000000D+00 0.00000000D+00 0.00000000D+00
  <mgrwgt>
 0.2571165181D-03    9    2    0
 0.234185840818312D+03 0.000000000000000D+00 0.000000000000000D+00 0.234185840818312D+03
 0.234185840818312D+03 0.000000000000000D+00 0.000000000000000D+00 -.234185840818312D+03
 0.195618270291145D+03 0.154286767998590D+03 -.812526746566864D+01 0.779796741264050D+02
 0.604512565210283D+02 -.177831318572936D+02 -.370742361858364D+02 -.443127030043767D+02
 0.860464327760278D+02 -.504521003772624D+02 0.512823394671522D+02 -.472090650169845D+02
 0.126255722048423D+03 -.860515357640338D+02 -.608283581564714D+01 0.135420938949562D+02
 0.000000000000000D+00 -.000000000000000D+00 -.000000000000000D+00 -.000000000000000D+00
 0.238172584062656D+03 0.000000000000000D+00 0.000000000000000D+00 0.238172584062656D+03
 0.259909254918289D+03 0.000000000000000D+00 0.000000000000000D+00 -.259909254918289D+03
 0.196547264271204D+03 0.155675128560524D+03 -.227881189046339D-01 0.779796741264050D+02
 0.588457914390603D+02 -.173607915393771D+02 -.346094559284249D+02 -.443127030043767D+02
 0.878847087604294D+02 -.498363421932320D+02 0.548759073813519D+02 -.472090650169845D+02
 0.125505707515864D+03 -.851602395918363D+02 -.881226791965577D+00 0.135420938949562D+02
 0.292983669943873D+02 -.331775523607853D+01 -.193624365420568D+02 -.217366708556324D+02
0.587036135373D-06 0.000000000000D+00 0.000000000000D+00 0.595891049284D-07 0.000000000000D+00  7 -2 2 23 -13 13 23 21 0 0.54081060D-02 0.24002106D+00 0.43678730D+05 0.43678730D+05 0.43678730D+05 0.11524947D+01  1  2  2  2  7  2        2 0.138686136606D-03 0.100000000000D+01
-.320995367785D-07 0.000000000000D+00 -.225437333000D-08 0.595891049284D-07 0.000000000000D+00  7 -2 2 23 -13 13 23 21 2 0.54081060D-02 0.24002106D+00 0.43678730D+05 0.43678730D+05 0.43678730D+05 0.11524947D+01  1  2  3  2  7  2        2 -.100726754555D-04 0.100000000000D+01
0.361591239380D-07 0.000000000000D+00 0.000000000000D+00 0.595891049284D-07 0.000000000000D+00  7 -2 2 23 -13 13 23 21 2 0.54081060D-02 0.24002106D+00 0.43678730D+05 0.43678730D+05 0.43678730D+05 0.11524947D+01  1  2 15  2  7  2        2 0.113465537741D-04 0.100000000000D+01
0.232024745422D-05 0.000000000000D+00 0.000000000000D+00 0.595891049284D-07 0.000000000000D+00  7 -2 2 23 -13 13 23 21 2 0.54081060D-02 0.26828468D+00 0.47891356D+05 0.47891356D+05 0.47891356D+05 0.11489450D+01  1  2 12  2  7  2        2 0.579109914854D-03 0.100000000000D+01
-.236055706336D-05 0.000000000000D+00 0.000000000000D+00 0.595891049284D-07 0.000000000000D+00  7 -2 2 23 -13 13 23 21 2 0.54081060D-02 0.24002106D+00 0.43678730D+05 0.43678730D+05 0.43678730D+05 0.11524947D+01  1  2  4  2  7  2        2 -.740731100182D-03 0.100000000000D+01
-.427888823498D-05 0.000000000000D+00 -.606144407011D-06 0.595891049284D-07 0.000000000000D+00  7 -2 2 23 -13 13 23 21 2 0.54081060D-02 0.26822343D+00 0.43678730D+05 0.43678730D+05 0.43678730D+05 0.11524947D+01  1  2  5  2  7  2        2 -.107542475644D-02 0.100000000000D+01
0.432324260125D-05 0.000000000000D+00 0.602423089841D-06 0.595891049284D-07 0.000000000000D+00  7 -2 2 23 -13 13 23 21 2 0.54081060D-02 0.24002106D+00 0.43678730D+05 0.43678730D+05 0.43678730D+05 0.11524947D+01  1  2  6  2  7  2        2 0.135661208877D-02 0.100000000000D+01
0.413157932024D-07 0.000000000000D+00 0.000000000000D+00 0.595891049284D-07 0.000000000000D+00  7 -2 21 23 -13 13 23 -2 2 0.54081060D-02 0.26828468D+00 0.47891356D+05 0.47891356D+05 0.47891356D+05 0.11489450D+01  1  2 12  4  7  2        2 0.299280305366D-05 0.100000000000D+01
-.736282372920D-07 0.000000000000D+00 -.107745539460D-07 0.595891049284D-07 0.000000000000D+00  7 -2 21 23 -13 13 23 -2 2 0.54081060D-02 0.26822343D+00 0.43678730D+05 0.43678730D+05 0.43678730D+05 0.11524947D+01  1  2  5  4  7  2        2 -.540244690022D-05 0.100000000000D+01
  </mgrwgt>
  </event>
  <event>
  8     66 0.28248871E-05 0.26579075E+03 0.75467711E-02 0.91827312E-01
       -2 -1    0    0    0  501 0.00000000E+00 0.00000000E+00 0.13484609E+03 0.13484647E+03 0.32000000E+00 0.0000E+00 0.9000E+01
        2 -1    0    0  501    0 0.00000000E+00 0.00000000E+00 -.22034515E+04 0.22034515E+04 0.32000000E+00 0.0000E+00 0.9000E+01
       25  2    1    2    0    0 0.17664414E+03 0.82789014E+01 -.21073145E+04 0.21359947E+04 0.30071140E+03 0.0000E+00 0.0000E+00
       23  2    1    2    0    0 -.17664414E+03 -.82789014E+01 0.38709058E+02 0.20230331E+03 0.90313589E+02 0.0000E+00 0.0000E+00
       23  1    3    3    0    0 -.18059459E+01 0.93898503E+02 -.77761472E+03 0.78855570E+03 0.91188000E+02 0.0000E+00 0.9000E+01
      -13  1    4    4    0    0 -.14374019E+03 0.11776601E+02 0.62320055E+02 0.15711057E+03 0.10565837E+00 0.0000E+00 0.9000E+01
       13  1    4    4    0    0 -.32903945E+02 -.20055502E+02 -.23610997E+02 0.45192733E+02 0.10565837E+00 0.0000E+00 0.9000E+01
       23  1    3    3    0    0 0.17845008E+03 -.85619602E+02 -.13296998E+04 0.13474390E+04 0.91188000E+02 0.0000E+00 0.9000E+01
#aMCatNLO 1  0  0  2  1 0.53106126D+03 0.00000000D+00  -5  7  0 0.00000000D+00 0.00000000D+00 0.00000000D+00 0.00000000D+00 0.00000000D+00
  <mgrwgt>
 0.4028928813D-03    3    2    0
 0.545093838121150D+03 0.000000000000000D+00 0.000000000000000D+00 0.545093838121150D+03
 0.545093838121150D+03 0.000000000000000D+00 0.000000000000000D+00 -.545093838121150D+03
 0.215834577590477D+03 -.180594578553186D+01 0.938985031019787D+02 -.171607468411742D+03
 0.455231292812382D+03 -.143740345809805D+03 0.117766446128755D+02 0.431781835634354D+03
 0.521301428305698D+02 -.329037930079501D+02 -.200555460497952D+02 0.351093615702440D+02
 0.366991663008871D+03 0.178450084603287D+03 -.856196016650590D+02 -.295283728792856D+03
 0.000000000000000D+00 0.000000000000000D+00 0.000000000000000D+00 0.000000000000000D+00
 0.159167786923054D+04 0.000000000000000D+00 0.000000000000000D+00 0.159167786923054D+04
 0.677882948365732D+03 0.000000000000000D+00 0.000000000000000D+00 -.677882948365732D+03
 0.221710357492968D+03 -.934202429848991D+02 0.516116872579730D+02 -.171607468411742D+03
 0.567540942192264D+03 -.357891058095177D+03 -.870698456196200D+02 0.431781835634354D+03
 0.766335075898868D+02 -.598646612347652D+02 -.324999930908593D+02 0.351093615702440D+02
 0.346771463956757D+03 0.290005035418400D+02 -.154601704955732D+03 -.295283728792856D+03
 0.105690454636440D+04 0.482175458773002D+03 0.222559856408239D+03 0.913794920864806D+03
0.288235270829D-04 0.000000000000D+00 0.000000000000D+00 0.996619791627D-06 0.000000000000D+00  7 -2 2 23 -13 13 23 21 0 0.20745583D-01 0.33899257D+00 0.70644724D+05 0.70644724D+05 0.70644724D+05 0.11343213D+01  1  2  2  2  7  2        2 0.383349520807D-03 0.100000000000D+01
-.596909372093D-06 0.000000000000D+00 -.110689933407D-06 0.996619791627D-06 0.000000000000D+00  7 -2 2 23 -13 13 23 21 2 0.20745583D-01 0.33899257D+00 0.70644724D+05 0.70644724D+05 0.70644724D+05 0.11343213D+01  1  2  3  2  7  2        2 -.102147647153D-04 0.100000000000D+01
0.173894400314D-05 0.000000000000D+00 0.000000000000D+00 0.996619791627D-06 0.000000000000D+00  7 -2 2 23 -13 13 23 21 2 0.20745583D-01 0.33899257D+00 0.70644724D+05 0.70644724D+05 0.70644724D+05 0.11343213D+01  1  2 15  2  7  2        2 0.297581252290D-04 0.100000000000D+01
  </mgrwgt>
  </event>
  <event>
  8     66 0.28248871E-05 0.91191992E+02 0.75467711E-02 0.10953428E+00
       -2 -1    0    0    0  501 0.00000000E+00 0.00000000E+00 0.18250586E+03 0.18250614E+03 0.32000000E+00 0.0000E+00 0.9000E+01
        2 -1    0    0  501    0 0.00000000E+00 0.00000000E+00 -.36940814E+03 0.36940828E+03 0.32000000E+00 0.0000E+00 0.9000E+01
       25  2    1    2    0    0 -.46786249E+02 0.73863798E+02 -.25874114E+03 0.40610486E+03 0.30054843E+03 0.0000E+00 0.0000E+00
       23  2    1    2    0    0 0.46786249E+02 -.73863798E+02 0.71838857E+02 0.14580957E+03 0.91949955E+02 0.0000E+00 0.0000E+00
       23  1    3    3    0    0 -.51141416E+02 0.18280699E+02 0.19615525E+02 0.10793354E+03 0.91188000E+02 0.0000E+00 0.9000E+01
      -13  1    4    4    0    0 0.94340993E+01 -.61051915E+02 0.84199862E+02 0.10443164E+03 0.10565837E+00 0.0000E+00 0.9000E+01
       13  1    4    4    0    0 0.37352150E+02 -.12811884E+02 -.12361005E+02 0.41377930E+02 0.10565837E+00 0.0000E+00 0.9000E+01
       23  1    3    3    0    0 0.43551671E+01 0.55583100E+02 -.27835667E+03 0.29817132E+03 0.91188000E+02 0.0000E+00 0.9000E+01
#aMCatNLO 1  0  0  2  1 0.81454158D+01 0.00000000D+00  -5  7  0 0.00000000D+00 0.00000000D+00 0.00000000D+00 0.00000000D+00 0.00000000D+00
  <mgrwgt>
 0.2057043830D-03   11    2    0
 0.259652201750067D+03 0.000000000000000D+00 0.000000000000000D+00 0.259652201750067D+03
 0.259652201750067D+03 0.000000000000000D+00 0.000000000000000D+00 -.259652201750067D+03
 0.121771086304631D+03 -.511414160882731D+02 0.182806997037774D+02 0.596935314304342D+02
 0.141293898494020D+03 0.943406458640652D+01 -.610519799629721D+02 0.127073285625338D+03
 0.395273101394202D+02 0.373521862991934D+02 -.128118206716963D+02 0.175490073923194D+01
 0.216712108562063D+03 0.435516520267314D+01 0.555831009308911D+02 -.188521717795004D+03
 0.000000000000000D+00 0.000000000000000D+00 -.000000000000000D+00 -.000000000000000D+00
 0.262112778560053D+03 0.000000000000000D+00 0.000000000000000D+00 0.262112778560053D+03
 0.266513873495167D+03 0.000000000000000D+00 0.000000000000000D+00 -.266513873495167D+03
 0.122517501608243D+03 -.523597876244239D+02 0.197590941496501D+02 0.596935314304342D+02
 0.140478170688279D+03 0.802874691804100D+01 -.593467416395603D+02 0.127073285625338D+03
 0.390044870892307D+02 0.369605146814415D+02 -.123365591220711D+02 0.175490073923194D+01
 0.217368121598832D+03 0.219022167685259D+01 0.582100832505150D+02 -.188521717795004D+03
 0.925837107063498D+01 0.518030434808873D+01 -.628587663853378D+01 -.440109493511317D+01
0.848297212734D-06 0.000000000000D+00 0.000000000000D+00 0.170747474217D-06 0.000000000000D+00  7 -2 2 23 -13 13 23 21 0 0.28077856D-01 0.56832055D-01 0.24693414D+05 0.24693414D+05 0.24693414D+05 0.11752619D+01  1  2  2  2  7  2        2 0.984982373526D-04 0.100000000000D+01
-.326763703051D-07 0.000000000000D+00 -.325768465869D-08 0.170747474217D-06 0.000000000000D+00  7 -2 2 23 -13 13 23 21 2 0.28077856D-01 0.56832055D-01 0.24693414D+05 0.24693414D+05 0.24693414D+05 0.11752619D+01  1  2  3  2  7  2        2 -.524063048616D-05 0.100000000000D+01
0.515624247183D-07 0.000000000000D+00 0.000000000000D+00 0.170747474217D-06 0.000000000000D+00  7 -2 2 23 -13 13 23 21 2 0.28077856D-01 0.56832055D-01 0.24693414D+05 0.24693414D+05 0.24693414D+05 0.11752619D+01  1  2 15  2  7  2        2 0.826957255032D-05 0.100000000000D+01
0.164368495192D-05 0.000000000000D+00 0.000000000000D+00 0.170747474217D-06 0.000000000000D+00  7 -2 2 23 -13 13 23 21 2 0.28077856D-01 0.58598293D-01 0.25952421D+05 0.25952421D+05 0.25952421D+05 0.11732213D+01  1  2 12  2  7  2        2 0.254347590168D-03 0.100000000000D+01
-.162693667604D-05 0.000000000000D+00 0.000000000000D+00 0.170747474217D-06 0.000000000000D+00  7 -2 2 23 -13 13 23 21 2 0.28077856D-01 0.56832055D-01 0.24693414D+05 0.24693414D+05 0.24693414D+05 0.11752619D+01  1  2  4  2  7  2        2 -.260927816153D-03 0.100000000000D+01
-.238330041669D-04 0.000000000000D+00 -.342357297521D-05 0.170747474217D-06 0.000000000000D+00  7 -2 2 23 -13 13 23 21 2 0.28077856D-01 0.58783630D-01 0.24693414D+05 0.24693414D+05 0.24693414D+05 0.11752619D+01  1  2  5  2  7  2        2 -.368730247379D-02 0.100000000000D+01
0.239368998253D-04 0.000000000000D+00 0.342162257720D-05 0.170747474217D-06 0.000000000000D+00  7 -2 2 23 -13 13 23 21 2 0.28077856D-01 0.56832055D-01 0.24693414D+05 0.24693414D+05 0.24693414D+05 0.11752619D+01  1  2  6  2  7  2        2 0.383899575740D-02 0.100000000000D+01
0.248675878700D-07 0.000000000000D+00 0.000000000000D+00 0.170747474217D-06 0.188967429972D-07  7 -2 2 23 -13 13 23 21 2 0.28343934D-01 0.58333921D-01 0.25952421D+05 0.25952421D+05 0.25952421D+05 0.11732213D+01  1  2 11  2  7  2        2 0.380484043465D-05 0.100000000000D+01
0.403995998637D-07 0.000000000000D+00 0.000000000000D+00 0.170747474217D-06 0.000000000000D+00  7 -2 21 23 -13 13 23 -2 2 0.28077856D-01 0.58598293D-01 0.25952421D+05 0.25952421D+05 0.25952421D+05 0.11732213D+01  1  2 12  4  7  2        2 0.178416297555D-04 0.100000000000D+01
-.142116836449D-06 0.000000000000D+00 -.206163219082D-07 0.170747474217D-06 0.000000000000D+00  7 -2 21 23 -13 13 23 -2 2 0.28077856D-01 0.58783630D-01 0.24693414D+05 0.24693414D+05 0.24693414D+05 0.11752619D+01  1  2  5  4  7  2        2 -.626453843508D-04 0.100000000000D+01
0.143690238221D-09 0.000000000000D+00 0.000000000000D+00 0.170747474217D-06 0.896896911851D-10  7 -2 21 23 -13 13 23 -2 2 0.28343934D-01 0.58333921D-01 0.25952421D+05 0.25952421D+05 0.25952421D+05 0.11732213D+01  1  2 11  4  7  2        2 0.630601614418D-07 0.100000000000D+01
  </mgrwgt>
  </event>
  <event>
  8     66 0.28248871E-05 0.22543503E+03 0.75467711E-02 0.10176020E+00
       21 -1    0    0  502  501 0.00000000E+00 0.00000000E+00 0.91075789E+02 0.91078877E+02 0.75000000E+00 0.0000E+00 0.9000E+01
        2 -1    0    0  501    0 0.00000000E+00 0.00000000E+00 -.26752328E+04 0.26752328E+04 0.32000000E+00 0.0000E+00 0.9000E+01
       23  2    1    2    0    0 0.15799640E+03 -.24674240E+02 -.16755150E+04 0.16856506E+04 0.92172619E+02 0.0000E+00 0.0000E+00
       23  1    1    2    0    0 -.17427730E-01 -.10195349E+03 -.57606932E+02 0.14841942E+03 0.91188000E+02 0.0000E+00 0.9000E+01
      -13  1    3    3    0    0 -.10169157E+02 -.11157824E+02 -.10083616E+03 0.10196004E+03 0.10565837E+00 0.0000E+00 0.9000E+01
       13  1    3    3    0    0 0.16816556E+03 -.13516416E+02 -.15746789E+04 0.15836906E+04 0.10565837E+00 0.0000E+00 0.9000E+01
       23  1    1    2    0    0 -.80624704E+02 0.89892053E+02 -.11198464E+03 0.18824648E+03 0.91188000E+02 0.0000E+00 0.9000E+01
        2  1    1    2  502    0 -.77354267E+02 0.36735673E+02 -.73905038E+03 0.74399513E+03 0.32000000E+00 0.0000E+00 0.9000E+01
#aMCatNLO 2  0  0  1  1 0.85634060D+02 0.00000000D+00  -5  7  0 0.00000000D+00 0.00000000D+00 0.00000000D+00 0.00000000D+00 0.00000000D+00
  <mgrwgt>
 0.3069995016D-03    1    2    0
 0.411707600228356D+03 0.000000000000000D+00 0.000000000000000D+00 0.411707600228356D+03
 0.411707600228356D+03 0.000000000000000D+00 0.000000000000000D+00 -.411707600228356D+03
 0.230887320008603D+03 -.218032264779561D+02 -.916073725596574D+02 0.190069492040732D+03
 0.249186737735559D+02 -.124764543304560D+02 -.100621926803273D+02 -.190795877428448D+02
 0.344624172739342D+03 0.135200170650781D+03 0.213900898412715D+01 -.316989209489600D+03
 0.222985033935210D+03 -.100920489842369D+03 0.995305562558576D+02 0.145999305191713D+03
 0.000000000000000D+00 -.000000000000000D+00 0.000000000000000D+00 -.000000000000000D+00
 0.425477908373725D+03 0.000000000000000D+00 0.000000000000000D+00 0.425477908373725D+03
 0.572657377824871D+03 0.000000000000000D+00 0.000000000000000D+00 -.572657377824871D+03
 0.234171254934146D+03 -.174277473216904D-01 -.101953485399395D+03 0.190069492040732D+03
 0.243299024049752D+02 -.101693910351971D+02 -.111578209598450D+02 -.190795877428448D+02
 0.359088547944393D+03 0.168165789441683D+03 -.135164194011008D+02 -.316989209489600D+03
 0.210266432316845D+03 -.806247039950023D+02 0.898920530664966D+02 0.145999305191713D+03
 0.170279148598236D+03 -.773542666641622D+02 0.367356726938437D+02 -.147179469451146D+03
0.128232264104D-05 0.000000000000D+00 0.000000000000D+00 0.706474431110D-09 0.460960202102D-14  7 21 2 23 -13 13 23 2 2 0.14011894D-01 0.41157437D+00 0.77711999D+05 0.77711999D+05 0.77711999D+05 0.11308211D+01  1  2  1  3  7  1       -2 0.306999501622D-03 0.100000000000D+01
  </mgrwgt>
  </event>
  <event>
  8     66 0.28248871E-05 0.47833886E+03 0.75467711E-02 0.91349646E-01
       -2 -1    0    0    0  501 0.00000000E+00 0.00000000E+00 0.14943434E+03 0.14943468E+03 0.32000000E+00 0.0000E+00 0.9000E+01
        2 -1    0    0  501    0 0.00000000E+00 0.00000000E+00 -.21659134E+04 0.21659134E+04 0.32000000E+00 0.0000E+00 0.9000E+01
       25  2    1    2    0    0 -.43991998E+03 0.10474795E+02 -.16539599E+04 0.17375661E+04 0.29985559E+03 0.0000E+00 0.0000E+00
       23  2    1    2    0    0 0.43991998E+03 -.10474795E+02 -.36251915E+03 0.57778198E+03 0.93661996E+02 0.0000E+00 0.0000E+00
       23  1    3    3    0    0 -.40624170E+03 -.71975926E+01 -.14804423E+04 0.15378910E+04 0.91188000E+02 0.0000E+00 0.9000E+01
      -11  1    4    4    0    0 0.35405901E+03 0.56368524E+01 -.24186520E+03 0.42882203E+03 0.51099893E-03 0.0000E+00 0.9000E+01
       11  1    4    4    0    0 0.85860971E+02 -.16111648E+02 -.12065395E+03 0.14895995E+03 0.51099893E-03 0.0000E+00 0.9000E+01
       23  1    3    3    0    0 -.33678283E+02 0.17672388E+02 -.17351761E+03 0.19967512E+03 0.91188000E+02 0.0000E+00 0.9000E+01
#aMCatNLO 1  0  0  1  1 0.33525112D+03 0.00000000D+00  -5  7  0 0.00000000D+00 0.00000000D+00 0.00000000D+00 0.00000000D+00 0.00000000D+00
  <mgrwgt>
 0.2758738673D-03    4    2    0
 0.568913235510699D+03 0.000000000000000D+00 0.000000000000000D+00 0.568913235510699D+03
 0.568913235510699D+03 0.000000000000000D+00 0.000000000000000D+00 -.568913235510699D+03
 0.505764435521872D+03 -.406241696178685D+03 -.719759260299763D+01 -.287051026546404D+03
 0.443965904169721D+03 0.354059008625581D+03 0.563685237611675D+01 0.267798746023199D+03
 0.892912775545298D+02 0.858609706421355D+02 -.161116476569128D+02 0.184727035782509D+02
 0.988048537752745D+02 -.336782830890323D+02 0.176723878837937D+02 0.779576944954329D+00
 0.000000000000000D+00 0.000000000000000D+00 -.000000000000000D+00 -.000000000000000D+00
 0.696139755835782D+03 0.000000000000000D+00 0.000000000000000D+00 0.696139755835782D+03
 0.865772485950964D+03 0.000000000000000D+00 0.000000000000000D+00 -.865772485950964D+03
 0.528432097776269D+03 -.410343295307949D+03 0.141934205781049D+03 -.287051026546404D+03
 0.461628208434773D+03 0.350467443672371D+03 0.136224099838664D+03 0.267798746023199D+03
 0.876455897148768D+02 0.851592431876714D+02 0.940276122645079D+01 0.184727035782509D+02
 0.108482279997185D+03 -.345003789866829D+02 0.475633245153223D+02 0.779576944954329D+00
 0.375724065863641D+03 0.921698743458949D+01 -.335124391361486D+03 -.169632730115182D+03
0.287628390901D-04 0.000000000000D+00 0.000000000000D+00 0.619691393448D-06 0.000000000000D+00  7 -2 2 23 -11 11 23 21 0 0.22989927D-01 0.33321748D+00 0.22880806D+06 0.22880806D+06 0.22880806D+06 0.10933649D+01  1  2  2  1  7  1       -2 0.321501540541D-03 0.100000000000D+01
-.153951278474D-05 0.000000000000D+00 -.110456875536D-06 0.619691393448D-06 0.000000000000D+00  7 -2 2 23 -11 11 23 21 2 0.22989927D-01 0.33321748D+00 0.22880806D+06 0.22880806D+06 0.22880806D+06 0.10933649D+01  1  2  3  1  7  1       -2 -.205714497741D-04 0.100000000000D+01
0.178228166464D-05 0.000000000000D+00 0.000000000000D+00 0.619691393448D-06 0.000000000000D+00  7 -2 2 23 -11 11 23 21 2 0.22989927D-01 0.33321748D+00 0.22880806D+06 0.22880806D+06 0.22880806D+06 0.10933649D+01  1  2 15  1  7  1       -2 0.238154032307D-04 0.100000000000D+01
-.365742303020D-05 0.000000000000D+00 0.000000000000D+00 0.619691393448D-06 0.000000000000D+00  7 -2 2 23 -11 11 23 21 2 0.22989927D-01 0.33321748D+00 0.22880806D+06 0.22880806D+06 0.22880806D+06 0.10933649D+01  1  2  4  1  7  1       -2 -.488716267342D-04 0.100000000000D+01
  </mgrwgt>
  </event>
  <event>
  8     66 0.28248871E-05 0.26809201E+03 0.75467711E-02 0.89209011E-01
       -2 -1    0    0    0  501 0.00000000E+00 0.00000000E+00 0.54831532E+02 0.54832466E+02 0.32000000E+00 0.0000E+00 0.9000E+01
        2 -1    0    0  501    0 0.00000000E+00 0.00000000E+00 -.32965911E+04 0.32965911E+04 0.32000000E+00 0.0000E+00 0.9000E+01
       25  2    1    2    0    0 0.14510003E+03 -.14492122E+03 -.60925280E+03 0.70937577E+03 0.29994803E+03 0.0000E+00 0.0000E+00
       23  2    1    2    0    0 -.14510003E+03 0.14492122E+03 -.26325068E+04 0.26420478E+04 0.90931815E+02 0.0000E+00 0.0000E+00
       23  1    3    3    0    0 0.14990112E+03 -.54451437E+02 -.16510975E+03 0.24700564E+03 0.91188000E+02 0.0000E+00 0.9000E+01
      -13  1    4    4    0    0 -.12146022E+03 0.59413123E+02 -.15111314E+04 0.15171686E+04 0.10565837E+00 0.0000E+00 0.9000E+01
       13  1    4    4    0    0 -.23639816E+02 0.85508102E+02 -.11213754E+04 0.11248792E+04 0.10565837E+00 0.0000E+00 0.9000E+01
       23  1    3    3    0    0 -.48010866E+01 -.90469788E+02 -.44414306E+03 0.46237013E+03 0.91188000E+02 0.0000E+00 0.9000E+01
#aMCatNLO 1  0  0  1  1 0.73782695D+03 0.00000000D+00  -5  7  0 0.00000000D+00 0.00000000D+00 0.00000000D+00 0.00000000D+00 0.00000000D+00
  <mgrwgt>
 0.2272499507D-03    5    2    0
 0.425157303272272D+03 0.000000000000000D+00 0.000000000000000D+00 0.425157303272272D+03
 0.425157303272272D+03 0.000000000000000D+00 0.000000000000000D+00 -.425157303272272D+03
 0.344077845346119D+03 0.149901120909448D+03 -.544514366288724D+02 0.290927838669954D+03
 0.218683864124449D+03 -.121460350242275D+03 0.594130878136560D+02 -.171872338507018D+03
 0.158432262923318D+03 -.236396840783928D+02 0.855081370747855D+02 -.131264259285141D+03
 0.129120634150659D+03 -.480108658877958D+01 -.904697882595692D+02 0.122087591222043D+02
 0.000000000000000D+00 -.000000000000000D+00 -.000000000000000D+00 0.000000000000000D+00
 0.120842793396056D+04 0.000000000000000D+00 0.000000000000000D+00 0.120842793396056D+04
 0.773730150339901D+03 0.000000000000000D+00 0.000000000000000D+00 -.773730150339901D+03
 0.536653783107697D+03 0.422011250078703D+03 0.130190357068573D+03 0.290927838669954D+03
 0.231269430215746D+03 0.175568544174325D+02 0.153743960764025D+03 -.171872338507018D+03
 0.234448077263204D+03 0.977443069835577D+02 0.167873897968208D+03 -.131264259285141D+03
 0.123427774968472D+03 0.732260649369819D+02 -.375240443477076D+02 0.122087591222043D+02
 0.856359018745345D+03 -.610538476416675D+03 -.414284171453098D+03 0.434697783620662D+03
0.169423910192D-04 0.000000000000D+00 0.000000000000D+00 0.849301326192D-06 0.000000000000D+00  7 -2 2 23 -13 13 23 21 0 0.84356934D-02 0.50716794D+00 0.71873324D+05 0.71873324D+05 0.71873324D+05 0.11336859D+01  1  2  2  1  7  1       -2 0.208726498081D-03 0.100000000000D+01
-.697895506242D-06 0.000000000000D+00 -.650632425479D-07 0.849301326192D-06 0.000000000000D+00  7 -2 2 23 -13 13 23 21 2 0.84356934D-02 0.50716794D+00 0.71873324D+05 0.71873324D+05 0.71873324D+05 0.11336859D+01  1  2  3  1  7  1       -2 -.110504192691D-04 0.100000000000D+01
0.105811742948D-05 0.000000000000D+00 0.000000000000D+00 0.849301326192D-06 0.000000000000D+00  7 -2 2 23 -13 13 23 21 2 0.84356934D-02 0.50716794D+00 0.71873324D+05 0.71873324D+05 0.71873324D+05 0.11336859D+01  1  2 15  1  7  1       -2 0.167541431735D-04 0.100000000000D+01
0.928629497591D-04 0.000000000000D+00 -.234409623959D-04 0.849301326192D-06 0.000000000000D+00  7 -2 2 23 -13 13 23 21 2 0.17340833D+00 0.50716794D+00 0.71873324D+05 0.71873324D+05 0.71873324D+05 0.11336859D+01  1  2  5  1  7  1       -2 0.396300543220D-05 0.100000000000D+01
0.239284172769D-04 0.000000000000D+00 -.757077097215D-05 0.849301326192D-06 0.000000000000D+00  7 21 2 23 -13 13 23 2 2 0.17340833D+00 0.50716794D+00 0.71873324D+05 0.71873324D+05 0.71873324D+05 0.11336859D+01  1  2  5  3  7  1       -2 0.885672331502D-05 0.100000000000D+01
  </mgrwgt>
  </event>
  <event>
  7     66 0.28248871E-05 0.33154547E+03 0.75467711E-02 0.90610777E-01
       -2 -1    0    0    0  501 0.00000000E+00 0.00000000E+00 0.17338937E+03 0.17338967E+03 0.32000000E+00 0.0000E+00 0.9000E+01
        2 -1    0    0  501    0 0.00000000E+00 0.00000000E+00 -.18621922E+04 0.18621922E+04 0.32000000E+00 0.0000E+00 0.9000E+01
       25  2    1    2    0    0 -.14140329E+03 -.36570158E+03 -.14602032E+04 0.15407585E+04 0.29666598E+03 0.0000E+00 0.0000E+00
       23  1    3    3    0    0 -.32698562E+02 -.52100141E-01 -.35694707E+03 0.36985897E+03 0.91188000E+02 0.0000E+00 0.9000E+01
      -11  1    1    2    0    0 0.18796104E+03 0.24308628E+03 -.15024157E+03 0.34204213E+03 0.51099893E-03 0.0000E+00 0.9000E+01
       11  1    1    2    0    0 -.46557749E+02 0.12261530E+03 -.78358020E+02 0.15278126E+03 0.51099893E-03 0.0000E+00 0.9000E+01
       23  1    3    3    0    0 -.10870473E+03 -.36564948E+03 -.11032561E+04 0.11708995E+04 0.91188000E+02 0.0000E+00 0.9000E+01
#aMCatNLO 1  0  0  1  2 0.42905631D+03 0.00000000D+00  -5  7  0 0.00000000D+00 0.00000000D+00 0.00000000D+00 0.00000000D+00 0.00000000D+00
  <mgrwgt>
 0.4292587756D-03    7    2    0
 0.568229402399154D+03 0.000000000000000D+00 0.000000000000000D+00 0.568229402399154D+03
 0.568229402399154D+03 0.000000000000000D+00 0.000000000000000D+00 -.568229402399154D+03
 0.132046148163019D+03 -.326985623144888D+02 -.521003243664495D-01 -.897314616442399D+02
 0.389390600334888D+03 0.187961037116126D+03 0.243086279292951D+03 0.239175142886765D+03
 0.157214254066229D+03 -.465577466308526D+02 0.122615296966995D+03 0.866844095553166D+02
 0.457807802234171D+03 -.108704728170785D+03 -.365649475935580D+03 -.236128090797842D+03
 0.000000000000000D+00 -.000000000000000D+00 -.000000000000000D+00 0.000000000000000D+00
 0.138806749428936D+04 0.000000000000000D+00 0.000000000000000D+00 0.138806749428936D+04
 0.666327944048839D+03 0.000000000000000D+00 0.000000000000000D+00 -.666327944048839D+03
 0.129757885151002D+03 0.113335565731079D+02 0.184843907514699D+02 -.897314616442399D+02
 0.517228818284712D+03 0.340442927945438D+03 0.307277585094053D+03 0.239175142886765D+03
 0.169806243874007D+03 0.844295470178947D+01 0.145769304431861D+03 0.866844095553166D+02
 0.397961320671999D+03 0.352247876703324D+02 -.305058519757682D+03 -.236128090797842D+03
 0.839641170356479D+03 -.395444226890668D+03 -.166472760519701D+03 0.721739550240522D+03
0.410872265708D-04 0.000000000000D+00 0.000000000000D+00 0.118760311772D-10 0.000000000000D+00  7 -2 2 23 -11 11 23 21 0 0.26675313D-01 0.28649113D+00 0.21507460D+06 0.21507460D+06 0.21507460D+06 0.10954098D+01  1  2  2  1  7  1       -2 0.522697739418D-03 0.100000000000D+01
-.216807998459D-05 0.000000000000D+00 -.157785768547D-06 0.118760311772D-10 0.000000000000D+00  7 -2 2 23 -11 11 23 21 2 0.26675313D-01 0.28649113D+00 0.21507460D+06 0.21507460D+06 0.21507460D+06 0.10954098D+01  1  2  3  1  7  1       -2 -.330957557680D-04 0.100000000000D+01
0.259259191739D-05 0.000000000000D+00 0.000000000000D+00 0.118760311772D-10 0.000000000000D+00  7 -2 2 23 -11 11 23 21 2 0.26675313D-01 0.28649113D+00 0.21507460D+06 0.21507460D+06 0.21507460D+06 0.10954098D+01  1  2 15  1  7  1       -2 0.395759333207D-04 0.100000000000D+01
0.342112029206D-06 0.000000000000D+00 0.000000000000D+00 0.118760311772D-10 0.000000000000D+00  7 -2 2 23 -11 11 23 21 2 0.64173339D-01 0.28649113D+00 0.52399232D+06 0.52399232D+06 0.52399232D+06 0.10670748D+01  1  2 12  1  7  1       -2 0.889190600090D-06 0.100000000000D+01
-.261725901651D-04 0.000000000000D+00 -.126505735926D-04 0.118760311772D-10 0.000000000000D+00  7 -2 2 23 -11 11 23 21 2 0.74627513D-01 0.28649113D+00 0.21507460D+06 0.21507460D+06 0.21507460D+06 0.10954098D+01  1  2  5  1  7  1       -2 -.544364348082D-04 0.100000000000D+01
0.328688360342D-07 0.000000000000D+00 0.000000000000D+00 0.118760311772D-10 0.000000000000D+00  7 21 2 23 -11 11 23 2 2 0.64173339D-01 0.28649113D+00 0.52399232D+06 0.52399232D+06 0.52399232D+06 0.10670748D+01  1  2 12  3  7  1       -2 0.837935320181D-06 0.100000000000D+01
-.231666765867D-05 0.000000000000D+00 -.146130940192D-05 0.118760311772D-10 0.000000000000D+00  7 21 2 23 -11 11 23 2 2 0.74627513D-01 0.28649113D+00 0.21507460D+06 0.21507460D+06 0.21507460D+06 0.10954098D+01  1  2  5  3  7  1       -2 -.472098325230D-04 0.100000000000D+01
  </mgrwgt>
  </event>
  <event>
  9     66 -.28248871E-05 0.30957603E+03 0.75467711E-02 0.99667690E-01
       -2 -1    0    0    0  501 0.00000000E+00 0.00000000E+00 0.39799632E+03 0.39799645E+03 0.32000000E+00 0.0000E+00 0.9000E+01
        2 -1    0    0  502    0 0.00000000E+00 0.00000000E+00 -.34055801E+03 0.34055816E+03 0.32000000E+00 0.0000E+00 0.9000E+01
       25  2    1    2    0    0 -.10970386E+03 0.21173494E+03 -.11502018E+03 0.40002737E+03 0.29987603E+03 0.0000E+00 0.0000E+00
       23  2    1    2    0    0 0.13794892E+03 -.18906484E+03 0.16908375E+03 0.30214499E+03 0.89032937E+02 0.0000E+00 0.0000E+00
       23  1    3    3    0    0 0.51519623E+02 0.15892423E+03 -.63564452E+02 0.20066607E+03 0.91188000E+02 0.0000E+00 0.9000E+01
      -13  1    4    4    0    0 0.28410434E+02 -.66924134E+02 0.10115887E+03 0.12457576E+03 0.10565837E+00 0.0000E+00 0.9000E+01
       13  1    4    4    0    0 0.10953848E+03 -.12214070E+03 0.67924884E+02 0.17756923E+03 0.10565837E+00 0.0000E+00 0.9000E+01
       23  1    3    3    0    0 -.16122348E+03 0.52810714E+02 -.51455726E+02 0.19936130E+03 0.91188000E+02 0.0000E+00 0.9000E+01
       21  1    1    2  502  501 -.28245055E+02 -.22670106E+02 0.33747423E+01 0.36382251E+02 0.75000000E+00 0.0000E+00 0.9000E+01
#aMCatNLO 2  0  0  2  1 0.36217631D+02 0.00000000D+00  -5  7  0 0.00000000D+00 0.00000000D+00 0.00000000D+00 0.00000000D+00 0.00000000D+00
  <mgrwgt>
 -.7629313627D-04    3    2    0
 0.349575253454378D+03 0.000000000000000D+00 0.000000000000000D+00 0.349575253454378D+03
 0.349575253454378D+03 0.000000000000000D+00 0.000000000000000D+00 -.349575253454378D+03
 0.199214168343075D+03 0.433364849633750D+02 0.152356260987407D+03 -.792499358585175D+02
 0.118314030116311D+03 0.236575473914754D+02 -.707387367511937D+02 0.918398676862541D+02
 0.172619509746937D+03 0.102564889771244D+03 -.127738030317499D+03 0.544144662942753D+02
 0.209002798702434D+03 -.169558922126095D+03 0.461205060812860D+02 -.670043981220119D+02
 0.000000000000000D+00 -.000000000000000D+00 -.000000000000000D+00 0.000000000000000D+00
 0.368442679098076D+03 0.000000000000000D+00 0.000000000000000D+00 0.368442679098076D+03
 0.367867477080757D+03 0.000000000000000D+00 0.000000000000000D+00 -.367867477080757D+03
 0.206172222967867D+03 0.515196224887067D+02 0.158924228311965D+03 -.792499358585175D+02
 0.117134695491142D+03 0.284103199144485D+02 -.669240563140981D+02 0.918398676862541D+02
 0.172852561804355D+03 0.109538595680619D+03 -.122140779580595D+03 0.544144662942753D+02
 0.203928477164667D+03 -.161223483415377D+03 0.528107137086629D+02 -.670043981220119D+02
 0.362221987508026D+02 -.282450546683971D+02 -.226701061259355D+02 0.575202017318972D+00
-.647849373644D-05 0.000000000000D+00 0.000000000000D+00 0.160459120957D-06 0.000000000000D+00  7 -2 2 23 -13 13 23 21 2 0.58094100D-01 0.53667081D-01 0.10755954D+06 0.10755954D+06 0.10755954D+06 0.11191341D+01  1  2 13  2  7  2        2 -.258859390899D-03 0.100000000000D+01
-.133103499271D-08 0.000000000000D+00 0.000000000000D+00 0.160459120957D-06 0.000000000000D+00  7 -2 2 23 -13 13 23 21 2 0.58094100D-01 0.49787764D-01 0.95837320D+05 0.95837320D+05 0.95837320D+05 0.11232405D+01  1  2  8  2  7  2        2 -.582191563669D-07 0.100000000000D+01
0.495904984004D-05 0.000000000000D+00 0.000000000000D+00 0.160459120957D-06 0.817763001304D-09  7 -2 2 23 -13 13 23 21 2 0.61229579D-01 0.52393009D-01 0.10755954D+06 0.10755954D+06 0.10755954D+06 0.11191341D+01  1  2  1  2  7  2        2 0.182624473787D-03 0.100000000000D+01
  </mgrwgt>
  </event>
  <event>
  9     66 0.28248871E-05 0.49071524E+03 0.75467711E-02 0.91983164E-01
       21 -1    0    0  502  501 0.00000000E+00 0.00000000E+00 0.15054807E+03 0.15054994E+03 0.75000000E+00 0.0000E+00 0.9000E+01
        2 -1    0    0  501    0 0.00000000E+00 0.00000000E+00 -.28809537E+04 0.28809538E+04 0.32000000E+00 0.0000E+00 0.9000E+01
       25  2    1    2    0    0 0.47550152E+03 0.33775799E+03 -.13636130E+04 0.15132322E+04 0.30041462E+03 0.0000E+00 0.0000E+00
       23  2    1    2    0    0 -.22409616E+03 -.32822937E+03 -.81046227E+03 0.90769882E+03 0.95469649E+02 0.0000E+00 0.0000E+00
       23  1    3    3    0    0 0.25313573E+03 0.21394188E+03 -.48861041E+03 0.59741461E+03 0.91188000E+02 0.0000E+00 0.9000E+01
      -13  1    4    4    0    0 -.12045998E+03 -.10732285E+03 -.38112878E+03 0.41386950E+03 0.10565837E+00 0.0000E+00 0.9000E+01
       13  1    4    4    0    0 -.10363619E+03 -.22090652E+03 -.42933349E+03 0.49382933E+03 0.10565837E+00 0.0000E+00 0.9000E+01
       23  1    3    3    0    0 0.22236579E+03 0.12381612E+03 -.87500262E+03 0.91581757E+03 0.91188000E+02 0.0000E+00 0.9000E+01
        2  1    1    2  502    0 -.25140536E+03 -.95286213E+01 -.55633036E+03 0.61057270E+03 0.32000000E+00 0.0000E+00 0.9000E+01
#aMCatNLO 2  0  0  1  1 0.25158587D+03 0.00000000D+00  -5  7  0 0.00000000D+00 0.00000000D+00 0.00000000D+00 0.00000000D+00 0.00000000D+00
  <mgrwgt>
 0.1900821772D-04    1    2    0
 0.517447587334245D+03 0.000000000000000D+00 0.000000000000000D+00 0.517447587334245D+03
 0.517447587334245D+03 0.000000000000000D+00 0.000000000000000D+00 -.517447587334245D+03
 0.307611308169716D+03 0.173140210198570D+03 0.210909932559811D+03 0.108852806715744D+03
 0.197753013043851D+03 -.163621020608325D+03 -.108958577663140D+03 -.215045143315754D+02
 0.280495198980858D+03 -.166682536520682D+03 -.223296207379293D+03 0.321448664698818D+02
 0.249035654474064D+03 0.157163346930437D+03 0.121344852482622D+03 -.119493158854050D+03
 0.000000000000000D+00 -.000000000000000D+00 -.000000000000000D+00 -.000000000000000D+00
 0.649530182895020D+03 0.000000000000000D+00 0.000000000000000D+00 0.649530182895020D+03
 0.667751511346061D+03 0.000000000000000D+00 0.000000000000000D+00 -.667751511346061D+03
 0.360573169709144D+03 0.253135732712226D+03 0.213941876836792D+03 0.108852806715744D+03
 0.162761235963459D+03 -.120459997451205D+03 -.107322713391767D+03 -.215045143315754D+02
 0.246116842333769D+03 -.103636167139764D+03 -.220906660154369D+03 0.321448664698818D+02
 0.295585592629605D+03 0.222365791279938D+03 0.123816118020726D+03 -.119493158854050D+03
 0.252244853605104D+03 -.251405359401195D+03 -.952862131138170D+01 -.182213284510401D+02
0.331818971079D-06 0.000000000000D+00 0.000000000000D+00 0.333183929173D-07 0.249543267555D-12  7 21 2 23 -13 13 23 2 2 0.23161384D-01 0.44322373D+00 0.40388225D+06 0.40388225D+06 0.40388225D+06 0.10751254D+01  1  2  1  3  7  1       -2 0.190082177195D-04 0.100000000000D+01
  </mgrwgt>
  </event>
  <event>
  9     66 0.28248871E-05 0.64499819E+03 0.75467711E-02 0.91243721E-01
       21 -1    0    0  502  501 0.00000000E+00 0.00000000E+00 0.34394976E+03 0.34395058E+03 0.75000000E+00 0.0000E+00 0.9000E+01
        2 -1    0    0  501    0 0.00000000E+00 0.00000000E+00 -.19798373E+04 0.19798373E+04 0.32000000E+00 0.0000E+00 0.9000E+01
       25  2    1    2    0    0 0.57668308E+03 0.15695992E+03 -.13678964E+04 0.15229776E+04 0.30186141E+03 0.0000E+00 0.0000E+00
       23  2    1    2    0    0 -.62738843E+03 -.20870864E+03 -.28603967E+03 0.72614564E+03 0.91067357E+02 0.0000E+00 0.0000E+00
       23  1    3    3    0    0 0.29968267E+03 0.69381508E+02 -.42743571E+03 0.53445302E+03 0.91188000E+02 0.0000E+00 0.9000E+01
      -11  1    4    4    0    0 -.49506627E+03 -.19428011E+03 -.25334165E+03 0.58908180E+03 0.51099893E-03 0.0000E+00 0.9000E+01
       11  1    4    4    0    0 -.13232215E+03 -.14428522E+02 -.32698011E+02 0.13706383E+03 0.51099893E-03 0.0000E+00 0.9000E+01
       23  1    3    3    0    0 0.27700041E+03 0.87578412E+02 -.94046074E+03 0.98852459E+03 0.91188000E+02 0.0000E+00 0.9000E+01
        2  1    1    2  502    0 0.50705342E+02 0.51748716E+02 0.18048558E+02 0.74664678E+02 0.32000000E+00 0.0000E+00 0.9000E+01
#aMCatNLO 2  0  0  1  2 0.72449715D+02 0.00000000D+00  -5  7  0 0.00000000D+00 0.00000000D+00 0.00000000D+00 0.00000000D+00 0.00000000D+00
  <mgrwgt>
 0.5901688105D-05    2    2    0
 0.761216419477585D+03 0.000000000000000D+00 0.000000000000000D+00 0.761216419477585D+03
 0.761216419477585D+03 0.000000000000000D+00 0.000000000000000D+00 -.761216419477585D+03
 0.337542165325853D+03 0.310706825667883D+03 0.806325101517461D+02 -.507851239919893D+02
 0.571946684816538D+03 -.475654956582346D+03 -.174469366439091D+03 0.265397461791965D+03
 0.162067534058123D+03 -.126849101372168D+03 -.884285003626544D+01 0.100483805063257D+03
 0.450876454754656D+03 0.291797232286631D+03 0.102679706323610D+03 -.315096142863233D+03
 0.000000000000000D+00 0.000000000000000D+00 0.000000000000000D+00 0.000000000000000D+00
 0.880787713946973D+03 0.000000000000000D+00 0.000000000000000D+00 0.880787713946973D+03
 0.773132051120158D+03 0.000000000000000D+00 0.000000000000000D+00 -.773132051120158D+03
 0.324835152275786D+03 0.299682669460236D+03 0.693815077404483D+02 -.507851239919893D+02
 0.594366208181523D+03 -.495066272727588D+03 -.194280113007168D+03 0.265397461791965D+03
 0.166776286279305D+03 -.132322153584229D+03 -.144285223067973D+02 0.100483805063257D+03
 0.438178090184970D+03 0.277000414943880D+03 0.875784119962177D+02 -.315096142863233D+03
 0.129764028145546D+03 0.507053419077013D+02 0.517487155772994D+02 0.107655662826815D+03
-.454323811864D-05 0.000000000000D+00 0.000000000000D+00 0.310459411881D-06 0.000000000000D+00  7 21 2 23 -11 11 23 2 2 0.53237043D-01 0.29989595D+00 0.46424468D+06 0.46424468D+06 0.46424468D+06 0.10707952D+01  1  2 13  3  7  1       -2 -.160837456540D-03 0.100000000000D+01
0.483095724571D-05 0.000000000000D+00 0.000000000000D+00 0.310459411881D-06 0.845020234469D-11  7 21 2 23 -11 11 23 2 2 0.52915400D-01 0.30459034D+00 0.46424468D+06 0.46424468D+06 0.46424468D+06 0.10707952D+01  1  2  1  3  7  1       -2 0.166739144646D-03 0.100000000000D+01
  </mgrwgt>
  </event>
  <event>
  8     66 0.28248871E-05 0.10086474E+03 0.75467711E-02 0.10294703E+00
       -2 -1    0    0    0  501 0.00000000E+00 0.00000000E+00 0.27344910E+03 0.27344929E+03 0.32000000E+00 0.0000E+00 0.9000E+01
        2 -1    0    0  501    0 0.00000000E+00 0.00000000E+00 -.25084058E+03 0.25084079E+03 0.32000000E+00 0.0000E+00 0.9000E+01
       25  2    1    2    0    0 0.89570751E+02 0.88102739E+02 -.80666703E+02 0.33494564E+03 0.29982737E+03 0.0000E+00 0.0000E+00
       23  2    1    2    0    0 -.89570751E+02 -.88102739E+02 0.10327522E+03 0.18934444E+03 0.96956337E+02 0.0000E+00 0.0000E+00
       23  1    3    3    0    0 0.15058499E+03 0.11707694E+03 -.47039380E+02 0.21658902E+03 0.91188000E+02 0.0000E+00 0.9000E+01
      -13  1    4    4    0    0 -.10211451E+03 -.97912849E+02 0.99558108E+02 0.17299169E+03 0.10565837E+00 0.0000E+00 0.9000E+01
       13  1    4    4    0    0 0.12543755E+02 0.98101091E+01 0.37171148E+01 0.16352741E+02 0.10565837E+00 0.0000E+00 0.9000E+01
       23  1    3    3    0    0 -.61014236E+02 -.28974204E+02 -.33627324E+02 0.11835662E+03 0.91188000E+02 0.0000E+00 0.9000E+01
#aMCatNLO 1  0  0  1  2 0.27576163D+02 0.00000000D+00  -5  7  0 0.00000000D+00 0.00000000D+00 0.00000000D+00 0.00000000D+00 0.00000000D+00
  <mgrwgt>
 0.2583373308D-03    9    2    0
 0.261901192664021D+03 0.000000000000000D+00 0.000000000000000D+00 0.261901192664021D+03
 0.261901192664021D+03 0.000000000000000D+00 0.000000000000000D+00 -.261901192664021D+03
 0.218821020900431D+03 0.150584997024863D+03 0.117076953960339D+03 -.564316698875478D+02
 0.168855791406288D+03 -.102114642014060D+03 -.979129786121445D+02 0.921842003657999D+02
 0.162073249846352D+02 0.125438744251785D+02 0.981022236078035D+01 0.301465334573919D+01
 0.119918248036688D+03 -.610142294359820D+02 -.289741977089752D+02 -.387671838239913D+02
 0.000000000000000D+00 0.000000000000000D+00 -.000000000000000D+00 0.000000000000000D+00
 0.276489401662262D+03 0.000000000000000D+00 0.000000000000000D+00 0.276489401662262D+03
 0.275627984098821D+03 0.000000000000000D+00 0.000000000000000D+00 -.275627984098821D+03
 0.223686869474714D+03 0.148395995694267D+03 0.128509374471312D+03 -.564316698875478D+02
 0.165037845327888D+03 -.103766349545126D+03 -.892866635924350D+02 0.921842003657999D+02
 0.166128348136956D+02 0.123815194140441D+02 0.106581481858628D+02 0.301465334573919D+01
 0.119190222404829D+03 -.621970529998957D+02 -.227967065471668D+02 -.387671838239913D+02
 0.275896137399565D+02 0.518588743671113D+01 -.270841525175730D+02 0.861417563440947D+00
0.165923256263D-05 0.000000000000D+00 0.000000000000D+00 0.179021394318D-07 0.000000000000D+00  7 -2 2 23 -13 13 23 21 0 0.42069123D-01 0.38590889D-01 0.58152087D+05 0.58152087D+05 0.58152087D+05 0.11415700D+01  1  2  2  1  7  1       -2 0.142826472172D-03 0.100000000000D+01
-.914156756663D-07 0.000000000000D+00 -.637188992645D-08 0.179021394318D-07 0.000000000000D+00  7 -2 2 23 -13 13 23 21 2 0.42069123D-01 0.38590889D-01 0.58152087D+05 0.58152087D+05 0.58152087D+05 0.11415700D+01  1  2  3  1  7  1       -2 -.102547998988D-04 0.100000000000D+01
0.105050929060D-06 0.000000000000D+00 0.000000000000D+00 0.179021394318D-07 0.000000000000D+00  7 -2 2 23 -13 13 23 21 2 0.42069123D-01 0.38590889D-01 0.58152087D+05 0.58152087D+05 0.58152087D+05 0.11415700D+01  1  2 15  1  7  1       -2 0.117843712124D-04 0.100000000000D+01
0.281855723294D-05 0.000000000000D+00 0.000000000000D+00 0.179021394318D-07 0.000000000000D+00  7 -2 2 23 -13 13 23 21 2 0.45456567D-01 0.38590889D-01 0.65016509D+05 0.65016509D+05 0.65016509D+05 0.11373964D+01  1  2 12  1  7  1       -2 0.271209013398D-03 0.100000000000D+01
-.223215877941D-05 0.000000000000D+00 0.000000000000D+00 0.179021394318D-07 0.000000000000D+00  7 -2 2 23 -13 13 23 21 2 0.42069123D-01 0.38590889D-01 0.58152087D+05 0.58152087D+05 0.58152087D+05 0.11415700D+01  1  2  4  1  7  1       -2 -.250398429573D-03 0.100000000000D+01
-.102047566905D-04 0.000000000000D+00 -.214608527614D-05 0.179021394318D-07 0.000000000000D+00  7 -2 2 23 -13 13 23 21 2 0.46532128D-01 0.38590889D-01 0.58152087D+05 0.58152087D+05 0.58152087D+05 0.11415700D+01  1  2  5  1  7  1       -2 -.945966340057D-03 0.100000000000D+01
0.103792025798D-04 0.000000000000D+00 0.213522223380D-05 0.179021394318D-07 0.000000000000D+00  7 -2 2 23 -13 13 23 21 2 0.42069123D-01 0.38590889D-01 0.58152087D+05 0.58152087D+05 0.58152087D+05 0.11415700D+01  1  2  6  1  7  1       -2 0.116431503448D-02 0.100000000000D+01
0.365743224704D-07 0.000000000000D+00 0.000000000000D+00 0.179021394318D-07 0.000000000000D+00  7 21 2 23 -13 13 23 2 2 0.45456567D-01 0.38590889D-01 0.65016509D+05 0.65016509D+05 0.65016509D+05 0.11373964D+01  1  2 12  3  7  1       -2 0.390665620359D-04 0.100000000000D+01
-.159746125852D-06 0.000000000000D+00 -.351066871229D-07 0.179021394318D-07 0.000000000000D+00  7 21 2 23 -13 13 23 2 2 0.46532128D-01 0.38590889D-01 0.58152087D+05 0.58152087D+05 0.58152087D+05 0.11415700D+01  1  2  5  3  7  1       -2 -.164244552957D-03 0.100000000000D+01
  </mgrwgt>
  </event>
  <event>
  8     66 0.28248871E-05 0.13426453E+03 0.75467711E-02 0.10249972E+00
       -2 -1    0    0    0  501 0.00000000E+00 0.00000000E+00 0.14469932E+02 0.14473470E+02 0.32000000E+00 0.0000E+00 0.9000E+01
        2 -1    0    0  501    0 0.00000000E+00 0.00000000E+00 -.31963252E+04 0.31963252E+04 0.32000000E+00 0.0000E+00 0.9000E+01
       25  2    1    2    0    0 -.64529566E+02 0.18921012E+02 -.19865025E+04 0.20101430E+04 0.29993380E+03 0.0000E+00 0.0000E+00
       23  2    1    2    0    0 0.64529566E+02 -.18921012E+02 -.11953527E+04 0.12006557E+04 0.90465297E+02 0.0000E+00 0.0000E+00
       23  1    3    3    0    0 0.50337592E+02 0.71427555E+02 -.13033376E+04 0.13094426E+04 0.91188000E+02 0.0000E+00 0.9000E+01
      -11  1    4    4    0    0 0.25678865E+02 -.54148168E+01 -.10275652E+04 0.10279003E+04 0.51099893E-03 0.0000E+00 0.9000E+01
       11  1    4    4    0    0 0.38850700E+02 -.13506195E+02 -.16778747E+03 0.17275540E+03 0.51099893E-03 0.0000E+00 0.9000E+01
       23  1    3    3    0    0 -.11486716E+03 -.52506543E+02 -.68316491E+03 0.70070032E+03 0.91188000E+02 0.0000E+00 0.9000E+01
#aMCatNLO 1  0  0  2  1 0.15705003D+03 0.00000000D+00  -5  7  0 0.00000000D+00 0.00000000D+00 0.00000000D+00 0.00000000D+00 0.00000000D+00
  <mgrwgt>
 0.1042101364D-02    8    2    0
 0.215072807771913D+03 0.000000000000000D+00 0.000000000000000D+00 0.215072807771913D+03
 0.215072807771913D+03 0.000000000000000D+00 0.000000000000000D+00 -.215072807771913D+03
 0.133268746540461D+03 0.503375919309100D+02 0.714275551171598D+02 -.425386726291250D+02
 0.716433915311697D+02 0.256788655114760D+02 -.541481692374859D+01 -.666637170716897D+02
 0.483728652650870D+02 0.388507004042524D+02 -.135061951109078D+02 0.254585911958884D+02
 0.176860612207108D+03 -.114867157846638D+03 -.525065430825034D+02 0.837437985049263D+02
 0.000000000000000D+00 0.000000000000000D+00 0.000000000000000D+00 -.000000000000000D+00
 0.281965871921657D+03 0.000000000000000D+00 0.000000000000000D+00 0.281965871921657D+03
 0.345288753459080D+03 0.000000000000000D+00 0.000000000000000D+00 -.345288753459080D+03
 0.116448702643529D+03 0.825800722643547D+01 0.580285761583150D+02 -.425386726291250D+02
 0.679354657984821D+02 0.215860143241542D+01 -.129041380687906D+02 -.666637170716897D+02
 0.394763041134293D+02 0.240473433454618D+02 -.182198792202928D+02 0.254585911958884D+02
 0.234058692216130D+03 -.184110671800849D+03 -.745550588419824D+02 0.837437985049263D+02
 0.169335460609167D+03 0.149646719796536D+03 0.476504999727507D+02 -.633228815374235D+02
0.638728208989D-05 0.000000000000D+00 0.000000000000D+00 0.125683947683D-06 0.000000000000D+00  7 -2 2 23 -11 11 23 21 0 0.22264167D-02 0.49174261D+00 0.30528809D+05 0.30528809D+05 0.30528809D+05 0.11666325D+01  1  2  2  2  7  2        2 0.673988516015D-03 0.100000000000D+01
-.336225394070D-06 0.000000000000D+00 -.245288450352D-07 0.125683947683D-06 0.000000000000D+00  7 -2 2 23 -11 11 23 21 2 0.22264167D-02 0.49174261D+00 0.30528809D+05 0.30528809D+05 0.30528809D+05 0.11666325D+01  1  2  3  2  7  2        2 -.482875359655D-04 0.100000000000D+01
0.412952004676D-06 0.000000000000D+00 0.000000000000D+00 0.125683947683D-06 0.000000000000D+00  7 -2 2 23 -11 11 23 21 2 0.22264167D-02 0.49174261D+00 0.30528809D+05 0.30528809D+05 0.30528809D+05 0.11666325D+01  1  2 15  2  7  2        2 0.593067481799D-04 0.100000000000D+01
0.306623861628D-07 0.000000000000D+00 0.000000000000D+00 0.125683947683D-06 0.000000000000D+00  7 -2 2 23 -11 11 23 21 2 0.22264167D-02 0.82864959D+00 0.69503169D+05 0.69503169D+05 0.69503169D+05 0.11349227D+01  1  2 12  2  7  2        2 0.293120638752D-07 0.100000000000D+01
-.201986396158D-05 0.000000000000D+00 -.131847236747D-05 0.125683947683D-06 0.000000000000D+00  7 -2 2 23 -11 11 23 21 2 0.22264167D-02 0.81214873D+00 0.30528809D+05 0.30528809D+05 0.30528809D+05 0.11666325D+01  1  2  5  2  7  2        2 -.327712054143D-05 0.100000000000D+01
0.250905525214D-05 0.000000000000D+00 0.116831147222D-05 0.125683947683D-06 0.000000000000D+00  7 -2 2 23 -11 11 23 21 2 0.22264167D-02 0.49174261D+00 0.30528809D+05 0.30528809D+05 0.30528809D+05 0.11666325D+01  1  2  6  2  7  2        2 0.360341895240D-03 0.100000000000D+01
0.178905673372D-08 0.000000000000D+00 0.000000000000D+00 0.125683947683D-06 0.000000000000D+00  7 -2 21 23 -11 11 23 -2 2 0.22264167D-02 0.82864959D+00 0.69503169D+05 0.69503169D+05 0.69503169D+05 0.11349227D+01  1  2 12  4  7  2        2 0.769240816856D-11 0.100000000000D+01
-.544968728449D-07 0.000000000000D+00 -.745425507150D-07 0.125683947683D-06 0.000000000000D+00  7 -2 21 23 -11 11 23 -2 2 0.22264167D-02 0.81214873D+00 0.30528809D+05 0.30528809D+05 0.30528809D+05 0.11666325D+01  1  2  5  4  7  2        2 -.458649562616D-09 0.100000000000D+01
  </mgrwgt>
  </event>
  <event>
  8     66 0.28248871E-05 0.18814232E+03 0.75467711E-02 0.10467867E+00
       -2 -1    0    0    0  501 0.00000000E+00 0.00000000E+00 0.23201196E+02 0.23203402E+02 0.32000000E+00 0.0000E+00 0.9000E+01
        2 -1    0    0  501    0 0.00000000E+00 0.00000000E+00 -.25255648E+04 0.25255648E+04 0.32000000E+00 0.0000E+00 0.9000E+01
       25  2    1    2    0    0 -.34812169E+01 -.10725743E+03 -.20658580E+04 0.20902285E+04 0.29961548E+03 0.0000E+00 0.0000E+00
       23  2    1    2    0    0 0.34812169E+01 0.10725743E+03 -.43650556E+03 0.45853973E+03 0.90583108E+02 0.0000E+00 0.0000E+00
       23  1    3    3    0    0 -.70356968E+01 -.12954390E+03 -.18222325E+04 0.18291194E+04 0.91188000E+02 0.0000E+00 0.9000E+01
      -13  1    4    4    0    0 -.26517436E+02 0.75784098E+02 -.37321096E+03 0.38174970E+03 0.10565837E+00 0.0000E+00 0.9000E+01
       13  1    4    4    0    0 0.29998652E+02 0.31473334E+02 -.63294603E+02 0.76790025E+02 0.10565837E+00 0.0000E+00 0.9000E+01
       23  1    3    3    0    0 0.35544799E+01 0.22286472E+02 -.24362555E+03 0.26110914E+03 0.91188000E+02 0.0000E+00 0.9000E+01
#aMCatNLO 1  0  0  1  2 0.69023228D+02 0.00000000D+00  -5  7  0 0.00000000D+00 0.00000000D+00 0.00000000D+00 0.00000000D+00 0.00000000D+00
  <mgrwgt>
 0.1799099012D-03    4    2    0
 0.242072221917026D+03 0.000000000000000D+00 0.000000000000000D+00 0.242072221917026D+03
 0.242072221917026D+03 0.000000000000000D+00 0.000000000000000D+00 -.242072221917026D+03
 0.210914395435125D+03 -.703569691994631D+01 -.129543907910953D+03 -.139062956065854D+03
 0.807238234644878D+02 -.265175080181032D+02 0.757841579700974D+02 0.836174886007353D+01
 0.771130608729686D+02 0.299987251378526D+02 0.314732797726569D+02 0.636862097133578D+02
 0.115393164061470D+03 0.355447980019688D+01 0.222864701681986D+02 0.670149974924224D+02
 0.000000000000000D+00 0.000000000000000D+00 0.000000000000000D+00 -.000000000000000D+00
 0.258999877894833D+03 0.000000000000000D+00 0.000000000000000D+00 0.258999877894833D+03
 0.326775380527522D+03 0.000000000000000D+00 0.000000000000000D+00 -.326775380527522D+03
 0.226741475465583D+03 -.291159812466898D+02 -.151361154985612D+03 -.139062956065854D+03
 0.766353658776698D+02 -.344564753052322D+02 0.679397657395526D+02 0.836174886007353D+01
 0.716967832276204D+02 0.224910829769073D+02 0.240550743931601D+02 0.636862097133578D+02
 0.113966300622545D+03 -.801699114301293D+01 0.108528474462545D+02 0.670149974924224D+02
 0.967353332289376D+02 0.490983647180276D+02 0.485134674066445D+02 -.677755026326887D+02
0.151881490696D-05 0.000000000000D+00 0.000000000000D+00 0.947929663887D-07 0.000000000000D+00  7 -2 2 23 -13 13 23 21 0 0.35695860D-02 0.38854860D+00 0.35397533D+05 0.35397533D+05 0.35397533D+05 0.11607275D+01  1  2  2  1  7  1       -2 0.201714191744D-03 0.100000000000D+01
-.778616635191D-07 0.000000000000D+00 -.583264915588D-08 0.947929663887D-07 0.000000000000D+00  7 -2 2 23 -13 13 23 21 2 0.35695860D-02 0.38854860D+00 0.35397533D+05 0.35397533D+05 0.35397533D+05 0.11607275D+01  1  2  3  1  7  1       -2 -.139320763832D-04 0.100000000000D+01
0.967499775858D-07 0.000000000000D+00 0.000000000000D+00 0.947929663887D-07 0.000000000000D+00  7 -2 2 23 -13 13 23 21 2 0.35695860D-02 0.38854860D+00 0.35397533D+05 0.35397533D+05 0.35397533D+05 0.11607275D+01  1  2 15  1  7  1       -2 0.173118325101D-04 0.100000000000D+01
-.140745120219D-06 0.000000000000D+00 0.000000000000D+00 0.947929663887D-07 0.000000000000D+00  7 -2 2 23 -13 13 23 21 2 0.35695860D-02 0.38854860D+00 0.35397533D+05 0.35397533D+05 0.35397533D+05 0.11607275D+01  1  2  4  1  7  1       -2 -.251840466390D-04 0.100000000000D+01
  </mgrwgt>
  </event>
  <event>
  8     66 0.28248871E-05 0.32313105E+03 0.75467711E-02 0.93741353E-01
       -2 -1    0    0    0  501 0.00000000E+00 0.00000000E+00 0.18307577E+03 0.18307605E+03 0.32000000E+00 0.0000E+00 0.9000E+01
        2 -1    0    0  501    0 0.00000000E+00 0.00000000E+00 -.12356901E+04 0.12356902E+04 0.32000000E+00 0.0000E+00 0.9000E+01
       25  2    1    2    0    0 -.24510902E+03 0.33042274E+03 -.71819038E+03 0.88043809E+03 0.30019358E+03 0.0000E+00 0.0000E+00
       23  2    1    2    0    0 0.24510902E+03 -.33042274E+03 -.33442397E+03 0.53832813E+03 0.93274643E+02 0.0000E+00 0.0000E+00
       23  1    3    3    0    0 -.12150648E+03 0.23110988E+03 -.60531158E+03 0.66550203E+03 0.91188000E+02 0.0000E+00 0.9000E+01
      -11  1    4    4    0    0 0.90416943E+02 -.75997955E+02 -.56167224E+02 0.13078865E+03 0.51099893E-03 0.0000E+00 0.9000E+01
       11  1    4    4    0    0 0.15469208E+03 -.25442479E+03 -.27825675E+03 0.40753948E+03 0.51099893E-03 0.0000E+00 0.9000E+01
       23  1    3    3    0    0 -.12360254E+03 0.99312861E+02 -.11287881E+03 0.21493606E+03 0.91188000E+02 0.0000E+00 0.9000E+01
#aMCatNLO 1  0  0  2  1 0.19048700D+03 0.00000000D+00  -5  7  0 0.00000000D+00 0.00000000D+00 0.00000000D+00 0.00000000D+00 0.00000000D+00
  <mgrwgt>
 0.2207831697D-03    7    2    0
 0.475631317607117D+03 0.000000000000000D+00 0.000000000000000D+00 0.475631317607117D+03
 0.475631317607117D+03 0.000000000000000D+00 0.000000000000000D+00 -.475631317607117D+03
 0.322762756870401D+03 -.121506484073986D+03 0.231109881037459D+03 -.166387929530394D+03
 0.132913962559143D+03 0.904169432167662D+02 -.759979552563093D+02 0.609525111818155D+02
 0.299923692017781D+03 0.154692078364175D+03 -.254424786873675D+03 0.359528823494503D+02
 0.195662223766908D+03 -.123602537506955D+03 0.993128610925258D+02 0.694825359991279D+02
 0.000000000000000D+00 -.000000000000000D+00 0.000000000000000D+00 -.000000000000000D+00
 0.490044653100781D+03 0.000000000000000D+00 0.000000000000000D+00 0.490044653100781D+03
 0.230993240711730D+04 0.000000000000000D+00 0.000000000000000D+00 -.230993240711730D+04
 0.302930770152557D+03 -.595296798545045D+02 0.228523684296028D+03 -.166387929530394D+03
 0.154277024090992D+03 0.118864064346345D+03 -.771850098793240D+02 0.609525111818155D+02
 0.338951589161390D+03 0.217974574525998D+03 -.257065468132163D+03 0.359528823494503D+02
 0.173987975813029D+03 -.869875861615860D+02 0.977849754738722D+02 0.694825359991279D+02
 0.182982970100012D+04 -.190321372856253D+03 0.794181824158733D+01 -.181988775401652D+04
0.853076243222D-05 0.000000000000D+00 0.000000000000D+00 0.276205267245D-06 0.000000000000D+00  7 -2 2 23 -11 11 23 21 0 0.28165528D-01 0.19010620D+00 0.19156128D+06 0.19156128D+06 0.19156128D+06 0.10992662D+01  1  2  2  2  7  2        2 0.218495432588D-03 0.100000000000D+01
-.469946125227D-06 0.000000000000D+00 -.327603739411D-07 0.276205267245D-06 0.000000000000D+00  7 -2 2 23 -11 11 23 21 2 0.28165528D-01 0.19010620D+00 0.19156128D+06 0.19156128D+06 0.19156128D+06 0.10992662D+01  1  2  3  2  7  2        2 -.145448196380D-04 0.100000000000D+01
0.543095030099D-06 0.000000000000D+00 0.000000000000D+00 0.276205267245D-06 0.000000000000D+00  7 -2 2 23 -11 11 23 21 2 0.28165528D-01 0.19010620D+00 0.19156128D+06 0.19156128D+06 0.19156128D+06 0.10992662D+01  1  2 15  2  7  2        2 0.168087762300D-04 0.100000000000D+01
0.900620094853D-04 0.000000000000D+00 0.000000000000D+00 0.276205267245D-06 0.000000000000D+00  7 -2 2 23 -11 11 23 21 2 0.28165528D-01 0.91008945D+00 0.29263142D+06 0.29263142D+06 0.29263142D+06 0.10853518D+01  1  2 12  2  7  2        2 0.832302703813D-07 0.100000000000D+01
-.115271821334D-03 0.000000000000D+00 -.312767610719D-05 0.276205267245D-06 0.000000000000D+00  7 -2 2 23 -11 11 23 21 2 0.28165528D-01 0.92365196D+00 0.19156128D+06 0.19156128D+06 0.19156128D+06 0.10992662D+01  1  2  5  2  7  2        2 -.594614364564D-07 0.100000000000D+01
0.171399337794D-04 0.000000000000D+00 0.000000000000D+00 0.276205267245D-06 0.000000000000D+00  7 -2 21 23 -11 11 23 -2 2 0.28165528D-01 0.91008945D+00 0.29263142D+06 0.29263142D+06 0.29263142D+06 0.10853518D+01  1  2 12  4  7  2        2 0.374286304452D-10 0.100000000000D+01
-.222396674321D-04 0.000000000000D+00 -.601481575765D-06 0.276205267245D-06 0.000000000000D+00  7 -2 21 23 -11 11 23 -2 2 0.28165528D-01 0.92365196D+00 0.19156128D+06 0.19156128D+06 0.19156128D+06 0.10992662D+01  1  2  5  4  7  2        2 -.257484392084D-10 0.100000000000D+01
  </mgrwgt>
  </event>
  <event>
  7     66 0.28248871E-05 0.18127470E+03 0.75467711E-02 0.96670793E-01
       -2 -1    0    0    0  501 0.00000000E+00 0.00000000E+00 0.19544262E+03 0.19544288E+03 0.32000000E+00 0.0000E+00 0.9000E+01
        2 -1    0    0  501    0 0.00000000E+00 0.00000000E+00 -.21634359E+04 0.21634359E+04 0.32000000E+00 0.0000E+00 0.9000E+01
       23  2    1    2    0    0 -.28515934E+03 -.10444300E+03 0.14815449E+02 0.31786553E+03 0.92708196E+02 0.0000E+00 0.0000E+00
       23  1    1    2    0    0 0.30998913E+03 0.71912672E+02 -.18208530E+04 0.18506986E+04 0.91188000E+02 0.0000E+00 0.9000E+01
      -13  1    3    3    0    0 -.23511518E+03 -.93784972E+02 0.46946729E+02 0.25744664E+03 0.10565837E+00 0.0000E+00 0.9000E+01
       13  1    3    3    0    0 -.50044158E+02 -.10658026E+02 -.32131279E+02 0.60418884E+02 0.10565837E+00 0.0000E+00 0.9000E+01
       23  1    1    2    0    0 -.24829794E+02 0.32530326E+02 -.16195576E+03 0.19031464E+03 0.91188000E+02 0.0000E+00 0.9000E+01
#aMCatNLO 1  0  0  2  1 0.10014329D+03 0.00000000D+00  -5  7  0 0.00000000D+00 0.00000000D+00 0.00000000D+00 0.00000000D+00 0.00000000D+00
  <mgrwgt>
 0.7524067265D-03    9    2    0
 0.650252198917192D+03 0.000000000000000D+00 0.000000000000000D+00 0.650252198917192D+03
 0.650252198917192D+03 0.000000000000000D+00 0.000000000000000D+00 -.650252198917192D+03
 0.601418506620831D+03 0.309989131194345D+03 0.719126718490248D+02 -.502119781457513D+03
 0.538004398235994D+03 -.235115419817969D+03 -.937850798491614D+02 0.474735537623613D+03
 0.609654819722584D+02 -.500439175664318D+02 -.106579183172911D+02 0.331482289701261D+02
 0.100116011005300D+03 -.248297938099442D+02 0.325303263174277D+02 -.576398513622655D+01
 0.000000000000000D+00 -.000000000000000D+00 -.000000000000000D+00 -.000000000000000D+00
 0.668656977085406D+03 0.000000000000000D+00 0.000000000000000D+00 0.668656977085406D+03
 0.804313275410775D+03 0.000000000000000D+00 0.000000000000000D+00 -.804313275410775D+03
 0.609518267877339D+03 0.311519740146384D+03 0.118441732933881D+03 -.502119781457513D+03
 0.531783982980141D+03 -.233763220671357D+03 -.526795077121662D+02 0.474735537623613D+03
 0.601990135289752D+02 -.498907671580958D+02 -.600229109445037D+01 0.331482289701261D+02
 0.102853122858666D+03 -.245732433608850D+02 0.403292167523230D+02 -.576398513622655D+01
 0.168615865251060D+03 -.329250895604617D+01 -.100089150879587D+03 -.135656298325368D+03
0.836095129268D-04 0.000000000000D+00 0.000000000000D+00 0.647797647364D-09 0.000000000000D+00  7 -2 2 23 -13 13 23 21 0 0.30068118D-01 0.33283631D+00 0.13515734D+06 0.13515734D+06 0.13515734D+06 0.11111407D+01  1  2  2  2  7  2        2 0.603250109997D-03 0.100000000000D+01
-.280837173395D-05 0.000000000000D+00 -.321082544529D-06 0.647797647364D-09 0.000000000000D+00  7 -2 2 23 -13 13 23 21 2 0.30068118D-01 0.33283631D+00 0.13515734D+06 0.13515734D+06 0.13515734D+06 0.11111407D+01  1  2  3  2  7  2        2 -.250169531679D-04 0.100000000000D+01
0.479814376990D-05 0.000000000000D+00 0.000000000000D+00 0.647797647364D-09 0.000000000000D+00  7 -2 2 23 -13 13 23 21 2 0.30068118D-01 0.33283631D+00 0.13515734D+06 0.13515734D+06 0.13515734D+06 0.11111407D+01  1  2 15  2  7  2        2 0.427418267082D-04 0.100000000000D+01
0.176171896031D-03 0.000000000000D+00 0.000000000000D+00 0.647797647364D-09 0.000000000000D+00  7 -2 2 23 -13 13 23 21 2 0.30068118D-01 0.41563067D+00 0.17566025D+06 0.17566025D+06 0.17566025D+06 0.11021801D+01  1  2 12  2  7  2        2 0.752673550647D-03 0.100000000000D+01
-.187207007355D-03 0.000000000000D+00 0.000000000000D+00 0.647797647364D-09 0.000000000000D+00  7 -2 2 23 -13 13 23 21 2 0.30068118D-01 0.33283631D+00 0.13515734D+06 0.13515734D+06 0.13515734D+06 0.11111407D+01  1  2  4  2  7  2        2 -.166763853912D-02 0.100000000000D+01
-.225166418551D-03 0.000000000000D+00 -.409603877980D-04 0.647797647364D-09 0.000000000000D+00  7 -2 2 23 -13 13 23 21 2 0.30068118D-01 0.41505027D+00 0.13515734D+06 0.13515734D+06 0.13515734D+06 0.11111407D+01  1  2  5  2  7  2        2 -.998075372783D-03 0.100000000000D+01
0.229570271112D-03 0.000000000000D+00 0.399822567601D-04 0.647797647364D-09 0.000000000000D+00  7 -2 2 23 -13 13 23 21 2 0.30068118D-01 0.33283631D+00 0.13515734D+06 0.13515734D+06 0.13515734D+06 0.11111407D+01  1  2  6  2  7  2        2 0.204501015722D-02 0.100000000000D+01
0.546009257290D-05 0.000000000000D+00 0.000000000000D+00 0.647797647364D-09 0.000000000000D+00  7 -2 21 23 -13 13 23 -2 2 0.30068118D-01 0.41563067D+00 0.17566025D+06 0.17566025D+06 0.17566025D+06 0.11021801D+01  1  2 12  4  7  2        2 0.226076880305D-05 0.100000000000D+01
-.638739561686D-05 0.000000000000D+00 -.126346893157D-05 0.647797647364D-09 0.000000000000D+00  7 -2 21 23 -13 13 23 -2 2 0.30068118D-01 0.41505027D+00 0.13515734D+06 0.13515734D+06 0.13515734D+06 0.11111407D+01  1  2  5  4  7  2        2 -.279882183901D-05 0.100000000000D+01
  </mgrwgt>
  </event>
  <event>
  8     66 0.28248871E-05 0.33932153E+03 0.75467711E-02 0.92594471E-01
       -2 -1    0    0    0  501 0.00000000E+00 0.00000000E+00 0.12565691E+03 0.12565732E+03 0.32000000E+00 0.0000E+00 0.9000E+01
        2 -1    0    0  501    0 0.00000000E+00 0.00000000E+00 -.49990214E+04 0.49990214E+04 0.32000000E+00 0.0000E+00 0.9000E+01
       25  2    1    2    0    0 0.28320796E+03 -.40738373E+03 -.43822842E+04 0.44206527E+04 0.30263400E+03 0.0000E+00 0.0000E+00
       23  2    1    2    0    0 -.28320796E+03 0.40738373E+03 -.49108033E+03 0.70402606E+03 0.91238996E+02 0.0000E+00 0.0000E+00
       23  1    3    3    0    0 0.37946301E+01 -.18332631E+02 -.77120328E+03 0.77680129E+03 0.91188000E+02 0.0000E+00 0.9000E+01
      -11  1    4    4    0    0 -.26630366E+03 0.36586767E+03 -.47589424E+03 0.65669789E+03 0.51099893E-03 0.0000E+00 0.9000E+01
       11  1    4    4    0    0 -.16904291E+02 0.41516062E+02 -.15186092E+02 0.47328172E+02 0.51099893E-03 0.0000E+00 0.9000E+01
       23  1    3    3    0    0 0.27941333E+03 -.38905110E+03 -.36110809E+04 0.36438514E+04 0.91188000E+02 0.0000E+00 0.9000E+01
#aMCatNLO 1  0  0  1  2 0.11469806D+03 0.00000000D+00  -5  7  0 0.00000000D+00 0.00000000D+00 0.00000000D+00 0.00000000D+00 0.00000000D+00
  <mgrwgt>
 0.9010991485D-04    9    2    0
 0.792567137599603D+03 0.000000000000000D+00 0.000000000000000D+00 0.792567137599603D+03
 0.792567137599603D+03 0.000000000000000D+00 0.000000000000000D+00 -.792567137599603D+03
 0.140368135043090D+03 0.379463010107790D+01 -.183326306205484D+02 -.105059399524276D+03
 0.659981711456927D+03 -.266303664040333D+03 0.365867669294465D+03 0.480415514467782D+03
 0.106321788541453D+03 -.169042911426155D+02 0.415160615900697D+02 0.964104988560310D+02
 0.678462640157737D+03 0.279413325081870D+03 -.389051100263987D+03 -.471766613799536D+03
 0.000000000000000D+00 -.000000000000000D+00 -.000000000000000D+00 0.000000000000000D+00
 0.862379239432772D+03 0.000000000000000D+00 0.000000000000000D+00 0.862379239432772D+03
 0.843191279818489D+03 0.000000000000000D+00 0.000000000000000D+00 -.843191279818489D+03
 0.139741262923970D+03 0.902404434138006D+01 -.966738924991300D+01 -.105059399524276D+03
 0.674416839665569D+03 -.241391530295005D+03 0.407147560701259D+03 0.480415514467782D+03
 0.108539732682879D+03 -.128930016002502D+02 0.481628465825878D+02 0.964104988560310D+02
 0.666580716263546D+03 0.304524188669248D+03 -.347441909633651D+03 -.471766613799536D+03
 0.116291967715297D+03 -.592637011153725D+02 -.982011084002829D+02 0.191879596142829D+02
0.689062738637D-03 0.000000000000D+00 0.000000000000D+00 0.302289535646D-06 0.000000000000D+00  7 -2 2 23 -11 11 23 21 0 0.19331865D-01 0.76908025D+00 0.29053835D+06 0.29053835D+06 0.29053835D+06 0.10855831D+01  1  2  2  1  7  1       -2 0.611661233607D-04 0.100000000000D+01
-.313631421770D-04 0.000000000000D+00 -.264618235075D-05 0.302289535646D-06 0.000000000000D+00  7 -2 2 23 -11 11 23 21 2 0.19331865D-01 0.76908025D+00 0.29053835D+06 0.29053835D+06 0.29053835D+06 0.10855831D+01  1  2  3  1  7  1       -2 -.328093691587D-05 0.100000000000D+01
0.403792918067D-04 0.000000000000D+00 0.000000000000D+00 0.302289535646D-06 0.000000000000D+00  7 -2 2 23 -11 11 23 21 2 0.19331865D-01 0.76908025D+00 0.29053835D+06 0.29053835D+06 0.29053835D+06 0.10855831D+01  1  2 15  1  7  1       -2 0.422412742887D-05 0.100000000000D+01
0.427453592328D-03 0.000000000000D+00 0.000000000000D+00 0.302289535646D-06 0.000000000000D+00  7 -2 2 23 -11 11 23 21 2 0.21605460D-01 0.76908025D+00 0.36056831D+06 0.36056831D+06 0.36056831D+06 0.10786920D+01  1  2 12  1  7  1       -2 0.357988851384D-04 0.100000000000D+01
-.387293062832D-03 0.000000000000D+00 0.000000000000D+00 0.302289535646D-06 0.000000000000D+00  7 -2 2 23 -11 11 23 21 2 0.19331865D-01 0.76908025D+00 0.29053835D+06 0.29053835D+06 0.29053835D+06 0.10855831D+01  1  2  4  1  7  1       -2 -.405152041188D-04 0.100000000000D+01
-.571741640657D-03 0.000000000000D+00 -.318191900065D-03 0.302289535646D-06 0.000000000000D+00  7 -2 2 23 -11 11 23 21 2 0.27220828D-01 0.76908025D+00 0.29053835D+06 0.29053835D+06 0.29053835D+06 0.10855831D+01  1  2  5  1  7  1       -2 -.333637557271D-04 0.100000000000D+01
0.659407831012D-03 0.000000000000D+00 0.300426576518D-03 0.302289535646D-06 0.000000000000D+00  7 -2 2 23 -11 11 23 21 2 0.19331865D-01 0.76908025D+00 0.29053835D+06 0.29053835D+06 0.29053835D+06 0.10855831D+01  1  2  6  1  7  1       -2 0.689814650321D-04 0.100000000000D+01
0.760390643184D-05 0.000000000000D+00 0.000000000000D+00 0.302289535646D-06 0.000000000000D+00  7 21 2 23 -11 11 23 2 2 0.21605460D-01 0.76908025D+00 0.36056831D+06 0.36056831D+06 0.36056831D+06 0.10786920D+01  1  2 12  3  7  1       -2 0.781125000565D-05 0.100000000000D+01
-.155943228965D-04 0.000000000000D+00 -.135246653461D-04 0.302289535646D-06 0.000000000000D+00  7 21 2 23 -11 11 23 2 2 0.27220828D-01 0.76908025D+00 0.29053835D+06 0.29053835D+06 0.29053835D+06 0.10855831D+01  1  2  5  3  7  1       -2 -.107120393582D-04 0.100000000000D+01
  </mgrwgt>
  </event>
  <event>
  8     66 0.28248871E-05 0.52515940E+03 0.75467711E-02 0.81474844E-01
       -2 -1    0    0    0  501 0.00000000E+00 0.00000000E+00 0.33472693E+03 0.33472708E+03 0.32000000E+00 0.0000E+00 0.9000E+01
        2 -1    0    0  501    0 0.00000000E+00 0.00000000E+00 -.10509683E+04 0.10509684E+04 0.32000000E+00 0.0000E+00 0.9000E+01
       25  2    1    2    0    0 -.38655866E+03 -.28461556E+03 -.63144797E+02 0.56919718E+03 0.29927338E+03 0.0000E+00 0.0000E+00
       23  2    1    2    0    0 0.38655866E+03 0.28461556E+03 -.65309660E+03 0.81649827E+03 0.98491823E+02 0.0000E+00 0.0000E+00
       23  1    3    3    0    0 -.38157935E+03 -.19694506E+03 -.44387880E+02 0.44122069E+03 0.91188000E+02 0.0000E+00 0.9000E+01
      -11  1    4    4    0    0 0.51568633E+02 0.69833461E+02 -.75230558E+02 0.11487242E+03 0.51099893E-03 0.0000E+00 0.9000E+01
       11  1    4    4    0    0 0.33499002E+03 0.21478210E+03 -.57786604E+03 0.70162585E+03 0.51099893E-03 0.0000E+00 0.9000E+01
       23  1    3    3    0    0 -.49793044E+01 -.87670500E+02 -.18756917E+02 0.12797650E+03 0.91188000E+02 0.0000E+00 0.9000E+01
#aMCatNLO 1  0  0  1  2 0.17974757D+04 0.00000000D+00  -5  7  0 0.00000000D+00 0.00000000D+00 0.00000000D+00 0.00000000D+00 0.00000000D+00
  <mgrwgt>
 0.2364874244D-03    5    2    0
 0.593116799460879D+03 0.000000000000000D+00 0.000000000000000D+00 0.593116799460879D+03
 0.593116799460879D+03 0.000000000000000D+00 0.000000000000000D+00 -.593116799460879D+03
 0.488609550879074D+03 -.381579353212268D+03 -.196945064723320D+03 0.214555075795201D+03
 0.887640948453111D+02 0.515686330744356D+02 0.698334614832502D+02 -.185210224828173D+02
 0.470689893746232D+03 0.334990024489494D+03 0.214782103076041D+03 -.251394725015463D+03
 0.138170059451140D+03 -.497930435166099D+01 -.876704998359712D+02 0.553606717030797D+02
 0.000000000000000D+00 -.000000000000000D+00 -.000000000000000D+00 0.000000000000000D+00
 0.212930316799067D+04 0.000000000000000D+00 0.000000000000000D+00 0.212930316799067D+04
 0.184425214426434D+04 0.000000000000000D+00 0.000000000000000D+00 -.184425214426434D+04
 0.458925339369514D+03 -.259516756529105D+03 0.298185157750269D+03 0.214555075795201D+03
 0.282597024481718D+03 0.994078240094850D+02 0.263886594009266D+03 -.185210224828173D+02
 0.129203594993405D+04 0.562066510996166D+03 0.113588680130239D+04 -.251394725015463D+03
 0.120059358510395D+03 0.282861232550179D+02 0.472661557746487D+02 0.553606717030797D+02
 0.181993763995935D+04 -.430243701731563D+03 -.174522470883657D+04 0.285051023726330D+03
0.221316253500D-04 0.000000000000D+00 0.000000000000D+00 0.310726879861D-07 0.000000000000D+00  7 -2 2 23 -11 11 23 21 0 0.51496466D-01 0.16168745D+00 0.27579240D+06 0.27579240D+06 0.27579240D+06 0.10872656D+01  1  2  2  1  7  1       -2 0.234039179036D-03 0.100000000000D+01
-.120739724417D-05 0.000000000000D+00 -.849912687348D-07 0.310726879861D-07 0.000000000000D+00  7 -2 2 23 -11 11 23 21 2 0.51496466D-01 0.16168745D+00 0.27579240D+06 0.27579240D+06 0.27579240D+06 0.10872656D+01  1  2  3  1  7  1       -2 -.150937346394D-04 0.100000000000D+01
0.133235494517D-05 0.000000000000D+00 0.000000000000D+00 0.310726879861D-07 0.000000000000D+00  7 -2 2 23 -11 11 23 21 2 0.51496466D-01 0.16168745D+00 0.27579240D+06 0.27579240D+06 0.27579240D+06 0.10872656D+01  1  2 15  1  7  1       -2 0.166558372442D-04 0.100000000000D+01
0.333343690085D-04 0.000000000000D+00 -.132807293975D-04 0.310726879861D-07 0.000000000000D+00  7 -2 2 23 -11 11 23 21 2 0.44058147D+00 0.16168745D+00 0.27579240D+06 0.27579240D+06 0.27579240D+06 0.10872656D+01  1  2  5  1  7  1       -2 0.333130744122D-06 0.100000000000D+01
0.688887481576D-05 0.000000000000D+00 -.344315652958D-05 0.310726879861D-07 0.000000000000D+00  7 21 2 23 -11 11 23 2 2 0.44058147D+00 0.16168745D+00 0.27579240D+06 0.27579240D+06 0.27579240D+06 0.10872656D+01  1  2  5  3  7  1       -2 0.553012004045D-06 0.100000000000D+01
  </mgrwgt>
  </event>
  <event>
  8     66 0.28248871E-05 0.19115520E+03 0.75467711E-02 0.10282178E+00
       -2 -1    0    0    0  501 0.00000000E+00 0.00000000E+00 0.16496494E+02 0.16499598E+02 0.32000000E+00 0.0000E+00 0.9000E+01
        2 -1    0    0  501    0 0.00000000E+00 0.00000000E+00 -.25997489E+04 0.25997490E+04 0.32000000E+00 0.0000E+00 0.9000E+01
       25  2    1    2    0    0 -.50719138E+02 0.27282589E+02 -.20239814E+04 0.20469451E+04 0.30027801E+03 0.0000E+00 0.0000E+00
       23  2    1    2    0    0 0.50719138E+02 -.27282589E+02 -.55927103E+03 0.56930342E+03 0.89473571E+02 0.0000E+00 0.0000E+00
       23  1    3    3    0    0 -.52582168E+02 -.98309004E+02 -.76590946E+03 0.77933439E+03 0.91188000E+02 0.0000E+00 0.9000E+01
      -13  1    4    4    0    0 0.38713739E+02 -.46437134E+02 -.19102100E+03 0.20036016E+03 0.10565837E+00 0.0000E+00 0.9000E+01
       13  1    4    4    0    0 0.12005399E+02 0.19154545E+02 -.36825003E+03 0.36894325E+03 0.10565837E+00 0.0000E+00 0.9000E+01
       23  1    3    3    0    0 0.18630295E+01 0.12559159E+03 -.12580720E+04 0.12676108E+04 0.91188000E+02 0.0000E+00 0.9000E+01
#aMCatNLO 1  0  0  1  2 0.11339334D+03 0.00000000D+00  -5  7  0 0.00000000D+00 0.00000000D+00 0.00000000D+00 0.00000000D+00 0.00000000D+00
  <mgrwgt>
 0.7886001764D-03    4    2    0
 0.207101010898038D+03 0.000000000000000D+00 0.000000000000000D+00 0.207101010898038D+03
 0.207101010898038D+03 0.000000000000000D+00 0.000000000000000D+00 -.207101010898038D+03
 0.145810442275466D+03 -.525822008438695D+02 -.983089325691777D+02 0.227134247547767D+02
 0.742067132754987D+02 0.387138406041348D+02 -.464372583144530D+02 0.430285472804565D+02
 0.337140522003819D+02 0.120053920200956D+02 0.191546182604759D+02 -.250121665896689D+02
 0.160470814044729D+03 0.186296821963909D+01 0.125591572623155D+03 -.407298054455643D+02
 0.000000000000000D+00 -.000000000000000D+00 0.000000000000000D+00 -.000000000000000D+00
 0.262832594442255D+03 0.000000000000000D+00 0.000000000000000D+00 0.262832594442255D+03
 0.281535976278886D+03 0.000000000000000D+00 0.000000000000000D+00 -.281535976278886D+03
 0.148197401352002D+03 -.160838386003034D+02 -.113457608362220D+03 0.227134247547767D+02
 0.915993889252500D+02 0.592971390143112D+02 -.549803735448403D+02 0.430285472804565D+02
 0.359799698294509D+02 0.206572620888377D+02 0.155636523480806D+02 -.250121665896689D+02
 0.153666327080926D+03 0.408601971013628D+02 0.109405740140755D+03 -.407298054455643D+02
 0.114925483533512D+03 -.104730759604208D+03 0.434685894182244D+02 -.187033818366316D+02
0.539473556201D-05 0.000000000000D+00 0.000000000000D+00 0.403818253980D-07 0.000000000000D+00  7 -2 2 23 -13 13 23 21 0 0.25381624D-02 0.39996162D+00 0.36540311D+05 0.36540311D+05 0.36540311D+05 0.11594715D+01  1  2  2  1  7  1       -2 0.107044952091D-02 0.100000000000D+01
-.297368308110D-06 0.000000000000D+00 -.207172050246D-07 0.403818253980D-07 0.000000000000D+00  7 -2 2 23 -13 13 23 21 2 0.25381624D-02 0.39996162D+00 0.36540311D+05 0.36540311D+05 0.36540311D+05 0.11594715D+01  1  2  3  1  7  1       -2 -.793251466956D-04 0.100000000000D+01
0.339898948591D-06 0.000000000000D+00 0.000000000000D+00 0.403818253980D-07 0.000000000000D+00  7 -2 2 23 -13 13 23 21 2 0.25381624D-02 0.39996162D+00 0.36540311D+05 0.36540311D+05 0.36540311D+05 0.11594715D+01  1  2 15  1  7  1       -2 0.906705026168D-04 0.100000000000D+01
-.109910684895D-05 0.000000000000D+00 0.000000000000D+00 0.403818253980D-07 0.000000000000D+00  7 -2 2 23 -13 13 23 21 2 0.25381624D-02 0.39996162D+00 0.36540311D+05 0.36540311D+05 0.36540311D+05 0.11594715D+01  1  2  4  1  7  1       -2 -.293194700474D-03 0.100000000000D+01
  </mgrwgt>
  </event>
  <event>
  8     66 0.28248871E-05 0.20143534E+03 0.75467711E-02 0.10158348E+00
       -2 -1    0    0    0  501 0.00000000E+00 0.00000000E+00 0.11763527E+03 0.11763570E+03 0.32000000E+00 0.0000E+00 0.9000E+01
        2 -1    0    0  501    0 0.00000000E+00 0.00000000E+00 -.49803624E+03 0.49803635E+03 0.32000000E+00 0.0000E+00 0.9000E+01
       25  2    1    2    0    0 0.89004949E+02 0.84298725E+02 -.30986401E+03 0.44774491E+03 0.29905123E+03 0.0000E+00 0.0000E+00
       23  2    1    2    0    0 -.89004949E+02 -.84298725E+02 -.70536963E+02 0.16792714E+03 0.90531247E+02 0.0000E+00 0.0000E+00
       23  1    3    3    0    0 -.97775638E+01 -.32997526E+02 -.23471999E+03 0.25415185E+03 0.91188000E+02 0.0000E+00 0.9000E+01
      -11  1    4    4    0    0 -.62387480E+02 -.36501283E+02 -.84764607E+02 0.11139829E+03 0.51099893E-03 0.0000E+00 0.9000E+01
       11  1    4    4    0    0 -.26617470E+02 -.47797442E+02 0.14227644E+02 0.56528851E+02 0.51099893E-03 0.0000E+00 0.9000E+01
       23  1    3    3    0    0 0.98782513E+02 0.11729625E+03 -.75144023E+02 0.19359306E+03 0.91188000E+02 0.0000E+00 0.9000E+01
#aMCatNLO 1  0  0  2  2 0.14240492D+03 0.00000000D+00  -5  7  0 0.00000000D+00 0.00000000D+00 0.00000000D+00 0.00000000D+00 0.00000000D+00
  <mgrwgt>
 0.1152709069D-03    4    2    0
 0.242047087334335D+03 0.000000000000000D+00 0.000000000000000D+00 0.242047087334335D+03
 0.242047087334335D+03 0.000000000000000D+00 0.000000000000000D+00 -.242047087334335D+03
 0.138788029807682D+03 -.977756381699692D+01 -.329975259501092D+02 -.988050019021029D+02
 0.750686096552214D+02 -.623874796072939D+02 -.365012831136184D+02 -.202670884657115D+02
 0.830735946032530D+02 -.266174696633632D+02 -.477974422013626D+02 0.625150937616906D+02
 0.187163940602512D+03 0.987825130876539D+02 0.117296251265090D+03 0.565569966061238D+02
 0.000000000000000D+00 0.000000000000000D+00 -.000000000000000D+00 0.000000000000000D+00
 0.327434237621214D+03 0.000000000000000D+00 0.000000000000000D+00 0.327434237621214D+03
 0.319781290678438D+03 0.000000000000000D+00 0.000000000000000D+00 -.319781290678438D+03
 0.138673116331241D+03 -.339295246729379D+02 -.115793074567510D+01 -.988050019021029D+02
 0.807857763267679D+02 -.759540242635284D+02 -.186164706648961D+02 -.202670884657115D+02
 0.801232465458609D+02 -.408231477343141D+02 -.290700584464189D+02 0.625150937616906D+02
 0.205022983713559D+03 0.646440999220462D+02 0.162301013511850D+03 0.565569966061238D+02
 0.142610405382224D+03 0.860625967487342D+02 -.113456553654860D+03 0.765294694277586D+01
0.107609988929D-05 0.000000000000D+00 0.000000000000D+00 0.408871284766D-07 0.000000000000D+00  7 -2 2 23 -11 11 23 21 0 0.18097775D-01 0.76621002D-01 0.40576198D+05 0.40576198D+05 0.40576198D+05 0.11553597D+01  1  2  2  2  7  2        2 0.188242635292D-03 0.100000000000D+01
-.573313927936D-07 0.000000000000D+00 -.413250691850D-08 0.408871284766D-07 0.000000000000D+00  7 -2 2 23 -11 11 23 21 2 0.18097775D-01 0.76621002D-01 0.40576198D+05 0.40576198D+05 0.40576198D+05 0.11553597D+01  1  2  3  2  7  2        2 -.133872792143D-04 0.100000000000D+01
0.687364330898D-07 0.000000000000D+00 0.000000000000D+00 0.408871284766D-07 0.000000000000D+00  7 -2 2 23 -11 11 23 21 2 0.18097775D-01 0.76621002D-01 0.40576198D+05 0.40576198D+05 0.40576198D+05 0.11553597D+01  1  2 15  2  7  2        2 0.160504354966D-04 0.100000000000D+01
-.323908481509D-06 0.000000000000D+00 0.000000000000D+00 0.408871284766D-07 0.000000000000D+00  7 -2 2 23 -11 11 23 21 2 0.18097775D-01 0.76621002D-01 0.40576198D+05 0.40576198D+05 0.40576198D+05 0.11553597D+01  1  2  4  2  7  2        2 -.756348846685D-04 0.100000000000D+01
  </mgrwgt>
  </event>
  <event>
  7     66 0.28248871E-05 0.17235549E+03 0.75467711E-02 0.93201776E-01
       -2 -1    0    0    0  501 0.00000000E+00 0.00000000E+00 0.10005207E+04 0.10005208E+04 0.32000000E+00 0.0000E+00 0.9000E+01
        2 -1    0    0  501    0 0.00000000E+00 0.00000000E+00 -.41386215E+03 0.41386228E+03 0.32000000E+00 0.0000E+00 0.9000E+01
       23  2    1    2    0    0 -.40794159E+03 0.30839919E+03 -.67905281E+02 0.52392255E+03 0.91418357E+02 0.0000E+00 0.0000E+00
       23  1    1    2    0    0 0.35348296E+03 -.16791246E+03 0.56378116E+03 0.69232163E+03 0.91188000E+02 0.0000E+00 0.9000E+01
      -11  1    3    3    0    0 -.95293808E+02 0.12055273E+03 -.46484958E+01 0.15373835E+03 0.51099893E-03 0.0000E+00 0.9000E+01
       11  1    3    3    0    0 -.31264778E+03 0.18784646E+03 -.63256785E+02 0.37018420E+03 0.51099893E-03 0.0000E+00 0.9000E+01
       23  1    1    2    0    0 0.54458625E+02 -.14048673E+03 0.90782698E+02 0.19813887E+03 0.91188000E+02 0.0000E+00 0.9000E+01
#aMCatNLO 1  0  0  2  1 0.39593266D+02 0.00000000D+00  -5  7  0 0.00000000D+00 0.00000000D+00 0.00000000D+00 0.00000000D+00 0.00000000D+00
  <mgrwgt>
 0.1673199834D-03    9    2    0
 0.643488760492753D+03 0.000000000000000D+00 0.000000000000000D+00 0.643488760492753D+03
 0.643488760492753D+03 0.000000000000000D+00 0.000000000000000D+00 -.643488760492753D+03
 0.503863450060922D+03 0.353482961446434D+03 -.167912457863789D+03 0.304003827976714D+03
 0.171076795947644D+03 -.952938079154630D+02 0.120552729504087D+03 -.751890929177705D+02
 0.435666041210327D+03 -.312647778926233D+03 0.187846456243061D+03 -.238264505693347D+03
 0.176371233766613D+03 0.544586253952617D+02 -.140486727883358D+03 0.944977063440429D+01
 0.000000000000000D+00 0.000000000000000D+00 -.000000000000000D+00 -.000000000000000D+00
 0.651859331627848D+03 0.000000000000000D+00 0.000000000000000D+00 0.651859331627848D+03
 0.692379934534102D+03 0.000000000000000D+00 0.000000000000000D+00 -.692379934534102D+03
 0.492249574350529D+03 0.338706759694641D+03 -.163871277583775D+03 0.304003827976714D+03
 0.174963938171723D+03 -.100426927929337D+03 0.121956599302527D+03 -.751890929177705D+02
 0.446674431058756D+03 -.325736294498775D+03 0.191426067019557D+03 -.238264505693347D+03
 0.173698467593161D+03 0.492657402429584D+02 -.139066512768110D+03 0.944977063440429D+01
 0.566528549877804D+02 0.381907224905120D+02 -.104448759701995D+02 -.405206029062540D+02
0.446299637040D-04 0.000000000000D+00 0.000000000000D+00 0.198265013397D-08 0.000000000000D+00  7 -2 2 23 -11 11 23 21 0 0.15392628D+00 0.63671114D-01 0.30049386D+06 0.30049386D+06 0.30049386D+06 0.10844990D+01  1  2  2  2  7  2        2 0.113507985435D-03 0.100000000000D+01
-.240196513046D-05 0.000000000000D+00 -.171390811962D-06 0.198265013397D-08 0.000000000000D+00  7 -2 2 23 -11 11 23 21 2 0.15392628D+00 0.63671114D-01 0.30049386D+06 0.30049386D+06 0.30049386D+06 0.10844990D+01  1  2  3  2  7  2        2 -.718496915910D-05 0.100000000000D+01
0.269789817844D-05 0.000000000000D+00 0.000000000000D+00 0.198265013397D-08 0.000000000000D+00  7 -2 2 23 -11 11 23 21 2 0.15392628D+00 0.63671114D-01 0.30049386D+06 0.30049386D+06 0.30049386D+06 0.10844990D+01  1  2 15  2  7  2        2 0.807019009588D-05 0.100000000000D+01
0.258527551703D-03 0.000000000000D+00 0.000000000000D+00 0.198265013397D-08 0.000000000000D+00  7 -2 2 23 -11 11 23 21 2 0.15392628D+00 0.68903058D-01 0.32262216D+06 0.32262216D+06 0.32262216D+06 0.10822237D+01  1  2 12  2  7  2        2 0.703175281438D-03 0.100000000000D+01
-.262882387519D-03 0.000000000000D+00 0.000000000000D+00 0.198265013397D-08 0.000000000000D+00  7 -2 2 23 -11 11 23 21 2 0.15392628D+00 0.63671114D-01 0.30049386D+06 0.30049386D+06 0.30049386D+06 0.10844990D+01  1  2  4  2  7  2        2 -.786356897042D-03 0.100000000000D+01
-.551757509538D-03 0.000000000000D+00 -.754307184782D-04 0.198265013397D-08 0.000000000000D+00  7 -2 2 23 -11 11 23 21 2 0.15392628D+00 0.69126715D-01 0.30049386D+06 0.30049386D+06 0.30049386D+06 0.10844990D+01  1  2  5  2  7  2        2 -.150571286034D-02 0.100000000000D+01
0.556331823146D-03 0.000000000000D+00 0.751765338731D-04 0.198265013397D-08 0.000000000000D+00  7 -2 2 23 -11 11 23 21 2 0.15392628D+00 0.63671114D-01 0.30049386D+06 0.30049386D+06 0.30049386D+06 0.10844990D+01  1  2  6  2  7  2        2 0.166414863431D-02 0.100000000000D+01
0.356613627696D-05 0.000000000000D+00 0.000000000000D+00 0.198265013397D-08 0.000000000000D+00  7 -2 21 23 -11 11 23 -2 2 0.15392628D+00 0.68903058D-01 0.32262216D+06 0.32262216D+06 0.32262216D+06 0.10822237D+01  1  2 12  4  7  2        2 0.208078793592D-04 0.100000000000D+01
-.737800217575D-05 0.000000000000D+00 -.103217578931D-05 0.198265013397D-08 0.000000000000D+00  7 -2 21 23 -11 11 23 -2 2 0.15392628D+00 0.69126715D-01 0.30049386D+06 0.30049386D+06 0.30049386D+06 0.10844990D+01  1  2  5  4  7  2        2 -.431352606834D-04 0.100000000000D+01
  </mgrwgt>
  </event>
  <event>
  8     66 0.28248871E-05 0.42783290E+03 0.75467711E-02 0.82654761E-01
       -2 -1    0    0    0  501 0.00000000E+00 0.00000000E+00 0.14330543E+03 0.14330578E+03 0.32000000E+00 0.0000E+00 0.9000E+01
        2 -1    0    0  501    0 0.00000000E+00 0.00000000E+00 -.15642471E+04 0.15642472E+04 0.32000000E+00 0.0000E+00 0.9000E+01
       25  2    1    2    0    0 -.34529129E+02 0.38528833E+03 -.10735964E+04 0.11798746E+04 0.29975889E+03 0.0000E+00 0.0000E+00
       23  2    1    2    0    0 0.34529129E+02 -.38528833E+03 -.34734531E+03 0.52767839E+03 0.90312602E+02 0.0000E+00 0.0000E+00
       23  1    3    3    0    0 0.39519589E+02 0.31780718E+03 -.58803002E+03 0.67576457E+03 0.91188000E+02 0.0000E+00 0.9000E+01
      -11  1    4    4    0    0 0.47809736E+01 -.14639584E+03 -.76286369E+02 0.16514905E+03 0.51099893E-03 0.0000E+00 0.9000E+01
       11  1    4    4    0    0 0.29748156E+02 -.23889249E+03 -.27105894E+03 0.36252934E+03 0.51099893E-03 0.0000E+00 0.9000E+01
       23  1    3    3    0    0 -.74048718E+02 0.67481147E+02 -.48556638E+03 0.50410999E+03 0.91188000E+02 0.0000E+00 0.9000E+01
#aMCatNLO 1  0  0  1  2 0.15979823D+04 0.00000000D+00  -5  7  0 0.00000000D+00 0.00000000D+00 0.00000000D+00 0.00000000D+00 0.00000000D+00
  <mgrwgt>
 0.2192830978D-03    5    2    0
 0.473461125332695D+03 0.000000000000000D+00 0.000000000000000D+00 0.473461125332695D+03
 0.473461125332695D+03 0.000000000000000D+00 0.000000000000000D+00 -.473461125332695D+03
 0.336191710680483D+03 0.395195891855762D+02 0.317807181577132D+03 -.463293901845535D+02
 0.183333179717378D+03 0.478097362485612D+01 -.146395838123092D+03 0.110256317990038D+03
 0.246988699772281D+03 0.297481556210961D+02 -.238892490738326D+03 0.552163283928209D+02
 0.180408660495250D+03 -.740487184315283D+02 0.674811472842856D+02 -.119143256198305D+03
 0.000000000000000D+00 -.000000000000000D+00 -.000000000000000D+00 0.000000000000000D+00
 0.184240711036455D+04 0.000000000000000D+00 0.000000000000000D+00 0.184240711036455D+04
 0.162744300668062D+04 0.000000000000000D+00 0.000000000000000D+00 -.162744300668062D+04
 0.119163745347748D+04 0.295954120127501D+03 0.114976054705794D+04 -.463293901845535D+02
 0.125910993428213D+03 0.566852613210649D+02 0.219978125803875D+02 0.110256317990038D+03
 0.114019916038376D+03 0.903407121929694D+02 -.423113938872436D+02 0.552163283928209D+02
 0.425905531154276D+03 0.277165174904923D+02 0.397639220002844D+03 -.119143256198305D+03
 0.161237622294683D+04 -.470696611132028D+03 -.152708618575393D+04 0.214964103683926D+03
0.843123506226D-05 0.000000000000D+00 0.000000000000D+00 0.915264102844D-06 0.000000000000D+00  7 -2 2 23 -11 11 23 21 0 0.22047019D-01 0.24065344D+00 0.18304099D+06 0.18304099D+06 0.18304099D+06 0.11007932D+01  1  2  2  1  7  1       -2 0.216590042419D-03 0.100000000000D+01
-.462553544924D-06 0.000000000000D+00 -.323781626342D-07 0.915264102844D-06 0.000000000000D+00  7 -2 2 23 -11 11 23 21 2 0.22047019D-01 0.24065344D+00 0.18304099D+06 0.18304099D+06 0.18304099D+06 0.11007932D+01  1  2  3  1  7  1       -2 -.143986159041D-04 0.100000000000D+01
0.535568709336D-06 0.000000000000D+00 0.000000000000D+00 0.915264102844D-06 0.000000000000D+00  7 -2 2 23 -11 11 23 21 2 0.22047019D-01 0.24065344D+00 0.18304099D+06 0.18304099D+06 0.18304099D+06 0.11007932D+01  1  2 15  1  7  1       -2 0.166714712721D-04 0.100000000000D+01
0.441786863868D-04 0.000000000000D+00 -.119605043679D-04 0.915264102844D-06 0.000000000000D+00  7 -2 2 23 -11 11 23 21 2 0.47220750D+00 0.24065344D+00 0.18304099D+06 0.18304099D+06 0.18304099D+06 0.11007932D+01  1  2  5  1  7  1       -2 0.126901821759D-06 0.100000000000D+01
0.112115506545D-04 0.000000000000D+00 -.388668196345D-05 0.915264102844D-06 0.000000000000D+00  7 21 2 23 -11 11 23 2 2 0.47220750D+00 0.24065344D+00 0.18304099D+06 0.18304099D+06 0.18304099D+06 0.11007932D+01  1  2  5  3  7  1       -2 0.293298201800D-06 0.100000000000D+01
  </mgrwgt>
  </event>
  <event>
  8     66 0.28248871E-05 0.14544863E+03 0.75467711E-02 0.10134847E+00
       -2 -1    0    0    0  501 0.00000000E+00 0.00000000E+00 0.85138760E+02 0.85139361E+02 0.32000000E+00 0.0000E+00 0.9000E+01
        2 -1    0    0  501    0 0.00000000E+00 0.00000000E+00 -.68305149E+03 0.68305156E+03 0.32000000E+00 0.0000E+00 0.9000E+01
       25  2    1    2    0    0 -.38352937E+02 -.55190082E+02 -.57457462E+03 0.65199828E+03 0.30074718E+03 0.0000E+00 0.0000E+00
       23  2    1    2    0    0 0.38352937E+02 0.55190082E+02 -.23338110E+02 0.11619265E+03 0.91864965E+02 0.0000E+00 0.0000E+00
       23  1    3    3    0    0 -.31685285E+02 -.81765122E+02 -.53351154E+03 0.54830586E+03 0.91188000E+02 0.0000E+00 0.9000E+01
      -13  1    4    4    0    0 0.31881340E+01 0.16845556E+02 0.34421858E+02 0.38455330E+02 0.10565837E+00 0.0000E+00 0.9000E+01
       13  1    4    4    0    0 0.35164803E+02 0.38344526E+02 -.57759967E+02 0.77737320E+02 0.10565837E+00 0.0000E+00 0.9000E+01
       23  1    3    3    0    0 -.66676517E+01 0.26575039E+02 -.41063076E+02 0.10369242E+03 0.91188000E+02 0.0000E+00 0.9000E+01
#aMCatNLO 1  0  0  2  1 0.20515333D+03 0.00000000D+00  -5  7  0 0.00000000D+00 0.00000000D+00 0.00000000D+00 0.00000000D+00 0.00000000D+00
  <mgrwgt>
 0.2417507153D-03    3    2    0
 0.241152268165661D+03 0.000000000000000D+00 0.000000000000000D+00 0.241152268165661D+03
 0.241152268165661D+03 0.000000000000000D+00 0.000000000000000D+00 -.241152268165661D+03
 0.211920542159295D+03 -.316852871970296D+02 -.817651214872187D+02 -.170016388411563D+03
 0.103922595736576D+03 0.318809592141685D+01 0.168455334217720D+02 0.102498633906797D+03
 0.522111040231346D+02 0.351648454328747D+02 0.383445556010328D+02 0.437356659443057D+01
 0.114250294412318D+03 -.666765415726199D+01 0.265750324644139D+02 0.631441879103358D+02
 0.000000000000000D+00 0.000000000000000D+00 -.000000000000000D+00 0.000000000000000D+00
 0.680224890248589D+03 0.000000000000000D+00 0.000000000000000D+00 0.680224890248589D+03
 0.287224166956983D+03 0.000000000000000D+00 0.000000000000000D+00 -.287224166956983D+03
 0.238543249590579D+03 -.122522419922493D+03 -.683397019971414D+02 -.170016388411563D+03
 0.112639516021350D+03 -.404821871276242D+02 0.232998528349104D+02 0.102498633906797D+03
 0.443258569635244D+02 0.156979295593628D+02 0.412216996052345D+02 0.437356659443057D+01
 0.128614982689742D+03 -.556420352608513D+02 0.338132795430593D+02 0.631441879103358D+02
 0.443325451940377D+03 0.202948712751605D+03 -.299951299860627D+02 0.393000723291606D+03
0.115422903964D-05 0.000000000000D+00 0.000000000000D+00 0.916162957216D-07 0.000000000000D+00  7 -2 2 23 -13 13 23 21 0 0.13098323D-01 0.10508490D+00 0.21155303D+05 0.21155303D+05 0.21155303D+05 0.11816783D+01  1  2  2  2  7  2        2 0.234330049973D-03 0.100000000000D+01
-.441930347780D-07 0.000000000000D+00 -.443254342771D-08 0.916162957216D-07 0.000000000000D+00  7 -2 2 23 -13 13 23 21 2 0.13098323D-01 0.10508490D+00 0.21155303D+05 0.21155303D+05 0.21155303D+05 0.11816783D+01  1  2  3  2  7  2        2 -.125281904347D-04 0.100000000000D+01
0.703693389128D-07 0.000000000000D+00 0.000000000000D+00 0.916162957216D-07 0.000000000000D+00  7 -2 2 23 -13 13 23 21 2 0.13098323D-01 0.10508490D+00 0.21155303D+05 0.21155303D+05 0.21155303D+05 0.11816783D+01  1  2 15  2  7  2        2 0.199488558117D-04 0.100000000000D+01
  </mgrwgt>
  </event>
  <event>
  8     66 0.28248871E-05 0.27715618E+03 0.75467711E-02 0.10118431E+00
       -2 -1    0    0    0  501 0.00000000E+00 0.00000000E+00 0.34501653E+02 0.34503137E+02 0.32000000E+00 0.0000E+00 0.9000E+01
        2 -1    0    0  501    0 0.00000000E+00 0.00000000E+00 -.23813085E+04 0.23813085E+04 0.32000000E+00 0.0000E+00 0.9000E+01
       25  2    1    2    0    0 -.78830547E+02 -.17730113E+03 -.13583996E+04 0.14043743E+04 0.29894426E+03 0.0000E+00 0.0000E+00
       23  2    1    2    0    0 0.78830547E+02 0.17730113E+03 -.98840721E+03 0.10114373E+04 0.91688382E+02 0.0000E+00 0.0000E+00
       23  1    3    3    0    0 -.85224280E+02 0.26995208E+02 -.61005837E+03 0.62328034E+03 0.91188000E+02 0.0000E+00 0.9000E+01
      -13  1    4    4    0    0 0.81693313E+02 0.18072680E+03 -.84511818E+03 0.86807876E+03 0.10565837E+00 0.0000E+00 0.9000E+01
       13  1    4    4    0    0 -.28627664E+01 -.34256680E+01 -.14328902E+03 0.14335859E+03 0.10565837E+00 0.0000E+00 0.9000E+01
       23  1    3    3    0    0 0.63937333E+01 -.20429634E+03 -.74834124E+03 0.78109394E+03 0.91188000E+02 0.0000E+00 0.9000E+01
#aMCatNLO 1  0  0  1  2 0.28084954D+02 0.00000000D+00  -5  7  0 0.00000000D+00 0.00000000D+00 0.00000000D+00 0.00000000D+00 0.00000000D+00
  <mgrwgt>
 0.2814469713D-03    4    2    0
 0.286637223307257D+03 0.000000000000000D+00 0.000000000000000D+00 0.286637223307257D+03
 0.286637223307257D+03 0.000000000000000D+00 0.000000000000000D+00 -.286637223307257D+03
 0.129150633785544D+03 -.852242805011998D+02 0.269952071268132D+02 -.193058454474541D+02
 0.198483958433554D+03 0.816934256746862D+02 0.180727046303096D+03 -.773309068523329D+01
 0.175405679623851D+02 -.286287814080551D+01 -.342591147654814D+01 -.169628589497409D+02
 0.228099286433031D+03 0.639373296731909D+01 -.204296341953361D+03 0.440017950824283D+02
 0.000000000000000D+00 0.000000000000000D+00 -.000000000000000D+00 -.000000000000000D+00
 0.293947318203626D+03 0.000000000000000D+00 0.000000000000000D+00 0.293947318203626D+03
 0.315287319306138D+03 0.000000000000000D+00 0.000000000000000D+00 -.315287319306138D+03
 0.131871322840166D+03 -.872293160206028D+02 0.330624439772987D+02 -.193058454474541D+02
 0.205872932585376D+03 0.785873654049330D+02 0.190125983701514D+03 -.773309068523329D+01
 0.174462528406714D+02 -.313162878281265D+01 -.261267211844301D+01 -.169628589497409D+02
 0.218771472863403D+03 0.296110317419879D+01 -.193909205280044D+03 0.440017950824283D+02
 0.352726563801471D+02 0.881247622428362D+01 -.266665502803258D+02 -.213400011025122D+02
0.511280984856D-05 0.000000000000D+00 0.000000000000D+00 0.736531975924D-07 0.000000000000D+00  7 -2 2 23 -13 13 23 21 0 0.53080625D-02 0.36635526D+00 0.76815548D+05 0.76815548D+05 0.76815548D+05 0.11312453D+01  1  2  2  1  7  1       -2 0.449042564053D-03 0.100000000000D+01
-.283654256158D-06 0.000000000000D+00 -.196345360522D-07 0.736531975924D-07 0.000000000000D+00  7 -2 2 23 -13 13 23 21 2 0.53080625D-02 0.36635526D+00 0.76815548D+05 0.76815548D+05 0.76815548D+05 0.11312453D+01  1  2  3  1  7  1       -2 -.318809104798D-04 0.100000000000D+01
0.325127641174D-06 0.000000000000D+00 0.000000000000D+00 0.736531975924D-07 0.000000000000D+00  7 -2 2 23 -13 13 23 21 2 0.53080625D-02 0.36635526D+00 0.76815548D+05 0.76815548D+05 0.76815548D+05 0.11312453D+01  1  2 15  1  7  1       -2 0.365422516946D-04 0.100000000000D+01
-.153262286878D-05 0.000000000000D+00 0.000000000000D+00 0.736531975924D-07 0.000000000000D+00  7 -2 2 23 -13 13 23 21 2 0.53080625D-02 0.36635526D+00 0.76815548D+05 0.76815548D+05 0.76815548D+05 0.11312453D+01  1  2  4  1  7  1       -2 -.172256933989D-03 0.100000000000D+01
  </mgrwgt>
  </event>
  <event>
  8     66 0.28248871E-05 0.13056343E+03 0.75467711E-02 0.96890950E-01
       -2 -1    0    0    0  501 0.00000000E+00 0.00000000E+00 0.88528252E+02 0.88528831E+02 0.32000000E+00 0.0000E+00 0.9000E+01
        2 -1    0    0  501    0 0.00000000E+00 0.00000000E+00 -.19071918E+04 0.19071919E+04 0.32000000E+00 0.0000E+00 0.9000E+01
       25  2    1    2    0    0 -.26837186E+03 -.15921754E+03 -.65246051E+03 0.78498250E+03 0.30515425E+03 0.0000E+00 0.0000E+00
       23  2    1    2    0    0 0.26837186E+03 0.15921754E+03 -.11662031E+04 0.12107382E+04 0.92106976E+02 0.0000E+00 0.0000E+00
       23  1    3    3    0    0 -.56267461E+02 -.17312468E+03 -.27252109E+03 0.34017816E+03 0.91188000E+02 0.0000E+00 0.9000E+01
      -11  1    4    4    0    0 0.29738598E+02 0.19677838E+01 -.47234377E+02 0.55851077E+02 0.51099893E-03 0.0000E+00 0.9000E+01
       11  1    4    4    0    0 0.23863326E+03 0.15724976E+03 -.11189687E+04 0.11548871E+04 0.51099893E-03 0.0000E+00 0.9000E+01
       23  1    3    3    0    0 -.21210440E+03 0.13907139E+02 -.37993942E+03 0.44480434E+03 0.91188000E+02 0.0000E+00 0.9000E+01
#aMCatNLO 1  0  0  2  1 0.67595648D+02 0.00000000D+00  -5  7  0 0.00000000D+00 0.00000000D+00 0.00000000D+00 0.00000000D+00 0.00000000D+00
  <mgrwgt>
 0.4818847262D-03    9    2    0
 0.410902621144193D+03 0.000000000000000D+00 0.000000000000000D+00 0.410902621144193D+03
 0.410902621144193D+03 0.000000000000000D+00 0.000000000000000D+00 -.410902621144193D+03
 0.223016837106563D+03 -.562674612455098D+02 -.173124682934077D+03 0.910114017745896D+02
 0.311019039800824D+02 0.297385978585619D+02 0.196778383217100D+01 0.889224692543150D+01
 0.328307115258064D+03 0.238633262463669D+03 0.157249759833492D+03 -.161592824739611D+03
 0.239379385943676D+03 -.212104399076721D+03 0.139071392684137D+02 0.616891760395895D+02
 0.000000000000000D+00 -.000000000000000D+00 -.000000000000000D+00 -.000000000000000D+00
 0.445403207787155D+03 0.000000000000000D+00 0.000000000000000D+00 0.445403207787155D+03
 0.446787121557210D+03 0.000000000000000D+00 0.000000000000000D+00 -.446787121557210D+03
 0.217758027014864D+03 -.382590530426256D+02 -.171337318155479D+03 0.910114017745896D+02
 0.336570407490170D+02 0.323844055177491D+02 0.223038468882077D+01 0.889224692543150D+01
 0.350225534277850D+03 0.266355562273535D+03 0.160001244678996D+03 -.161592824739611D+03
 0.222939914254721D+03 -.193215765999516D+03 0.157818678450711D+02 0.616891760395895D+02
 0.676098130479136D+02 -.672651487491426D+02 -.667617905740946D+01 -.138391377005480D+01
0.578530557760D-05 0.000000000000D+00 0.000000000000D+00 0.109619972957D-07 0.000000000000D+00  7 -2 2 23 -11 11 23 21 0 0.13619778D-01 0.29341418D+00 0.14080667D+06 0.14080667D+06 0.14080667D+06 0.11097261D+01  1  2  2  2  7  2        2 0.214950443764D-03 0.100000000000D+01
-.318185087184D-06 0.000000000000D+00 -.222170967239D-07 0.109619972957D-07 0.000000000000D+00  7 -2 2 23 -11 11 23 21 2 0.13619778D-01 0.29341418D+00 0.14080667D+06 0.14080667D+06 0.14080667D+06 0.11097261D+01  1  2  3  2  7  2        2 -.145587280222D-04 0.100000000000D+01
0.362388372167D-06 0.000000000000D+00 0.000000000000D+00 0.109619972957D-07 0.000000000000D+00  7 -2 2 23 -11 11 23 21 2 0.13619778D-01 0.29341418D+00 0.14080667D+06 0.14080667D+06 0.14080667D+06 0.11097261D+01  1  2 15  2  7  2        2 0.165812728544D-04 0.100000000000D+01
0.631604967196D-05 0.000000000000D+00 0.000000000000D+00 0.109619972957D-07 0.000000000000D+00  7 -2 2 23 -11 11 23 21 2 0.13619778D-01 0.33033800D+00 0.16926507D+06 0.16926507D+06 0.16926507D+06 0.11034345D+01  1  2 12  2  7  2        2 0.210436163606D-03 0.100000000000D+01
-.508009344225D-05 0.000000000000D+00 0.000000000000D+00 0.109619972957D-07 0.000000000000D+00  7 -2 2 23 -11 11 23 21 2 0.13619778D-01 0.29341418D+00 0.14080667D+06 0.14080667D+06 0.14080667D+06 0.11097261D+01  1  2  4  2  7  2        2 -.232442379395D-03 0.100000000000D+01
-.213698641972D-04 0.000000000000D+00 -.497681032293D-05 0.109619972957D-07 0.000000000000D+00  7 -2 2 23 -11 11 23 21 2 0.13619778D-01 0.33249208D+00 0.14080667D+06 0.14080667D+06 0.14080667D+06 0.11097261D+01  1  2  5  2  7  2        2 -.711684584761D-03 0.100000000000D+01
0.218596820556D-04 0.000000000000D+00 0.493816156634D-05 0.109619972957D-07 0.000000000000D+00  7 -2 2 23 -11 11 23 21 2 0.13619778D-01 0.29341418D+00 0.14080667D+06 0.14080667D+06 0.14080667D+06 0.11097261D+01  1  2  6  2  7  2        2 0.100020138755D-02 0.100000000000D+01
0.118603500206D-06 0.000000000000D+00 0.000000000000D+00 0.109619972957D-07 0.000000000000D+00  7 -2 21 23 -11 11 23 -2 2 0.13619778D-01 0.33033800D+00 0.16926507D+06 0.16926507D+06 0.16926507D+06 0.11034345D+01  1  2 12  4  7  2        2 0.691258419247D-06 0.100000000000D+01
-.394844410704D-06 0.000000000000D+00 -.977354843971D-07 0.109619972957D-07 0.000000000000D+00  7 -2 21 23 -11 11 23 -2 2 0.13619778D-01 0.33249208D+00 0.14080667D+06 0.14080667D+06 0.14080667D+06 0.11097261D+01  1  2  5  4  7  2        2 -.229010777942D-05 0.100000000000D+01
  </mgrwgt>
  </event>
  <event>
  9     66 0.28248871E-05 0.37920660E+03 0.75467711E-02 0.96175532E-01
       21 -1    0    0  502  501 0.00000000E+00 0.00000000E+00 0.28012353E+03 0.28012453E+03 0.75000000E+00 0.0000E+00 0.9000E+01
        2 -1    0    0  501    0 0.00000000E+00 0.00000000E+00 -.78280221E+03 0.78280228E+03 0.32000000E+00 0.0000E+00 0.9000E+01
       25  2    1    2    0    0 -.36895017E+03 0.75362634E+02 -.38983248E+03 0.61933609E+03 0.29967328E+03 0.0000E+00 0.0000E+00
       23  2    1    2    0    0 0.27565919E+03 -.15818805E+02 -.76144792E+01 0.29087368E+03 0.91166290E+02 0.0000E+00 0.0000E+00
       23  1    3    3    0    0 -.14703890E+03 -.84405789E+02 -.17002045E+03 0.25684038E+03 0.91188000E+02 0.0000E+00 0.9000E+01
      -11  1    4    4    0    0 0.49291010E+02 -.26893027E+02 -.29056435E+02 0.63222741E+02 0.51099893E-03 0.0000E+00 0.9000E+01
       11  1    4    4    0    0 0.22636818E+03 0.11074222E+02 0.21441956E+02 0.22765094E+03 0.51099893E-03 0.0000E+00 0.9000E+01
       23  1    3    3    0    0 -.22191127E+03 0.15976842E+03 -.21981202E+03 0.36249571E+03 0.91188000E+02 0.0000E+00 0.9000E+01
        2  1    1    2  502    0 0.93290979E+02 -.59543830E+02 -.10523173E+03 0.15271704E+03 0.32000000E+00 0.0000E+00 0.9000E+01
#aMCatNLO 2  0  0  1  1 0.11067373D+03 0.00000000D+00  -5  7  0 0.00000000D+00 0.00000000D+00 0.00000000D+00 0.00000000D+00 0.00000000D+00
  <mgrwgt>
 0.4629454492D-04    1    2    0
 0.405668911924247D+03 0.000000000000000D+00 0.000000000000000D+00 0.405668911924247D+03
 0.405668911924247D+03 0.000000000000000D+00 0.000000000000000D+00 -.405668911924247D+03
 0.194139789891407D+03 -.124313313493475D+03 -.989106070310433D+02 -.643264998278562D+02
 0.643348352356512D+02 0.561873372848917D+02 -.312946719100241D+02 -.161172692357005D+01
 0.291112837017354D+03 0.258104595925305D+03 -.918183707016224D+01 0.134329428296797D+03
 0.261750361704083D+03 -.189978619716721D+03 0.139387116011230D+03 -.683912015453706D+02
 0.000000000000000D+00 0.000000000000000D+00 -.000000000000000D+00 -.000000000000000D+00
 0.447341124541094D+03 0.000000000000000D+00 0.000000000000000D+00 0.447341124541094D+03
 0.490188955167749D+03 0.000000000000000D+00 0.000000000000000D+00 -.490188955167749D+03
 0.202972723573788D+03 -.147038904543517D+03 -.844057885544622D+02 -.643264998278562D+02
 0.561732697203325D+02 0.492910098749392D+02 -.268930272172121D+02 -.161172692357005D+01
 0.263456993541562D+03 0.226368181809316D+03 0.110742224900219D+02 0.134329428296797D+03
 0.296248488656976D+03 -.221911266635968D+03 0.159768422971322D+03 -.683912015453706D+02
 0.118678604216186D+03 0.932909794952287D+02 -.595438296896699D+02 -.428478306266550D+02
0.156322779616D-06 0.000000000000D+00 0.000000000000D+00 0.664132190452D-06 0.665904014432D-11  7 21 2 23 -11 11 23 2 2 0.43095989D-01 0.12043114D+00 0.19106458D+06 0.19106458D+06 0.19106458D+06 0.10993532D+01  1  2  1  3  7  1       -2 0.462945449227D-04 0.100000000000D+01
  </mgrwgt>
  </event>
  <event>
  8     66 0.28248871E-05 0.36625954E+03 0.75467711E-02 0.93463281E-01
       -2 -1    0    0    0  501 0.00000000E+00 0.00000000E+00 0.32878206E+03 0.32878222E+03 0.32000000E+00 0.0000E+00 0.9000E+01
        2 -1    0    0  501    0 0.00000000E+00 0.00000000E+00 -.59789692E+03 0.59789701E+03 0.32000000E+00 0.0000E+00 0.9000E+01
       25  2    1    2    0    0 -.28162640E+03 -.92258316E+02 -.40679098E+03 0.58644772E+03 0.30102658E+03 0.0000E+00 0.0000E+00
       23  2    1    2    0    0 0.28162640E+03 0.92258316E+02 0.13767612E+03 0.34023151E+03 0.94750925E+02 0.0000E+00 0.0000E+00
       23  1    3    3    0    0 -.15634087E+03 0.73490763E+02 -.19673653E+03 0.27724335E+03 0.91188000E+02 0.0000E+00 0.9000E+01
      -11  1    4    4    0    0 0.20601876E+03 0.22222052E+02 0.79932018E+02 0.22209610E+03 0.51099893E-03 0.0000E+00 0.9000E+01
       11  1    4    4    0    0 0.75607641E+02 0.70036264E+02 0.57744101E+02 0.11813541E+03 0.51099893E-03 0.0000E+00 0.9000E+01
       23  1    3    3    0    0 -.12528553E+03 -.16574908E+03 -.21005445E+03 0.30920438E+03 0.91188000E+02 0.0000E+00 0.9000E+01
#aMCatNLO 1  0  0  2  2 0.31698216D+03 0.00000000D+00  -5  7  0 0.00000000D+00 0.00000000D+00 0.00000000D+00 0.00000000D+00 0.00000000D+00
  <mgrwgt>
 0.2090414481D-03    6    2    0
 0.443371059994189D+03 0.000000000000000D+00 0.000000000000000D+00 0.443371059994189D+03
 0.443371059994189D+03 0.000000000000000D+00 0.000000000000000D+00 -.443371059994189D+03
 0.230022825710700D+03 -.156340873934620D+03 0.734907629677597D+02 -.121457350126335D+03
 0.256357210989417D+03 0.206018762218089D+03 0.222220519716548D+02 0.150935316101196D+03
 0.140980587569770D+03 0.756076406202656D+02 0.700362637765419D+02 0.961973622693307D+02
 0.259381495718492D+03 -.125285528903734D+03 -.165749078715956D+03 -.125675328244192D+03
 0.000000000000000D+00 0.000000000000000D+00 -.000000000000000D+00 -.000000000000000D+00
 0.627328332374662D+03 0.000000000000000D+00 0.000000000000000D+00 0.627328332374662D+03
 0.631374552900954D+03 0.000000000000000D+00 0.000000000000000D+00 -.631374552900954D+03
 0.301030744053545D+03 -.217473963528631D+03 0.142328650695732D+03 -.121457350126335D+03
 0.229281553228141D+03 0.150113671331653D+03 0.851730396514864D+02 0.150935316101196D+03
 0.150490124954480D+03 0.420545186806366D+02 0.107818192619698D+03 0.961973622693307D+02
 0.260892475183173D+03 -.185177707560368D+03 -.983084978860135D+02 -.125675328244192D+03
 0.317007987856276D+03 0.210483481076709D+03 -.237011385080903D+03 -.404622052629167D+01
0.650646699877D-05 0.000000000000D+00 0.000000000000D+00 0.202290315036D-07 0.000000000000D+00  7 -2 2 23 -11 11 23 21 0 0.50581875D-01 0.91984161D-01 0.13414605D+06 0.13414605D+06 0.13414605D+06 0.11114008D+01  1  2  2  2  7  2        2 0.149909763998D-03 0.100000000000D+01
-.345426279186D-06 0.000000000000D+00 -.249865464674D-07 0.202290315036D-07 0.000000000000D+00  7 -2 2 23 -11 11 23 21 2 0.50581875D-01 0.91984161D-01 0.13414605D+06 0.13414605D+06 0.13414605D+06 0.11114008D+01  1  2  3  2  7  2        2 -.983063202560D-05 0.100000000000D+01
0.406873279742D-06 0.000000000000D+00 0.000000000000D+00 0.202290315036D-07 0.000000000000D+00  7 -2 2 23 -11 11 23 21 2 0.50581875D-01 0.91984161D-01 0.13414605D+06 0.13414605D+06 0.13414605D+06 0.11114008D+01  1  2 15  2  7  2        2 0.115793781053D-04 0.100000000000D+01
-.151981713665D-05 0.000000000000D+00 -.217741164226D-05 0.202290315036D-07 0.000000000000D+00  7 -2 2 23 -11 11 23 21 2 0.50581875D-01 0.17076358D+00 0.13414605D+06 0.13414605D+06 0.13414605D+06 0.11114008D+01  1  2  5  2  7  2        2 -.194275566516D-04 0.100000000000D+01
0.269390575791D-05 0.000000000000D+00 0.181821481898D-05 0.202290315036D-07 0.000000000000D+00  7 -2 2 23 -11 11 23 21 2 0.50581875D-01 0.91984161D-01 0.13414605D+06 0.13414605D+06 0.13414605D+06 0.11114008D+01  1  2  6  2  7  2        2 0.766669990484D-04 0.100000000000D+01
0.183802471698D-07 0.000000000000D+00 -.146860626284D-06 0.202290315036D-07 0.000000000000D+00  7 -2 21 23 -11 11 23 -2 2 0.50581875D-01 0.17076358D+00 0.13414605D+06 0.13414605D+06 0.13414605D+06 0.11114008D+01  1  2  5  4  7  2        2 0.143495640710D-06 0.100000000000D+01
  </mgrwgt>
  </event>
  <event>
  8     66 0.28248871E-05 0.15407724E+03 0.75467711E-02 0.10234968E+00
       -2 -1    0    0    0  501 0.00000000E+00 0.00000000E+00 0.89484490E+02 0.89485062E+02 0.32000000E+00 0.0000E+00 0.9000E+01
        2 -1    0    0  501    0 0.00000000E+00 0.00000000E+00 -.15374681E+04 0.15374681E+04 0.32000000E+00 0.0000E+00 0.9000E+01
       25  2    1    2    0    0 -.17431784E+03 -.14856792E+02 -.13705014E+04 0.14138662E+04 0.30022671E+03 0.0000E+00 0.0000E+00
       23  2    1    2    0    0 0.17431784E+03 0.14856792E+02 -.77482223E+02 0.21308702E+03 0.93782470E+02 0.0000E+00 0.0000E+00
       23  1    3    3    0    0 0.63664236E+01 -.75978695E+02 -.72348070E+03 0.73317997E+03 0.91188000E+02 0.0000E+00 0.9000E+01
      -13  1    4    4    0    0 0.14894025E+03 -.47419762E+01 -.24296708E+02 0.15098353E+03 0.10565837E+00 0.0000E+00 0.9000E+01
       13  1    4    4    0    0 0.25377583E+02 0.19598768E+02 -.53185515E+02 0.62103492E+02 0.10565837E+00 0.0000E+00 0.9000E+01
       23  1    3    3    0    0 -.18068426E+03 0.61121903E+02 -.64702069E+03 0.68068621E+03 0.91188000E+02 0.0000E+00 0.9000E+01
#aMCatNLO 1  0  0  1  2 0.21141394D+02 0.00000000D+00  -5  7  0 0.00000000D+00 0.00000000D+00 0.00000000D+00 0.00000000D+00 0.00000000D+00
  <mgrwgt>
 0.3622049018D-03    6    2    0
 0.370917837466047D+03 0.000000000000000D+00 0.000000000000000D+00 0.370917837466047D+03
 0.370917837466047D+03 0.000000000000000D+00 0.000000000000000D+00 -.370917837466047D+03
 0.195813310737487D+03 0.636642325612742D+01 -.759786944225965D+02 -.155609472612489D+03
 0.283704527780642D+03 0.148940409964432D+03 -.474200647295796D+01 0.241417743211791D+03
 0.323892247882218D+02 0.253774262684323D+02 0.195987982467009D+02 0.457550277645593D+01
 0.229928611625743D+03 -.180684259488992D+03 0.611219026488535D+02 -.903837733757578D+02
 0.000000000000000D+00 -.000000000000000D+00 -.000000000000000D+00 -.000000000000000D+00
 0.379184604358111D+03 0.000000000000000D+00 0.000000000000000D+00 0.379184604358111D+03
 0.384835962065571D+03 0.000000000000000D+00 0.000000000000000D+00 -.384835962065571D+03
 0.194029802034298D+03 0.881723920198864D+01 -.709947960035586D+02 -.155609472612489D+03
 0.285571501393402D+03 0.152519261877389D+03 0.253582865826724D+01 0.241417743211791D+03
 0.332227372371801D+02 0.257899071806326D+02 0.204376058159391D+02 0.457550277645593D+01
 0.229312824828554D+03 -.177797159015522D+03 0.669930148837929D+02 -.903837733757578D+02
 0.218837009302472D+02 -.932924924448814D+01 -.189716533544406D+02 -.565135770745950D+01
0.319095549575D-05 0.000000000000D+00 0.000000000000D+00 0.250983255526D-06 0.000000000000D+00  7 -2 2 23 -13 13 23 21 0 0.13766891D-01 0.23653360D+00 0.65372958D+05 0.65372958D+05 0.65372958D+05 0.11371931D+01  1  2  2  1  7  1       -2 0.186768091494D-03 0.100000000000D+01
-.147440097348D-06 0.000000000000D+00 -.122541093015D-07 0.250983255526D-06 0.000000000000D+00  7 -2 2 23 -13 13 23 21 2 0.13766891D-01 0.23653360D+00 0.65372958D+05 0.65372958D+05 0.65372958D+05 0.11371931D+01  1  2  3  1  7  1       -2 -.111600455353D-04 0.100000000000D+01
0.186330684646D-06 0.000000000000D+00 0.000000000000D+00 0.250983255526D-06 0.000000000000D+00  7 -2 2 23 -13 13 23 21 2 0.13766891D-01 0.23653360D+00 0.65372958D+05 0.65372958D+05 0.65372958D+05 0.11371931D+01  1  2 15  1  7  1       -2 0.141037544242D-04 0.100000000000D+01
0.477258330053D-05 0.000000000000D+00 0.000000000000D+00 0.250983255526D-06 0.000000000000D+00  7 -2 2 23 -13 13 23 21 2 0.14324520D-01 0.23653360D+00 0.71085911D+05 0.71085911D+05 0.71085911D+05 0.11340917D+01  1  2 12  1  7  1       -2 0.336919405717D-03 0.100000000000D+01
-.284400855451D-05 0.000000000000D+00 0.000000000000D+00 0.250983255526D-06 0.000000000000D+00  7 -2 2 23 -13 13 23 21 2 0.13766891D-01 0.23653360D+00 0.65372958D+05 0.65372958D+05 0.65372958D+05 0.11371931D+01  1  2  4  1  7  1       -2 -.215268882360D-03 0.100000000000D+01
0.522997906520D-07 0.000000000000D+00 0.000000000000D+00 0.250983255526D-06 0.000000000000D+00  7 21 2 23 -13 13 23 2 2 0.14324520D-01 0.23653360D+00 0.71085911D+05 0.71085911D+05 0.71085911D+05 0.11340917D+01  1  2 12  3  7  1       -2 0.508425780609D-04 0.100000000000D+01
  </mgrwgt>
  </event>
  <event>
  8     66 0.28248871E-05 0.31932485E+03 0.75467711E-02 0.89857426E-01
       -2 -1    0    0    0  501 0.00000000E+00 0.00000000E+00 0.59769241E+03 0.59769250E+03 0.32000000E+00 0.0000E+00 0.9000E+01
        2 -1    0    0  501    0 0.00000000E+00 0.00000000E+00 -.24703239E+04 0.24703239E+04 0.32000000E+00 0.0000E+00 0.9000E+01
       25  2    1    2    0    0 0.29078604E+03 0.22086493E+02 -.24118439E+04 0.24481687E+04 0.30248089E+03 0.0000E+00 0.0000E+00
       23  2    1    2    0    0 -.29078604E+03 -.22086493E+02 0.53921244E+03 0.61984768E+03 0.91742875E+02 0.0000E+00 0.0000E+00
       23  1    3    3    0    0 0.10664329E+03 0.14821753E+01 -.36680690E+03 0.39273088E+03 0.91188000E+02 0.0000E+00 0.9000E+01
      -13  1    4    4    0    0 -.16747618E+03 -.75079299E+01 0.39765791E+03 0.43155123E+03 0.10565837E+00 0.0000E+00 0.9000E+01
       13  1    4    4    0    0 -.12330986E+03 -.14578563E+02 0.14155453E+03 0.18829645E+03 0.10565837E+00 0.0000E+00 0.9000E+01
       23  1    3    3    0    0 0.18414274E+03 0.20604317E+02 -.20450370E+04 0.20554378E+04 0.91188000E+02 0.0000E+00 0.9000E+01
#aMCatNLO 1  0  0  1  1 0.63448618D+03 0.00000000D+00  -5  7  0 0.00000000D+00 0.00000000D+00 0.00000000D+00 0.00000000D+00 0.00000000D+00
  <mgrwgt>
 0.3404916361D-03    5    2    0
 0.121511069939142D+04 0.000000000000000D+00 0.000000000000000D+00 0.121511069939142D+04
 0.121511069939142D+04 0.000000000000000D+00 0.000000000000000D+00 -.121511069939142D+04
 0.213153680453668D+03 0.106643294381181D+03 0.148217533932322D+01 -.160450151345322D+03
 0.851228864875236D+03 -.167476234239419D+03 -.750792055162730D+01 0.834557321273235D+03
 0.346789167136391D+03 -.123309804805880D+03 -.145785720299807D+02 0.323797596840147D+03
 0.101904968631754D+04 0.184142744664119D+03 0.206043172422848D+02 -.997904766768059D+03
 0.000000000000000D+00 0.000000000000000D+00 -.000000000000000D+00 0.000000000000000D+00
 0.235949311043297D+04 0.000000000000000D+00 0.000000000000000D+00 0.235949311043297D+04
 0.134703228375191D+04 0.000000000000000D+00 0.000000000000000D+00 -.134703228375191D+04
 0.219155995942973D+03 0.103595287907916D+03 0.569022360746514D+02 -.160450151345322D+03
 0.880206015208697D+03 -.179683744296839D+03 0.214453861597977D+03 0.834557321273235D+03
 0.356381029157619D+03 -.128267517823028D+03 0.755645293474963D+02 0.323797596840147D+03
 0.105593941686302D+04 0.169512999914559D+03 0.286608129791469D+03 -.997904766768059D+03
 0.119484293701257D+04 0.348429742973916D+02 -.633528756811594D+03 0.101246082668106D+04
0.593552834831D-03 0.000000000000D+00 0.000000000000D+00 0.648227263647D-06 0.000000000000D+00  7 -2 2 23 -13 13 23 21 0 0.91952687D-01 0.38004984D+00 0.10196836D+06 0.10196836D+06 0.10196836D+06 0.11210280D+01  1  2  2  1  7  1       -2 0.312385796683D-03 0.100000000000D+01
0.386275274560D-04 0.000000000000D+00 -.227939917180D-05 0.648227263647D-06 0.000000000000D+00  7 -2 2 23 -13 13 23 21 2 0.91952687D-01 0.38004984D+00 0.10196836D+06 0.10196836D+06 0.10196836D+06 0.11210280D+01  1  2  3  1  7  1       -2 0.255482842996D-04 0.100000000000D+01
0.349364109664D-04 0.000000000000D+00 0.000000000000D+00 0.648227263647D-06 0.000000000000D+00  7 -2 2 23 -13 13 23 21 2 0.91952687D-01 0.38004984D+00 0.10196836D+06 0.10196836D+06 0.10196836D+06 0.11210280D+01  1  2 15  1  7  1       -2 0.231069762566D-04 0.100000000000D+01
-.175685439163D-03 0.000000000000D+00 -.172423464264D-03 0.648227263647D-06 0.000000000000D+00  7 -2 2 23 -13 13 23 21 2 0.18729891D+00 0.38004984D+00 0.10196836D+06 0.10196836D+06 0.10196836D+06 0.11210280D+01  1  2  5  1  7  1       -2 -.179540357782D-04 0.100000000000D+01
-.302970656522D-05 0.000000000000D+00 -.132656523193D-04 0.648227263647D-06 0.000000000000D+00  7 21 2 23 -13 13 23 2 2 0.18729891D+00 0.38004984D+00 0.10196836D+06 0.10196836D+06 0.10196836D+06 0.11210280D+01  1  2  5  3  7  1       -2 -.259538535425D-05 0.100000000000D+01
  </mgrwgt>
  </event>
  <event>
  8     66 0.28248871E-05 0.58087592E+02 0.75467711E-02 0.99949866E-01
       -2 -1    0    0    0  501 0.00000000E+00 0.00000000E+00 0.11087648E+04 0.11087648E+04 0.32000000E+00 0.0000E+00 0.9000E+01
        2 -1    0    0  501    0 0.00000000E+00 0.00000000E+00 -.14217013E+03 0.14217049E+03 0.32000000E+00 0.0000E+00 0.9000E+01
       25  2    1    2    0    0 0.64883376E+02 0.16887724E+03 0.98623352E+03 0.10465486E+04 0.29979684E+03 0.0000E+00 0.0000E+00
       23  2    1    2    0    0 -.64883376E+02 -.16887724E+03 -.19638880E+02 0.20438666E+03 0.93052931E+02 0.0000E+00 0.0000E+00
       23  1    3    3    0    0 0.87986545E+02 0.10238235E+03 0.86145966E+03 0.87672788E+03 0.91188000E+02 0.0000E+00 0.9000E+01
      -13  1    4    4    0    0 -.60222605E+02 -.13921808E+03 0.21769233E+02 0.15323951E+03 0.10565837E+00 0.0000E+00 0.9000E+01
       13  1    4    4    0    0 -.46607712E+01 -.29659157E+02 -.41408113E+02 0.51147154E+02 0.10565837E+00 0.0000E+00 0.9000E+01
       23  1    3    3    0    0 -.23103169E+02 0.66494885E+02 0.12477387E+03 0.16982077E+03 0.91188000E+02 0.0000E+00 0.9000E+01
#aMCatNLO 1  0  0  1  2 0.14655804D+03 0.00000000D+00  -5  7  0 0.00000000D+00 0.00000000D+00 0.00000000D+00 0.00000000D+00 0.00000000D+00
  <mgrwgt>
 0.2282868921D-03    9    2    0
 0.397030838192428D+03 0.000000000000000D+00 0.000000000000000D+00 0.397030838192428D+03
 0.397030838192428D+03 0.000000000000000D+00 0.000000000000000D+00 -.397030838192428D+03
 0.332527783294533D+03 0.879865452489776D+02 0.102382351543261D+03 0.289889112017678D+03
 0.214908710084877D+03 -.602226762156948D+02 -.139218218845583D+03 -.152240830532511D+03
 0.130980448991157D+03 -.466070021409580D+01 -.296590173189798D+02 -.127493131513474D+03
 0.115644734014289D+03 -.231031688191870D+02 0.664948846213012D+02 -.101551499716933D+02
 0.000000000000000D+00 -.000000000000000D+00 0.000000000000000D+00 0.000000000000000D+00
 0.482475453478210D+03 0.000000000000000D+00 0.000000000000000D+00 0.482475453478210D+03
 0.471934510125212D+03 0.000000000000000D+00 0.000000000000000D+00 -.471934510125212D+03
 0.351038518348410D+03 0.149680744429234D+03 0.920476371286054D+02 0.289889112017678D+03
 0.211821281977635D+03 -.217088333547785D+02 -.145669871874023D+03 -.152240830532511D+03
 0.133248702647144D+03 0.191868854132580D+02 -.336538497377889D+02 -.127493131513474D+03
 0.111364842769404D+03 -.261477725825475D+01 0.630627681758114D+02 -.101551499716933D+02
 0.146936617860829D+03 -.144544019229459D+03 0.242133163073952D+02 0.105409433529979D+02
0.288795125354D-04 0.000000000000D+00 0.000000000000D+00 0.281561818252D-06 0.000000000000D+00  7 -2 2 23 -13 13 23 21 0 0.17057923D+00 0.21872359D-01 0.52857341D+05 0.52857341D+05 0.52857341D+05 0.11451785D+01  1  2  2  1  7  1       -2 0.192144440650D-03 0.100000000000D+01
-.102215101113D-05 0.000000000000D+00 -.110904932286D-06 0.281561818252D-06 0.000000000000D+00  7 -2 2 23 -13 13 23 21 2 0.17057923D+00 0.21872359D-01 0.52857341D+05 0.52857341D+05 0.52857341D+05 0.11451785D+01  1  2  3  1  7  1       -2 -.891865557025D-05 0.100000000000D+01
0.174642898515D-05 0.000000000000D+00 0.000000000000D+00 0.281561818252D-06 0.000000000000D+00  7 -2 2 23 -13 13 23 21 2 0.17057923D+00 0.21872359D-01 0.52857341D+05 0.52857341D+05 0.52857341D+05 0.11451785D+01  1  2 15  1  7  1       -2 0.152382558221D-04 0.100000000000D+01
0.472037233152D-05 0.000000000000D+00 0.000000000000D+00 0.281561818252D-06 0.000000000000D+00  7 -2 2 23 -13 13 23 21 2 0.22031844D+00 0.21872359D-01 0.10286362D+06 0.10286362D+06 0.10286362D+06 0.11207172D+01  1  2 12  1  7  1       -2 0.177300248813D-04 0.100000000000D+01
-.128101293103D-04 0.000000000000D+00 0.000000000000D+00 0.281561818252D-06 0.000000000000D+00  7 -2 2 23 -13 13 23 21 2 0.17057923D+00 0.21872359D-01 0.52857341D+05 0.52857341D+05 0.52857341D+05 0.11451785D+01  1  2  4  1  7  1       -2 -.111773240827D-03 0.100000000000D+01
-.195096201070D-04 0.000000000000D+00 -.122516221603D-04 0.281561818252D-06 0.000000000000D+00  7 -2 2 23 -13 13 23 21 2 0.23170836D+00 0.21872359D-01 0.52857341D+05 0.52857341D+05 0.52857341D+05 0.11451785D+01  1  2  5  1  7  1       -2 -.661481724377D-04 0.100000000000D+01
0.227400960594D-04 0.000000000000D+00 0.116986121631D-04 0.281561818252D-06 0.000000000000D+00  7 -2 2 23 -13 13 23 21 2 0.17057923D+00 0.21872359D-01 0.52857341D+05 0.52857341D+05 0.52857341D+05 0.11451785D+01  1  2  6  1  7  1       -2 0.198415970027D-03 0.100000000000D+01
0.162508481831D-06 0.000000000000D+00 0.000000000000D+00 0.281561818252D-06 0.000000000000D+00  7 21 2 23 -13 13 23 2 2 0.22031844D+00 0.21872359D-01 0.10286362D+06 0.10286362D+06 0.10286362D+06 0.11207172D+01  1  2 12  3  7  1       -2 0.489396599635D-05 0.100000000000D+01
-.481877779281D-06 0.000000000000D+00 -.480727178678D-06 0.281561818252D-06 0.000000000000D+00  7 21 2 23 -13 13 23 2 2 0.23170836D+00 0.21872359D-01 0.52857341D+05 0.52857341D+05 0.52857341D+05 0.11451785D+01  1  2  5  3  7  1       -2 -.132956964111D-04 0.100000000000D+01
  </mgrwgt>
  </event>
  <event>
  9     66 0.28248871E-05 0.17215663E+03 0.75467711E-02 0.10705560E+00
       21 -1    0    0  502  501 0.00000000E+00 0.00000000E+00 0.52684605E+02 0.52689943E+02 0.75000000E+00 0.0000E+00 0.9000E+01
        2 -1    0    0  501    0 0.00000000E+00 0.00000000E+00 -.35458505E+04 0.35458505E+04 0.32000000E+00 0.0000E+00 0.9000E+01
       25  2    1    2    0    0 -.11812215E+03 -.43237940E+02 -.64730647E+03 0.72454954E+03 0.30023993E+03 0.0000E+00 0.0000E+00
       23  2    1    2    0    0 0.72223439E+02 0.35200258E+02 -.28160222E+04 0.28186586E+04 0.91652861E+02 0.0000E+00 0.0000E+00
       23  1    3    3    0    0 -.86832196E+02 -.81191218E+02 -.58448755E+03 0.60338445E+03 0.91188000E+02 0.0000E+00 0.9000E+01
      -11  1    4    4    0    0 0.49494342E+02 0.24707686E+02 -.61219210E+03 0.61468637E+03 0.51099893E-03 0.0000E+00 0.9000E+01
       11  1    4    4    0    0 0.22729096E+02 0.10492572E+02 -.22038301E+04 0.22039723E+04 0.51099893E-03 0.0000E+00 0.9000E+01
       23  1    3    3    0    0 -.31289954E+02 0.37953278E+02 -.62818918E+02 0.12116510E+03 0.91188000E+02 0.0000E+00 0.9000E+01
        2  1    1    2  502    0 0.45898711E+02 0.80376818E+01 -.29837199E+02 0.55332241E+02 0.32000000E+00 0.0000E+00 0.9000E+01
#aMCatNLO 2  0  0  1  2 0.46597167D+02 0.00000000D+00  -5  7  0 0.00000000D+00 0.00000000D+00 0.00000000D+00 0.00000000D+00 0.00000000D+00
  <mgrwgt>
 0.4608146672D-05    2    2    0
 0.373332126652172D+03 0.000000000000000D+00 0.000000000000000D+00 0.373332126652172D+03
 0.373332126652172D+03 0.000000000000000D+00 0.000000000000000D+00 -.373332126652172D+03
 0.145990854377430D+03 -.776849499269795D+02 -.795893723293904D+02 0.250730649284885D+02
 0.806381574167337D+02 0.543402884693479D+02 0.255562970195233D+02 -.538193381906902D+02
 0.237954662239523D+03 0.372818887957501D+02 0.130410255061810D+02 -.234653816723901D+03
 0.282080579270657D+03 -.139372273381186D+02 0.409920498036860D+02 0.263400089986103D+03
 0.000000000000000D+00 0.000000000000000D+00 0.000000000000000D+00 0.000000000000000D+00
 0.493445887080701D+03 0.000000000000000D+00 0.000000000000000D+00 0.493445887080701D+03
 0.378605160855138D+03 0.000000000000000D+00 0.000000000000000D+00 -.378605160855138D+03
 0.151907057245289D+03 -.868321958167005D+02 -.811912180082643D+02 0.250730649284885D+02
 0.771795361830817D+02 0.494943422818015D+02 0.247076855298836D+02 -.538193381906902D+02
 0.235985422423049D+03 0.227290963045620D+02 0.104925723380252D+02 -.234653816723901D+03
 0.283044822065913D+03 -.312899539027134D+02 0.379532783090426D+02 0.263400089986103D+03
 0.123934210018507D+03 0.458987111330505D+02 0.803768183131290D+01 0.114840726225563D+03
-.174774752359D-05 0.000000000000D+00 0.000000000000D+00 0.100843308574D-05 0.000000000000D+00  7 21 2 23 -11 11 23 2 2 0.81390542D-02 0.53791789D+00 0.36172659D+05 0.36172659D+05 0.36172659D+05 0.11598708D+01  1  2 13  3  7  1       -2 -.357411825686D-03 0.100000000000D+01
0.190243724766D-05 0.000000000000D+00 0.000000000000D+00 0.100843308574D-05 0.128571988785D-09  7 21 2 23 -11 11 23 2 2 0.81057312D-02 0.54551557D+00 0.36172659D+05 0.36172659D+05 0.36172659D+05 0.11598708D+01  1  2  1  3  7  1       -2 0.362019972358D-03 0.100000000000D+01
  </mgrwgt>
  </event>
  <event>
  8     66 0.28248871E-05 0.22344104E+03 0.75467711E-02 0.10212845E+00
       -2 -1    0    0    0  501 0.00000000E+00 0.00000000E+00 0.27206030E+02 0.27207911E+02 0.32000000E+00 0.0000E+00 0.9000E+01
        2 -1    0    0  501    0 0.00000000E+00 0.00000000E+00 -.24612001E+04 0.24612001E+04 0.32000000E+00 0.0000E+00 0.9000E+01
       25  2    1    2    0    0 0.10929904E+03 -.61857386E+02 -.20297550E+04 0.20556578E+04 0.30008502E+03 0.0000E+00 0.0000E+00
       23  2    1    2    0    0 -.10929904E+03 0.61857386E+02 -.40423901E+03 0.43275017E+03 0.89949527E+02 0.0000E+00 0.0000E+00
       23  1    3    3    0    0 0.73728625E+02 -.13546173E+03 -.79988817E+03 0.81970856E+03 0.91188000E+02 0.0000E+00 0.9000E+01
      -13  1    4    4    0    0 -.11798704E+03 0.44989268E+02 -.28111970E+03 0.30817734E+03 0.10565837E+00 0.0000E+00 0.9000E+01
       13  1    4    4    0    0 0.86880019E+01 0.16868118E+02 -.12311930E+03 0.12457282E+03 0.10565837E+00 0.0000E+00 0.9000E+01
       23  1    3    3    0    0 0.35570412E+02 0.73604340E+02 -.12298669E+04 0.12359493E+04 0.91188000E+02 0.0000E+00 0.9000E+01
#aMCatNLO 1  0  0  1  1 0.84899419D+02 0.00000000D+00  -5  7  0 0.00000000D+00 0.00000000D+00 0.00000000D+00 0.00000000D+00 0.00000000D+00
  <mgrwgt>
 0.2830471955D-03    4    2    0
 0.258769877436668D+03 0.000000000000000D+00 0.000000000000000D+00 0.258769877436668D+03
 0.258769877436668D+03 0.000000000000000D+00 0.000000000000000D+00 -.258769877436668D+03
 0.179399366283805D+03 0.737286255016696D+02 -.135461724786232D+03 0.911549113347383D+01
 0.159654175873425D+03 -.117987214828865D+03 0.449893077437133D+02 0.976956252832812D+02
 0.199332796151120D+02 0.868817608333547D+01 0.168680789129879D+02 -.610893987074767D+01
 0.158552933100995D+03 0.355704132438600D+02 0.736043381295308D+02 -.100702176546007D+03
 0.000000000000000D+00 0.000000000000000D+00 0.000000000000000D+00 -.000000000000000D+00
 0.292018026300155D+03 0.000000000000000D+00 0.000000000000000D+00 0.292018026300155D+03
 0.322719051960090D+03 0.000000000000000D+00 0.000000000000000D+00 -.322719051960090D+03
 0.169985821960583D+03 0.452638539476992D+02 -.135823487183962D+03 0.911549113347383D+01
 0.181047874794534D+03 -.145744562210887D+03 0.446365360896523D+02 0.976956252832812D+02
 0.187394115694409D+02 0.553747205527706D+01 0.168280362152424D+02 -.610893987074767D+01
 0.154684048311070D+03 0.100506733746559D+02 0.732800045136070D+02 -.100702176546007D+03
 0.902799216246164D+02 0.848925628332551D+02 0.107891036546086D+01 -.307010256599357D+02
0.344978973775D-05 0.000000000000D+00 0.000000000000D+00 0.268924788662D-06 0.000000000000D+00  7 -2 2 23 -13 13 23 21 0 0.41856894D-02 0.37864631D+00 0.49925897D+05 0.49925897D+05 0.49925897D+05 0.11473520D+01  1  2  2  1  7  1       -2 0.391707800969D-03 0.100000000000D+01
-.186633825899D-06 0.000000000000D+00 -.132481009434D-07 0.268924788662D-06 0.000000000000D+00  7 -2 2 23 -13 13 23 21 2 0.41856894D-02 0.37864631D+00 0.49925897D+05 0.49925897D+05 0.49925897D+05 0.11473520D+01  1  2  3  1  7  1       -2 -.278967329610D-04 0.100000000000D+01
0.219603118760D-06 0.000000000000D+00 0.000000000000D+00 0.268924788662D-06 0.000000000000D+00  7 -2 2 23 -13 13 23 21 2 0.41856894D-02 0.37864631D+00 0.49925897D+05 0.49925897D+05 0.49925897D+05 0.11473520D+01  1  2 15  1  7  1       -2 0.328247547408D-04 0.100000000000D+01
-.759926981904D-06 0.000000000000D+00 0.000000000000D+00 0.268924788662D-06 0.000000000000D+00  7 -2 2 23 -13 13 23 21 2 0.41856894D-02 0.37864631D+00 0.49925897D+05 0.49925897D+05 0.49925897D+05 0.11473520D+01  1  2  4  1  7  1       -2 -.113588627260D-03 0.100000000000D+01
  </mgrwgt>
  </event>
  <event>
  8     66 0.28248871E-05 0.21756364E+03 0.75467711E-02 0.94975076E-01
       -2 -1    0    0    0  501 0.00000000E+00 0.00000000E+00 0.20180739E+03 0.20180765E+03 0.32000000E+00 0.0000E+00 0.9000E+01
        2 -1    0    0  501    0 0.00000000E+00 0.00000000E+00 -.65691384E+03 0.65691392E+03 0.32000000E+00 0.0000E+00 0.9000E+01
       25  2    1    2    0    0 0.10734602E+03 -.43024652E+02 -.58176586E+03 0.66484578E+03 0.30032334E+03 0.0000E+00 0.0000E+00
       23  2    1    2    0    0 -.10734602E+03 0.43024652E+02 0.12665941E+03 0.19387578E+03 0.90393163E+02 0.0000E+00 0.0000E+00
       23  1    3    3    0    0 0.17613620E+03 -.22645242E+02 -.42751764E+03 0.47182979E+03 0.91188000E+02 0.0000E+00 0.9000E+01
      -13  1    4    4    0    0 -.91708761E+02 0.23913038E+02 0.38454598E+02 0.10227951E+03 0.10565837E+00 0.0000E+00 0.9000E+01
       13  1    4    4    0    0 -.15637261E+02 0.19111614E+02 0.88204812E+02 0.91596276E+02 0.10565837E+00 0.0000E+00 0.9000E+01
       23  1    3    3    0    0 -.68790175E+02 -.20379410E+02 -.15424822E+03 0.19301599E+03 0.91188000E+02 0.0000E+00 0.9000E+01
#aMCatNLO 1  0  0  1  2 0.38396178D+03 0.00000000D+00  -5  7  0 0.00000000D+00 0.00000000D+00 0.00000000D+00 0.00000000D+00 0.00000000D+00
  <mgrwgt>
 0.3110587273D-03    3    2    0
 0.364101924002076D+03 0.000000000000000D+00 0.000000000000000D+00 0.364101924002076D+03
 0.364101924002076D+03 0.000000000000000D+00 0.000000000000000D+00 -.364101924002076D+03
 0.289210749512120D+03 0.176136197041882D+03 -.226452420641098D+02 -.209262608683070D+03
 0.144644298823211D+03 -.917088648753633D+02 0.239130447215984D+02 0.109268584586209D+03
 0.163138789493716D+03 -.156371572150649D+02 0.191116075925615D+02 0.161259078525626D+03
 0.131210010175105D+03 -.687901749514539D+02 -.203794102500501D+02 -.612650544287656D+02
 0.000000000000000D+00 0.000000000000000D+00 -.000000000000000D+00 -.000000000000000D+00
 0.526302917058035D+03 0.000000000000000D+00 0.000000000000000D+00 0.526302917058035D+03
 0.732979661743712D+03 0.000000000000000D+00 0.000000000000000D+00 -.732979661743712D+03
 0.252868516765779D+03 0.813230302136047D+02 0.722700545963458D+02 -.209262608683070D+03
 0.206614093971644D+03 -.153146227762469D+03 0.854165860496423D+02 0.109268584586209D+03
 0.197383736746377D+03 -.786948769106752D+02 0.822372511277132D+02 0.161259078525626D+03
 0.166363567560620D+03 -.120837716749669D+03 0.317241955621300D+02 -.612650544287656D+02
 0.436052663757326D+03 0.271355791209208D+03 -.271648087335831D+03 -.206676744685677D+03
0.582873491685D-05 0.000000000000D+00 0.000000000000D+00 0.424875652781D-06 0.000000000000D+00  7 -2 2 23 -13 13 23 21 0 0.31047317D-01 0.10106369D+00 0.47333936D+05 0.47333936D+05 0.47333936D+05 0.11493945D+01  1  2  2  1  7  1       -2 0.301923372360D-03 0.100000000000D+01
-.219418558647D-06 0.000000000000D+00 -.223838768219D-07 0.424875652781D-06 0.000000000000D+00  7 -2 2 23 -13 13 23 21 2 0.31047317D-01 0.10106369D+00 0.47333936D+05 0.47333936D+05 0.47333936D+05 0.11493945D+01  1  2  3  1  7  1       -2 -.150152999639D-04 0.100000000000D+01
0.352913488862D-06 0.000000000000D+00 0.000000000000D+00 0.424875652781D-06 0.000000000000D+00  7 -2 2 23 -13 13 23 21 2 0.31047317D-01 0.10106369D+00 0.47333936D+05 0.47333936D+05 0.47333936D+05 0.11493945D+01  1  2 15  1  7  1       -2 0.241506549366D-04 0.100000000000D+01
  </mgrwgt>
  </event>
  <event>
  8     66 0.28248871E-05 0.12554825E+03 0.75467711E-02 0.10550731E+00
       -2 -1    0    0    0  501 0.00000000E+00 0.00000000E+00 0.10213779E+03 0.10213829E+03 0.32000000E+00 0.0000E+00 0.9000E+01
        2 -1    0    0  501    0 0.00000000E+00 0.00000000E+00 -.54332085E+03 0.54332094E+03 0.32000000E+00 0.0000E+00 0.9000E+01
       25  2    1    2    0    0 0.32514366E+02 -.80039236E+02 -.19120358E+03 0.36573332E+03 0.29956400E+03 0.0000E+00 0.0000E+00
       23  2    1    2    0    0 -.32514366E+02 0.80039236E+02 -.24997948E+03 0.27972591E+03 0.91068014E+02 0.0000E+00 0.0000E+00
       23  1    3    3    0    0 0.10937223E+03 0.23571146E+02 -.46892069E+02 0.15176298E+03 0.91188000E+02 0.0000E+00 0.9000E+01
      -13  1    4    4    0    0 -.21503789E+02 0.66454419E+01 -.16655046E+03 0.16806440E+03 0.10565837E+00 0.0000E+00 0.9000E+01
       13  1    4    4    0    0 -.11010577E+02 0.73393794E+02 -.83429023E+02 0.11166152E+03 0.10565837E+00 0.0000E+00 0.9000E+01
       23  1    3    3    0    0 -.76857867E+02 -.10361038E+03 -.14431151E+03 0.21397034E+03 0.91188000E+02 0.0000E+00 0.9000E+01
#aMCatNLO 1  0  0  1  2 0.25837164D+02 0.00000000D+00  -5  7  0 0.00000000D+00 0.00000000D+00 0.00000000D+00 0.00000000D+00 0.00000000D+00
  <mgrwgt>
 0.2062252722D-03    6    2    0
 0.235571182923169D+03 0.000000000000000D+00 0.000000000000000D+00 0.235571182923169D+03
 0.235571182923169D+03 0.000000000000000D+00 0.000000000000000D+00 -.235571182923169D+03
 0.164003145988918D+03 0.109372234504828D+03 0.235711418564564D+02 0.778710224747695D+02
 0.742864079673553D+02 -.215038038703755D+02 0.664536327194153D+01 -.707947453896170D+02
 0.748510192930966D+02 -.110105653461819D+02 0.733938801703474D+02 -.973554793083881D+01
 0.158001792596968D+03 -.768578652882707D+02 -.103610385298745D+03 0.265927084568631D+01
 0.000000000000000D+00 -.000000000000000D+00 -.000000000000000D+00 -.000000000000000D+00
 0.248567912745919D+03 0.000000000000000D+00 0.000000000000000D+00 0.248567912745919D+03
 0.249125549718498D+03 0.000000000000000D+00 0.000000000000000D+00 -.249125549718498D+03
 0.170265838283682D+03 0.118529918424203D+03 0.237058355585879D+02 0.778710224747695D+02
 0.732242584611735D+02 -.174625792236188D+02 0.670480270156248D+01 -.707947453896170D+02
 0.744189318541915D+02 -.692114306776749D+01 0.734540285038243D+02 -.973554793083881D+01
 0.153941252686987D+03 -.683118261881311D+02 -.103484687834726D+03 0.265927084568631D+01
 0.258431811783828D+02 -.258343699446852D+02 -.379978929248874D+00 -.557636972579877D+00
0.657261802515D-06 0.000000000000D+00 0.000000000000D+00 0.118025373783D-06 0.000000000000D+00  7 -2 2 23 -13 13 23 21 0 0.15713552D-01 0.83587868D-01 0.39807969D+05 0.39807969D+05 0.39807969D+05 0.11561065D+01  1  2  2  1  7  1       -2 0.130911604316D-03 0.100000000000D+01
-.352896556065D-07 0.000000000000D+00 -.252405838266D-08 0.118025373783D-06 0.000000000000D+00  7 -2 2 23 -13 13 23 21 2 0.15713552D-01 0.83587868D-01 0.39807969D+05 0.39807969D+05 0.39807969D+05 0.11561065D+01  1  2  3  1  7  1       -2 -.939469941646D-05 0.100000000000D+01
0.422792286363D-07 0.000000000000D+00 0.000000000000D+00 0.118025373783D-06 0.000000000000D+00  7 -2 2 23 -13 13 23 21 2 0.15713552D-01 0.83587868D-01 0.39807969D+05 0.39807969D+05 0.39807969D+05 0.11561065D+01  1  2 15  1  7  1       -2 0.112554412269D-04 0.100000000000D+01
0.102857895883D-05 0.000000000000D+00 0.000000000000D+00 0.118025373783D-06 0.000000000000D+00  7 -2 2 23 -13 13 23 21 2 0.17007809D-01 0.83587868D-01 0.44871000D+05 0.44871000D+05 0.44871000D+05 0.11514530D+01  1  2 12  1  7  1       -2 0.239670855185D-03 0.100000000000D+01
-.785033164059D-06 0.000000000000D+00 0.000000000000D+00 0.118025373783D-06 0.000000000000D+00  7 -2 2 23 -13 13 23 21 2 0.15713552D-01 0.83587868D-01 0.39807969D+05 0.39807969D+05 0.39807969D+05 0.11561065D+01  1  2  4  1  7  1       -2 -.208989021897D-03 0.100000000000D+01
0.136086378565D-07 0.000000000000D+00 0.000000000000D+00 0.118025373783D-06 0.000000000000D+00  7 21 2 23 -13 13 23 2 2 0.17007809D-01 0.83587868D-01 0.44871000D+05 0.44871000D+05 0.44871000D+05 0.11514530D+01  1  2 12  3  7  1       -2 0.427710927462D-04 0.100000000000D+01
  </mgrwgt>
  </event>
  <event>
  8     66 0.28248871E-05 0.19030362E+03 0.75467711E-02 0.98081898E-01
       -4 -1    0    0    0  501 0.00000000E+00 0.00000000E+00 0.15442525E+03 0.15443303E+03 0.15500000E+01 0.0000E+00 0.9000E+01
        4 -1    0    0  501    0 0.00000000E+00 0.00000000E+00 -.91133026E+03 0.91133158E+03 0.15500000E+01 0.0000E+00 0.9000E+01
       25  2    1    2    0    0 -.19401183E+03 0.18981739E+03 -.22802146E+03 0.46437779E+03 0.29996952E+03 0.0000E+00 0.0000E+00
       23  2    1    2    0    0 0.19401183E+03 -.18981739E+03 -.52888355E+03 0.60138683E+03 0.90978440E+02 0.0000E+00 0.0000E+00
       23  1    3    3    0    0 0.14749213E+02 -.17187176E+02 -.31122999E+02 0.98978941E+02 0.91188000E+02 0.0000E+00 0.9000E+01
      -11  1    4    4    0    0 0.19811535E+03 -.18630415E+03 -.53015404E+03 0.59583742E+03 0.51099893E-03 0.0000E+00 0.9000E+01
       11  1    4    4    0    0 -.41035163E+01 -.35132412E+01 0.12704956E+01 0.55494026E+01 0.51099893E-03 0.0000E+00 0.9000E+01
       23  1    3    3    0    0 -.20876104E+03 0.20700456E+03 -.19689846E+03 0.36539885E+03 0.91188000E+02 0.0000E+00 0.9000E+01
#aMCatNLO 1  0  0  2  1 0.64687106D+02 0.00000000D+00  -5  7  0 0.00000000D+00 0.00000000D+00 0.00000000D+00 0.00000000D+00 0.00000000D+00
  <mgrwgt>
 0.7574794498D-05    6    2    0
 0.375149643902517D+03 0.000000000000000D+00 0.000000000000000D+00 0.375149643902517D+03
 0.375149643902517D+03 0.000000000000000D+00 0.000000000000000D+00 -.375149643902517D+03
 0.109197889821575D+03 0.147492129174336D+02 -.171871764219626D+02 0.556416164614350D+02
 0.311537268856348D+03 0.198115345520943D+03 -.186304145812208D+03 -.151975475024009D+03
 0.916434474425341D+01 -.410351627737627D+01 -.351324123578502D+01 0.740293892802126D+01
 0.320399784382857D+03 -.208761042161000D+03 0.207004563469956D+03 0.889309196345532D+02
 0.000000000000000D+00 0.000000000000000D+00 0.000000000000000D+00 0.000000000000000D+00
 0.414433924217269D+03 0.000000000000000D+00 0.000000000000000D+00 0.414433924217269D+03
 0.404148422288656D+03 0.000000000000000D+00 0.000000000000000D+00 -.404148422288656D+03
 0.108599230480582D+03 0.551188878411711D+01 -.187662227569801D+02 0.556416164614350D+02
 0.298563098211454D+03 0.172239453146231D+03 -.190727421690580D+03 -.151975475024009D+03
 0.959810473030355D+01 -.489927899035893D+01 -.364927047729955D+01 0.740293892802126D+01
 0.336322193514717D+03 -.236614274411714D+03 0.202243277228494D+03 0.889309196345532D+02
 0.654997195688685D+02 0.637622114717242D+02 0.108996376963651D+02 0.102855019286132D+02
0.500614486405D-05 0.000000000000D+00 0.000000000000D+00 0.150645298432D-05 0.000000000000D+00  7 -4 4 23 -11 11 23 21 0 0.23758431D-01 0.14020536D+00 0.11530265D+06 0.11530265D+06 0.11530265D+06 0.11166825D+01  1  2  2  2  7  2        4 0.547678198237D-05 0.100000000000D+01
-.274760108398D-06 0.000000000000D+00 -.192249144262D-07 0.150645298432D-05 0.000000000000D+00  7 -4 4 23 -11 11 23 21 2 0.23758431D-01 0.14020536D+00 0.11530265D+06 0.11530265D+06 0.11530265D+06 0.11166825D+01  1  2  3  2  7  2        4 -.374830665370D-06 0.100000000000D+01
0.319125212969D-06 0.000000000000D+00 0.000000000000D+00 0.150645298432D-05 0.000000000000D+00  7 -4 4 23 -11 11 23 21 2 0.23758431D-01 0.14020536D+00 0.11530265D+06 0.11530265D+06 0.11530265D+06 0.11166825D+01  1  2 15  2  7  2        4 0.435354013401D-06 0.100000000000D+01
0.498474747114D-05 0.000000000000D+00 0.000000000000D+00 0.150645298432D-05 0.000000000000D+00  7 -4 4 23 -11 11 23 21 2 0.23758431D-01 0.15776123D+00 0.13890481D+06 0.13890481D+06 0.13890481D+06 0.11101952D+01  1  2 12  2  7  2        4 0.460371543549D-05 0.100000000000D+01
-.351365607668D-05 0.000000000000D+00 0.000000000000D+00 0.150645298432D-05 0.000000000000D+00  7 -4 4 23 -11 11 23 21 2 0.23758431D-01 0.14020536D+00 0.11530265D+06 0.11530265D+06 0.11530265D+06 0.11166825D+01  1  2  4  2  7  2        4 -.479336703127D-05 0.100000000000D+01
0.932335080376D-07 0.000000000000D+00 0.000000000000D+00 0.150645298432D-05 0.000000000000D+00  7 -4 21 23 -11 11 23 -4 2 0.23758431D-01 0.15776123D+00 0.13890481D+06 0.13890481D+06 0.13890481D+06 0.11101952D+01  1  2 12  4  7  2        4 0.222714076362D-05 0.100000000000D+01
  </mgrwgt>
  </event>
  <event>
  8     66 0.28248871E-05 0.32469111E+03 0.75467711E-02 0.93694042E-01
       -2 -1    0    0    0  501 0.00000000E+00 0.00000000E+00 0.19539821E+03 0.19539847E+03 0.32000000E+00 0.0000E+00 0.9000E+01
        2 -1    0    0  501    0 0.00000000E+00 0.00000000E+00 -.73526655E+03 0.73526662E+03 0.32000000E+00 0.0000E+00 0.9000E+01
       25  2    1    2    0    0 -.76979992E+02 -.23908466E+03 -.81505596E+02 0.40010136E+03 0.30058366E+03 0.0000E+00 0.0000E+00
       23  2    1    2    0    0 0.76979992E+02 0.23908466E+03 -.45836274E+03 0.53056373E+03 0.91181552E+02 0.0000E+00 0.0000E+00
       23  1    3    3    0    0 -.15342267E+03 -.18256896E+03 -.24238276E+02 0.25646186E+03 0.91188000E+02 0.0000E+00 0.9000E+01
      -13  1    4    4    0    0 0.69453417E+02 0.93062549E+02 -.25394762E+03 0.27923792E+03 0.10565837E+00 0.0000E+00 0.9000E+01
       13  1    4    4    0    0 0.75265755E+01 0.14602211E+03 -.20441512E+03 0.25132581E+03 0.10565837E+00 0.0000E+00 0.9000E+01
       23  1    3    3    0    0 0.76442677E+02 -.56515704E+02 -.57267320E+02 0.14363950E+03 0.91188000E+02 0.0000E+00 0.9000E+01
#aMCatNLO 1  0  0  1  2 0.37001815D+03 0.00000000D+00  -5  7  0 0.00000000D+00 0.00000000D+00 0.00000000D+00 0.00000000D+00 0.00000000D+00
  <mgrwgt>
 0.2191023310D-03    3    2    0
 0.379038152451471D+03 0.000000000000000D+00 0.000000000000000D+00 0.379038152451471D+03
 0.379038152451471D+03 0.000000000000000D+00 0.000000000000000D+00 -.379038152451471D+03
 0.297588277354865D+03 -.153422669842087D+03 -.182568958909590D+03 0.152884240836754D+03
 0.161960884189615D+03 0.694534998757573D+02 0.930624779380920D+02 -.112902234532857D+03
 0.162968953234822D+03 0.752649259840467D+01 0.146022184841639D+03 -.719705020247468D+02
 0.135558190123640D+03 0.764426773679246D+02 -.565157038701412D+02 0.319884957208500D+02
 0.000000000000000D+00 0.000000000000000D+00 0.000000000000000D+00 -.000000000000000D+00
 0.477183542676680D+03 0.000000000000000D+00 0.000000000000000D+00 0.477183542676680D+03
 0.103957962727880D+04 0.000000000000000D+00 0.000000000000000D+00 -.103957962727880D+04
 0.442322744857456D+03 -.219703366885213D+03 -.340133795376621D+03 0.152884240836754D+03
 0.125209203061358D+03 0.437290100634295D+02 0.319093034649880D+02 -.112902234532857D+03
 0.114223861174986D+03 -.173042402909291D+02 0.869936811957173D+02 -.719705020247468D+02
 0.161803980760542D+03 0.498051880363963D+02 -.119839293356287D+03 0.319884957208500D+02
 0.673203380101142D+03 0.143473409076316D+03 0.341070104072203D+03 -.562396084602123D+03
0.455162540257D-05 0.000000000000D+00 0.000000000000D+00 0.247221144714D-06 0.000000000000D+00  7 -2 2 23 -13 13 23 21 0 0.30061289D-01 0.11311796D+00 0.10542431D+06 0.10542431D+06 0.10542431D+06 0.11198443D+01  1  2  2  1  7  1       -2 0.216399697496D-03 0.100000000000D+01
-.245504185975D-06 0.000000000000D+00 -.174794400164D-07 0.247221144714D-06 0.000000000000D+00  7 -2 2 23 -13 13 23 21 2 0.30061289D-01 0.11311796D+00 0.10542431D+06 0.10542431D+06 0.10542431D+06 0.11198443D+01  1  2  3  1  7  1       -2 -.146374138926D-04 0.100000000000D+01
0.290833767002D-06 0.000000000000D+00 0.000000000000D+00 0.247221144714D-06 0.000000000000D+00  7 -2 2 23 -13 13 23 21 2 0.30061289D-01 0.11311796D+00 0.10542431D+06 0.10542431D+06 0.10542431D+06 0.11198443D+01  1  2 15  1  7  1       -2 0.173400473993D-04 0.100000000000D+01
  </mgrwgt>
  </event>
  <event>
  8     66 0.28248871E-05 0.11461929E+03 0.75467711E-02 0.10150854E+00
       -2 -1    0    0    0  501 0.00000000E+00 0.00000000E+00 0.48952866E+02 0.48953912E+02 0.32000000E+00 0.0000E+00 0.9000E+01
        2 -1    0    0  501    0 0.00000000E+00 0.00000000E+00 -.10877811E+04 0.10877811E+04 0.32000000E+00 0.0000E+00 0.9000E+01
       25  2    1    2    0    0 0.36131302E+02 -.16554805E+02 -.47224031E+03 0.56133204E+03 0.30083752E+03 0.0000E+00 0.0000E+00
       23  2    1    2    0    0 -.36131302E+02 0.16554805E+02 -.56658793E+03 0.57540303E+03 0.92126156E+02 0.0000E+00 0.0000E+00
       23  1    3    3    0    0 -.78685623E+02 -.44519320E+02 -.33420467E+03 0.35802432E+03 0.91188000E+02 0.0000E+00 0.9000E+01
      -11  1    4    4    0    0 -.51856676E+02 -.12537595E+02 -.47575904E+03 0.47874103E+03 0.51099893E-03 0.0000E+00 0.9000E+01
       11  1    4    4    0    0 0.15725374E+02 0.29092400E+02 -.90828886E+02 0.96661997E+02 0.51099893E-03 0.0000E+00 0.9000E+01
       23  1    3    3    0    0 0.11481693E+03 0.27964516E+02 -.13803563E+03 0.20330772E+03 0.91188000E+02 0.0000E+00 0.9000E+01
#aMCatNLO 1  0  0  2  1 0.16976564D+03 0.00000000D+00  -5  7  0 0.00000000D+00 0.00000000D+00 0.00000000D+00 0.00000000D+00 0.00000000D+00
  <mgrwgt>
 0.1785013389D-03    7    2    0
 0.230760967542604D+03 0.000000000000000D+00 0.000000000000000D+00 0.230760967542604D+03
 0.230760967542604D+03 0.000000000000000D+00 0.000000000000000D+00 -.230760967542604D+03
 0.129565984241875D+03 -.786856229169513D+02 -.445193203375679D+02 -.172828178089728D+02
 0.108271746710323D+03 -.518566760767974D+02 -.125375952420419D+02 -.942149934326655D+02
 0.336353884606288D+02 0.157253736870324D+02 0.290923998486010D+02 -.613874990121843D+01
 0.190048815672382D+03 0.114816925306716D+03 0.279645157310089D+02 0.117636561142857D+03
 0.000000000000000D+00 -.000000000000000D+00 0.000000000000000D+00 -.000000000000000D+00
 0.285542932765624D+03 0.000000000000000D+00 0.000000000000000D+00 0.285542932765624D+03
 0.427523830199221D+03 0.000000000000000D+00 0.000000000000000D+00 -.427523830199221D+03
 0.129667294453504D+03 -.465541196978413D+02 -.776683594176721D+02 -.172828178089728D+02
 0.105399649405290D+03 -.253724870611263D+02 -.398604817779948D+02 -.942149934326655D+02
 0.321807068416482D+02 0.238831614861806D+02 0.206762723889828D+02 -.613874990121843D+01
 0.224507235516631D+03 0.166200409558110D+03 -.250461733707804D+02 0.117636561142857D+03
 0.221311876747771D+03 -.118156964285323D+03 0.121898742177465D+03 -.141980897433597D+03
0.775588426760D-06 0.000000000000D+00 0.000000000000D+00 0.403439466267D-07 0.000000000000D+00  7 -2 2 23 -11 11 23 21 0 0.75312943D-02 0.16735102D+00 0.33141271D+05 0.33141271D+05 0.33141271D+05 0.11633445D+01  1  2  2  2  7  2        2 0.202376677788D-03 0.100000000000D+01
-.401427482024D-07 0.000000000000D+00 -.297846377588D-08 0.403439466267D-07 0.000000000000D+00  7 -2 2 23 -11 11 23 21 2 0.75312943D-02 0.16735102D+00 0.33141271D+05 0.33141271D+05 0.33141271D+05 0.11633445D+01  1  2  3  2  7  2        2 -.141759733729D-04 0.100000000000D+01
0.485755703648D-07 0.000000000000D+00 0.000000000000D+00 0.403439466267D-07 0.000000000000D+00  7 -2 2 23 -11 11 23 21 2 0.75312943D-02 0.16735102D+00 0.33141271D+05 0.33141271D+05 0.33141271D+05 0.11633445D+01  1  2 15  2  7  2        2 0.171539324760D-04 0.100000000000D+01
0.297723175707D-08 0.000000000000D+00 0.000000000000D+00 0.403439466267D-07 0.000000000000D+00  7 -2 2 23 -11 11 23 21 2 0.75312943D-02 0.31555655D+00 0.80751598D+05 0.80751598D+05 0.80751598D+05 0.11294219D+01  1  2 12  2  7  2        2 0.298982904880D-06 0.100000000000D+01
-.300025334484D-06 0.000000000000D+00 -.228196763563D-06 0.403439466267D-07 0.000000000000D+00  7 -2 2 23 -11 11 23 21 2 0.75312943D-02 0.33862645D+00 0.33141271D+05 0.33141271D+05 0.33141271D+05 0.11633445D+01  1  2  5  2  7  2        2 -.270076592927D-04 0.100000000000D+01
0.205381273040D-09 0.000000000000D+00 0.000000000000D+00 0.403439466267D-07 0.000000000000D+00  7 -2 21 23 -11 11 23 -2 2 0.75312943D-02 0.31555655D+00 0.80751598D+05 0.80751598D+05 0.80751598D+05 0.11294219D+01  1  2 12  4  7  2        2 0.416680620118D-08 0.100000000000D+01
-.905692785083D-08 0.000000000000D+00 -.173956020039D-07 0.403439466267D-07 0.000000000000D+00  7 -2 21 23 -11 11 23 -2 2 0.75312943D-02 0.33862645D+00 0.33141271D+05 0.33141271D+05 0.33141271D+05 0.11633445D+01  1  2  5  4  7  2        2 -.148788369417D-06 0.100000000000D+01
  </mgrwgt>
  </event>
  <event>
  7     66 0.28248871E-05 0.28524179E+03 0.75467711E-02 0.96414136E-01
       -2 -1    0    0    0  501 0.00000000E+00 0.00000000E+00 0.65684804E+02 0.65685583E+02 0.32000000E+00 0.0000E+00 0.9000E+01
        2 -1    0    0  501    0 0.00000000E+00 0.00000000E+00 -.20048745E+04 0.20048746E+04 0.32000000E+00 0.0000E+00 0.9000E+01
       25  2    1    2    0    0 0.81323323E+02 0.12423171E+03 -.58611111E+03 0.67483005E+03 0.29970378E+03 0.0000E+00 0.0000E+00
       23  1    3    3    0    0 0.12435874E+03 0.35233288E+02 -.47413365E+03 0.49982442E+03 0.91188000E+02 0.0000E+00 0.9000E+01
      -13  1    1    2    0    0 -.12368478E+03 -.17334969E+03 -.12817533E+04 0.12993227E+04 0.10565837E+00 0.0000E+00 0.9000E+01
       13  1    1    2    0    0 0.42361453E+02 0.49117978E+02 -.71325358E+02 0.96407397E+02 0.10565837E+00 0.0000E+00 0.9000E+01
       23  1    3    3    0    0 -.43035421E+02 0.88998422E+02 -.11197746E+03 0.17500563E+03 0.91188000E+02 0.0000E+00 0.9000E+01
#aMCatNLO 1  0  0  2  1 0.23213886D+03 0.00000000D+00  -5  7  0 0.00000000D+00 0.00000000D+00 0.00000000D+00 0.00000000D+00 0.00000000D+00
  <mgrwgt>
 0.1527889627D-02    4    2    0
 0.362892028301437D+03 0.000000000000000D+00 0.000000000000000D+00 0.362892028301437D+03
 0.362892028301437D+03 0.000000000000000D+00 0.000000000000000D+00 -.362892028301437D+03
 0.159122370625406D+03 0.124369026745984D+03 0.352489953472719D+02 -.171619055676738D+02
 0.282139314368962D+03 -.123688148714758D+03 -.173358540984675D+03 -.185069313630781D+03
 0.844219684880066D+02 0.423416136483031D+02 0.490913718362129D+02 0.540767392534581D+02
 0.200100403120500D+03 -.430224916795293D+02 0.890181738011907D+02 0.148154479944997D+03
 0.000000000000000D+00 0.000000000000000D+00 -.000000000000000D+00 0.000000000000000D+00
 0.555395040425636D+03 0.000000000000000D+00 0.000000000000000D+00 0.555395040425636D+03
 0.458253834551330D+03 0.000000000000000D+00 0.000000000000000D+00 -.458253834551330D+03
 0.143962831499650D+03 0.882536796363379D+02 0.657784351997645D+02 -.171619055676738D+02
 0.290636343531070D+03 -.191939556424463D+03 -.115663477437443D+03 -.185069313630781D+03
 0.884291282472708D+02 0.217448398265914D+02 0.665024731510163D+02 0.540767392534581D+02
 0.238976254127246D+03 -.953424524465434D+02 0.133245883712767D+03 0.148154479944997D+03
 0.251644317571729D+03 0.177283489408077D+03 -.149863314626105D+03 0.971412058743066D+02
0.361580141506D-04 0.000000000000D+00 0.000000000000D+00 0.857190123205D-10 0.000000000000D+00  7 -2 2 23 -13 13 23 21 0 0.10105416D-01 0.30844230D+00 0.81362879D+05 0.81362879D+05 0.81362879D+05 0.11291476D+01  1  2  2  2  7  2        2 0.192513131671D-02 0.100000000000D+01
-.186719540657D-05 0.000000000000D+00 -.138856294962D-06 0.857190123205D-10 0.000000000000D+00  7 -2 2 23 -13 13 23 21 2 0.10105416D-01 0.30844230D+00 0.81362879D+05 0.81362879D+05 0.81362879D+05 0.11291476D+01  1  2  3  2  7  2        2 -.126749706179D-03 0.100000000000D+01
0.226069660030D-05 0.000000000000D+00 0.000000000000D+00 0.857190123205D-10 0.000000000000D+00  7 -2 2 23 -13 13 23 21 2 0.10105416D-01 0.30844230D+00 0.81362879D+05 0.81362879D+05 0.81362879D+05 0.11291476D+01  1  2 15  2  7  2        2 0.153461511761D-03 0.100000000000D+01
-.624541108027D-05 0.000000000000D+00 0.000000000000D+00 0.857190123205D-10 0.000000000000D+00  7 -2 2 23 -13 13 23 21 2 0.10105416D-01 0.30844230D+00 0.81362879D+05 0.81362879D+05 0.81362879D+05 0.11291476D+01  1  2  4  2  7  2        2 -.423953495495D-03 0.100000000000D+01
  </mgrwgt>
  </event>
  <event>
  8     66 0.28248871E-05 0.68812140E+02 0.75467711E-02 0.10501427E+00
       -2 -1    0    0    0  501 0.00000000E+00 0.00000000E+00 0.12689367E+03 0.12689408E+03 0.32000000E+00 0.0000E+00 0.9000E+01
        2 -1    0    0  501    0 0.00000000E+00 0.00000000E+00 -.62017999E+03 0.62018008E+03 0.32000000E+00 0.0000E+00 0.9000E+01
       25  2    1    2    0    0 0.74123893E+02 -.42207812E+02 -.90138162E+02 0.32499174E+03 0.30036460E+03 0.0000E+00 0.0000E+00
       23  2    1    2    0    0 -.74123893E+02 0.42207812E+02 -.40314816E+03 0.42208241E+03 0.91374335E+02 0.0000E+00 0.0000E+00
       23  1    3    3    0    0 -.82353718E+01 -.12904480E+03 -.21742488E+02 0.15971340E+03 0.91188000E+02 0.0000E+00 0.9000E+01
      -11  1    4    4    0    0 0.68776997E+01 0.26913189E+02 -.34311586E+02 0.44146432E+02 0.51099893E-03 0.0000E+00 0.9000E+01
       11  1    4    4    0    0 -.81001592E+02 0.15294623E+02 -.36883657E+03 0.37793598E+03 0.51099893E-03 0.0000E+00 0.9000E+01
       23  1    3    3    0    0 0.82359265E+02 0.86836992E+02 -.68395674E+02 0.16527834E+03 0.91188000E+02 0.0000E+00 0.9000E+01
#aMCatNLO 1  0  0  1  2 0.22268792D+02 0.00000000D+00  -5  7  0 0.00000000D+00 0.00000000D+00 0.00000000D+00 0.00000000D+00 0.00000000D+00
  <mgrwgt>
 0.1216194104D-03    9    2    0
 0.280530030666088D+03 0.000000000000000D+00 0.000000000000000D+00 0.280530030666088D+03
 0.280530030666088D+03 0.000000000000000D+00 0.000000000000000D+00 -.280530030666088D+03
 0.193548761945291D+03 -.823537183141636D+01 -.129044803616996D+03 0.111469678463715D+03
 0.286158705848194D+02 0.687769970099980D+01 0.269131894075097D+02 -.687353854033785D+01
 0.178954390948058D+03 -.810015924453543D+02 0.152946225840287D+02 -.158837938103336D+03
 0.159941037854008D+03 0.823592645757708D+02 0.868369916254580D+02 0.542417981799591D+02
 0.000000000000000D+00 -.000000000000000D+00 0.000000000000000D+00 0.000000000000000D+00
 0.540468248554651D+03 0.000000000000000D+00 0.000000000000000D+00 0.540468248554651D+03
 0.281228253982863D+03 0.000000000000000D+00 0.000000000000000D+00 -.281228253982863D+03
 0.196363436467243D+03 -.189151045752210D+01 -.133470149503963D+03 0.111469678463715D+03
 0.282511415416955D+02 0.780292451609134D+01 0.262677718000516D+02 -.687353854033785D+01
 0.176111155058042D+03 -.752246852039819D+02 0.112647721202092D+02 -.158837938103336D+03
 0.160776084860459D+03 0.875773238594206D+02 0.831969818856688D+02 0.542417981799591D+02
 0.260194684610074D+03 -.182640527140079D+02 0.127406236980333D+02 0.259239994571789D+03
0.109028461771D-05 0.000000000000D+00 0.000000000000D+00 0.451117501747D-06 0.000000000000D+00  7 -2 2 23 -11 11 23 21 0 0.19522141D-01 0.95412344D-01 0.43869307D+05 0.43869307D+05 0.43869307D+05 0.11523261D+01  1  2  2  1  7  1       -2 0.132031282307D-03 0.100000000000D+01
-.542836002371D-07 0.000000000000D+00 -.418698001054D-08 0.451117501747D-06 0.000000000000D+00  7 -2 2 23 -11 11 23 21 2 0.19522141D-01 0.95412344D-01 0.43869307D+05 0.43869307D+05 0.43869307D+05 0.11523261D+01  1  2  3  1  7  1       -2 -.872883692369D-05 0.100000000000D+01
0.671364058925D-07 0.000000000000D+00 0.000000000000D+00 0.451117501747D-06 0.000000000000D+00  7 -2 2 23 -11 11 23 21 2 0.19522141D-01 0.95412344D-01 0.43869307D+05 0.43869307D+05 0.43869307D+05 0.11523261D+01  1  2 15  1  7  1       -2 0.107955761246D-04 0.100000000000D+01
0.497448762277D-04 0.000000000000D+00 0.000000000000D+00 0.451117501747D-06 0.000000000000D+00  7 -2 2 23 -11 11 23 21 2 0.37613675D-01 0.95412344D-01 0.48123568D+05 0.48123568D+05 0.48123568D+05 0.11487595D+01  1  2 12  1  7  1       -2 0.258072078795D-02 0.100000000000D+01
-.407789971609D-04 0.000000000000D+00 0.000000000000D+00 0.451117501747D-06 0.000000000000D+00  7 -2 2 23 -11 11 23 21 2 0.19522141D-01 0.95412344D-01 0.43869307D+05 0.43869307D+05 0.43869307D+05 0.11523261D+01  1  2  4  1  7  1       -2 -.655728828918D-02 0.100000000000D+01
-.494966697914D-04 0.000000000000D+00 -.350044859152D-06 0.451117501747D-06 0.000000000000D+00  7 -2 2 23 -11 11 23 21 2 0.37644726D-01 0.95412344D-01 0.43869307D+05 0.43869307D+05 0.43869307D+05 0.11523261D+01  1  2  5  1  7  1       -2 -.258263798046D-02 0.100000000000D+01
0.406967920649D-04 0.000000000000D+00 0.286113121224D-06 0.451117501747D-06 0.000000000000D+00  7 -2 2 23 -11 11 23 21 2 0.19522141D-01 0.95412344D-01 0.43869307D+05 0.43869307D+05 0.43869307D+05 0.11523261D+01  1  2  6  1  7  1       -2 0.654406965824D-02 0.100000000000D+01
0.353928738303D-05 0.000000000000D+00 0.000000000000D+00 0.451117501747D-06 0.000000000000D+00  7 21 2 23 -11 11 23 2 2 0.37613675D-01 0.95412344D-01 0.48123568D+05 0.48123568D+05 0.48123568D+05 0.11487595D+01  1  2 12  3  7  1       -2 0.212962118544D-02 0.100000000000D+01
-.350545776841D-05 0.000000000000D+00 -.249345558923D-07 0.451117501747D-06 0.000000000000D+00  7 21 2 23 -11 11 23 2 2 0.37644726D-01 0.95412344D-01 0.43869307D+05 0.43869307D+05 0.43869307D+05 0.11523261D+01  1  2  5  3  7  1       -2 -.212696397306D-02 0.100000000000D+01
  </mgrwgt>
  </event>
  <event>
  7     66 0.28248871E-05 0.25842548E+03 0.75467711E-02 0.10217996E+00
       -2 -1    0    0    0  501 0.00000000E+00 0.00000000E+00 0.27719933E+02 0.27721780E+02 0.32000000E+00 0.0000E+00 0.9000E+01
        2 -1    0    0  501    0 0.00000000E+00 0.00000000E+00 -.29272365E+04 0.29272366E+04 0.32000000E+00 0.0000E+00 0.9000E+01
       23  2    1    2    0    0 -.13915797E+03 0.15998986E+03 -.11649317E+04 0.11876580E+04 0.92216729E+02 0.0000E+00 0.0000E+00
       23  1    1    2    0    0 0.38371142E+02 -.19359203E+02 -.10643516E+04 0.10691150E+04 0.91188000E+02 0.0000E+00 0.9000E+01
      -13  1    3    3    0    0 -.62013360E+02 0.29027489E+02 -.21490169E+03 0.22554601E+03 0.10565837E+00 0.0000E+00 0.9000E+01
       13  1    3    3    0    0 -.77144612E+02 0.13096237E+03 -.95002997E+03 0.96211195E+03 0.10565837E+00 0.0000E+00 0.9000E+01
       23  1    1    2    0    0 0.10078683E+03 -.14063066E+03 -.67023329E+03 0.69818542E+03 0.91188000E+02 0.0000E+00 0.9000E+01
#aMCatNLO 1  0  0  1  1 0.23311299D+02 0.00000000D+00  -5  7  0 0.00000000D+00 0.00000000D+00 0.00000000D+00 0.00000000D+00 0.00000000D+00
  <mgrwgt>
 0.1175778638D-02    4    2    0
 0.284860591570014D+03 0.000000000000000D+00 0.000000000000000D+00 0.284860591570014D+03
 0.284860591570014D+03 0.000000000000000D+00 0.000000000000000D+00 -.284860591570014D+03
 0.128281864636592D+03 0.383711462749117D+02 -.193592094242899D+02 -.793338615892143D+02
 0.761213835181752D+02 -.620133414262006D+02 0.290273575729096D+02 0.332599312418568D+02
 0.155116388286640D+03 -.771446356553283D+02 0.130962509566569D+03 -.309615922188235D+02
 0.210201546698621D+03 0.100786830806617D+03 -.140630657715188D+03 0.770355225661810D+02
 0.000000000000000D+00 0.000000000000000D+00 -.000000000000000D+00 -.000000000000000D+00
 0.290155049588992D+03 0.000000000000000D+00 0.000000000000000D+00 0.290155049588992D+03
 0.311968304954290D+03 0.000000000000000D+00 0.000000000000000D+00 -.311968304954290D+03
 0.126658193190605D+03 0.342032512130481D+02 -.162272169551413D+02 -.793338615892143D+02
 0.789270932467777D+02 -.645481560260159D+02 0.309321608655720D+02 0.332599312418568D+02
 0.160988790637334D+03 -.823124905051916D+02 0.134845928470160D+03 -.309615922188235D+02
 0.203623821174999D+03 0.940213945627633D+02 -.135546725645943D+03 0.770355225661810D+02
 0.319254562935651D+02 0.186360007553961D+02 -.140041467346471D+02 -.218132553652976D+02
0.280933221985D-04 0.000000000000D+00 0.000000000000D+00 0.152117345816D-08 0.000000000000D+00  7 -2 2 23 -13 13 23 21 0 0.42647486D-02 0.45034423D+00 0.66783727D+05 0.66783727D+05 0.66783727D+05 0.11364003D+01  1  2  2  1  7  1       -2 0.164984078568D-02 0.100000000000D+01
-.154274049475D-05 0.000000000000D+00 -.107885754384D-06 0.152117345816D-08 0.000000000000D+00  7 -2 2 23 -13 13 23 21 2 0.42647486D-02 0.45034423D+00 0.66783727D+05 0.66783727D+05 0.66783727D+05 0.11364003D+01  1  2  3  1  7  1       -2 -.117002316038D-03 0.100000000000D+01
0.178277318417D-05 0.000000000000D+00 0.000000000000D+00 0.152117345816D-08 0.000000000000D+00  7 -2 2 23 -13 13 23 21 2 0.42647486D-02 0.45034423D+00 0.66783727D+05 0.66783727D+05 0.66783727D+05 0.11364003D+01  1  2 15  1  7  1       -2 0.135206531642D-03 0.100000000000D+01
-.649080529697D-05 0.000000000000D+00 0.000000000000D+00 0.152117345816D-08 0.000000000000D+00  7 -2 2 23 -13 13 23 21 2 0.42647486D-02 0.45034423D+00 0.66783727D+05 0.66783727D+05 0.66783727D+05 0.11364003D+01  1  2  4  1  7  1       -2 -.492266363189D-03 0.100000000000D+01
  </mgrwgt>
  </event>
  <event>
  8     66 0.28248871E-05 0.37014642E+03 0.75467711E-02 0.88034217E-01
       -2 -1    0    0    0  501 0.00000000E+00 0.00000000E+00 0.61830167E+02 0.61830995E+02 0.32000000E+00 0.0000E+00 0.9000E+01
        2 -1    0    0  501    0 0.00000000E+00 0.00000000E+00 -.26485629E+04 0.26485630E+04 0.32000000E+00 0.0000E+00 0.9000E+01
       25  2    1    2    0    0 -.34062670E+03 0.16104518E+02 -.15355596E+04 0.16015421E+04 0.30117765E+03 0.0000E+00 0.0000E+00
       23  2    1    2    0    0 0.34062670E+03 -.16104518E+02 -.10511732E+04 0.11088519E+04 0.91112261E+02 0.0000E+00 0.0000E+00
       23  1    3    3    0    0 -.20683993E+03 -.89079266E+01 -.44972745E+03 0.50342044E+03 0.91188000E+02 0.0000E+00 0.9000E+01
      -13  1    4    4    0    0 0.97644158E+01 0.15022176E+02 -.92316252E+02 0.94038881E+02 0.10565837E+00 0.0000E+00 0.9000E+01
       13  1    4    4    0    0 0.33086229E+03 -.31126693E+02 -.95885694E+03 0.10148130E+04 0.10565837E+00 0.0000E+00 0.9000E+01
       23  1    3    3    0    0 -.13378678E+03 0.25012445E+02 -.10858321E+04 0.10981217E+04 0.91188000E+02 0.0000E+00 0.9000E+01
#aMCatNLO 1  0  0  1  1 0.78383275D+03 0.00000000D+00  -5  7  0 0.00000000D+00 0.00000000D+00 0.00000000D+00 0.00000000D+00 0.00000000D+00
  <mgrwgt>
 0.3220806548D-03    5    2    0
 0.404675472688185D+03 0.000000000000000D+00 0.000000000000000D+00 0.404675472688185D+03
 0.404675472688185D+03 0.000000000000000D+00 0.000000000000000D+00 -.404675472688185D+03
 0.248523806803806D+03 -.206839927468750D+03 -.890792658350761D+01 0.102891809455176D+03
 0.198734529900769D+02 0.976398404151374D+01 0.150222375081711D+02 -.859948426557987D+01
 0.333892997106334D+03 0.330862718479720D+03 -.311267554306225D+02 0.323345037571620D+02
 0.207060688476155D+03 -.133786775052483D+03 0.250124445059590D+02 -.126626828946759D+03
 0.000000000000000D+00 0.000000000000000D+00 0.000000000000000D+00 0.000000000000000D+00
 0.878052947988373D+04 0.000000000000000D+00 0.000000000000000D+00 0.878052947988373D+04
 0.582040096573265D+03 0.000000000000000D+00 0.000000000000000D+00 -.582040096573265D+03
 0.478417667237712D+03 -.391567950613913D+03 -.238025268785131D+03 0.102891809455176D+03
 0.104046501222122D+02 0.206981011933754D+01 0.547918795092692D+01 -.859948426557987D+01
 0.287157149397550D+03 0.173043458010446D+03 -.226869279446760D+03 0.323345037571620D+02
 0.350716024594437D+03 -.275527194661631D+03 -.150787564991631D+03 -.126626828946759D+03
 0.823587408510508D+04 0.491981877145761D+03 0.610202925272595D+03 0.819848938331046D+04
0.134424106049D-04 0.000000000000D+00 0.000000000000D+00 0.170476259361D-06 0.000000000000D+00  7 -2 2 23 -13 13 23 21 0 0.95123986D-02 0.40747129D+00 0.13700837D+06 0.13700837D+06 0.13700837D+06 0.11106702D+01  1  2  2  1  7  1       -2 0.338527406261D-03 0.100000000000D+01
-.739578094987D-06 0.000000000000D+00 -.516223961907D-07 0.170476259361D-06 0.000000000000D+00  7 -2 2 23 -13 13 23 21 2 0.95123986D-02 0.40747129D+00 0.13700837D+06 0.13700837D+06 0.13700837D+06 0.11106702D+01  1  2  3  1  7  1       -2 -.229758147308D-04 0.100000000000D+01
0.853193163097D-06 0.000000000000D+00 0.000000000000D+00 0.170476259361D-06 0.000000000000D+00  7 -2 2 23 -13 13 23 21 2 0.95123986D-02 0.40747129D+00 0.13700837D+06 0.13700837D+06 0.13700837D+06 0.11106702D+01  1  2 15  1  7  1       -2 0.265053929771D-04 0.100000000000D+01
-.256078365912D-03 0.000000000000D+00 -.256692536718D-04 0.170476259361D-06 0.000000000000D+00  7 -2 2 23 -13 13 23 21 2 0.27446754D+00 0.40747129D+00 0.13700837D+06 0.13700837D+06 0.13700837D+06 0.11106702D+01  1  2  5  1  7  1       -2 -.530976600832D-05 0.100000000000D+01
-.938341246608D-04 0.000000000000D+00 -.866017514228D-05 0.170476259361D-06 0.000000000000D+00  7 21 2 23 -13 13 23 2 2 0.27446754D+00 0.40747129D+00 0.13700837D+06 0.13700837D+06 0.13700837D+06 0.11106702D+01  1  2  5  3  7  1       -2 -.146665636805D-04 0.100000000000D+01
  </mgrwgt>
  </event>
  <event>
  8     66 0.28248871E-05 0.15882958E+03 0.75467711E-02 0.10008654E+00
       -2 -1    0    0    0  501 0.00000000E+00 0.00000000E+00 0.72377656E+03 0.72377663E+03 0.32000000E+00 0.0000E+00 0.9000E+01
        2 -1    0    0  501    0 0.00000000E+00 0.00000000E+00 -.15619984E+03 0.15620017E+03 0.32000000E+00 0.0000E+00 0.9000E+01
       25  2    1    2    0    0 -.11612702E+03 0.18309801E+03 0.52407576E+03 0.64067457E+03 0.29799015E+03 0.0000E+00 0.0000E+00
       23  2    1    2    0    0 0.11612702E+03 -.18309801E+03 0.43500950E+02 0.23930223E+03 0.91448671E+02 0.0000E+00 0.0000E+00
       23  1    3    3    0    0 0.42872866E+02 0.24783609E+02 0.27190399E+03 0.29103151E+03 0.91188000E+02 0.0000E+00 0.9000E+01
      -13  1    4    4    0    0 0.11663491E+03 -.15987067E+03 0.64341295E+02 0.20809168E+03 0.10565837E+00 0.0000E+00 0.9000E+01
       13  1    4    4    0    0 -.50789734E+00 -.23227343E+02 -.20840344E+02 0.31210552E+02 0.10565837E+00 0.0000E+00 0.9000E+01
       23  1    3    3    0    0 -.15899988E+03 0.15831440E+03 0.25217178E+03 0.34964306E+03 0.91188000E+02 0.0000E+00 0.9000E+01
#aMCatNLO 1  0  0  2  1 0.60662064D+02 0.00000000D+00  -5  7  0 0.00000000D+00 0.00000000D+00 0.00000000D+00 0.00000000D+00 0.00000000D+00
  <mgrwgt>
 0.3248329706D-03    9    2    0
 0.336234978988400D+03 0.000000000000000D+00 0.000000000000000D+00 0.336234978988400D+03
 0.336234978988400D+03 0.000000000000000D+00 0.000000000000000D+00 -.336234978988400D+03
 0.151344463396469D+03 0.428728655246259D+02 0.247836094505815D+02 0.110170710086999D+03
 0.217998398681908D+03 0.116635069430812D+03 -.159870852275915D+03 -.914378094625969D+02
 0.584307329807319D+02 -.508053290363549D+00 -.232271610643512D+02 -.536133512048112D+02
 0.244696362917691D+03 -.158999881665075D+03 0.158314403889684D+03 0.348804505804094D+02
 0.000000000000000D+00 -.000000000000000D+00 0.000000000000000D+00 -.000000000000000D+00
 0.366746122619077D+03 0.000000000000000D+00 0.000000000000000D+00 0.366746122619077D+03
 0.369164645455685D+03 0.000000000000000D+00 0.000000000000000D+00 -.369164645455685D+03
 0.154851614458708D+03 0.558558412388980D+02 0.201571524499353D+02 0.110170710086999D+03
 0.233635444382015D+03 0.135784730841614D+03 -.166694795187294D+03 -.914378094625969D+02
 0.593281434480912D+02 0.448502383696168D+01 -.250064339474612D+02 -.536133512048112D+02
 0.227385308974824D+03 -.138983214814651D+03 0.151181505352568D+03 0.348804505804094D+02
 0.607102568111230D+02 -.571423811028233D+02 0.203625713322513D+02 -.241852283660811D+01
0.108854049837D-04 0.000000000000D+00 0.000000000000D+00 0.377913293527D-07 0.000000000000D+00  7 -2 2 23 -13 13 23 21 0 0.11135027D+00 0.24030776D-01 0.80398375D+05 0.80398375D+05 0.80398375D+05 0.11295815D+01  1  2  2  2  7  2        2 0.199208544766D-03 0.100000000000D+01
-.583386041736D-06 0.000000000000D+00 -.418028213304D-07 0.377913293527D-07 0.000000000000D+00  7 -2 2 23 -13 13 23 21 2 0.11135027D+00 0.24030776D-01 0.80398375D+05 0.80398375D+05 0.80398375D+05 0.11295815D+01  1  2  3  2  7  2        2 -.136224297228D-04 0.100000000000D+01
0.694048134986D-06 0.000000000000D+00 0.000000000000D+00 0.377913293527D-07 0.000000000000D+00  7 -2 2 23 -13 13 23 21 2 0.11135027D+00 0.24030776D-01 0.80398375D+05 0.80398375D+05 0.80398375D+05 0.11295815D+01  1  2 15  2  7  2        2 0.162064589597D-04 0.100000000000D+01
0.118312120077D-04 0.000000000000D+00 0.000000000000D+00 0.377913293527D-07 0.000000000000D+00  7 -2 2 23 -13 13 23 21 2 0.11135027D+00 0.27375247D-01 0.10067268D+06 0.10067268D+06 0.10067268D+06 0.11214832D+01  1  2 12  2  7  2        2 0.233590676512D-03 0.100000000000D+01
-.978055302492D-05 0.000000000000D+00 0.000000000000D+00 0.377913293527D-07 0.000000000000D+00  7 -2 2 23 -13 13 23 21 2 0.11135027D+00 0.24030776D-01 0.80398375D+05 0.80398375D+05 0.80398375D+05 0.11295815D+01  1  2  4  2  7  2        2 -.228382043279D-03 0.100000000000D+01
-.323582192875D-04 0.000000000000D+00 -.940676204616D-05 0.377913293527D-07 0.000000000000D+00  7 -2 2 23 -13 13 23 21 2 0.11135027D+00 0.28706818D-01 0.80398375D+05 0.80398375D+05 0.80398375D+05 0.11295815D+01  1  2  5  2  7  2        2 -.616313562450D-03 0.100000000000D+01
0.336442934513D-04 0.000000000000D+00 0.926000957933D-05 0.377913293527D-07 0.000000000000D+00  7 -2 2 23 -13 13 23 21 2 0.11135027D+00 0.24030776D-01 0.80398375D+05 0.80398375D+05 0.80398375D+05 0.11295815D+01  1  2  6  2  7  2        2 0.785615339286D-03 0.100000000000D+01
0.240472102335D-06 0.000000000000D+00 0.000000000000D+00 0.377913293527D-07 0.000000000000D+00  7 -2 21 23 -13 13 23 -2 2 0.11135027D+00 0.27375247D-01 0.10067268D+06 0.10067268D+06 0.10067268D+06 0.11214832D+01  1  2 12  4  7  2        2 0.264799849157D-04 0.100000000000D+01
-.756924592995D-06 0.000000000000D+00 -.245713521516D-06 0.377913293527D-07 0.000000000000D+00  7 -2 21 23 -13 13 23 -2 2 0.11135027D+00 0.28706818D-01 0.80398375D+05 0.80398375D+05 0.80398375D+05 0.11295815D+01  1  2  5  4  7  2        2 -.779499984031D-04 0.100000000000D+01
  </mgrwgt>
  </event>
  <event>
  8     66 0.28248871E-05 0.12362644E+03 0.75467711E-02 0.10394332E+00
       -2 -1    0    0    0  501 0.00000000E+00 0.00000000E+00 0.16893342E+03 0.16893373E+03 0.32000000E+00 0.0000E+00 0.9000E+01
        2 -1    0    0  501    0 0.00000000E+00 0.00000000E+00 -.37292805E+04 0.37292805E+04 0.32000000E+00 0.0000E+00 0.9000E+01
       25  2    1    2    0    0 0.12452625E+03 0.52129724E+02 0.34022767E+01 0.33064006E+03 0.30180620E+03 0.0000E+00 0.0000E+00
       23  2    1    2    0    0 -.12452625E+03 -.52129724E+02 -.35637494E+04 0.35675742E+04 0.95140813E+02 0.0000E+00 0.0000E+00
       23  1    3    3    0    0 0.16690973E+03 -.36239611E+02 -.20341479E+02 0.19468229E+03 0.91188000E+02 0.0000E+00 0.9000E+01
      -13  1    4    4    0    0 -.11007085E+03 -.51140970E+02 -.35036948E+04 0.35057964E+04 0.10565837E+00 0.0000E+00 0.9000E+01
       13  1    4    4    0    0 -.14455393E+02 -.98875470E+00 -.60054569E+02 0.61777815E+02 0.10565837E+00 0.0000E+00 0.9000E+01
       23  1    3    3    0    0 -.42383480E+02 0.88369335E+02 0.23743755E+02 0.13595777E+03 0.91188000E+02 0.0000E+00 0.9000E+01
#aMCatNLO 1  0  0  1  2 0.14365769D+02 0.00000000D+00  -5  7  0 0.00000000D+00 0.00000000D+00 0.00000000D+00 0.00000000D+00 0.00000000D+00
  <mgrwgt>
 0.2043551912D-03    6    2    0
 0.793725861488284D+03 0.000000000000000D+00 0.000000000000000D+00 0.793725861488284D+03
 0.793725861488284D+03 0.000000000000000D+00 0.000000000000000D+00 -.793725861488284D+03
 0.432448143349172D+03 0.166909727009208D+03 -.362396107856558D+02 0.386683305796827D+03
 0.750874658835641D+03 -.110070972982164D+03 -.511410314828924D+02 -.741000491961487D+03
 0.170125567364839D+02 -.144552746627802D+02 -.988692849849075D+00 -.891597485328022D+01
 0.387116364055272D+03 -.423834793642637D+02 0.883693351183972D+02 0.363233161017940D+03
 0.000000000000000D+00 -.000000000000000D+00 0.000000000000000D+00 -.000000000000000D+00
 0.799538670500072D+03 0.000000000000000D+00 0.000000000000000D+00 0.799538670500072D+03
 0.802684153958010D+03 0.000000000000000D+00 0.000000000000000D+00 -.802684153958010D+03
 0.434003317021733D+03 0.170806108776324D+03 -.366731790903820D+02 0.386683305796827D+03
 0.749966601338368D+03 -.103321777223438D+03 -.518920455103351D+02 -.741000491961487D+03
 0.168842311190788D+02 -.143028427814748D+02 -.100565464577000D+01 -.891597485328022D+01
 0.386662574248101D+03 -.389038405329170D+02 0.879821397152417D+02 0.363233161017940D+03
 0.147061007308015D+02 -.142776482384941D+02 0.158873953124545D+01 -.314548345793823D+01
0.136900389786D-03 0.000000000000D+00 0.000000000000D+00 0.636729004575D-07 0.000000000000D+00  7 -2 2 23 -13 13 23 21 0 0.25989782D-01 0.57373549D+00 0.53672277D+05 0.53672277D+05 0.53672277D+05 0.11445978D+01  1  2  2  1  7  1       -2 0.142330507619D-03 0.100000000000D+01
0.641676556046D-05 0.000000000000D+00 -.525733543480D-06 0.636729004575D-07 0.000000000000D+00  7 -2 2 23 -13 13 23 21 2 0.25989782D-01 0.57373549D+00 0.53672277D+05 0.53672277D+05 0.53672277D+05 0.11445978D+01  1  2  3  1  7  1       -2 0.874007774736D-05 0.100000000000D+01
0.801869305523D-05 0.000000000000D+00 0.000000000000D+00 0.636729004575D-07 0.000000000000D+00  7 -2 2 23 -13 13 23 21 2 0.25989782D-01 0.57373549D+00 0.53672277D+05 0.53672277D+05 0.53672277D+05 0.11445978D+01  1  2 15  1  7  1       -2 0.109220136024D-04 0.100000000000D+01
0.327978804335D-04 0.000000000000D+00 0.000000000000D+00 0.636729004575D-07 0.000000000000D+00  7 -2 2 23 -13 13 23 21 2 0.26325430D-01 0.57373549D+00 0.56154994D+05 0.56154994D+05 0.56154994D+05 0.11428868D+01  1  2 12  1  7  1       -2 0.434181627778D-04 0.100000000000D+01
-.201142075890D-04 0.000000000000D+00 0.000000000000D+00 0.636729004575D-07 0.000000000000D+00  7 -2 2 23 -13 13 23 21 2 0.25989782D-01 0.57373549D+00 0.53672277D+05 0.53672277D+05 0.53672277D+05 0.11445978D+01  1  2  4  1  7  1       -2 -.273969395481D-04 0.100000000000D+01
0.161022689449D-05 0.000000000000D+00 0.000000000000D+00 0.636729004575D-07 0.000000000000D+00  7 21 2 23 -13 13 23 2 2 0.26325430D-01 0.57373549D+00 0.56154994D+05 0.56154994D+05 0.56154994D+05 0.11428868D+01  1  2 12  3  7  1       -2 0.263413690074D-04 0.100000000000D+01
  </mgrwgt>
  </event>
  <event>
  8     66 0.28248871E-05 0.23687682E+03 0.75467711E-02 0.96488274E-01
       -2 -1    0    0    0  501 0.00000000E+00 0.00000000E+00 0.48909127E+02 0.48910174E+02 0.32000000E+00 0.0000E+00 0.9000E+01
        2 -1    0    0  501    0 0.00000000E+00 0.00000000E+00 -.17643107E+04 0.17643107E+04 0.32000000E+00 0.0000E+00 0.9000E+01
       25  2    1    2    0    0 0.16924831E+03 -.97244621E+01 -.14249845E+04 0.14653952E+04 0.29675385E+03 0.0000E+00 0.0000E+00
       23  2    1    2    0    0 -.16924831E+03 0.97244621E+01 -.29041708E+03 0.34782566E+03 0.88887874E+02 0.0000E+00 0.0000E+00
       23  1    3    3    0    0 0.15816463E+03 -.37575206E+02 -.12662456E+04 0.12798911E+04 0.91188000E+02 0.0000E+00 0.9000E+01
      -13  1    4    4    0    0 -.23557400E+02 0.36300912E+02 -.68948443E+02 0.81403970E+02 0.10565837E+00 0.0000E+00 0.9000E+01
       13  1    4    4    0    0 -.14569091E+03 -.26576450E+02 -.22146864E+03 0.26642169E+03 0.10565837E+00 0.0000E+00 0.9000E+01
       23  1    3    3    0    0 0.11083680E+02 0.27850744E+02 -.15873883E+03 0.18550413E+03 0.91188000E+02 0.0000E+00 0.9000E+01
#aMCatNLO 1  0  0  2  2 0.31297940D+03 0.00000000D+00  -5  7  0 0.00000000D+00 0.00000000D+00 0.00000000D+00 0.00000000D+00 0.00000000D+00
  <mgrwgt>
 0.2261798470D-03    5    2    0
 0.293754779815662D+03 0.000000000000000D+00 0.000000000000000D+00 0.293754779815662D+03
 0.293754779815662D+03 0.000000000000000D+00 0.000000000000000D+00 -.293754779815662D+03
 0.252941462665019D+03 0.158164632338123D+03 -.375752062985429D+02 -.170985920882650D+03
 0.499209018528131D+02 -.235572283391615D+02 0.363009996609079D+02 0.248875643322839D+02
 0.175612182134083D+03 -.145691084513173D+03 -.265765375125200D+02 0.943792035414331D+02
 0.109035012979409D+03 0.110836805142120D+02 0.278507441501550D+02 0.517191530089327D+02
 0.000000000000000D+00 0.000000000000000D+00 -.000000000000000D+00 -.000000000000000D+00
 0.481768676902179D+03 0.000000000000000D+00 0.000000000000000D+00 0.481768676902179D+03
 0.497269633445065D+03 0.000000000000000D+00 0.000000000000000D+00 -.497269633445065D+03
 0.202325422500239D+03 0.444630222074821D+02 -.375123947781201D+02 -.170985920882650D+03
 0.691228124015549D+02 -.532880575026756D+02 0.363174236902690D+02 0.248875643322839D+02
 0.276581705440413D+03 -.258625222232833D+03 -.265141499624259D+02 0.943792035414331D+02
 0.117645346496022D+03 -.455290947549428D+02 0.278820184169479D+02 0.517191530089327D+02
 0.313363023509014D+03 0.312979352282969D+03 -.172897366670930D+00 -.155009565428858D+02
0.200157527764D-05 0.000000000000D+00 0.000000000000D+00 0.160664713761D-08 0.000000000000D+00  7 -2 2 23 -13 13 23 21 0 0.75245638D-02 0.27143250D+00 0.56110630D+05 0.56110630D+05 0.56110630D+05 0.11429167D+01  1  2  2  2  7  2        2 0.225375735016D-03 0.100000000000D+01
-.104937018327D-06 0.000000000000D+00 -.768657609300D-08 0.160664713761D-08 0.000000000000D+00  7 -2 2 23 -13 13 23 21 2 0.75245638D-02 0.27143250D+00 0.56110630D+05 0.56110630D+05 0.56110630D+05 0.11429167D+01  1  2  3  2  7  2        2 -.154345186387D-04 0.100000000000D+01
0.126516183391D-06 0.000000000000D+00 0.000000000000D+00 0.160664713761D-08 0.000000000000D+00  7 -2 2 23 -13 13 23 21 2 0.75245638D-02 0.27143250D+00 0.56110630D+05 0.56110630D+05 0.56110630D+05 0.11429167D+01  1  2 15  2  7  2        2 0.186084607870D-04 0.100000000000D+01
-.188355180144D-06 0.000000000000D+00 -.515373040100D-06 0.160664713761D-08 0.000000000000D+00  7 -2 2 23 -13 13 23 21 2 0.75245638D-02 0.54901234D+00 0.56110630D+05 0.56110630D+05 0.56110630D+05 0.11429167D+01  1  2  5  2  7  2        2 -.237724525469D-05 0.100000000000D+01
0.168393097818D-07 0.000000000000D+00 -.392655593743D-07 0.160664713761D-08 0.000000000000D+00  7 -2 21 23 -13 13 23 -2 2 0.75245638D-02 0.54901234D+00 0.56110630D+05 0.56110630D+05 0.56110630D+05 0.11429167D+01  1  2  5  4  7  2        2 0.741509760598D-08 0.100000000000D+01
  </mgrwgt>
  </event>
  <event>
  8     66 0.28248871E-05 0.50391211E+03 0.75467711E-02 0.90378377E-01
       -2 -1    0    0    0  501 0.00000000E+00 0.00000000E+00 0.11678398E+04 0.11678399E+04 0.32000000E+00 0.0000E+00 0.9000E+01
        2 -1    0    0  501    0 0.00000000E+00 0.00000000E+00 -.24400159E+03 0.24400180E+03 0.32000000E+00 0.0000E+00 0.9000E+01
       25  2    1    2    0    0 -.82473003E+02 0.46913602E+03 0.63195122E+03 0.84576269E+03 0.29843221E+03 0.0000E+00 0.0000E+00
       23  2    1    2    0    0 0.82473003E+02 -.46913602E+03 0.29188702E+03 0.56607898E+03 0.91416516E+02 0.0000E+00 0.0000E+00
       23  1    3    3    0    0 -.21618035E+02 0.37504906E+03 0.56964260E+03 0.68843088E+03 0.91188000E+02 0.0000E+00 0.9000E+01
      -11  1    4    4    0    0 0.30352571E+02 -.12041229E+03 0.32532731E+02 0.12836968E+03 0.51099893E-03 0.0000E+00 0.9000E+01
       11  1    4    4    0    0 0.52120432E+02 -.34872373E+03 0.25935428E+03 0.43770929E+03 0.51099893E-03 0.0000E+00 0.9000E+01
       23  1    3    3    0    0 -.60854968E+02 0.94086957E+02 0.62308622E+02 0.15733181E+03 0.91188000E+02 0.0000E+00 0.9000E+01
#aMCatNLO 1  0  0  2  2 0.39607681D+03 0.00000000D+00  -5  7  0 0.00000000D+00 0.00000000D+00 0.00000000D+00 0.00000000D+00 0.00000000D+00
  <mgrwgt>
 0.5355133059D-03    3    2    0
 0.533811722266130D+03 0.000000000000000D+00 0.000000000000000D+00 0.533811722266130D+03
 0.533811722266130D+03 0.000000000000000D+00 0.000000000000000D+00 -.533811722266130D+03
 0.417467223514513D+03 -.216180350149755D+02 0.375049063068956D+03 0.157589632330641D+03
 0.141606753056486D+03 0.303525714711270D+02 -.120412286627178D+03 -.680593501695771D+02
 0.354408494035935D+03 0.521204317669785D+02 -.348723733191404D+03 -.357854599843757D+02
 0.154140973925326D+03 -.608549682231301D+02 0.940869567496261D+02 -.537448221766882D+02
 0.000000000000000D+00 -.000000000000000D+00 -.000000000000000D+00 0.000000000000000D+00
 0.121464941731193D+04 0.000000000000000D+00 0.000000000000000D+00 0.121464941731193D+04
 0.630140927212604D+03 0.000000000000000D+00 0.000000000000000D+00 -.630140927212604D+03
 0.498926589495667D+03 0.126313503965852D+03 0.447015544315340D+03 0.157589632330641D+03
 0.141621141845114D+03 0.760734589108466D+02 -.981697586904875D+02 -.680593501695771D+02
 0.338803395357554D+03 0.164024179022687D+03 -.294284233786738D+03 -.357854599843757D+02
 0.159374764847496D+03 -.102447774155024D+02 0.118708057650260D+03 -.537448221766882D+02
 0.706064452978702D+03 -.356166364483884D+03 -.173269609488375D+03 0.584508490099325D+03
0.179693132072D-03 0.000000000000D+00 0.000000000000D+00 0.204696416785D-06 0.000000000000D+00  7 -2 2 23 -11 11 23 21 0 0.17966769D+00 0.37538726D-01 0.25392742D+06 0.25392742D+06 0.25392742D+06 0.10899502D+01  1  2  2  2  7  2        2 0.530097927733D-03 0.100000000000D+01
-.994262362997D-05 0.000000000000D+00 -.690068941444D-06 0.204696416785D-06 0.000000000000D+00  7 -2 2 23 -11 11 23 21 2 0.17966769D+00 0.37538726D-01 0.25392742D+06 0.25392742D+06 0.25392742D+06 0.10899502D+01  1  2  3  2  7  2        2 -.348448771690D-04 0.100000000000D+01
0.114878455148D-04 0.000000000000D+00 0.000000000000D+00 0.204696416785D-06 0.000000000000D+00  7 -2 2 23 -11 11 23 21 2 0.17966769D+00 0.37538726D-01 0.25392742D+06 0.25392742D+06 0.25392742D+06 0.10899502D+01  1  2 15  2  7  2        2 0.402602553209D-04 0.100000000000D+01
  </mgrwgt>
  </event>
  <event>
  8     66 0.28248871E-05 0.42476353E+03 0.75467711E-02 0.94378205E-01
       -2 -1    0    0    0  501 0.00000000E+00 0.00000000E+00 0.19429579E+03 0.19429605E+03 0.32000000E+00 0.0000E+00 0.9000E+01
        2 -1    0    0  501    0 0.00000000E+00 0.00000000E+00 -.97236090E+03 0.97236096E+03 0.32000000E+00 0.0000E+00 0.9000E+01
       25  2    1    2    0    0 0.37179290E+03 0.28095687E+02 -.35906119E+03 0.59839710E+03 0.30022462E+03 0.0000E+00 0.0000E+00
       23  2    1    2    0    0 -.37179290E+03 -.28095687E+02 -.41900392E+03 0.56825991E+03 0.91300142E+02 0.0000E+00 0.0000E+00
       23  1    3    3    0    0 0.13560963E+02 0.51782255E+02 -.55104929E+02 0.11923551E+03 0.91188000E+02 0.0000E+00 0.9000E+01
      -11  1    4    4    0    0 -.39969654E+02 -.91968290E+01 -.97802392E+02 0.10605406E+03 0.51099893E-03 0.0000E+00 0.9000E+01
       11  1    4    4    0    0 -.33182324E+03 -.18898858E+02 -.32120153E+03 0.46220586E+03 0.51099893E-03 0.0000E+00 0.9000E+01
       23  1    3    3    0    0 0.35823193E+03 -.23686567E+02 -.30395626E+03 0.47916159E+03 0.91188000E+02 0.0000E+00 0.9000E+01
#aMCatNLO 1  0  0  2  2 0.15922449D+03 0.00000000D+00  -5  7  0 0.00000000D+00 0.00000000D+00 0.00000000D+00 0.00000000D+00 0.00000000D+00
  <mgrwgt>
 0.3129981262D-03    4    2    0
 0.434655973240068D+03 0.000000000000000D+00 0.000000000000000D+00 0.434655973240068D+03
 0.434655973240068D+03 0.000000000000000D+00 0.000000000000000D+00 -.434655973240068D+03
 0.110698717435573D+03 0.135609633523118D+02 0.517822548545386D+02 0.327666454343087D+02
 0.547928494871424D+02 -.399696541086315D+02 -.919682898129328D+01 -.363332002725583D+02
 0.332814932955524D+03 -.331823241027649D+03 -.188988583837320D+02 -.173766931229350D+02
 0.371005446601897D+03 0.358231931783968D+03 -.236865674895133D+02 0.209432479611846D+02
 0.000000000000000D+00 -.000000000000000D+00 0.000000000000000D+00 0.000000000000000D+00
 0.628292399081013D+03 0.000000000000000D+00 0.000000000000000D+00 0.628292399081013D+03
 0.475888483775445D+03 0.000000000000000D+00 0.000000000000000D+00 -.475888483775445D+03
 0.106967128333599D+03 0.264483624144194D+02 0.367905731474035D+02 0.327666454343087D+02
 0.522094069102094D+02 -.336343433304720D+02 -.165665831298404D+02 -.363332002725583D+02
 0.301356980509656D+03 -.294275657510696D+03 -.625772932832387D+02 -.173766931229350D+02
 0.423240039494729D+03 0.405257033477964D+03 -.783900304182659D+02 0.209432479611846D+02
 0.220407327608264D+03 -.103795395051216D+03 0.120743333683941D+03 0.152403915305569D+03
0.110900779391D-04 0.000000000000D+00 0.000000000000D+00 0.112707784431D-05 0.000000000000D+00  7 -2 2 23 -11 11 23 21 0 0.29891684D-01 0.14959401D+00 0.18042406D+06 0.18042406D+06 0.18042406D+06 0.11012778D+01  1  2  2  2  7  2        2 0.367077679248D-03 0.100000000000D+01
-.615718397098D-06 0.000000000000D+00 -.425888193708D-07 0.112707784431D-05 0.000000000000D+00  7 -2 2 23 -11 11 23 21 2 0.29891684D-01 0.14959401D+00 0.18042406D+06 0.18042406D+06 0.18042406D+06 0.11012778D+01  1  2  3  2  7  2        2 -.247172006663D-04 0.100000000000D+01
0.705648622490D-06 0.000000000000D+00 0.000000000000D+00 0.112707784431D-05 0.000000000000D+00  7 -2 2 23 -11 11 23 21 2 0.29891684D-01 0.14959401D+00 0.18042406D+06 0.18042406D+06 0.18042406D+06 0.11012778D+01  1  2 15  2  7  2        2 0.283273306177D-04 0.100000000000D+01
-.143708017945D-05 0.000000000000D+00 0.000000000000D+00 0.112707784431D-05 0.000000000000D+00  7 -2 2 23 -11 11 23 21 2 0.29891684D-01 0.14959401D+00 0.18042406D+06 0.18042406D+06 0.18042406D+06 0.11012778D+01  1  2  4  2  7  2        2 -.576896830376D-04 0.100000000000D+01
  </mgrwgt>
  </event>
  <event>
  7     66 0.28248871E-05 0.53708529E+03 0.75467711E-02 0.92772663E-01
       -2 -1    0    0    0  501 0.00000000E+00 0.00000000E+00 0.30243599E+03 0.30243616E+03 0.32000000E+00 0.0000E+00 0.9000E+01
        2 -1    0    0  501    0 0.00000000E+00 0.00000000E+00 -.13587457E+04 0.13587458E+04 0.32000000E+00 0.0000E+00 0.9000E+01
       25  2    1    2    0    0 -.39124324E+03 0.25944905E+03 -.92961218E+03 0.10839849E+04 0.30076471E+03 0.0000E+00 0.0000E+00
       23  1    3    3    0    0 -.58207808E+02 0.47893352E+02 -.40101477E+03 0.41810288E+03 0.91188000E+02 0.0000E+00 0.9000E+01
      -11  1    1    2    0    0 -.42550552E+02 -.59766172E+02 -.60481824E+02 0.95082048E+02 0.51099893E-03 0.0000E+00 0.9000E+01
       11  1    1    2    0    0 0.43379379E+03 -.19968288E+03 -.66215722E+02 0.48211495E+03 0.51099893E-03 0.0000E+00 0.9000E+01
       23  1    3    3    0    0 -.33303544E+03 0.21155570E+03 -.52859741E+03 0.66588204E+03 0.91188000E+02 0.0000E+00 0.9000E+01
#aMCatNLO 1  0  0  1  1 0.10303243D+03 0.00000000D+00  -5  7  0 0.00000000D+00 0.00000000D+00 0.00000000D+00 0.00000000D+00 0.00000000D+00
  <mgrwgt>
 0.9923177155D-03    4    2    0
 0.641041171701867D+03 0.000000000000000D+00 0.000000000000000D+00 0.641041171701867D+03
 0.641041171701867D+03 0.000000000000000D+00 0.000000000000000D+00 -.641041171701867D+03
 0.211335213443887D+03 -.582078093377781D+02 0.478933534145310D+02 -.175115386897271D+03
 0.733658266973469D+02 -.425505431603107D+02 -.597661697723204D+02 -.274680512655010D-01
 0.570116528925731D+03 0.433793791536594D+03 -.199682883303536D+03 0.311420213046965D+03
 0.427264774336769D+03 -.333035439038505D+03 0.211555699661326D+03 -.136277358098428D+03
 0.000000000000000D+00 -.000000000000000D+00 0.000000000000000D+00 -.000000000000000D+00
 0.680074219498665D+03 0.000000000000000D+00 0.000000000000000D+00 0.680074219498665D+03
 0.714900678663170D+03 0.000000000000000D+00 0.000000000000000D+00 -.714900678663170D+03
 0.206777788482314D+03 -.523572416328086D+02 0.321733272457022D+02 -.175115386897271D+03
 0.769110002599372D+02 -.404477509808015D+02 -.654162108890854D+02 -.274680512655010D-01
 0.599153469359683D+03 0.450155141838649D+03 -.243644575206907D+03 0.311420213046965D+03
 0.403373438051398D+03 -.321412492424734D+03 0.180325734614996D+03 -.136277358098428D+03
 0.108759202008503D+03 -.359376568003045D+02 0.965617242352938D+02 -.348264591645048D+02
0.263761534016D-03 0.000000000000D+00 0.000000000000D+00 0.877474230652D-10 0.000000000000D+00  7 -2 2 23 -11 11 23 21 0 0.46528630D-01 0.20903782D+00 0.28846061D+06 0.28846061D+06 0.28846061D+06 0.10858144D+01  1  2  2  1  7  1       -2 0.225441396844D-02 0.100000000000D+01
-.140956465706D-04 0.000000000000D+00 -.101291374063D-05 0.877474230652D-10 0.000000000000D+00  7 -2 2 23 -11 11 23 21 2 0.46528630D-01 0.20903782D+00 0.28846061D+06 0.28846061D+06 0.28846061D+06 0.10858144D+01  1  2  3  1  7  1       -2 -.142042537546D-03 0.100000000000D+01
0.159385870397D-04 0.000000000000D+00 0.000000000000D+00 0.877474230652D-10 0.000000000000D+00  7 -2 2 23 -11 11 23 21 2 0.46528630D-01 0.20903782D+00 0.28846061D+06 0.28846061D+06 0.28846061D+06 0.10858144D+01  1  2 15  1  7  1       -2 0.160613941097D-03 0.100000000000D+01
-.127087554001D-03 0.000000000000D+00 0.000000000000D+00 0.877474230652D-10 0.000000000000D+00  7 -2 2 23 -11 11 23 21 2 0.46528630D-01 0.20903782D+00 0.28846061D+06 0.28846061D+06 0.28846061D+06 0.10858144D+01  1  2  4  1  7  1       -2 -.128066765653D-02 0.100000000000D+01
  </mgrwgt>
  </event>
  <event>
  8     66 0.28248871E-05 0.27067735E+03 0.75467711E-02 0.99555273E-01
       -4 -1    0    0    0  501 0.00000000E+00 0.00000000E+00 0.32257885E+03 0.32258258E+03 0.15500000E+01 0.0000E+00 0.9000E+01
        4 -1    0    0  501    0 0.00000000E+00 0.00000000E+00 -.31153881E+03 0.31154266E+03 0.15500000E+01 0.0000E+00 0.9000E+01
       25  2    1    2    0    0 0.18337236E+03 0.10593945E+03 0.10929169E+03 0.38274967E+03 0.29950635E+03 0.0000E+00 0.0000E+00
       23  2    1    2    0    0 -.18337236E+03 -.10593945E+03 -.98251641E+02 0.25137557E+03 0.93207846E+02 0.0000E+00 0.0000E+00
       23  1    3    3    0    0 0.13788073E+03 -.20660201E+02 -.29314254E+02 0.16915234E+03 0.91188000E+02 0.0000E+00 0.9000E+01
      -11  1    4    4    0    0 -.97811074E+02 -.64603262E+02 -.36305189E+01 0.11727646E+03 0.51099893E-03 0.0000E+00 0.9000E+01
       11  1    4    4    0    0 -.85561281E+02 -.41336191E+02 -.94621123E+02 0.13409911E+03 0.51099893E-03 0.0000E+00 0.9000E+01
       23  1    3    3    0    0 0.45491630E+02 0.12659965E+03 0.13860594E+03 0.21359733E+03 0.91188000E+02 0.0000E+00 0.9000E+01
#aMCatNLO 1  0  0  2  2 0.10953140D+03 0.00000000D+00  -5  7  0 0.00000000D+00 0.00000000D+00 0.00000000D+00 0.00000000D+00 0.00000000D+00
  <mgrwgt>
 0.1173970350D-04    4    2    0
 0.317014565488184D+03 0.000000000000000D+00 0.000000000000000D+00 0.317014565488184D+03
 0.317014565488184D+03 0.000000000000000D+00 0.000000000000000D+00 -.317014565488184D+03
 0.169688419411846D+03 0.137880725292312D+03 -.206602010687305D+02 -.322640670585107D+02
 0.117357455267417D+03 -.978110742896236D+02 -.646032618240103D+02 -.567314858362857D+01
 0.135767026616451D+03 -.855612809974035D+02 -.413361907458769D+02 -.969704699636742D+02
 0.211216229680655D+03 0.454916299947149D+02 0.126599653638618D+03 0.134907685605813D+03
 0.000000000000000D+00 -.000000000000000D+00 -.000000000000000D+00 0.000000000000000D+00
 0.403910042780359D+03 0.000000000000000D+00 0.000000000000000D+00 0.403910042780359D+03
 0.358198029175894D+03 0.000000000000000D+00 0.000000000000000D+00 -.358198029175894D+03
 0.178765406673225D+03 0.150192491822854D+03 0.656236664088293D+01 -.322640670585107D+02
 0.101963899304100D+03 -.900618888581300D+02 -.474690248662286D+02 -.567314858362857D+01
 0.125180556809370D+03 -.763413342402014D+02 -.209499509439494D+02 -.969704699636742D+02
 0.237510736054598D+03 0.613463034823350D+02 0.161655948887547D+03 0.134907685605813D+03
 0.118687473114960D+03 -.451355722068575D+02 -.997993397182518D+02 0.457120136044658D+02
0.450220895459D-05 0.000000000000D+00 0.000000000000D+00 0.102358819450D-06 0.000000000000D+00  7 -4 4 23 -11 11 23 21 0 0.49628099D-01 0.47929630D-01 0.73266230D+05 0.73266230D+05 0.73266230D+05 0.11329798D+01  1  2  2  2  7  2        4 0.177443982979D-04 0.100000000000D+01
-.242528908979D-06 0.000000000000D+00 -.172896678445D-07 0.102358819450D-06 0.000000000000D+00  7 -4 4 23 -11 11 23 21 2 0.49628099D-01 0.47929630D-01 0.73266230D+05 0.73266230D+05 0.73266230D+05 0.11329798D+01  1  2  3  2  7  2        4 -.122699685900D-05 0.100000000000D+01
0.280858911129D-06 0.000000000000D+00 0.000000000000D+00 0.102358819450D-06 0.000000000000D+00  7 -4 4 23 -11 11 23 21 2 0.49628099D-01 0.47929630D-01 0.73266230D+05 0.73266230D+05 0.73266230D+05 0.11329798D+01  1  2 15  2  7  2        4 0.142091515287D-05 0.100000000000D+01
-.122522144904D-05 0.000000000000D+00 0.000000000000D+00 0.102358819450D-06 0.000000000000D+00  7 -4 4 23 -11 11 23 21 2 0.49628099D-01 0.47929630D-01 0.73266230D+05 0.73266230D+05 0.73266230D+05 0.11329798D+01  1  2  4  2  7  2        4 -.619861308856D-05 0.100000000000D+01
  </mgrwgt>
  </event>
  <event>
  8     66 0.28248871E-05 0.24890944E+03 0.75467711E-02 0.95366310E-01
       -2 -1    0    0    0  501 0.00000000E+00 0.00000000E+00 0.63277402E+03 0.63277410E+03 0.32000000E+00 0.0000E+00 0.9000E+01
        2 -1    0    0  501    0 0.00000000E+00 0.00000000E+00 -.12920179E+04 0.12920180E+04 0.32000000E+00 0.0000E+00 0.9000E+01
       25  2    1    2    0    0 -.18929817E+03 0.27115122E+03 -.12022187E+04 0.12824625E+04 0.30003928E+03 0.0000E+00 0.0000E+00
       23  2    1    2    0    0 0.18929817E+03 -.27115122E+03 0.54297479E+03 0.64232953E+03 0.91699642E+02 0.0000E+00 0.0000E+00
       23  1    3    3    0    0 -.62544019E+02 0.92178301E+02 -.16763208E+03 0.22096234E+03 0.91188000E+02 0.0000E+00 0.9000E+01
      -13  1    4    4    0    0 0.15934976E+03 -.18357790E+03 0.44808255E+03 0.50977561E+03 0.10565837E+00 0.0000E+00 0.9000E+01
       13  1    4    4    0    0 0.29948415E+02 -.87573321E+02 0.94892240E+02 0.13255392E+03 0.10565837E+00 0.0000E+00 0.9000E+01
       23  1    3    3    0    0 -.12675416E+03 0.17897292E+03 -.10345866E+04 0.10615002E+04 0.91188000E+02 0.0000E+00 0.9000E+01
#aMCatNLO 1  0  0  1  2 0.19426855D+03 0.00000000D+00  -5  7  0 0.00000000D+00 0.00000000D+00 0.00000000D+00 0.00000000D+00 0.00000000D+00
  <mgrwgt>
 0.1561571193D-03    9    2    0
 0.904187756769770D+03 0.000000000000000D+00 0.000000000000000D+00 0.904187756769770D+03
 0.904187756769770D+03 0.000000000000000D+00 0.000000000000000D+00 -.904187756769770D+03
 0.174076755714113D+03 -.625440188597871D+02 0.921783014274172D+02 -.978717118823093D+02
 0.705942441582094D+03 0.159349931631815D+03 -.183578030612944D+03 0.662768011292109D+03
 0.175679552081218D+03 0.299482431277844D+02 -.875731935154863D+02 0.149322950448067D+03
 0.752676764162114D+03 -.126754155899812D+03 0.178972922701013D+03 -.714219249857867D+03
 0.000000000000000D+00 -.000000000000000D+00 -.000000000000000D+00 0.000000000000000D+00
 0.114539060208652D+04 0.000000000000000D+00 0.000000000000000D+00 0.114539060208652D+04
 0.949369248818474D+03 0.000000000000000D+00 0.000000000000000D+00 -.949369248818474D+03
 0.179717264038296D+03 -.522141527261784D+02 0.108064119474153D+03 -.978717118823093D+02
 0.702803008915414D+03 0.200481638522037D+03 -.120323502126478D+03 0.662768011292109D+03
 0.170557290892767D+03 0.400574593348518D+02 -.720267026720004D+02 0.149322950448067D+03
 0.765702869792230D+03 -.824214157090011D+02 0.247150170602907D+03 -.714219249857867D+03
 0.275979417266289D+03 -.105903529421709D+03 -.162864085278582D+03 0.196021353268046D+03
0.147465923063D-03 0.000000000000D+00 0.000000000000D+00 0.879396962120D-05 0.000000000000D+00  7 -2 2 23 -13 13 23 21 0 0.97349858D-01 0.19877200D+00 0.12856383D+06 0.12856383D+06 0.12856383D+06 0.11128761D+01  1  2  2  1  7  1       -2 0.293050916043D-03 0.100000000000D+01
0.329301615356D-06 0.000000000000D+00 -.566307973230D-06 0.879396962120D-05 0.000000000000D+00  7 -2 2 23 -13 13 23 21 2 0.97349858D-01 0.19877200D+00 0.12856383D+06 0.12856383D+06 0.12856383D+06 0.11128761D+01  1  2  3  1  7  1       -2 0.810473615065D-06 0.100000000000D+01
0.858920894163D-05 0.000000000000D+00 0.000000000000D+00 0.879396962120D-05 0.000000000000D+00  7 -2 2 23 -13 13 23 21 2 0.97349858D-01 0.19877200D+00 0.12856383D+06 0.12856383D+06 0.12856383D+06 0.11128761D+01  1  2 15  1  7  1       -2 0.211396692177D-04 0.100000000000D+01
0.123636943427D-03 0.000000000000D+00 0.000000000000D+00 0.879396962120D-05 0.000000000000D+00  7 -2 2 23 -13 13 23 21 2 0.12528184D+00 0.19877200D+00 0.21961432D+06 0.21961432D+06 0.21961432D+06 0.10947184D+01  1  2 12  1  7  1       -2 0.152862710770D-03 0.100000000000D+01
-.238973268442D-03 0.000000000000D+00 0.000000000000D+00 0.879396962120D-05 0.000000000000D+00  7 -2 2 23 -13 13 23 21 2 0.97349858D-01 0.19877200D+00 0.12856383D+06 0.12856383D+06 0.12856383D+06 0.11128761D+01  1  2  4  1  7  1       -2 -.588158453363D-03 0.100000000000D+01
-.229730401234D-03 0.000000000000D+00 -.761720280055D-04 0.879396962120D-05 0.000000000000D+00  7 -2 2 23 -13 13 23 21 2 0.12694603D+00 0.19877200D+00 0.12856383D+06 0.12856383D+06 0.12856383D+06 0.11128761D+01  1  2  5  1  7  1       -2 -.292698622769D-03 0.100000000000D+01
0.243913276980D-03 0.000000000000D+00 0.735649293458D-04 0.879396962120D-05 0.000000000000D+00  7 -2 2 23 -13 13 23 21 2 0.97349858D-01 0.19877200D+00 0.12856383D+06 0.12856383D+06 0.12856383D+06 0.11128761D+01  1  2  6  1  7  1       -2 0.600316749563D-03 0.100000000000D+01
0.421206107022D-05 0.000000000000D+00 0.000000000000D+00 0.879396962120D-05 0.000000000000D+00  7 21 2 23 -13 13 23 2 2 0.12528184D+00 0.19877200D+00 0.21961432D+06 0.21961432D+06 0.21961432D+06 0.10947184D+01  1  2 12  3  7  1       -2 0.465000558170D-04 0.100000000000D+01
-.671768701255D-05 0.000000000000D+00 -.269399801616D-05 0.879396962120D-05 0.000000000000D+00  7 21 2 23 -13 13 23 2 2 0.12694603D+00 0.19877200D+00 0.12856383D+06 0.12856383D+06 0.12856383D+06 0.11128761D+01  1  2  5  3  7  1       -2 -.776663796035D-04 0.100000000000D+01
  </mgrwgt>
  </event>
  <event>
  8     66 0.28248871E-05 0.27595253E+03 0.75467711E-02 0.91782211E-01
       -2 -1    0    0    0  501 0.00000000E+00 0.00000000E+00 0.12444211E+03 0.12444252E+03 0.32000000E+00 0.0000E+00 0.9000E+01
        2 -1    0    0  501    0 0.00000000E+00 0.00000000E+00 -.28651836E+04 0.28651836E+04 0.32000000E+00 0.0000E+00 0.9000E+01
       25  2    1    2    0    0 -.47084878E+03 -.35758262E+01 -.71063154E+03 0.90367594E+03 0.29986941E+03 0.0000E+00 0.0000E+00
       23  2    1    2    0    0 0.47084878E+03 0.35758262E+01 -.20301099E+04 0.20859502E+04 0.90169235E+02 0.0000E+00 0.0000E+00
       23  1    3    3    0    0 -.28626846E+03 -.11150206E+03 -.47228797E+03 0.57074821E+03 0.91188000E+02 0.0000E+00 0.9000E+01
      -13  1    4    4    0    0 0.13054000E+03 -.17463137E+02 -.42126029E+03 0.44136821E+03 0.10565837E+00 0.0000E+00 0.9000E+01
       13  1    4    4    0    0 0.34030878E+03 0.21038963E+02 -.16088496E+04 0.16445820E+04 0.10565837E+00 0.0000E+00 0.9000E+01
       23  1    3    3    0    0 -.18458032E+03 0.10792623E+03 -.23834357E+03 0.33292774E+03 0.91188000E+02 0.0000E+00 0.9000E+01
#aMCatNLO 1  0  0  2  1 0.24049241D+03 0.00000000D+00  -5  7  0 0.00000000D+00 0.00000000D+00 0.00000000D+00 0.00000000D+00 0.00000000D+00
  <mgrwgt>
 0.2536390366D-03    9    2    0
 0.597118198724955D+03 0.000000000000000D+00 0.000000000000000D+00 0.597118198724955D+03
 0.597118198724955D+03 0.000000000000000D+00 0.000000000000000D+00 -.597118198724955D+03
 0.344910376132557D+03 -.286268455388668D+03 -.111502057074219D+03 0.127536578821549D+03
 0.138130034307960D+03 0.130539714209270D+03 -.174631900025703D+02 -.416452444705815D+02
 0.424744035955051D+03 0.340309065713594D+03 0.210390161776122D+02 -.253287575042292D+03
 0.286451951054342D+03 -.184580324534195D+03 0.107926230899177D+03 0.167396240691324D+03
 0.000000000000000D+00 -.000000000000000D+00 -.000000000000000D+00 -.000000000000000D+00
 0.699315834142889D+03 0.000000000000000D+00 0.000000000000000D+00 0.699315834142889D+03
 0.769387637326168D+03 0.000000000000000D+00 0.000000000000000D+00 -.769387637326168D+03
 0.289970457946368D+03 -.227084045566774D+03 -.890779010144962D+02 0.127536578821549D+03
 0.164239452555450D+03 0.158726987580221D+03 -.678342114333173D+01 -.416452444705815D+02
 0.498856838303958D+03 0.426408329890168D+03 0.536608390923453D+02 -.253287575042292D+03
 0.265143894803175D+03 -.133159848682773D+03 0.127408739529870D+03 0.167396240691324D+03
 0.250492827860106D+03 -.224891423220842D+03 -.852082564643873D+02 -.700718031832785D+02
0.292745260845D-04 0.000000000000D+00 0.000000000000D+00 0.175657321061D-05 0.000000000000D+00  7 -2 2 23 -13 13 23 21 0 0.19144974D-01 0.44079751D+00 0.26295180D+06 0.26295180D+06 0.26295180D+06 0.10888127D+01  1  2  2  2  7  2        2 0.173644471634D-03 0.100000000000D+01
-.158052460349D-05 0.000000000000D+00 -.112421888324D-06 0.175657321061D-05 0.000000000000D+00  7 -2 2 23 -13 13 23 21 2 0.19144974D-01 0.44079751D+00 0.26295180D+06 0.26295180D+06 0.26295180D+06 0.10888127D+01  1  2  3  2  7  2        2 -.111142124617D-04 0.100000000000D+01
0.181247974438D-05 0.000000000000D+00 0.000000000000D+00 0.175657321061D-05 0.000000000000D+00  7 -2 2 23 -13 13 23 21 2 0.19144974D-01 0.44079751D+00 0.26295180D+06 0.26295180D+06 0.26295180D+06 0.10888127D+01  1  2 15  2  7  2        2 0.127453156485D-04 0.100000000000D+01
0.952747512444D-05 0.000000000000D+00 0.000000000000D+00 0.175657321061D-05 0.000000000000D+00  7 -2 2 23 -13 13 23 21 2 0.19144974D-01 0.59681663D+00 0.41936879D+06 0.41936879D+06 0.41936879D+06 0.10739503D+01  1  2 12  2  7  2        2 0.125137811946D-04 0.100000000000D+01
-.130312293755D-04 0.000000000000D+00 0.000000000000D+00 0.175657321061D-05 0.000000000000D+00  7 -2 2 23 -13 13 23 21 2 0.19144974D-01 0.44079751D+00 0.26295180D+06 0.26295180D+06 0.26295180D+06 0.10888127D+01  1  2  4  2  7  2        2 -.916353036186D-04 0.100000000000D+01
-.259495510295D-04 0.000000000000D+00 -.954999597551D-05 0.175657321061D-05 0.000000000000D+00  7 -2 2 23 -13 13 23 21 2 0.19144974D-01 0.59079467D+00 0.26295180D+06 0.26295180D+06 0.26295180D+06 0.10888127D+01  1  2  5  2  7  2        2 -.389390756952D-04 0.100000000000D+01
0.279352967502D-04 0.000000000000D+00 0.915454108257D-05 0.175657321061D-05 0.000000000000D+00  7 -2 2 23 -13 13 23 21 2 0.19144974D-01 0.44079751D+00 0.26295180D+06 0.26295180D+06 0.26295180D+06 0.10888127D+01  1  2  6  2  7  2        2 0.196440360737D-03 0.100000000000D+01
0.370965013256D-06 0.000000000000D+00 0.000000000000D+00 0.175657321061D-05 0.000000000000D+00  7 -2 21 23 -13 13 23 -2 2 0.19144974D-01 0.59681663D+00 0.41936879D+06 0.41936879D+06 0.41936879D+06 0.10739503D+01  1  2 12  4  7  2        2 0.104937000676D-07 0.100000000000D+01
-.779554069121D-06 0.000000000000D+00 -.362803180072D-06 0.175657321061D-05 0.000000000000D+00  7 -2 21 23 -13 13 23 -2 2 0.19144974D-01 0.59079467D+00 0.26295180D+06 0.26295180D+06 0.26295180D+06 0.10888127D+01  1  2  5  4  7  2        2 -.267944909853D-07 0.100000000000D+01
  </mgrwgt>
  </event>
  <event>
  8     66 0.28248871E-05 0.21082894E+03 0.75467711E-02 0.97823152E-01
       -2 -1    0    0    0  501 0.00000000E+00 0.00000000E+00 0.27217483E+02 0.27219364E+02 0.32000000E+00 0.0000E+00 0.9000E+01
        2 -1    0    0  501    0 0.00000000E+00 0.00000000E+00 -.25308294E+04 0.25308294E+04 0.32000000E+00 0.0000E+00 0.9000E+01
       25  2    1    2    0    0 0.32665849E+02 0.15279155E+03 -.18065237E+04 0.18379426E+04 0.30015460E+03 0.0000E+00 0.0000E+00
       23  2    1    2    0    0 -.32665849E+02 -.15279155E+03 -.69708816E+03 0.72010613E+03 0.90601450E+02 0.0000E+00 0.0000E+00
       23  1    3    3    0    0 0.63994534E+02 0.44523076E+02 -.14210759E+04 0.14261310E+04 0.91188000E+02 0.0000E+00 0.9000E+01
      -11  1    4    4    0    0 -.71707550E+01 -.61752716E+02 -.11822907E+03 0.13357744E+03 0.51099893E-03 0.0000E+00 0.9000E+01
       11  1    4    4    0    0 -.25495094E+02 -.91038837E+02 -.57885908E+03 0.58652869E+03 0.51099893E-03 0.0000E+00 0.9000E+01
       23  1    3    3    0    0 -.31328686E+02 0.10826848E+03 -.38544782E+03 0.41181164E+03 0.91188000E+02 0.0000E+00 0.9000E+01
#aMCatNLO 1  0  0  2  1 0.27257523D+03 0.00000000D+00  -5  7  0 0.00000000D+00 0.00000000D+00 0.00000000D+00 0.00000000D+00 0.00000000D+00
  <mgrwgt>
 0.3640589167D-03    3    2    0
 0.262459969931504D+03 0.000000000000000D+00 0.000000000000000D+00 0.262459969931504D+03
 0.262459969931504D+03 0.000000000000000D+00 0.000000000000000D+00 -.262459969931504D+03
 0.172007292599728D+03 0.639945343735071D+02 0.445230763736244D+02 -.123262535281549D+03
 0.870568562804007D+02 -.717075505289082D+01 -.617527156773035D+02 0.609432408383070D+02
 0.974063027263915D+02 -.254950936413202D+02 -.910388368567925D+02 -.234503346417075D+02
 0.168449488256487D+03 -.313286856792960D+02 0.108268476160472D+03 0.857696290849490D+02
 0.000000000000000D+00 0.000000000000000D+00 0.000000000000000D+00 0.000000000000000D+00
 0.600578089950247D+03 0.000000000000000D+00 0.000000000000000D+00 0.600578089950247D+03
 0.356666463464878D+03 0.000000000000000D+00 0.000000000000000D+00 -.356666463464878D+03
 0.163340526499215D+03 0.441789181805217D+02 -.349205789958372D+02 -.123262535281549D+03
 0.130108487817445D+03 -.200029992601831D+02 -.113199028347700D+03 0.609432408383070D+02
 0.158828244004771D+03 -.406359269619335D+02 -.151740615323569D+03 -.234503346417075D+02
 0.139193955974891D+03 -.495072575022977D+02 0.353879671240291D+02 0.857696290849490D+02
 0.365773339118804D+03 0.659672655438926D+02 0.264472255543077D+03 0.243911626485370D+03
0.344694686647D-05 0.000000000000D+00 0.000000000000D+00 0.301602151873D-06 0.000000000000D+00  7 -2 2 23 -11 11 23 21 0 0.41874513D-02 0.38935851D+00 0.44448841D+05 0.44448841D+05 0.44448841D+05 0.11518183D+01  1  2  2  2  7  2        2 0.358201736065D-03 0.100000000000D+01
-.180324916879D-06 0.000000000000D+00 -.132371835692D-07 0.301602151873D-06 0.000000000000D+00  7 -2 2 23 -11 11 23 21 2 0.41874513D-02 0.38935851D+00 0.44448841D+05 0.44448841D+05 0.44448841D+05 0.11518183D+01  1  2  3  2  7  2        2 -.248608956352D-04 0.100000000000D+01
0.222809131205D-06 0.000000000000D+00 0.000000000000D+00 0.301602151873D-06 0.000000000000D+00  7 -2 2 23 -11 11 23 21 2 0.41874513D-02 0.38935851D+00 0.44448841D+05 0.44448841D+05 0.44448841D+05 0.11518183D+01  1  2 15  2  7  2        2 0.307180763110D-04 0.100000000000D+01
  </mgrwgt>
  </event>
  <event>
  8     66 0.28248871E-05 0.56344014E+03 0.75467711E-02 0.88874341E-01
       -2 -1    0    0    0  501 0.00000000E+00 0.00000000E+00 0.14944498E+04 0.14944499E+04 0.32000000E+00 0.0000E+00 0.9000E+01
        2 -1    0    0  501    0 0.00000000E+00 0.00000000E+00 -.88674678E+03 0.88674683E+03 0.32000000E+00 0.0000E+00 0.9000E+01
       25  2    1    2    0    0 0.25087210E+03 0.75978905E+03 -.51428339E+03 0.99997583E+03 0.30862282E+03 0.0000E+00 0.0000E+00
       23  2    1    2    0    0 -.25087210E+03 -.75978905E+03 0.11219864E+04 0.13812209E+04 0.93280711E+02 0.0000E+00 0.0000E+00
       23  1    3    3    0    0 0.13020707E+03 0.59498391E+03 -.46300553E+03 0.77048628E+03 0.91188000E+02 0.0000E+00 0.9000E+01
      -11  1    4    4    0    0 -.12584954E+03 -.36969905E+03 0.62748979E+03 0.73909332E+03 0.51099893E-03 0.0000E+00 0.9000E+01
       11  1    4    4    0    0 -.12502256E+03 -.39009000E+03 0.49449664E+03 0.64212754E+03 0.51099893E-03 0.0000E+00 0.9000E+01
       23  1    3    3    0    0 0.12066503E+03 0.16480514E+03 -.51277861E+02 0.22948955E+03 0.91188000E+02 0.0000E+00 0.9000E+01
#aMCatNLO 1  0  0  1  2 0.75851813D+02 0.00000000D+00  -5  7  0 0.00000000D+00 0.00000000D+00 0.00000000D+00 0.00000000D+00 0.00000000D+00
  <mgrwgt>
 0.4097545190D-03    9    2    0
 0.115117273758973D+04 0.000000000000000D+00 0.000000000000000D+00 0.115117273758973D+04
 0.115117273758973D+04 0.000000000000000D+00 0.000000000000000D+00 -.115117273758973D+04
 0.919084153770157D+03 0.130207068856404D+03 0.594983907816721D+03 -.682232144527340D+03
 0.598780295385669D+03 -.125849540900378D+03 -.369699047214961D+03 0.453896849169129D+03
 0.533597097862507D+03 -.125022558003827D+03 -.390090003309869D+03 0.341942995476112D+03
 0.250883928161124D+03 0.120665030047802D+03 0.164805142708109D+03 -.113607700117901D+03
 0.000000000000000D+00 0.000000000000000D+00 -.000000000000000D+00 0.000000000000000D+00
 0.123255591579439D+04 0.000000000000000D+00 0.000000000000000D+00 0.123255591579439D+04
 0.116960809944358D+04 0.000000000000000D+00 0.000000000000000D+00 -.116960809944358D+04
 0.936477644765970D+03 0.119601711308633D+03 0.623642413108740D+03 -.682232144527340D+03
 0.589121284364536D+03 -.132638924576391D+03 -.351352321314199D+03 0.453896849169129D+03
 0.523263232421814D+03 -.131062982898090D+03 -.373767163837601D+03 0.341942995476112D+03
 0.254732460920579D+03 0.117775208435579D+03 0.172614211623873D+03 -.113607700117901D+03
 0.985693927650695D+02 0.263249877302685D+02 -.711371395808131D+02 0.629478163508129D+02
0.716291752926D-03 0.000000000000D+00 0.000000000000D+00 0.132999257968D-07 0.000000000000D+00  7 -2 2 23 -11 11 23 21 0 0.22991536D+00 0.13642259D+00 0.67216038D+06 0.67216038D+06 0.67216038D+06 0.10595453D+01  1  2  2  1  7  1       -2 0.203285556380D-03 0.100000000000D+01
-.342202155231D-04 0.000000000000D+00 -.275074893518D-05 0.132999257968D-07 0.000000000000D+00  7 -2 2 23 -11 11 23 21 2 0.22991536D+00 0.13642259D+00 0.67216038D+06 0.67216038D+06 0.67216038D+06 0.10595453D+01  1  2  3  1  7  1       -2 -.109028081388D-04 0.100000000000D+01
0.440377220627D-04 0.000000000000D+00 0.000000000000D+00 0.132999257968D-07 0.000000000000D+00  7 -2 2 23 -11 11 23 21 2 0.22991536D+00 0.13642259D+00 0.67216038D+06 0.67216038D+06 0.67216038D+06 0.10595453D+01  1  2 15  1  7  1       -2 0.140307367204D-04 0.100000000000D+01
0.269205229323D-02 0.000000000000D+00 0.000000000000D+00 0.132999257968D-07 0.000000000000D+00  7 -2 2 23 -11 11 23 21 2 0.24792578D+00 0.13642259D+00 0.73702537D+06 0.73702537D+06 0.73702537D+06 0.10568008D+01  1  2 12  1  7  1       -2 0.646227415446D-03 0.100000000000D+01
-.271749192240D-02 0.000000000000D+00 0.000000000000D+00 0.132999257968D-07 0.000000000000D+00  7 -2 2 23 -11 11 23 21 2 0.22991536D+00 0.13642259D+00 0.67216038D+06 0.67216038D+06 0.67216038D+06 0.10595453D+01  1  2  4  1  7  1       -2 -.865812578790D-03 0.100000000000D+01
-.631581337161D-02 0.000000000000D+00 -.980194445089D-03 0.132999257968D-07 0.000000000000D+00  7 -2 2 23 -11 11 23 21 2 0.24794487D+00 0.13642259D+00 0.67216038D+06 0.67216038D+06 0.67216038D+06 0.10595453D+01  1  2  5  1  7  1       -2 -.153293984444D-02 0.100000000000D+01
0.637442580511D-02 0.000000000000D+00 0.977407743849D-03 0.132999257968D-07 0.000000000000D+00  7 -2 2 23 -11 11 23 21 2 0.22991536D+00 0.13642259D+00 0.67216038D+06 0.67216038D+06 0.67216038D+06 0.10595453D+01  1  2  6  1  7  1       -2 0.203093815997D-02 0.100000000000D+01
0.360548236851D-04 0.000000000000D+00 0.000000000000D+00 0.132999257968D-07 0.000000000000D+00  7 21 2 23 -11 11 23 2 2 0.24792578D+00 0.13642259D+00 0.73702537D+06 0.73702537D+06 0.73702537D+06 0.10568008D+01  1  2 12  3  7  1       -2 0.625511682015D-04 0.100000000000D+01
-.782094104784D-04 0.000000000000D+00 -.124331485960D-04 0.132999257968D-07 0.000000000000D+00  7 21 2 23 -11 11 23 2 2 0.24794487D+00 0.13642259D+00 0.67216038D+06 0.67216038D+06 0.67216038D+06 0.10595453D+01  1  2  5  3  7  1       -2 -.137623286366D-03 0.100000000000D+01
  </mgrwgt>
  </event>
  <event>
  7     66 0.28248871E-05 0.62566023E+03 0.75467711E-02 0.90619643E-01
       -2 -1    0    0    0  501 0.00000000E+00 0.00000000E+00 0.62940419E+03 0.62940427E+03 0.32000000E+00 0.0000E+00 0.9000E+01
        2 -1    0    0  501    0 0.00000000E+00 0.00000000E+00 -.23008625E+04 0.23008625E+04 0.32000000E+00 0.0000E+00 0.9000E+01
       25  2    1    2    0    0 0.34763114E+03 -.40670429E+03 -.18669787E+04 0.19657366E+04 0.30373530E+03 0.0000E+00 0.0000E+00
       23  1    3    3    0    0 0.31437287E+03 -.26093292E+03 -.15265173E+04 0.15828729E+04 0.91188000E+02 0.0000E+00 0.9000E+01
      -11  1    1    2    0    0 0.18239295E+02 0.26437546E+03 -.25444428E+03 0.36738120E+03 0.51099893E-03 0.0000E+00 0.9000E+01
       11  1    1    2    0    0 -.36587044E+03 0.14232883E+03 0.44996469E+03 0.59714897E+03 0.51099893E-03 0.0000E+00 0.9000E+01
       23  1    3    3    0    0 0.33258273E+02 -.14577137E+03 -.34046147E+03 0.38286377E+03 0.91188000E+02 0.0000E+00 0.9000E+01
#aMCatNLO 1  0  0  2  2 0.18559841D+03 0.00000000D+00  -5  7  0 0.00000000D+00 0.00000000D+00 0.00000000D+00 0.00000000D+00 0.00000000D+00
  <mgrwgt>
 0.1329040741D-01    4    2    0
 0.120340045199302D+04 0.000000000000000D+00 0.000000000000000D+00 0.120340045199302D+04
 0.120340045199302D+04 0.000000000000000D+00 0.000000000000000D+00 -.120340045199302D+04
 0.867013898043765D+03 0.314372874054485D+03 -.260932925126428D+03 -.759263822857861D+03
 0.270579880703495D+03 0.182392895403382D+02 0.264375452122064D+03 -.546481516049327D+02
 0.103951390696973D+04 -.365870438050313D+03 0.142328839889471D+03 0.962533369125484D+03
 0.229693218269047D+03 0.332582744554898D+02 -.145771366885107D+03 -.148621394662690D+03
 0.000000000000000D+00 0.000000000000000D+00 -.000000000000000D+00 0.000000000000000D+00
 0.165983511167931D+04 0.000000000000000D+00 0.000000000000000D+00 0.165983511167931D+04
 0.122598937100849D+04 0.000000000000000D+00 0.000000000000000D+00 -.122598937100849D+04
 0.841908829043485D+03 0.289965414367620D+03 -.199834258442469D+03 -.759263822857861D+03
 0.289793783531296D+03 0.102358278257741D+02 0.284410344974069D+03 -.546481516049327D+02
 0.106325901246283D+04 -.395903010294909D+03 0.217508729348513D+03 0.962533369125484D+03
 0.218984803997064D+03 0.268500907692048D+02 -.129729899066618D+03 -.148621394662690D+03
 0.471878053653134D+03 0.688516773323097D+02 -.172354916813494D+03 0.433845740670818D+03
0.262118045441D-01 0.000000000000D+00 0.000000000000D+00 0.431076325071D-11 0.000000000000D+00  7 -2 2 23 -11 11 23 21 0 0.96831422D-01 0.35397885D+00 0.39145072D+06 0.39145072D+06 0.39145072D+06 0.10761047D+01  1  2  2  2  7  2        2 0.137504703229D-01 0.100000000000D+01
-.698693295613D-03 0.000000000000D+00 -.100660231176D-03 0.431076325071D-11 0.000000000000D+00  7 -2 2 23 -11 11 23 21 2 0.96831422D-01 0.35397885D+00 0.39145072D+06 0.39145072D+06 0.39145072D+06 0.10761047D+01  1  2  3  2  7  2        2 -.424439943793D-03 0.100000000000D+01
0.151371853496D-02 0.000000000000D+00 0.000000000000D+00 0.431076325071D-11 0.000000000000D+00  7 -2 2 23 -11 11 23 21 2 0.96831422D-01 0.35397885D+00 0.39145072D+06 0.39145072D+06 0.39145072D+06 0.10761047D+01  1  2 15  2  7  2        2 0.919548840573D-03 0.100000000000D+01
-.157235940862D-02 0.000000000000D+00 0.000000000000D+00 0.431076325071D-11 0.000000000000D+00  7 -2 2 23 -11 11 23 21 2 0.96831422D-01 0.35397885D+00 0.39145072D+06 0.39145072D+06 0.39145072D+06 0.10761047D+01  1  2  4  2  7  2        2 -.955171808873D-03 0.100000000000D+01
  </mgrwgt>
  </event>
  <event>
  8     66 0.28248871E-05 0.25664996E+03 0.75467711E-02 0.91294504E-01
       -2 -1    0    0    0  501 0.00000000E+00 0.00000000E+00 0.24919631E+03 0.24919651E+03 0.32000000E+00 0.0000E+00 0.9000E+01
        2 -1    0    0  501    0 0.00000000E+00 0.00000000E+00 -.17288396E+04 0.17288397E+04 0.32000000E+00 0.0000E+00 0.9000E+01
       25  2    1    2    0    0 0.58479746E+03 0.17820625E+03 -.91240329E+03 0.11385675E+04 0.30018420E+03 0.0000E+00 0.0000E+00
       23  2    1    2    0    0 -.58479746E+03 -.17820625E+03 -.56724003E+03 0.83946871E+03 0.95921411E+02 0.0000E+00 0.0000E+00
       23  1    3    3    0    0 0.34503690E+03 0.57603869E+02 -.68742265E+03 0.77668129E+03 0.91188000E+02 0.0000E+00 0.9000E+01
      -13  1    4    4    0    0 -.34241228E+03 -.85423942E+02 -.26652935E+03 0.44224577E+03 0.10565837E+00 0.0000E+00 0.9000E+01
       13  1    4    4    0    0 -.24238519E+03 -.92782312E+02 -.30071068E+03 0.39722294E+03 0.10565837E+00 0.0000E+00 0.9000E+01
       23  1    3    3    0    0 0.23976056E+03 0.12060239E+03 -.22498063E+03 0.36188617E+03 0.91188000E+02 0.0000E+00 0.9000E+01
#aMCatNLO 1  0  0  1  2 0.93890286D+02 0.00000000D+00  -5  7  0 0.00000000D+00 0.00000000D+00 0.00000000D+00 0.00000000D+00 0.00000000D+00
  <mgrwgt>
 0.2105527097D-03    9    2    0
 0.656369319436476D+03 0.000000000000000D+00 0.000000000000000D+00 0.656369319436476D+03
 0.656369319436476D+03 0.000000000000000D+00 0.000000000000000D+00 -.656369319436476D+03
 0.395481118354441D+03 0.345036901399099D+03 0.576038693536138D+02 -.160378909272010D+03
 0.365960075468470D+03 -.342412399209076D+03 -.854239338643837D+02 0.968673176458719D+02
 0.259592127170786D+03 -.242385065693662D+03 -.927823208801533D+02 -.538454731846304D+01
 0.291705317879255D+03 0.239760563503639D+03 0.120602385390923D+03 0.688961389446010D+02
 0.000000000000000D+00 -.000000000000000D+00 0.000000000000000D+00 0.000000000000000D+00
 0.778166418487020D+03 0.000000000000000D+00 0.000000000000000D+00 0.778166418487020D+03
 0.676392969034819D+03 0.000000000000000D+00 0.000000000000000D+00 -.676392969034819D+03
 0.416856081140465D+03 0.371105360038605D+03 0.448682320926888D+02 -.160378909272010D+03
 0.347572276469385D+03 -.319514655986179D+03 -.966105312698275D+02 0.968673176458719D+02
 0.247591726942840D+03 -.226109187484703D+03 -.100733833619697D+03 -.538454731846304D+01
 0.304071903044837D+03 0.258879463698874D+03 0.111261926061067D+03 0.688961389446010D+02
 0.138467399924313D+03 -.843609802665970D+02 0.412142067357686D+02 0.101773449452201D+03
0.210899212794D-04 0.000000000000D+00 0.000000000000D+00 0.193755471143D-06 0.000000000000D+00  7 -2 2 23 -13 13 23 21 0 0.38337912D-01 0.26597535D+00 0.39526261D+06 0.39526261D+06 0.39526261D+06 0.10758008D+01  1  2  2  1  7  1       -2 0.161044849643D-03 0.100000000000D+01
-.116901958347D-05 0.000000000000D+00 -.809908508167D-07 0.193755471143D-06 0.000000000000D+00  7 -2 2 23 -13 13 23 21 2 0.38337912D-01 0.26597535D+00 0.39526261D+06 0.39526261D+06 0.39526261D+06 0.10758008D+01  1  2  3  1  7  1       -2 -.103313581312D-04 0.100000000000D+01
0.128489491298D-05 0.000000000000D+00 0.000000000000D+00 0.193755471143D-06 0.000000000000D+00  7 -2 2 23 -13 13 23 21 2 0.38337912D-01 0.26597535D+00 0.39526261D+06 0.39526261D+06 0.39526261D+06 0.10758008D+01  1  2 15  1  7  1       -2 0.113554209823D-04 0.100000000000D+01
0.533029783421D-04 0.000000000000D+00 0.000000000000D+00 0.193755471143D-06 0.000000000000D+00  7 -2 2 23 -13 13 23 21 2 0.45962737D-01 0.26597535D+00 0.45979115D+06 0.45979115D+06 0.45979115D+06 0.10710932D+01  1  2 12  1  7  1       -2 0.328003923866D-03 0.100000000000D+01
-.541201181854D-04 0.000000000000D+00 0.000000000000D+00 0.193755471143D-06 0.000000000000D+00  7 -2 2 23 -13 13 23 21 2 0.38337912D-01 0.26597535D+00 0.39526261D+06 0.39526261D+06 0.39526261D+06 0.10758008D+01  1  2  4  1  7  1       -2 -.478293375901D-03 0.100000000000D+01
-.875721063188D-04 0.000000000000D+00 -.150537977252D-04 0.193755471143D-06 0.000000000000D+00  7 -2 2 23 -13 13 23 21 2 0.46576935D-01 0.26597535D+00 0.39526261D+06 0.39526261D+06 0.39526261D+06 0.10758008D+01  1  2  5  1  7  1       -2 -.533425835938D-03 0.100000000000D+01
0.890900008606D-04 0.000000000000D+00 0.147730017749D-04 0.193755471143D-06 0.000000000000D+00  7 -2 2 23 -13 13 23 21 2 0.38337912D-01 0.26597535D+00 0.39526261D+06 0.39526261D+06 0.39526261D+06 0.10758008D+01  1  2  6  1  7  1       -2 0.787344128198D-03 0.100000000000D+01
0.141429797175D-05 0.000000000000D+00 0.000000000000D+00 0.193755471143D-06 0.000000000000D+00  7 21 2 23 -13 13 23 2 2 0.45962737D-01 0.26597535D+00 0.45979115D+06 0.45979115D+06 0.45979115D+06 0.10710932D+01  1  2 12  3  7  1       -2 0.912273264818D-04 0.100000000000D+01
-.228901046286D-05 0.000000000000D+00 -.421930182004D-06 0.193755471143D-06 0.000000000000D+00  7 21 2 23 -13 13 23 2 2 0.46576935D-01 0.26597535D+00 0.39526261D+06 0.39526261D+06 0.39526261D+06 0.10758008D+01  1  2  5  3  7  1       -2 -.146372369478D-03 0.100000000000D+01
  </mgrwgt>
  </event>
  <event>
  9     66 -.28248871E-05 0.42015876E+03 0.75467711E-02 0.96206231E-01
       -2 -1    0    0    0  502 0.00000000E+00 0.00000000E+00 0.48701226E+03 0.48701237E+03 0.32000000E+00 0.0000E+00 0.9000E+01
        2 -1    0    0  501    0 0.00000000E+00 0.00000000E+00 -.68904293E+03 0.68904301E+03 0.32000000E+00 0.0000E+00 0.9000E+01
       25  2    1    2    0    0 -.39956987E+03 0.27805488E+02 0.24901013E+03 0.55964349E+03 0.30127324E+03 0.0000E+00 0.0000E+00
       23  2    1    2    0    0 0.36873765E+03 -.21169753E+02 -.43898873E+03 0.58264099E+03 0.10170451E+03 0.0000E+00 0.0000E+00
       23  1    3    3    0    0 -.16205250E+03 -.51335797E+02 0.21848202E+03 0.29145500E+03 0.91188000E+02 0.0000E+00 0.9000E+01
      -13  1    4    4    0    0 0.21034378E+03 0.34499604E+02 -.21543371E+03 0.30306175E+03 0.10565837E+00 0.0000E+00 0.9000E+01
       13  1    4    4    0    0 0.15839387E+03 -.55669358E+02 -.22355501E+03 0.27957924E+03 0.10565837E+00 0.0000E+00 0.9000E+01
       23  1    3    3    0    0 -.23751737E+03 0.79141285E+02 0.30528108E+02 0.26818848E+03 0.91188000E+02 0.0000E+00 0.9000E+01
       21  1    1    2  501  502 0.30832219E+02 -.66357344E+01 -.12052069E+02 0.33770898E+02 0.75000000E+00 0.0000E+00 0.9000E+01
#aMCatNLO 2  0  0  1  2 0.31538210D+02 0.00000000D+00  -5  7  0 0.00000000D+00 0.00000000D+00 0.00000000D+00 0.00000000D+00 0.00000000D+00
  <mgrwgt>
 -.6100763373D-04    3    2    0
 0.562966983180777D+03 0.000000000000000D+00 0.000000000000000D+00 0.562966983180777D+03
 0.562966983180777D+03 0.000000000000000D+00 0.000000000000000D+00 -.562966983180777D+03
 0.328416815819641D+03 -.153006177887724D+03 -.532827530334483D+02 0.270725712348271D+03
 0.276669336365272D+03 0.217841052361929D+03 0.328861373835153D+02 -.167360985772192D+03
 0.250584291295800D+03 0.165189207218794D+03 -.571319570343579D+02 -.179557657447598D+03
 0.270263522880841D+03 -.230024081692999D+03 0.775285726842909D+02 0.761929308715198D+02
 0.000000000000000D+00 0.000000000000000D+00 -.000000000000000D+00 -.000000000000000D+00
 0.576027826638049D+03 0.000000000000000D+00 0.000000000000000D+00 0.576027826638049D+03
 0.582554146747515D+03 0.000000000000000D+00 0.000000000000000D+00 -.582554146747515D+03
 0.332421477212905D+03 -.162052496974614D+03 -.513357971227096D+02 0.270725712348271D+03
 0.271006377814415D+03 0.210343833573541D+03 0.344996947093128D+02 -.167360985772192D+03
 0.245822377985392D+03 0.158393818430759D+03 -.556694481133751D+02 -.179557657447598D+03
 0.277125350572300D+03 -.237517373873671D+03 0.791412849224870D+02 0.761929308715198D+02
 0.322063898005517D+02 0.308322188439849D+02 -.663573439571504D+01 -.652632010946681D+01
-.143529755369D-04 0.000000000000D+00 0.000000000000D+00 0.310039619000D-08 0.000000000000D+00  7 -2 2 23 -13 13 23 21 2 0.76162312D-01 0.10244160D+00 0.19006673D+06 0.19006673D+06 0.19006673D+06 0.10995286D+01  1  2 13  1  7  1       -2 -.148790930714D-03 0.100000000000D+01
-.582816121259D-05 0.000000000000D+00 0.000000000000D+00 0.310039619000D-08 0.000000000000D+00  7 -2 2 23 -13 13 23 21 2 0.73225577D-01 0.10244160D+00 0.17653338D+06 0.17653338D+06 0.17653338D+06 0.11020127D+01  1  2  8  1  7  1       -2 -.663095897421D-04 0.100000000000D+01
0.149394263720D-04 0.000000000000D+00 0.000000000000D+00 0.310039619000D-08 0.201253948628D-10  7 -2 2 23 -13 13 23 21 2 0.74924412D-01 0.10600582D+00 0.19006673D+06 0.19006673D+06 0.19006673D+06 0.10995286D+01  1  2  1  1  7  1       -2 0.154092886725D-03 0.100000000000D+01
  </mgrwgt>
  </event>
  <event>
  8     66 0.28248871E-05 0.22195030E+03 0.75467711E-02 0.99378000E-01
       -2 -1    0    0    0  501 0.00000000E+00 0.00000000E+00 0.11161617E+03 0.11161663E+03 0.32000000E+00 0.0000E+00 0.9000E+01
        2 -1    0    0  501    0 0.00000000E+00 0.00000000E+00 -.67620485E+03 0.67620493E+03 0.32000000E+00 0.0000E+00 0.9000E+01
       25  2    1    2    0    0 0.22307470E+02 -.10360292E+03 -.15235169E+03 0.35265272E+03 0.29986950E+03 0.0000E+00 0.0000E+00
       23  2    1    2    0    0 -.22307470E+02 0.10360292E+03 -.41223699E+03 0.43516884E+03 0.90561541E+02 0.0000E+00 0.0000E+00
       23  1    3    3    0    0 -.62402938E+02 -.13691463E+03 -.37155928E+02 0.17982090E+03 0.91188000E+02 0.0000E+00 0.9000E+01
      -11  1    4    4    0    0 0.20006819E+02 -.66012588E+01 -.53034239E+02 0.57065576E+02 0.51099893E-03 0.0000E+00 0.9000E+01
       11  1    4    4    0    0 -.42314289E+02 0.11020418E+03 -.35920275E+03 0.37810326E+03 0.51099893E-03 0.0000E+00 0.9000E+01
       23  1    3    3    0    0 0.84710408E+02 0.33311716E+02 -.11519576E+03 0.17283182E+03 0.91188000E+02 0.0000E+00 0.9000E+01
#aMCatNLO 1  0  0  1  2 0.18422155D+03 0.00000000D+00  -5  7  0 0.00000000D+00 0.00000000D+00 0.00000000D+00 0.00000000D+00 0.00000000D+00
  <mgrwgt>
 0.2605556254D-03    7    2    0
 0.274728246553830D+03 0.000000000000000D+00 0.000000000000000D+00 0.274728246553830D+03
 0.274728246553830D+03 0.000000000000000D+00 0.000000000000000D+00 -.274728246553830D+03
 0.219651549128721D+03 -.624029377061430D+02 -.136914633701133D+03 0.131498319893353D+03
 0.273269318663560D+02 0.200068190006006D+02 -.660125884671307D+01 -.174043609576556D+02
 0.173036621271883D+03 -.423142890241196D+02 0.110204176405403D+03 -.126515662067505D+03
 0.129441390840701D+03 0.847104077296620D+02 0.333117161424436D+02 0.124217031318079D+02
 0.000000000000000D+00 0.000000000000000D+00 0.000000000000000D+00 0.000000000000000D+00
 0.382718390244291D+03 0.000000000000000D+00 0.000000000000000D+00 0.382718390244291D+03
 0.381027975397857D+03 0.000000000000000D+00 0.000000000000000D+00 -.381027975397857D+03
 0.257398834567911D+03 -.139796187108113D+03 -.145272594208880D+03 0.131498319893353D+03
 0.223905132940171D+02 0.119410155458183D+02 -.747231242385616D+01 -.174043609576556D+02
 0.192641292440020D+03 -.101639263793859D+03 0.103797470393187D+03 -.126515662067505D+03
 0.107086416124981D+03 0.463378244961121D+02 0.291677302299197D+02 0.124217031318079D+02
 0.184229309215220D+03 0.183156610860041D+03 0.197797060096291D+02 0.169041484643415D+01
0.176926379367D-05 0.000000000000D+00 0.000000000000D+00 0.386484240711D-06 0.000000000000D+00  7 -2 2 23 -11 11 23 21 0 0.17171760D-01 0.10403156D+00 0.49261934D+05 0.49261934D+05 0.49261934D+05 0.11478639D+01  1  2  2  1  7  1       -2 0.238685016750D-03 0.100000000000D+01
-.928536569985D-07 0.000000000000D+00 -.679443882556D-08 0.386484240711D-06 0.000000000000D+00  7 -2 2 23 -11 11 23 21 2 0.17171760D-01 0.10403156D+00 0.49261934D+05 0.49261934D+05 0.49261934D+05 0.11478639D+01  1  2  3  1  7  1       -2 -.165048805113D-04 0.100000000000D+01
0.106705300377D-06 0.000000000000D+00 0.000000000000D+00 0.386484240711D-06 0.000000000000D+00  7 -2 2 23 -11 11 23 21 2 0.17171760D-01 0.10403156D+00 0.49261934D+05 0.49261934D+05 0.49261934D+05 0.11478639D+01  1  2 15  1  7  1       -2 0.189670314512D-04 0.100000000000D+01
-.472397307189D-06 0.000000000000D+00 0.000000000000D+00 0.386484240711D-06 0.000000000000D+00  7 -2 2 23 -11 11 23 21 2 0.17171760D-01 0.10403156D+00 0.49261934D+05 0.49261934D+05 0.49261934D+05 0.11478639D+01  1  2  4  1  7  1       -2 -.839693487696D-04 0.100000000000D+01
-.299577957836D-06 0.000000000000D+00 -.570594426030D-06 0.386484240711D-06 0.000000000000D+00  7 -2 2 23 -11 11 23 21 2 0.32975744D-01 0.10403156D+00 0.49261934D+05 0.49261934D+05 0.49261934D+05 0.11478639D+01  1  2  5  1  7  1       -2 -.177698763349D-04 0.100000000000D+01
0.634960322262D-06 0.000000000000D+00 0.467492188011D-06 0.386484240711D-06 0.000000000000D+00  7 -2 2 23 -11 11 23 21 2 0.17171760D-01 0.10403156D+00 0.49261934D+05 0.49261934D+05 0.49261934D+05 0.11478639D+01  1  2  6  1  7  1       -2 0.112865175020D-03 0.100000000000D+01
0.117518105300D-07 0.000000000000D+00 -.404058205863D-07 0.386484240711D-06 0.000000000000D+00  7 21 2 23 -11 11 23 2 2 0.32975744D-01 0.10403156D+00 0.49261934D+05 0.49261934D+05 0.49261934D+05 0.11478639D+01  1  2  5  3  7  1       -2 0.828250780646D-05 0.100000000000D+01
  </mgrwgt>
  </event>
  <event>
  8     66 0.28248871E-05 0.12270119E+04 0.75467711E-02 0.83650392E-01
       -2 -1    0    0    0  501 0.00000000E+00 0.00000000E+00 0.25937619E+04 0.25937619E+04 0.32000000E+00 0.0000E+00 0.9000E+01
        2 -1    0    0  501    0 0.00000000E+00 0.00000000E+00 -.85787577E+03 0.85787583E+03 0.32000000E+00 0.0000E+00 0.9000E+01
       25  2    1    2    0    0 -.14198022E+04 -.27090941E+03 0.12171326E+04 0.19132587E+04 0.29986156E+03 0.0000E+00 0.0000E+00
       23  2    1    2    0    0 0.14198022E+04 0.27090941E+03 0.51875351E+03 0.15383790E+04 0.90965645E+02 0.0000E+00 0.0000E+00
       23  1    3    3    0    0 -.11378132E+04 -.17446040E+03 0.10441943E+04 0.15568276E+04 0.91188000E+02 0.0000E+00 0.9000E+01
      -11  1    4    4    0    0 0.55161596E+02 0.47551669E+01 0.38426084E+02 0.67394192E+02 0.51099893E-03 0.0000E+00 0.9000E+01
       11  1    4    4    0    0 0.13646406E+04 0.26615425E+03 0.48032743E+03 0.14709849E+04 0.51099893E-03 0.0000E+00 0.9000E+01
       23  1    3    3    0    0 -.28198903E+03 -.96449019E+02 0.17293834E+03 0.35643112E+03 0.91188000E+02 0.0000E+00 0.9000E+01
#aMCatNLO 1  0  0  1  2 0.82468087D+02 0.00000000D+00  -5  7  0 0.00000000D+00 0.00000000D+00 0.00000000D+00 0.00000000D+00 0.00000000D+00
  <mgrwgt>
 0.5640510699D-03    9    2    0
 0.149168550324437D+04 0.000000000000000D+00 0.000000000000000D+00 0.149168550324437D+04
 0.149168550324437D+04 0.000000000000000D+00 0.000000000000000D+00 -.149168550324437D+04
 0.119361705983928D+04 -.113781315042205D+04 -.174460395206353D+03 0.302243675577288D+03
 0.556139456955375D+02 0.551615956877147D+02 0.475516686049676D+01 0.524382542998336D+01
 0.142238867940633D+04 0.136464058078339D+04 0.266154246980598D+03 -.300179208801457D+03
 0.311751321547578D+03 -.281989026049049D+03 -.964490186347416D+02 -.730829220581425D+01
 0.000000000000000D+00 0.000000000000000D+00 0.000000000000000D+00 0.000000000000000D+00
 0.157535370140039D+04 0.000000000000000D+00 0.000000000000000D+00 0.157535370140039D+04
 0.151271594109733D+04 0.000000000000000D+00 0.000000000000000D+00 -.151271594109733D+04
 0.120411346217111D+04 -.114338228298104D+04 -.207122413022618D+03 0.302243675577288D+03
 0.552493211444231D+02 0.549040970975745D+02 0.324498130650883D+01 0.524382542998336D+01
 0.140933906202809D+04 0.135806341666163D+04 0.227580295032073D+03 -.300179208801457D+03
 0.315808759046252D+03 -.283446639924116D+03 -.104997676769996D+03 -.730829220581425D+01
 0.103559038107837D+03 0.138614091459456D+02 0.812948134540315D+02 0.626377603030578D+02
0.856778790928D-02 0.000000000000D+00 0.000000000000D+00 0.192433062254D-04 0.000000000000D+00  7 -2 2 23 -11 11 23 21 0 0.39904030D+00 0.13198089D+00 0.21200840D+07 0.21200840D+07 0.21200840D+07 0.10268068D+01  1  2  2  1  7  1       -2 0.168357923396D-03 0.100000000000D+01
-.475649880740D-03 0.000000000000D+00 -.329025615220D-04 0.192433062254D-04 0.000000000000D+00  7 -2 2 23 -11 11 23 21 2 0.39904030D+00 0.13198089D+00 0.21200840D+07 0.21200840D+07 0.21200840D+07 0.10268068D+01  1  2  3  1  7  1       -2 -.985438849383D-05 0.100000000000D+01
0.544661236621D-03 0.000000000000D+00 0.000000000000D+00 0.192433062254D-04 0.000000000000D+00  7 -2 2 23 -11 11 23 21 2 0.39904030D+00 0.13198089D+00 0.21200840D+07 0.21200840D+07 0.21200840D+07 0.10268068D+01  1  2 15  1  7  1       -2 0.112841475222D-04 0.100000000000D+01
0.249248556302D-01 0.000000000000D+00 0.000000000000D+00 0.192433062254D-04 0.000000000000D+00  7 -2 2 23 -11 11 23 21 2 0.42413209D+00 0.13198089D+00 0.22436379D+07 0.22436379D+07 0.22436379D+07 0.10252716D+01  1  2 12  1  7  1       -2 0.325242556671D-03 0.100000000000D+01
-.250323757102D-01 0.000000000000D+00 0.000000000000D+00 0.192433062254D-04 0.000000000000D+00  7 -2 2 23 -11 11 23 21 2 0.39904030D+00 0.13198089D+00 0.21200840D+07 0.21200840D+07 0.21200840D+07 0.10268068D+01  1  2  4  1  7  1       -2 -.518614142798D-03 0.100000000000D+01
-.853395775723D-01 0.000000000000D+00 -.115876297631D-01 0.192433062254D-04 0.000000000000D+00  7 -2 2 23 -11 11 23 21 2 0.42331870D+00 0.13198089D+00 0.21200840D+07 0.21200840D+07 0.21200840D+07 0.10268068D+01  1  2  5  1  7  1       -2 -.114032101981D-02 0.100000000000D+01
0.858942971120D-01 0.000000000000D+00 0.115674477963D-01 0.192433062254D-04 0.000000000000D+00  7 -2 2 23 -11 11 23 21 2 0.39904030D+00 0.13198089D+00 0.21200840D+07 0.21200840D+07 0.21200840D+07 0.10268068D+01  1  2  6  1  7  1       -2 0.177953534190D-02 0.100000000000D+01
0.328166630913D-03 0.000000000000D+00 0.000000000000D+00 0.192433062254D-04 0.000000000000D+00  7 21 2 23 -11 11 23 2 2 0.42413209D+00 0.13198089D+00 0.22436379D+07 0.22436379D+07 0.22436379D+07 0.10252716D+01  1  2 12  3  7  1       -2 0.310852489865D-04 0.100000000000D+01
-.852701493325D-03 0.000000000000D+00 -.117691588278D-03 0.192433062254D-04 0.000000000000D+00  7 21 2 23 -11 11 23 2 2 0.42331870D+00 0.13198089D+00 0.21200840D+07 0.21200840D+07 0.21200840D+07 0.10268068D+01  1  2  5  3  7  1       -2 -.826645974808D-04 0.100000000000D+01
  </mgrwgt>
  </event>
  <event>
  9     66 0.28248871E-05 0.31946074E+03 0.75467711E-02 0.87883604E-01
       21 -1    0    0  502  501 0.00000000E+00 0.00000000E+00 0.15101752E+04 0.15101754E+04 0.75000000E+00 0.0000E+00 0.9000E+01
        2 -1    0    0  501    0 0.00000000E+00 0.00000000E+00 -.67677812E+03 0.67677820E+03 0.32000000E+00 0.0000E+00 0.9000E+01
       25  2    1    2    0    0 -.84375407E+03 0.39661761E+03 0.32436200E+03 0.10308009E+04 0.29683891E+03 0.0000E+00 0.0000E+00
       23  2    1    2    0    0 0.41946393E+02 -.17273270E+02 0.18403042E+03 0.21146976E+03 0.93778445E+02 0.0000E+00 0.0000E+00
       23  1    3    3    0    0 -.12019730E+03 0.59308369E+02 -.55322745E+01 0.16220583E+03 0.91188000E+02 0.0000E+00 0.9000E+01
      -13  1    4    4    0    0 0.73165074E+01 -.53703124E+01 -.10294685E+02 0.13724549E+02 0.10565837E+00 0.0000E+00 0.9000E+01
       13  1    4    4    0    0 0.34629886E+02 -.11902958E+02 0.19432510E+03 0.19774521E+03 0.10565837E+00 0.0000E+00 0.9000E+01
       23  1    3    3    0    0 -.72355677E+03 0.33730924E+03 0.32989427E+03 0.86859508E+03 0.91188000E+02 0.0000E+00 0.9000E+01
        2  1    1    2  502    0 0.80180768E+03 -.37934434E+03 0.32500464E+03 0.94468291E+03 0.32000000E+00 0.0000E+00 0.9000E+01
#aMCatNLO 2  0  0  1  2 0.88701617D+03 0.00000000D+00  -5  7  0 0.00000000D+00 0.00000000D+00 0.00000000D+00 0.00000000D+00 0.00000000D+00
  <mgrwgt>
 0.8064287322D-05    1    2    0
 0.352837025685071D+03 0.000000000000000D+00 0.000000000000000D+00 0.352837025685071D+03
 0.352837025685071D+03 0.000000000000000D+00 0.000000000000000D+00 -.352837025685071D+03
 0.121079549678435D+03 0.111746292841653D+02 -.284518502159015D+01 -.788164867834586D+02
 0.427772346992189D+02 0.345365888803762D+02 -.182484509219139D+02 -.174387463990515D+02
 0.253858954274618D+03 0.201789922797188D+03 -.909882668590568D+02 0.124283269255730D+03
 0.287958312717870D+03 -.247501140961730D+03 0.112081902802561D+03 -.280280360732197D+02
 0.000000000000000D+00 0.000000000000000D+00 -.000000000000000D+00 -.000000000000000D+00
 0.977773078364959D+03 0.000000000000000D+00 0.000000000000000D+00 0.977773078364959D+03
 0.104528727493264D+04 0.000000000000000D+00 0.000000000000000D+00 -.104528727493264D+04
 0.180255827227379D+03 -.120197298537075D+03 0.593083699061855D+02 -.788164867834586D+02
 0.196591157046304D+02 0.731647352949960D+01 -.537030440568710D+01 -.174387463990515D+02
 0.129565593757209D+03 0.346299213192579D+02 -.119029667809237D+02 0.124283269255730D+03
 0.803997979077270D+03 -.723556772473252D+03 0.337309242711053D+03 -.280280360732197D+02
 0.889581837531113D+03 0.801807676161569D+03 -.379344341430627D+03 -.675141965676835D+02
0.262711260405D-05 0.000000000000D+00 0.000000000000D+00 0.365166298574D-08 0.224897164521D-13  7 21 2 23 -13 13 23 2 2 0.23233466D+00 0.10411973D+00 0.90091536D+06 0.90091536D+06 0.90091536D+06 0.10508939D+01  1  2  1  3  7  1       -2 0.806428732169D-05 0.100000000000D+01
  </mgrwgt>
  </event>
  <event>
  8     66 0.28248871E-05 0.28479818E+03 0.75467711E-02 0.96273165E-01
       -2 -1    0    0    0  501 0.00000000E+00 0.00000000E+00 0.36653597E+02 0.36654994E+02 0.32000000E+00 0.0000E+00 0.9000E+01
        2 -1    0    0  501    0 0.00000000E+00 0.00000000E+00 -.24002170E+04 0.24002170E+04 0.32000000E+00 0.0000E+00 0.9000E+01
       25  2    1    2    0    0 0.15923076E+03 0.13008293E+03 -.16017112E+04 0.16424836E+04 0.29999624E+03 0.0000E+00 0.0000E+00
       23  2    1    2    0    0 -.15923076E+03 -.13008293E+03 -.76185217E+03 0.79438833E+03 0.91422632E+02 0.0000E+00 0.0000E+00
       23  1    3    3    0    0 0.20977154E+02 -.60310018E+02 -.49939510E+03 0.51165228E+03 0.91188000E+02 0.0000E+00 0.9000E+01
      -11  1    4    4    0    0 -.10989673E+03 -.82842718E+02 -.33599080E+03 0.36308405E+03 0.51099893E-03 0.0000E+00 0.9000E+01
       11  1    4    4    0    0 -.49334025E+02 -.47240215E+02 -.42586137E+03 0.43130429E+03 0.51099893E-03 0.0000E+00 0.9000E+01
       23  1    3    3    0    0 0.13825361E+03 0.19039295E+03 -.11023161E+04 0.11308314E+04 0.91188000E+02 0.0000E+00 0.9000E+01
#aMCatNLO 1  0  0  1  1 0.25363243D+03 0.00000000D+00  -5  7  0 0.00000000D+00 0.00000000D+00 0.00000000D+00 0.00000000D+00 0.00000000D+00
  <mgrwgt>
 0.3042894135D-03    3    2    0
 0.296611382442817D+03 0.000000000000000D+00 0.000000000000000D+00 0.296611382442817D+03
 0.296611382442817D+03 0.000000000000000D+00 0.000000000000000D+00 -.296611382442817D+03
 0.112064380752988D+03 0.209771538381021D+02 -.603100179545969D+02 -.128776877085726D+02
 0.152815773031886D+03 -.109896734937305D+03 -.828427176128880D+02 0.664262920534017D+02
 0.749853292890913D+02 -.493340254476997D+02 -.472402149267973D+02 -.309405176974979D+02
 0.253357281811669D+03 0.138253606546903D+03 0.190392950494282D+03 -.226080866473312D+02
 0.000000000000000D+00 -.000000000000000D+00 -.000000000000000D+00 -.000000000000000D+00
 0.442724002837267D+03 0.000000000000000D+00 0.000000000000000D+00 0.442724002837267D+03
 0.456448167993277D+03 0.000000000000000D+00 0.000000000000000D+00 -.456448167993277D+03
 0.126376206248748D+03 0.691143944006227D+02 -.520870406890407D+02 -.128776877085726D+02
 0.113917651481339D+03 -.560476349023161D+02 -.736440198856415D+02 0.664262920534017D+02
 0.573589233415557D+02 -.226158932452233D+02 -.426761270997492D+02 -.309405176974979D+02
 0.347515923267681D+03 0.259560043442509D+03 0.211114954105242D+03 -.226080866473312D+02
 0.254003466491219D+03 -.250010909695592D+03 -.427077664308103D+02 -.137241651560100D+02
0.384597921076D-05 0.000000000000D+00 0.000000000000D+00 0.581664856262D-06 0.000000000000D+00  7 -2 2 23 -11 11 23 21 0 0.56391240D-02 0.36926426D+00 0.81110001D+05 0.81110001D+05 0.81110001D+05 0.11292608D+01  1  2  2  1  7  1       -2 0.300931642049D-03 0.100000000000D+01
-.213236403559D-06 0.000000000000D+00 -.147695728389D-07 0.581664856262D-06 0.000000000000D+00  7 -2 2 23 -11 11 23 21 2 0.56391240D-02 0.36926426D+00 0.81110001D+05 0.81110001D+05 0.81110001D+05 0.11292608D+01  1  2  3  1  7  1       -2 -.212770185958D-04 0.100000000000D+01
0.246887692896D-06 0.000000000000D+00 0.000000000000D+00 0.581664856262D-06 0.000000000000D+00  7 -2 2 23 -11 11 23 21 2 0.56391240D-02 0.36926426D+00 0.81110001D+05 0.81110001D+05 0.81110001D+05 0.11292608D+01  1  2 15  1  7  1       -2 0.246347900507D-04 0.100000000000D+01
  </mgrwgt>
  </event>
  <event>
  8     66 0.28248871E-05 0.34099801E+03 0.75467711E-02 0.89120388E-01
       -2 -1    0    0    0  501 0.00000000E+00 0.00000000E+00 0.39848314E+03 0.39848327E+03 0.32000000E+00 0.0000E+00 0.9000E+01
        2 -1    0    0  501    0 0.00000000E+00 0.00000000E+00 -.40665795E+03 0.40665807E+03 0.32000000E+00 0.0000E+00 0.9000E+01
       25  2    1    2    0    0 0.27243482E+03 -.28762873E+02 -.20520528E+03 0.45629763E+03 0.30174540E+03 0.0000E+00 0.0000E+00
       23  2    1    2    0    0 -.27243482E+03 0.28762873E+02 0.19703048E+03 0.34884371E+03 0.88447109E+02 0.0000E+00 0.0000E+00
       23  1    3    3    0    0 0.12808487E+03 0.10566985E+03 -.81334714E+02 0.20616120E+03 0.91188000E+02 0.0000E+00 0.9000E+01
      -13  1    4    4    0    0 -.19110625E+03 0.78317252E+01 0.18103216E+03 0.26335449E+03 0.10565837E+00 0.0000E+00 0.9000E+01
       13  1    4    4    0    0 -.81328569E+02 0.20931148E+02 0.15998320E+02 0.85489219E+02 0.10565837E+00 0.0000E+00 0.9000E+01
       23  1    3    3    0    0 0.14434995E+03 -.13443273E+03 -.12387057E+03 0.25013643E+03 0.91188000E+02 0.0000E+00 0.9000E+01
#aMCatNLO 1  0  0  1  1 0.70425534D+03 0.00000000D+00  -5  7  0 0.00000000D+00 0.00000000D+00 0.00000000D+00 0.00000000D+00 0.00000000D+00
  <mgrwgt>
 0.1518421165D-03    5    2    0
 0.402549919810529D+03 0.000000000000000D+00 0.000000000000000D+00 0.402549919810529D+03
 0.402549919810529D+03 0.000000000000000D+00 0.000000000000000D+00 -.402549919810529D+03
 0.205345968118740D+03 0.128084867482662D+03 0.105669854629637D+03 -.792455918213929D+02
 0.265206484116016D+03 -.191106409418315D+03 0.783170659667840D+01 0.183715769242059D+03
 0.856558123904330D+02 -.813284122884839D+02 0.209311660877054D+02 0.168669451030206D+02
 0.248891574995870D+03 0.144349954224137D+03 -.134432727314021D+03 -.121337122523687D+03
 0.000000000000000D+00 0.000000000000000D+00 -.000000000000000D+00 0.000000000000000D+00
 0.197556694730327D+04 0.000000000000000D+00 0.000000000000000D+00 0.197556694730327D+04
 0.620890056311589D+03 0.000000000000000D+00 0.000000000000000D+00 -.620890056311589D+03
 0.181860734275467D+03 -.143460625558820D+02 0.135175448929278D+03 -.792455918213929D+02
 0.517436201357103D+03 -.478995345458251D+03 0.674699758114541D+02 0.183715769242059D+03
 0.187178684445336D+03 -.181688429020204D+03 0.417214673010020D+02 0.168669451030206D+02
 0.183179151146559D+03 -.145838529294446D+02 -.101508443009328D+03 -.121337122523687D+03
 0.152680223239039D+04 0.689613689963781D+03 -.142858449032406D+03 0.135467689099168D+04
0.623347617255D-05 0.000000000000D+00 0.000000000000D+00 0.200526209729D-07 0.000000000000D+00  7 -2 2 23 -13 13 23 21 0 0.61305118D-01 0.62562780D-01 0.11627964D+06 0.11627964D+06 0.11627964D+06 0.11163860D+01  1  2  2  1  7  1       -2 0.150433154774D-03 0.100000000000D+01
-.334709667599D-06 0.000000000000D+00 -.239381898146D-07 0.200526209729D-07 0.000000000000D+00  7 -2 2 23 -13 13 23 21 2 0.61305118D-01 0.62562780D-01 0.11627964D+06 0.11627964D+06 0.11627964D+06 0.11163860D+01  1  2  3  1  7  1       -2 -.100672370291D-04 0.100000000000D+01
0.388795946243D-06 0.000000000000D+00 0.000000000000D+00 0.200526209729D-07 0.000000000000D+00  7 -2 2 23 -13 13 23 21 2 0.61305118D-01 0.62562780D-01 0.11627964D+06 0.11627964D+06 0.11627964D+06 0.11163860D+01  1  2 15  1  7  1       -2 0.116940182064D-04 0.100000000000D+01
-.108875738110D-06 0.000000000000D+00 -.274542662911D-05 0.200526209729D-07 0.000000000000D+00  7 -2 2 23 -13 13 23 21 2 0.36001502D+00 0.62562780D-01 0.11627964D+06 0.11627964D+06 0.11627964D+06 0.11163860D+01  1  2  5  1  7  1       -2 -.157208587850D-07 0.100000000000D+01
-.187490368878D-06 0.000000000000D+00 -.595568868924D-06 0.200526209729D-07 0.000000000000D+00  7 21 2 23 -13 13 23 2 2 0.36001502D+00 0.62562780D-01 0.11627964D+06 0.11627964D+06 0.11627964D+06 0.11163860D+01  1  2  5  3  7  1       -2 -.202098608781D-06 0.100000000000D+01
  </mgrwgt>
  </event>
  <event>
  8     66 0.28248871E-05 0.53253775E+03 0.75467711E-02 0.86599552E-01
       -2 -1    0    0    0  501 0.00000000E+00 0.00000000E+00 0.42655527E+03 0.42655539E+03 0.32000000E+00 0.0000E+00 0.9000E+01
        2 -1    0    0  501    0 0.00000000E+00 0.00000000E+00 -.94330567E+03 0.94330573E+03 0.32000000E+00 0.0000E+00 0.9000E+01
       25  2    1    2    0    0 0.48756764E+03 0.45441537E+02 -.63595414E+03 0.85754443E+03 0.30192324E+03 0.0000E+00 0.0000E+00
       23  2    1    2    0    0 -.48756764E+03 -.45441537E+02 0.11920374E+03 0.51231668E+03 0.92041926E+02 0.0000E+00 0.0000E+00
       23  1    3    3    0    0 0.30634797E+03 0.14300507E+03 -.38550300E+03 0.52079491E+03 0.91188000E+02 0.0000E+00 0.9000E+01
      -11  1    4    4    0    0 -.46605389E+03 -.45674536E+02 0.13293957E+03 0.48679084E+03 0.51099893E-03 0.0000E+00 0.9000E+01
       11  1    4    4    0    0 -.21513747E+02 0.23299906E+00 -.13735830E+02 0.25525842E+02 0.51099893E-03 0.0000E+00 0.9000E+01
       23  1    3    3    0    0 0.18121967E+03 -.97563532E+02 -.25045115E+03 0.33674952E+03 0.91188000E+02 0.0000E+00 0.9000E+01
#aMCatNLO 1  0  0  2  2 0.84249828D+03 0.00000000D+00  -5  7  0 0.00000000D+00 0.00000000D+00 0.00000000D+00 0.00000000D+00 0.00000000D+00
  <mgrwgt>
 0.4155620869D-03    3    2    0
 0.634328090585848D+03 0.000000000000000D+00 0.000000000000000D+00 0.634328090585848D+03
 0.634328090585848D+03 0.000000000000000D+00 0.000000000000000D+00 -.634328090585848D+03
 0.405316965536490D+03 0.306347972273308D+03 0.143005068534876D+03 -.204125112284296D+03
 0.579772862299652D+03 -.466053892703270D+03 -.456745360283061D+02 0.341824776331177D+03
 0.219672309737655D+02 -.215137472097477D+02 0.232999065562664D+00 -.443436907409369D+01
 0.261599122361787D+03 0.181219667639710D+03 -.975635315721323D+02 -.133265294972787D+03
 0.000000000000000D+00 -.000000000000000D+00 -.000000000000000D+00 0.000000000000000D+00
 0.446710016099669D+04 0.000000000000000D+00 0.000000000000000D+00 0.446710016099669D+04
 0.809347776332972D+03 0.000000000000000D+00 0.000000000000000D+00 -.809347776332972D+03
 0.678326014307461D+03 0.487543519889677D+03 0.415265198506633D+03 -.204125112284296D+03
 0.499244857554243D+03 -.285631733123694D+03 0.225423519432317D+03 0.341824776331177D+03
 0.185831595908528D+02 -.147333311861310D+02 0.104210912794008D+02 -.443436907409369D+01
 0.326768114728602D+03 0.279600338863617D+03 0.502609303778921D+02 -.133265294972787D+03
 0.375352579114850D+04 -.466778794443470D+03 -.701370739596243D+03 0.365775238466372D+04
0.549754077808D-04 0.000000000000D+00 0.000000000000D+00 0.241485436301D-06 0.000000000000D+00  7 -2 2 23 -11 11 23 21 0 0.65623901D-01 0.14512396D+00 0.28359645D+06 0.28359645D+06 0.28359645D+06 0.10863632D+01  1  2  2  2  7  2        2 0.411401103571D-03 0.100000000000D+01
-.294057859739D-05 0.000000000000D+00 -.211120041235D-06 0.241485436301D-06 0.000000000000D+00  7 -2 2 23 -11 11 23 21 2 0.65623901D-01 0.14512396D+00 0.28359645D+06 0.28359645D+06 0.28359645D+06 0.10863632D+01  1  2  3  2  7  2        2 -.259704756842D-04 0.100000000000D+01
0.341171738714D-05 0.000000000000D+00 0.000000000000D+00 0.241485436301D-06 0.000000000000D+00  7 -2 2 23 -11 11 23 21 2 0.65623901D-01 0.14512396D+00 0.28359645D+06 0.28359645D+06 0.28359645D+06 0.10863632D+01  1  2 15  2  7  2        2 0.301314590002D-04 0.100000000000D+01
  </mgrwgt>
  </event>
  <event>
  8     66 0.28248871E-05 0.30289480E+03 0.75467711E-02 0.79430869E-01
       -2 -1    0    0    0  501 0.00000000E+00 0.00000000E+00 0.25874304E+03 0.25874324E+03 0.32000000E+00 0.0000E+00 0.9000E+01
        2 -1    0    0  501    0 0.00000000E+00 0.00000000E+00 -.14267822E+04 0.14267823E+04 0.32000000E+00 0.0000E+00 0.9000E+01
       25  2    1    2    0    0 -.90833040E+02 -.23345337E+03 -.13222673E+04 0.13777604E+04 0.29509600E+03 0.0000E+00 0.0000E+00
       23  2    1    2    0    0 0.90833040E+02 0.23345337E+03 0.15422815E+03 0.30776512E+03 0.90454023E+02 0.0000E+00 0.0000E+00
       23  1    3    3    0    0 -.12993103E+03 -.18742349E+03 -.61744487E+03 0.66450211E+03 0.91188000E+02 0.0000E+00 0.9000E+01
      -13  1    4    4    0    0 0.41993305E+02 0.91282357E+02 0.12661802E+02 0.10127309E+03 0.10565837E+00 0.0000E+00 0.9000E+01
       13  1    4    4    0    0 0.48839734E+02 0.14217101E+03 0.14156635E+03 0.20649203E+03 0.10565837E+00 0.0000E+00 0.9000E+01
       23  1    3    3    0    0 0.39097988E+02 -.46029876E+02 -.70482248E+03 0.71325828E+03 0.91188000E+02 0.0000E+00 0.9000E+01
#aMCatNLO 1  0  0  1  2 0.24421546D+04 0.00000000D+00  -5  7  0 0.00000000D+00 0.00000000D+00 0.00000000D+00 0.00000000D+00 0.00000000D+00
  <mgrwgt>
 0.3322339165D-03    5    2    0
 0.607593758148238D+03 0.000000000000000D+00 0.000000000000000D+00 0.607593758148238D+03
 0.607593758148238D+03 0.000000000000000D+00 0.000000000000000D+00 -.607593758148238D+03
 0.328208979078730D+03 -.129931027657354D+03 -.187423494133454D+03 -.217706785614535D+03
 0.152640977966007D+03 0.419932960395660D+02 0.912822877524416D+02 0.114905940598530D+03
 0.422488769546643D+03 0.488397434919434D+02 0.142171082784098D+03 0.394840250061559D+03
 0.311848789705096D+03 0.390979881258447D+02 -.460298764030857D+02 -.292039405045554D+03
 0.000000000000000D+00 0.000000000000000D+00 -.000000000000000D+00 0.000000000000000D+00
 0.317479800964087D+04 0.000000000000000D+00 0.000000000000000D+00 0.317479800964087D+04
 0.218725243313934D+04 0.000000000000000D+00 0.000000000000000D+00 -.218725243313934D+04
 0.497856060477969D+03 -.336842623783504D+03 0.280510619960590D+03 -.217706785614535D+03
 0.476288954221272D+03 -.115540178794590D+03 0.447546935876533D+03 0.114905940598530D+03
 0.116999808200635D+04 -.350044097956620D+03 0.104425371357520D+04 0.394840250061559D+03
 0.583639837936750D+03 -.185202729596845D+03 0.461230033641948D+03 -.292039405045554D+03
 0.263426750813787D+04 0.987629630131558D+03 -.223354130305427D+04 0.987545576501529D+03
0.288161381573D-04 0.000000000000D+00 0.000000000000D+00 0.247615743168D-07 0.000000000000D+00  7 -2 2 23 -13 13 23 21 0 0.39806640D-01 0.21950498D+00 0.91745259D+05 0.91745259D+05 0.91745259D+05 0.11248055D+01  1  2  2  1  7  1       -2 0.317268771494D-03 0.100000000000D+01
-.657673994639D-06 0.000000000000D+00 -.110661557987D-06 0.247615743168D-07 0.000000000000D+00  7 -2 2 23 -13 13 23 21 2 0.39806640D-01 0.21950498D+00 0.91745259D+05 0.91745259D+05 0.91745259D+05 0.11248055D+01  1  2  3  1  7  1       -2 -.916129920234D-05 0.100000000000D+01
0.172762260780D-05 0.000000000000D+00 0.000000000000D+00 0.247615743168D-07 0.000000000000D+00  7 -2 2 23 -13 13 23 21 2 0.39806640D-01 0.21950498D+00 0.91745259D+05 0.91745259D+05 0.91745259D+05 0.11248055D+01  1  2 15  1  7  1       -2 0.240655214404D-04 0.100000000000D+01
0.139071989994D-03 0.000000000000D+00 -.316452759668D-04 0.247615743168D-07 0.000000000000D+00  7 -2 2 23 -13 13 23 21 2 0.66177972D+00 0.21950498D+00 0.91745259D+05 0.91745259D+05 0.91745259D+05 0.11248055D+01  1  2  5  1  7  1       -2 0.262465236627D-07 0.100000000000D+01
0.358978759138D-04 0.000000000000D+00 -.985646825408D-05 0.247615743168D-07 0.000000000000D+00  7 21 2 23 -13 13 23 2 2 0.66177972D+00 0.21950498D+00 0.91745259D+05 0.91745259D+05 0.91745259D+05 0.11248055D+01  1  2  5  3  7  1       -2 0.346762390920D-07 0.100000000000D+01
  </mgrwgt>
  </event>
  <event>
  8     66 0.28248871E-05 0.31636218E+03 0.75467711E-02 0.87264756E-01
       -2 -1    0    0    0  501 0.00000000E+00 0.00000000E+00 0.83681485E+02 0.83682097E+02 0.32000000E+00 0.0000E+00 0.9000E+01
        2 -1    0    0  501    0 0.00000000E+00 0.00000000E+00 -.14426161E+04 0.14426162E+04 0.32000000E+00 0.0000E+00 0.9000E+01
       25  2    1    2    0    0 -.12263682E+03 -.23698719E+03 -.67165532E+03 0.78330397E+03 0.30206211E+03 0.0000E+00 0.0000E+00
       23  2    1    2    0    0 0.12263682E+03 0.23698719E+03 -.68727931E+03 0.74299428E+03 0.92113686E+02 0.0000E+00 0.0000E+00
       23  1    3    3    0    0 -.11950914E+03 -.21384353E+03 -.29090920E+03 0.39109449E+03 0.91188000E+02 0.0000E+00 0.9000E+01
      -11  1    4    4    0    0 0.57935071E+02 0.41451318E+02 -.24430958E+03 0.25448351E+03 0.51099893E-03 0.0000E+00 0.9000E+01
       11  1    4    4    0    0 0.64701753E+02 0.19553587E+03 -.44296973E+03 0.48851077E+03 0.51099893E-03 0.0000E+00 0.9000E+01
       23  1    3    3    0    0 -.31276824E+01 -.23143660E+02 -.38074612E+03 0.39220948E+03 0.91188000E+02 0.0000E+00 0.9000E+01
#aMCatNLO 1  0  0  2  1 0.93804155D+03 0.00000000D+00  -5  7  0 0.00000000D+00 0.00000000D+00 0.00000000D+00 0.00000000D+00 0.00000000D+00
  <mgrwgt>
 0.1292582740D-03    5    2    0
 0.347448920935230D+03 0.000000000000000D+00 0.000000000000000D+00 0.347448920935230D+03
 0.347448920935230D+03 0.000000000000000D+00 0.000000000000000D+00 -.347448920935230D+03
 0.290114954490237D+03 -.119509142339709D+03 -.213843527792516D+03 0.125856847224737D+03
 0.811874469297750D+02 0.579350713241214D+02 0.414513180314994D+02 -.389450546680254D+02
 0.206715607808407D+03 0.647017533950383D+02 0.195535869707982D+03 -.176280820496650D+02
 0.116879832642042D+03 -.312768237945065D+01 -.231436599469656D+02 -.692837105070462D+02
 0.000000000000000D+00 -.000000000000000D+00 -.000000000000000D+00 -.000000000000000D+00
 0.867403512197075D+03 0.000000000000000D+00 0.000000000000000D+00 0.867403512197075D+03
 0.135907443243704D+04 0.000000000000000D+00 0.000000000000000D+00 -.135907443243704D+04
 0.156899667205278D+03 -.273874861344974D+01 -.213262159749141D+02 0.125856847224737D+03
 0.224791314894830D+03 0.137863688322403D+03 0.173228235028803D+03 -.389450546680254D+02
 0.618250911544248D+03 0.280201785385955D+03 0.550827014420196D+03 -.176280820496650D+02
 0.167450482124951D+03 0.711458675051619D+02 0.993098465168103D+02 -.692837105070462D+02
 0.105908556886481D+04 -.486472592600070D+03 -.802038879990895D+03 -.491670920239969D+03
0.176065426566D-05 0.000000000000D+00 0.000000000000D+00 0.181338963714D-07 0.000000000000D+00  7 -2 2 23 -11 11 23 21 0 0.12874124D-01 0.22194099D+00 0.10008503D+06 0.10008503D+06 0.10008503D+06 0.11216918D+01  1  2  2  2  7  2        2 0.127971830515D-03 0.100000000000D+01
-.967693092320D-07 0.000000000000D+00 -.676137597107D-08 0.181338963714D-07 0.000000000000D+00  7 -2 2 23 -11 11 23 21 2 0.12874124D-01 0.22194099D+00 0.10008503D+06 0.10008503D+06 0.10008503D+06 0.11216918D+01  1  2  3  2  7  2        2 -.884962759630D-05 0.100000000000D+01
0.110819956201D-06 0.000000000000D+00 0.000000000000D+00 0.181338963714D-07 0.000000000000D+00  7 -2 2 23 -11 11 23 21 2 0.12874124D-01 0.22194099D+00 0.10008503D+06 0.10008503D+06 0.10008503D+06 0.11216918D+01  1  2 15  2  7  2        2 0.101345700450D-04 0.100000000000D+01
0.515416121956D-06 0.000000000000D+00 -.561508357437D-06 0.181338963714D-07 0.000000000000D+00  7 -2 2 23 -11 11 23 21 2 0.12874124D-01 0.91801152D+00 0.10008503D+06 0.10008503D+06 0.10008503D+06 0.11216918D+01  1  2  5  2  7  2        2 0.150041929230D-08 0.100000000000D+01
0.911050039214D-07 0.000000000000D+00 -.955393080474D-07 0.181338963714D-07 0.000000000000D+00  7 -2 21 23 -11 11 23 -2 2 0.12874124D-01 0.91801152D+00 0.10008503D+06 0.10008503D+06 0.10008503D+06 0.11216918D+01  1  2  5  4  7  2        2 0.601276800743D-12 0.100000000000D+01
  </mgrwgt>
  </event>
  <event>
  8     66 0.28248871E-05 0.25670497E+03 0.75467711E-02 0.93221985E-01
       -2 -1    0    0    0  501 0.00000000E+00 0.00000000E+00 0.25287276E+03 0.25287296E+03 0.32000000E+00 0.0000E+00 0.9000E+01
        2 -1    0    0  501    0 0.00000000E+00 0.00000000E+00 -.98074927E+03 0.98074933E+03 0.32000000E+00 0.0000E+00 0.9000E+01
       25  2    1    2    0    0 0.12176677E+03 -.42992360E+03 -.35685333E+03 0.64581776E+03 0.30012469E+03 0.0000E+00 0.0000E+00
       23  2    1    2    0    0 -.12176677E+03 0.42992360E+03 -.37102318E+03 0.58780453E+03 0.90523534E+02 0.0000E+00 0.0000E+00
       23  1    3    3    0    0 0.87135921E+02 -.32055046E+03 -.36130306E+03 0.49919978E+03 0.91188000E+02 0.0000E+00 0.9000E+01
      -13  1    4    4    0    0 -.11184897E+03 0.32896014E+03 -.24085491E+03 0.42277188E+03 0.10565837E+00 0.0000E+00 0.9000E+01
       13  1    4    4    0    0 -.99177998E+01 0.10096347E+03 -.13016828E+03 0.16503265E+03 0.10565837E+00 0.0000E+00 0.9000E+01
       23  1    3    3    0    0 0.34630848E+02 -.10937315E+03 0.44497335E+01 0.14661798E+03 0.91188000E+02 0.0000E+00 0.9000E+01
#aMCatNLO 1  0  0  2  1 0.18277042D+03 0.00000000D+00  -5  7  0 0.00000000D+00 0.00000000D+00 0.00000000D+00 0.00000000D+00 0.00000000D+00
  <mgrwgt>
 0.2899486133D-03    9    2    0
 0.498000936619156D+03 0.000000000000000D+00 0.000000000000000D+00 0.498000936619156D+03
 0.498000936619156D+03 0.000000000000000D+00 0.000000000000000D+00 -.498000936619156D+03
 0.354256322084799D+03 0.871359206691266D+02 -.320550458499352D+03 -.826863064723997D+02
 0.347618325484795D+03 -.111849107704903D+03 0.328960445643878D+03 0.106443656575075D+02
 0.109278111046080D+03 -.991766094477728D+01 0.100963158243941D+03 -.406175606430601D+02
 0.184849114622639D+03 0.346308479805537D+02 -.109373145388468D+03 0.112659501457952D+03
 0.000000000000000D+00 0.000000000000000D+00 -.000000000000000D+00 -.000000000000000D+00
 0.545814488553930D+03 0.000000000000000D+00 0.000000000000000D+00 0.545814488553930D+03
 0.717750184248349D+03 0.000000000000000D+00 0.000000000000000D+00 -.717750184248349D+03
 0.304692387190254D+03 0.488495110998443D+02 -.274406449368367D+03 -.826863064723997D+02
 0.412985234689688D+03 -.156041893903289D+03 0.382223009378715D+03 0.106443656575075D+02
 0.126523166595896D+03 -.236182482070134D+02 0.117475545559457D+03 -.406175606430601D+02
 0.168431799897685D+03 0.141044282517461D+02 -.846340457954765D+02 0.112659501457952D+03
 0.250932084428755D+03 0.116706202758712D+03 -.140658059774328D+03 -.171935695694419D+03
0.121893386361D-04 0.000000000000D+00 0.000000000000D+00 0.121265111644D-05 0.000000000000D+00  7 -2 2 23 -13 13 23 21 0 0.38903521D-01 0.15088452D+00 0.22086532D+06 0.22086532D+06 0.22086532D+06 0.10945306D+01  1  2  2  2  7  2        2 0.246087560844D-03 0.100000000000D+01
-.674420687753D-06 0.000000000000D+00 -.468102698891D-07 0.121265111644D-05 0.000000000000D+00  7 -2 2 23 -13 13 23 21 2 0.38903521D-01 0.15088452D+00 0.22086532D+06 0.22086532D+06 0.22086532D+06 0.10945306D+01  1  2  3  2  7  2        2 -.163115882951D-04 0.100000000000D+01
0.748308051604D-06 0.000000000000D+00 0.000000000000D+00 0.121265111644D-05 0.000000000000D+00  7 -2 2 23 -13 13 23 21 2 0.38903521D-01 0.15088452D+00 0.22086532D+06 0.22086532D+06 0.22086532D+06 0.10945306D+01  1  2 15  2  7  2        2 0.180986335048D-04 0.100000000000D+01
0.103439214734D-04 0.000000000000D+00 0.000000000000D+00 0.121265111644D-05 0.000000000000D+00  7 -2 2 23 -13 13 23 21 2 0.38903521D-01 0.22219448D+00 0.32143868D+06 0.32143868D+06 0.32143868D+06 0.10823410D+01  1  2 12  2  7  2        2 0.130097703016D-03 0.100000000000D+01
-.123119808133D-04 0.000000000000D+00 0.000000000000D+00 0.121265111644D-05 0.000000000000D+00  7 -2 2 23 -13 13 23 21 2 0.38903521D-01 0.15088452D+00 0.22086532D+06 0.22086532D+06 0.22086532D+06 0.10945306D+01  1  2  4  2  7  2        2 -.297778472354D-03 0.100000000000D+01
-.162254744629D-04 0.000000000000D+00 -.474496416418D-05 0.121265111644D-05 0.000000000000D+00  7 -2 2 23 -13 13 23 21 2 0.38903521D-01 0.22724671D+00 0.22086532D+06 0.22086532D+06 0.22086532D+06 0.10945306D+01  1  2  5  2  7  2        2 -.202956881714D-03 0.100000000000D+01
0.170875036126D-04 0.000000000000D+00 0.437310830866D-05 0.121265111644D-05 0.000000000000D+00  7 -2 2 23 -13 13 23 21 2 0.38903521D-01 0.15088452D+00 0.22086532D+06 0.22086532D+06 0.22086532D+06 0.10945306D+01  1  2  6  2  7  2        2 0.413279617578D-03 0.100000000000D+01
0.480643261511D-06 0.000000000000D+00 0.000000000000D+00 0.121265111644D-05 0.000000000000D+00  7 -2 21 23 -13 13 23 -2 2 0.38903521D-01 0.22219448D+00 0.32143868D+06 0.32143868D+06 0.32143868D+06 0.10823410D+01  1  2 12  4  7  2        2 0.225805999286D-05 0.100000000000D+01
-.618648097431D-06 0.000000000000D+00 -.229802805307D-06 0.121265111644D-05 0.000000000000D+00  7 -2 21 23 -13 13 23 -2 2 0.38903521D-01 0.22724671D+00 0.22086532D+06 0.22086532D+06 0.22086532D+06 0.10945306D+01  1  2  5  4  7  2        2 -.282601923355D-05 0.100000000000D+01
  </mgrwgt>
  </event>
  <event>
  8     66 0.28248871E-05 0.34851978E+03 0.75467711E-02 0.85715584E-01
       -2 -1    0    0    0  501 0.00000000E+00 0.00000000E+00 0.11657687E+03 0.11657730E+03 0.32000000E+00 0.0000E+00 0.9000E+01
        2 -1    0    0  501    0 0.00000000E+00 0.00000000E+00 -.12271938E+04 0.12271939E+04 0.32000000E+00 0.0000E+00 0.9000E+01
       25  2    1    2    0    0 -.70294982E+02 0.27744020E+03 -.85100977E+03 0.94695764E+03 0.30099284E+03 0.0000E+00 0.0000E+00
       23  2    1    2    0    0 0.70294982E+02 -.27744020E+03 -.25960719E+03 0.39681353E+03 0.90280885E+02 0.0000E+00 0.0000E+00
       23  1    3    3    0    0 -.14394005E+03 0.21559365E+03 -.48146576E+03 0.55436801E+03 0.91188000E+02 0.0000E+00 0.9000E+01
      -13  1    4    4    0    0 0.12427757E+02 -.14047686E+03 -.17835905E+03 0.22737669E+03 0.10565837E+00 0.0000E+00 0.9000E+01
       13  1    4    4    0    0 0.57867226E+02 -.13696335E+03 -.81248141E+02 0.16943685E+03 0.10565837E+00 0.0000E+00 0.9000E+01
       23  1    3    3    0    0 0.73645064E+02 0.61846556E+02 -.36954401E+03 0.39258963E+03 0.91188000E+02 0.0000E+00 0.9000E+01
#aMCatNLO 1  0  0  2  1 0.11145834D+04 0.00000000D+00  -5  7  0 0.00000000D+00 0.00000000D+00 0.00000000D+00 0.00000000D+00 0.00000000D+00
  <mgrwgt>
 0.2657261550D-03    3    2    0
 0.378236345372994D+03 0.000000000000000D+00 0.000000000000000D+00 0.378236345372994D+03
 0.378236345372994D+03 0.000000000000000D+00 0.000000000000000D+00 -.378236345372994D+03
 0.277894641124818D+03 -.143940046239251D+03 0.215593645605915D+03 -.413620996189090D+02
 0.142045591760497D+03 0.124276944332019D+02 -.140476860426521D+03 0.169927700617716D+02
 0.181697014640029D+03 0.578672880611671D+02 -.136963341146312D+03 0.104432874534715D+03
 0.154835443220645D+03 0.736450637448824D+02 0.618465559669188D+02 -.800635449775778D+02
 0.000000000000000D+00 0.000000000000000D+00 -.000000000000000D+00 0.000000000000000D+00
 0.345058902640371D+04 0.000000000000000D+00 0.000000000000000D+00 0.345058902640371D+04
 0.785361057460280D+03 0.000000000000000D+00 0.000000000000000D+00 -.785361057460280D+03
 0.871200344539403D+03 -.563408477632813D+03 0.656913124414611D+03 -.413620996189090D+02
 0.903032053861846D+02 -.723894762021410D+02 -.512413739455421D+02 0.169927700617716D+02
 0.118538244494287D+03 -.517313219487035D+02 -.216554947679207D+02 0.104432874534715D+03
 0.267009480082340D+03 -.803462341694115D+02 0.223859604507510D+03 -.800635449775778D+02
 0.288889880936177D+04 0.767875509953068D+03 -.807875860208658D+03 0.266522796894343D+04
0.468148975659D-05 0.000000000000D+00 0.000000000000D+00 0.106901500814D-06 0.000000000000D+00  7 -2 2 23 -13 13 23 21 0 0.17934939D-01 0.18879909D+00 0.12146604D+06 0.12146604D+06 0.12146604D+06 0.11148567D+01  1  2  2  2  7  2        2 0.262299439152D-03 0.100000000000D+01
-.257965586488D-06 0.000000000000D+00 -.179781533299D-07 0.106901500814D-06 0.000000000000D+00  7 -2 2 23 -13 13 23 21 2 0.17934939D-01 0.18879909D+00 0.12146604D+06 0.12146604D+06 0.12146604D+06 0.11148567D+01  1  2  3  2  7  2        2 -.179644192530D-04 0.100000000000D+01
0.307172563552D-06 0.000000000000D+00 0.000000000000D+00 0.106901500814D-06 0.000000000000D+00  7 -2 2 23 -13 13 23 21 2 0.17934939D-01 0.18879909D+00 0.12146604D+06 0.12146604D+06 0.12146604D+06 0.11148567D+01  1  2 15  2  7  2        2 0.213911351114D-04 0.100000000000D+01
  </mgrwgt>
  </event>
  <event>
  8     66 0.28248871E-05 0.52141109E+03 0.75467711E-02 0.87614158E-01
       -2 -1    0    0    0  501 0.00000000E+00 0.00000000E+00 0.11597440E+04 0.11597441E+04 0.32000000E+00 0.0000E+00 0.9000E+01
        2 -1    0    0  501    0 0.00000000E+00 0.00000000E+00 -.77341895E+03 0.77341902E+03 0.32000000E+00 0.0000E+00 0.9000E+01
       25  2    1    2    0    0 0.66042711E+03 0.63842736E+03 0.12958978E+03 0.97496094E+03 0.30000310E+03 0.0000E+00 0.0000E+00
       23  2    1    2    0    0 -.66042711E+03 -.63842736E+03 0.25673532E+03 0.95820216E+03 0.92113473E+02 0.0000E+00 0.0000E+00
       23  1    3    3    0    0 0.34719468E+03 0.41760695E+03 -.26254589E+02 0.55131141E+03 0.91188000E+02 0.0000E+00 0.9000E+01
      -11  1    4    4    0    0 -.59369687E+03 -.60308989E+03 0.22099285E+03 0.87466064E+03 0.51099893E-03 0.0000E+00 0.9000E+01
       11  1    4    4    0    0 -.66730248E+02 -.35337466E+02 0.35742465E+02 0.83541525E+02 0.51099893E-03 0.0000E+00 0.9000E+01
       23  1    3    3    0    0 0.31323243E+03 0.22082041E+03 0.15584437E+03 0.42364954E+03 0.91188000E+02 0.0000E+00 0.9000E+01
#aMCatNLO 1  0  0  1  2 0.82717169D+02 0.00000000D+00  -5  7  0 0.00000000D+00 0.00000000D+00 0.00000000D+00 0.00000000D+00 0.00000000D+00
  <mgrwgt>
 0.2007274989D-03    9    2    0
 0.947084013483486D+03 0.000000000000000D+00 0.000000000000000D+00 0.947084013483486D+03
 0.947084013483486D+03 0.000000000000000D+00 0.000000000000000D+00 -.947084013483486D+03
 0.568015965590905D+03 0.347194681207740D+03 0.417606953271059D+03 -.139237824397279D+03
 0.847594599535178D+03 -.593696866563154D+03 -.603089894835961D+03 0.471509760348752D+02
 0.779715318604477D+02 -.667302483603398D+02 -.353374663935349D+02 0.194395782700645D+02
 0.400585929980440D+03 0.313232433715754D+03 0.220820407958437D+03 0.726472700923389D+02
 0.000000000000000D+00 -.000000000000000D+00 -.000000000000000D+00 0.000000000000000D+00
 0.181297547704486D+04 0.000000000000000D+00 0.000000000000000D+00 0.181297547704486D+04
 0.949964155283916D+03 0.000000000000000D+00 0.000000000000000D+00 -.949964155283916D+03
 0.588737336208087D+03 0.350729694141984D+03 0.442603558057973D+03 -.139237824397279D+03
 0.818694928160261D+03 -.588604722003516D+03 -.567082579603233D+03 0.471509760348752D+02
 0.761098340921489D+02 -.662593790568147D+02 -.320078791740691D+02 0.194395782700645D+02
 0.412431172580328D+03 0.315716996300398D+03 0.238389121327231D+03 0.726472700923389D+02
 0.866966361287948D+03 -.115825893820524D+02 -.819022206079011D+02 0.863011321760941D+03
0.252200525692D-03 0.000000000000D+00 0.000000000000D+00 0.401408560156D-05 0.000000000000D+00  7 -2 2 23 -11 11 23 21 0 0.17842217D+00 0.11898754D+00 0.87088168D+06 0.87088168D+06 0.87088168D+06 0.10518842D+01  1  2  2  1  7  1       -2 0.191000200347D-03 0.100000000000D+01
-.140074304591D-04 0.000000000000D+00 -.968516424579D-06 0.401408560156D-05 0.000000000000D+00  7 -2 2 23 -11 11 23 21 2 0.17842217D+00 0.11898754D+00 0.87088168D+06 0.87088168D+06 0.87088168D+06 0.10518842D+01  1  2  3  1  7  1       -2 -.117376777698D-04 0.100000000000D+01
0.157215881305D-04 0.000000000000D+00 0.000000000000D+00 0.401408560156D-05 0.000000000000D+00  7 -2 2 23 -11 11 23 21 2 0.17842217D+00 0.11898754D+00 0.87088168D+06 0.87088168D+06 0.87088168D+06 0.10518842D+01  1  2 15  1  7  1       -2 0.131740747201D-04 0.100000000000D+01
0.784174226876D-02 0.000000000000D+00 0.000000000000D+00 0.401408560156D-05 0.000000000000D+00  7 -2 2 23 -11 11 23 21 2 0.34157939D+00 0.11898754D+00 0.95224080D+06 0.95224080D+06 0.95224080D+06 0.10492816D+01  1  2 12  1  7  1       -2 0.531893783748D-03 0.100000000000D+01
-.645507451134D-02 0.000000000000D+00 0.000000000000D+00 0.401408560156D-05 0.000000000000D+00  7 -2 2 23 -11 11 23 21 2 0.17842217D+00 0.11898754D+00 0.87088168D+06 0.87088168D+06 0.87088168D+06 0.10518842D+01  1  2  4  1  7  1       -2 -.540909946441D-02 0.100000000000D+01
-.783045857459D-02 0.000000000000D+00 -.680781313386D-04 0.401408560156D-05 0.000000000000D+00  7 -2 2 23 -11 11 23 21 2 0.34178544D+00 0.11898754D+00 0.87088168D+06 0.87088168D+06 0.87088168D+06 0.10518842D+01  1  2  5  1  7  1       -2 -.535847589902D-03 0.100000000000D+01
0.647098659020D-02 0.000000000000D+00 0.558560144089D-04 0.401408560156D-05 0.000000000000D+00  7 -2 2 23 -11 11 23 21 2 0.17842217D+00 0.11898754D+00 0.87088168D+06 0.87088168D+06 0.87088168D+06 0.10518842D+01  1  2  6  1  7  1       -2 0.542243316290D-02 0.100000000000D+01
0.552865889511D-03 0.000000000000D+00 0.000000000000D+00 0.401408560156D-05 0.000000000000D+00  7 21 2 23 -11 11 23 2 2 0.34157939D+00 0.11898754D+00 0.95224080D+06 0.95224080D+06 0.95224080D+06 0.10492816D+01  1  2 12  3  7  1       -2 0.257468287331D-03 0.100000000000D+01
-.548623486963D-03 0.000000000000D+00 -.480384614628D-05 0.401408560156D-05 0.000000000000D+00  7 21 2 23 -11 11 23 2 2 0.34178544D+00 0.11898754D+00 0.87088168D+06 0.87088168D+06 0.87088168D+06 0.10518842D+01  1  2  5  3  7  1       -2 -.258557278096D-03 0.100000000000D+01
  </mgrwgt>
  </event>
  <event>
  8     66 0.28248871E-05 0.21719210E+03 0.75467711E-02 0.10069543E+00
       -2 -1    0    0    0  501 0.00000000E+00 0.00000000E+00 0.23189549E+03 0.23189571E+03 0.32000000E+00 0.0000E+00 0.9000E+01
        2 -1    0    0  501    0 0.00000000E+00 0.00000000E+00 -.53052134E+03 0.53052143E+03 0.32000000E+00 0.0000E+00 0.9000E+01
       25  2    1    2    0    0 -.63279291E+02 -.22564383E+03 -.34233037E+03 0.50752808E+03 0.29236154E+03 0.0000E+00 0.0000E+00
       23  2    1    2    0    0 0.63279291E+02 0.22564383E+03 0.43704520E+02 0.25488906E+03 0.90216085E+02 0.0000E+00 0.0000E+00
       23  1    3    3    0    0 0.49199207E+02 -.18030985E+03 -.12553916E+03 0.24291467E+03 0.91188000E+02 0.0000E+00 0.9000E+01
      -13  1    4    4    0    0 -.17677745E+01 0.60201162E+02 0.48079440E+02 0.77064575E+02 0.10565837E+00 0.0000E+00 0.9000E+01
       13  1    4    4    0    0 0.65047066E+02 0.16544266E+03 -.43749206E+01 0.17782448E+03 0.10565837E+00 0.0000E+00 0.9000E+01
       23  1    3    3    0    0 -.11247850E+03 -.45333977E+02 -.21679120E+03 0.26461341E+03 0.91188000E+02 0.0000E+00 0.9000E+01
#aMCatNLO 1  0  0  2  1 0.69727351D+01 0.00000000D+00  -5  7  0 0.00000000D+00 0.00000000D+00 0.00000000D+00 0.00000000D+00 0.00000000D+00
  <mgrwgt>
 0.3211960762D-02   11    2    0
 0.350750090513272D+03 0.000000000000000D+00 0.000000000000000D+00 0.350750090513272D+03
 0.350750090513272D+03 0.000000000000000D+00 0.000000000000000D+00 -.350750090513272D+03
 0.210567401015945D+03 0.491992069171787D+02 -.180309850398830D+03 -.330329368128544D+02
 0.104223825528367D+03 -.176786591439711D+01 0.602010181755334D+02 0.850606716908901D+02
 0.191404162568921D+03 0.650471574006755D+02 0.165442808931399D+03 0.709443284251138D+02
 0.195304791913309D+03 -.112478498403457D+03 -.453339767081025D+02 -.122972063303149D+03
 0.000000000000000D+00 -.000000000000000D+00 -.000000000000000D+00 -.000000000000000D+00
 0.352541091299501D+03 0.000000000000000D+00 0.000000000000000D+00 0.352541091299501D+03
 0.357620286062180D+03 0.000000000000000D+00 0.000000000000000D+00 -.357620286062180D+03
 0.208828253999917D+03 0.493587325498895D+02 -.178231672076656D+03 -.330329368128544D+02
 0.104824256804838D+03 -.168835024178027D+01 0.612368877364151D+02 0.850606716908901D+02
 0.193102739006131D+03 0.651934123893045D+02 0.167348107419886D+03 0.709443284251138D+02
 0.194779583974936D+03 -.112330121909495D+03 -.434010408655526D+02 -.122972063303149D+03
 0.862654357585804D+01 -.533672787918550D+00 -.695228221409283D+01 -.507919476267856D+01
0.258767063742D-04 0.000000000000D+00 0.000000000000D+00 0.195331641332D-08 0.000000000000D+00  7 -2 2 23 -13 13 23 21 0 0.35676254D-01 0.81618691D-01 0.89307577D+05 0.89307577D+05 0.89307577D+05 0.11257746D+01  1  2  2  2  7  2        2 0.132840555647D-02 0.100000000000D+01
-.139276269798D-05 0.000000000000D+00 -.993733659701D-07 0.195331641332D-08 0.000000000000D+00  7 -2 2 23 -13 13 23 21 2 0.35676254D-01 0.81618691D-01 0.89307577D+05 0.89307577D+05 0.89307577D+05 0.11257746D+01  1  2  3  2  7  2        2 -.906153427205D-04 0.100000000000D+01
0.161867604001D-05 0.000000000000D+00 0.000000000000D+00 0.195331641332D-08 0.000000000000D+00  7 -2 2 23 -13 13 23 21 2 0.35676254D-01 0.81618691D-01 0.89307577D+05 0.89307577D+05 0.89307577D+05 0.11257746D+01  1  2 15  2  7  2        2 0.105313621862D-03 0.100000000000D+01
0.350157676756D-04 0.000000000000D+00 0.000000000000D+00 0.195331641332D-08 0.000000000000D+00  7 -2 2 23 -13 13 23 21 2 0.35676254D-01 0.83423136D-01 0.91531411D+05 0.91531411D+05 0.91531411D+05 0.11248894D+01  1  2 12  2  7  2        2 0.221883805944D-02 0.100000000000D+01
-.531240570830D-04 0.000000000000D+00 0.000000000000D+00 0.195331641332D-08 0.000000000000D+00  7 -2 2 23 -13 13 23 21 2 0.35676254D-01 0.81618691D-01 0.89307577D+05 0.89307577D+05 0.89307577D+05 0.11257746D+01  1  2  4  2  7  2        2 -.345633512891D-02 0.100000000000D+01
-.132521996432D-02 0.000000000000D+00 -.148336911517D-03 0.195331641332D-08 0.000000000000D+00  7 -2 2 23 -13 13 23 21 2 0.35676254D-01 0.83518924D-01 0.89307577D+05 0.89307577D+05 0.89307577D+05 0.11257746D+01  1  2  5  2  7  2        2 -.840165503978D-01 0.100000000000D+01
0.132832139430D-02 0.000000000000D+00 0.148297634069D-03 0.195331641332D-08 0.000000000000D+00  7 -2 2 23 -13 13 23 21 2 0.35676254D-01 0.81618691D-01 0.89307577D+05 0.89307577D+05 0.89307577D+05 0.11257746D+01  1  2  6  2  7  2        2 0.864226896383D-01 0.100000000000D+01
0.181227818761D-04 0.000000000000D+00 0.000000000000D+00 0.195331641332D-08 0.271196860220D-09  7 -2 2 23 -13 13 23 21 2 0.35858424D-01 0.83217369D-01 0.91531411D+05 0.91531411D+05 0.91531411D+05 0.11248894D+01  1  2 11  2  7  2        2 0.114100068047D-02 0.100000000000D+01
0.150339225874D-05 0.000000000000D+00 0.000000000000D+00 0.195331641332D-08 0.000000000000D+00  7 -2 21 23 -13 13 23 -2 2 0.35676254D-01 0.83423136D-01 0.91531411D+05 0.91531411D+05 0.91531411D+05 0.11248894D+01  1  2 12  4  7  2        2 0.168961568111D-03 0.100000000000D+01
-.549769809637D-05 0.000000000000D+00 -.618582260226D-06 0.195331641332D-08 0.000000000000D+00  7 -2 21 23 -13 13 23 -2 2 0.35676254D-01 0.83518924D-01 0.89307577D+05 0.89307577D+05 0.89307577D+05 0.11257746D+01  1  2  5  4  7  2        2 -.617897935931D-03 0.100000000000D+01
0.727574714896D-07 0.000000000000D+00 0.000000000000D+00 0.195331641332D-08 0.959668438221D-12  7 -2 21 23 -13 13 23 -2 2 0.35858424D-01 0.83217369D-01 0.91531411D+05 0.91531411D+05 0.91531411D+05 0.11248894D+01  1  2 11  4  7  2        2 0.815044231621D-05 0.100000000000D+01
  </mgrwgt>
  </event>
  <event>
  8     66 0.28248871E-05 0.36116962E+03 0.75467711E-02 0.84851545E-01
       -2 -1    0    0    0  501 0.00000000E+00 0.00000000E+00 0.55212200E+03 0.55212209E+03 0.32000000E+00 0.0000E+00 0.9000E+01
        2 -1    0    0  501    0 0.00000000E+00 0.00000000E+00 -.10649974E+04 0.10649974E+04 0.32000000E+00 0.0000E+00 0.9000E+01
       25  2    1    2    0    0 -.20586658E+03 -.22687869E+03 0.43876560E+03 0.61317138E+03 0.29934745E+03 0.0000E+00 0.0000E+00
       23  2    1    2    0    0 0.20586658E+03 0.22687869E+03 -.95164101E+03 0.10039482E+04 0.91849429E+02 0.0000E+00 0.0000E+00
       23  1    3    3    0    0 -.22188503E+03 -.16260977E+03 0.20918773E+03 0.35742085E+03 0.91188000E+02 0.0000E+00 0.9000E+01
      -13  1    4    4    0    0 0.53588381E+02 0.12665041E+03 -.41225892E+03 0.43459115E+03 0.10565837E+00 0.0000E+00 0.9000E+01
       13  1    4    4    0    0 0.15227820E+03 0.10022828E+03 -.53938209E+03 0.56935701E+03 0.10565837E+00 0.0000E+00 0.9000E+01
       23  1    3    3    0    0 0.16018445E+02 -.64268916E+02 0.22957787E+03 0.25575053E+03 0.91188000E+02 0.0000E+00 0.9000E+01
#aMCatNLO 1  0  0  1  1 0.12109520D+04 0.00000000D+00  -5  7  0 0.00000000D+00 0.00000000D+00 0.00000000D+00 0.00000000D+00 0.00000000D+00
  <mgrwgt>
 0.2876220533D-03    5    2    0
 0.766817193066690D+03 0.000000000000000D+00 0.000000000000000D+00 0.766817193066690D+03
 0.766817193066690D+03 0.000000000000000D+00 0.000000000000000D+00 -.766817193066690D+03
 0.446833666301054D+03 -.221885028977039D+03 -.162609769519776D+03 0.340103176651771D+03
 0.320381563132131D+03 0.535882503042594D+02 0.126650444235264D+03 -.289365357980747D+03
 0.419971506434597D+03 0.152278333809861D+03 0.100228241169636D+03 -.378340686341131D+03
 0.346447650265597D+03 0.160184448629186D+02 -.642689158851236D+02 0.327602867670108D+03
 0.000000000000000D+00 -.000000000000000D+00 0.000000000000000D+00 0.000000000000000D+00
 0.162539005375685D+04 0.000000000000000D+00 0.000000000000000D+00 0.162539005375685D+04
 0.154247960229089D+04 0.000000000000000D+00 0.000000000000000D+00 -.154247960229089D+04
 0.418412520313040D+03 0.741920819587819D+02 -.213492739962524D+03 0.340103176651771D+03
 0.432978536905264D+03 0.311379252869956D+03 0.823472155172560D+02 -.289365357980747D+03
 0.640204293864525D+03 0.515058075451917D+03 0.378819462707985D+02 -.378340686341131D+03
 0.462487327388629D+03 0.292826519632993D+03 -.111840364560508D+03 0.327602867670108D+03
 0.121378697757628D+04 -.119345592991365D+04 0.205103942734977D+03 0.829104514659594D+02
0.711878961585D-04 0.000000000000D+00 0.000000000000D+00 0.134480461052D-05 0.000000000000D+00  7 -2 2 23 -13 13 23 21 0 0.84941857D-01 0.16384576D+00 0.13044350D+06 0.13044350D+06 0.13044350D+06 0.11123716D+01  1  2  2  1  7  1       -2 0.262131279482D-03 0.100000000000D+01
-.122910453937D-05 0.000000000000D+00 -.273380265452D-06 0.134480461052D-05 0.000000000000D+00  7 -2 2 23 -13 13 23 21 2 0.84941857D-01 0.16384576D+00 0.13044350D+06 0.13044350D+06 0.13044350D+06 0.11123716D+01  1  2  3  1  7  1       -2 -.560017097778D-05 0.100000000000D+01
0.424967603177D-05 0.000000000000D+00 0.000000000000D+00 0.134480461052D-05 0.000000000000D+00  7 -2 2 23 -13 13 23 21 2 0.84941857D-01 0.16384576D+00 0.13044350D+06 0.13044350D+06 0.13044350D+06 0.11123716D+01  1  2 15  1  7  1       -2 0.193628056978D-04 0.100000000000D+01
0.500849596042D-04 0.000000000000D+00 -.223835123008D-04 0.134480461052D-05 0.000000000000D+00  7 -2 2 23 -13 13 23 21 2 0.30146631D+00 0.16384576D+00 0.13044350D+06 0.13044350D+06 0.13044350D+06 0.11123716D+01  1  2  5  1  7  1       -2 0.531501085089D-05 0.100000000000D+01
0.811097670933D-05 0.000000000000D+00 -.332470080671D-05 0.134480461052D-05 0.000000000000D+00  7 21 2 23 -13 13 23 2 2 0.30146631D+00 0.16384576D+00 0.13044350D+06 0.13044350D+06 0.13044350D+06 0.11123716D+01  1  2  5  3  7  1       -2 0.641312824580D-05 0.100000000000D+01
  </mgrwgt>
  </event>
  <event>
  8     66 0.28248871E-05 0.10597494E+04 0.75467711E-02 0.86395289E-01
       -2 -1    0    0    0  501 0.00000000E+00 0.00000000E+00 0.36198389E+03 0.36198404E+03 0.32000000E+00 0.0000E+00 0.9000E+01
        2 -1    0    0  501    0 0.00000000E+00 0.00000000E+00 -.36102219E+04 0.36102220E+04 0.32000000E+00 0.0000E+00 0.9000E+01
       25  2    1    2    0    0 -.32879352E+03 -.10438964E+04 -.20766087E+04 0.23664260E+04 0.29973906E+03 0.0000E+00 0.0000E+00
       23  2    1    2    0    0 0.32879352E+03 0.10438964E+04 -.11716294E+04 0.16057800E+04 0.89381625E+02 0.0000E+00 0.0000E+00
       23  1    3    3    0    0 -.28180269E+03 -.65491735E+03 -.15004137E+04 0.16636965E+04 0.91188000E+02 0.0000E+00 0.9000E+01
      -11  1    4    4    0    0 0.10726803E+03 0.38731966E+03 -.49058249E+03 0.63418778E+03 0.51099893E-03 0.0000E+00 0.9000E+01
       11  1    4    4    0    0 0.22152549E+03 0.65657676E+03 -.68104690E+03 0.97159223E+03 0.51099893E-03 0.0000E+00 0.9000E+01
       23  1    3    3    0    0 -.46990834E+02 -.38897908E+03 -.57619493E+03 0.70272947E+03 0.91188000E+02 0.0000E+00 0.9000E+01
#aMCatNLO 1  0  0  2  1 0.11890436D+01 0.00000000D+00  -5  7  0 0.00000000D+00 0.00000000D+00 0.00000000D+00 0.00000000D+00 0.00000000D+00
  <mgrwgt>
 0.5560022512D-03   10    2    0
 0.114317212498332D+04 0.000000000000000D+00 0.000000000000000D+00 0.114317212498332D+04
 0.114317212498332D+04 0.000000000000000D+00 0.000000000000000D+00 -.114317212498332D+04
 0.758785254372077D+03 -.281802689301354D+03 -.654917346189493D+03 -.243126150117865D+03
 0.404836568131299D+03 0.107268032808488D+03 0.387319661837199D+03 0.486795191845865D+02
 0.720434834252718D+03 0.221525490289027D+03 0.656576763284439D+03 0.197128794121706D+03
 0.402287593210539D+03 -.469908337961613D+02 -.388979078932145D+03 -.268216318842782D+01
 0.000000000000000D+00 -.000000000000000D+00 0.000000000000000D+00 -.000000000000000D+00
 0.114351407745466D+04 0.000000000000000D+00 0.000000000000000D+00 0.114351407745466D+04
 0.114420638824417D+04 0.000000000000000D+00 0.000000000000000D+00 -.114420638824417D+04
 0.758653936095868D+03 -.281408489614067D+03 -.654934714694334D+03 -.243126150117865D+03
 0.404883488498160D+03 0.107478381529623D+03 0.387310393836997D+03 0.486795191845865D+02
 0.720534997010197D+03 0.221899824799724D+03 0.656560270042635D+03 0.197128794121706D+03
 0.402272137551301D+03 -.467818256222173D+02 -.388988287867612D+03 -.268216318842782D+01
 0.137590654330853D+01 -.118789109306259D+01 0.523386823134251D-01 -.692310789512552D+00
0.360703100736D-03 0.000000000000D+00 0.000000000000D+00 0.246152651481D-05 0.000000000000D+00  7 -2 2 23 -11 11 23 21 0 0.55689842D-01 0.55541877D+00 0.12275514D+07 0.12275514D+07 0.12275514D+07 0.10419878D+01  1  2  2  2  7  2        2 0.853100628926D-04 0.100000000000D+01
-.200151971799D-04 0.000000000000D+00 -.138519488214D-05 0.246152651481D-05 0.000000000000D+00  7 -2 2 23 -11 11 23 21 2 0.55689842D-01 0.55541877D+00 0.12275514D+07 0.12275514D+07 0.12275514D+07 0.10419878D+01  1  2  3  2  7  2        2 -.513967359009D-05 0.100000000000D+01
0.219957760988D-04 0.000000000000D+00 0.000000000000D+00 0.246152651481D-05 0.000000000000D+00  7 -2 2 23 -11 11 23 21 2 0.55689842D-01 0.55541877D+00 0.12275514D+07 0.12275514D+07 0.12275514D+07 0.10419878D+01  1  2 15  2  7  2        2 0.564826359153D-05 0.100000000000D+01
-.524180469556D-01 0.000000000000D+00 0.000000000000D+00 0.246152651481D-05 0.000000000000D+00  7 -2 2 23 -11 11 23 21 2 0.55689842D-01 0.55541877D+00 0.12275514D+07 0.12275514D+07 0.12275514D+07 0.10419878D+01  1  2  4  2  7  2        2 -.134603546076D-01 0.100000000000D+01
-.352294785570D+00 0.000000000000D+00 -.233042586699D-01 0.246152651481D-05 0.000000000000D+00  7 -2 2 23 -11 11 23 21 2 0.55689842D-01 0.55596194D+00 0.12275514D+07 0.12275514D+07 0.12275514D+07 0.10419878D+01  1  2  5  2  7  2        2 -.899193326973D-01 0.100000000000D+01
0.352334011370D+00 0.000000000000D+00 0.233102637137D-01 0.246152651481D-05 0.000000000000D+00  7 -2 2 23 -11 11 23 21 2 0.55689842D-01 0.55541877D+00 0.12275514D+07 0.12275514D+07 0.12275514D+07 0.10419878D+01  1  2  6  2  7  2        2 0.904753421540D-01 0.100000000000D+01
0.524180697291D-01 0.000000000000D+00 0.000000000000D+00 0.246152651481D-05 0.100810978262D-04  7 -2 2 23 -11 11 23 21 2 0.55706500D-01 0.55592128D+00 0.12288662D+07 0.12288662D+07 0.12288662D+07 0.10419574D+01  1  2 11  2  7  2        2 0.133749225439D-01 0.100000000000D+01
0.394884061214D-09 0.000000000000D+00 0.000000000000D+00 0.246152651481D-05 0.000000000000D+00  7 -2 21 23 -11 11 23 -2 2 0.55689842D-01 0.55600430D+00 0.12288662D+07 0.12288662D+07 0.12288662D+07 0.10419574D+01  1  2 12  4  7  2        2 0.288202025773D-11 0.100000000000D+01
-.644639620785D-04 0.000000000000D+00 -.426483517405D-05 0.246152651481D-05 0.000000000000D+00  7 -2 21 23 -11 11 23 -2 2 0.55689842D-01 0.55596194D+00 0.12275514D+07 0.12275514D+07 0.12275514D+07 0.10419878D+01  1  2  5  4  7  2        2 -.470964686830D-06 0.100000000000D+01
0.105623819507D-04 0.000000000000D+00 0.000000000000D+00 0.246152651481D-05 0.170675254188D-08  7 -2 21 23 -11 11 23 -2 2 0.55706500D-01 0.55592128D+00 0.12288662D+07 0.12288662D+07 0.12288662D+07 0.10419574D+01  1  2 11  4  7  2        2 0.771670683432D-07 0.100000000000D+01
  </mgrwgt>
  </event>
  <event>
  8     66 0.28248871E-05 0.84700153E+02 0.75467711E-02 0.10279260E+00
       -2 -1    0    0    0  501 0.00000000E+00 0.00000000E+00 0.25942738E+03 0.25942758E+03 0.32000000E+00 0.0000E+00 0.9000E+01
        2 -1    0    0  501    0 0.00000000E+00 0.00000000E+00 -.25156574E+03 0.25156595E+03 0.32000000E+00 0.0000E+00 0.9000E+01
       25  2    1    2    0    0 -.40563372E+01 -.13767852E+03 0.65668607E+02 0.33683506E+03 0.30028929E+03 0.0000E+00 0.0000E+00
       23  2    1    2    0    0 0.40563372E+01 0.13767852E+03 -.57806970E+02 0.17415847E+03 0.89541597E+02 0.0000E+00 0.0000E+00
       23  1    3    3    0    0 0.26745178E+02 0.56762904E+02 0.19359672E+01 0.11070832E+03 0.91188000E+02 0.0000E+00 0.9000E+01
      -11  1    4    4    0    0 0.15059689E+01 -.36888980E+01 0.14721270E+02 0.15250958E+02 0.51099893E-03 0.0000E+00 0.9000E+01
       11  1    4    4    0    0 0.25503683E+01 0.14136742E+03 -.72528240E+02 0.15890751E+03 0.51099893E-03 0.0000E+00 0.9000E+01
       23  1    3    3    0    0 -.30801515E+02 -.19444143E+03 0.63732640E+02 0.22612674E+03 0.91188000E+02 0.0000E+00 0.9000E+01
#aMCatNLO 1  0  0  2  1 0.41349317D+02 0.00000000D+00  -5  7  0 0.00000000D+00 0.00000000D+00 0.00000000D+00 0.00000000D+00 0.00000000D+00
  <mgrwgt>
 0.2149872783D-03    9    2    0
 0.255466524186751D+03 0.000000000000000D+00 0.000000000000000D+00 0.255466524186751D+03
 0.255466524186751D+03 0.000000000000000D+00 0.000000000000000D+00 -.255466524186751D+03
 0.110691631558476D+03 0.267451778074560D+02 0.567629037837605D+02 0.232746988405893D+00
 0.150262493222399D+02 0.150596892761053D+01 -.368889798640884D+01 0.144883490408347D+02
 0.160042303092368D+03 0.255036825678385D+01 0.141367421958110D+03 -.749819072162218D+02
 0.225172864400417D+03 -.308015149918504D+02 -.194441427755461D+03 0.602608111869813D+02
 0.000000000000000D+00 0.000000000000000D+00 0.000000000000000D+00 -.000000000000000D+00
 0.264175176096316D+03 0.000000000000000D+00 0.000000000000000D+00 0.264175176096316D+03
 0.310590878524832D+03 0.000000000000000D+00 0.000000000000000D+00 -.310590878524832D+03
 0.106036833264610D+03 0.218300155427027D+02 0.495172183692842D+02 0.232746988405893D+00
 0.152540155422733D+02 0.819245956771040D+00 -.470123050883214D+01 0.144883490408347D+02
 0.150981810273209D+03 -.450331519310703D+01 0.130969235990231D+03 -.749819072162218D+02
 0.240330838721695D+03 -.413586249568772D+02 -.210004189180685D+03 0.602608111869813D+02
 0.621625568193613D+02 0.232126786505105D+02 0.342189653300021D+02 -.464157024285163D+02
0.171924522220D-05 0.000000000000D+00 0.000000000000D+00 0.105703825288D-06 0.000000000000D+00  7 -2 2 23 -11 11 23 21 0 0.39911936D-01 0.38702453D-01 0.55938361D+05 0.55938361D+05 0.55938361D+05 0.11430328D+01  1  2  2  2  7  2        2 0.162670090710D-03 0.100000000000D+01
-.948235003480D-07 0.000000000000D+00 -.660235434090D-08 0.105703825288D-06 0.000000000000D+00  7 -2 2 23 -11 11 23 21 2 0.39911936D-01 0.38702453D-01 0.55938361D+05 0.55938361D+05 0.55938361D+05 0.11430328D+01  1  2  3  2  7  2        2 -.117220410895D-04 0.100000000000D+01
0.109345041512D-06 0.000000000000D+00 0.000000000000D+00 0.105703825288D-06 0.000000000000D+00  7 -2 2 23 -11 11 23 21 2 0.39911936D-01 0.38702453D-01 0.55938361D+05 0.55938361D+05 0.55938361D+05 0.11430328D+01  1  2 15  2  7  2        2 0.135171878789D-04 0.100000000000D+01
0.436451954243D-05 0.000000000000D+00 0.000000000000D+00 0.105703825288D-06 0.000000000000D+00  7 -2 2 23 -11 11 23 21 2 0.39911936D-01 0.47614515D-01 0.66527339D+05 0.66527339D+05 0.66527339D+05 0.11365430D+01  1  2 12  2  7  2        2 0.425702914316D-03 0.100000000000D+01
-.444046746174D-05 0.000000000000D+00 0.000000000000D+00 0.105703825288D-06 0.000000000000D+00  7 -2 2 23 -11 11 23 21 2 0.39911936D-01 0.38702453D-01 0.55938361D+05 0.55938361D+05 0.55938361D+05 0.11430328D+01  1  2  4  2  7  2        2 -.548928713371D-03 0.100000000000D+01
-.675807885423D-05 0.000000000000D+00 -.121208574454D-05 0.105703825288D-06 0.000000000000D+00  7 -2 2 23 -11 11 23 21 2 0.39911936D-01 0.48277984D-01 0.55938361D+05 0.55938361D+05 0.55938361D+05 0.11430328D+01  1  2  5  2  7  2        2 -.656849144581D-03 0.100000000000D+01
0.688610646758D-05 0.000000000000D+00 0.118305794681D-05 0.105703825288D-06 0.000000000000D+00  7 -2 2 23 -11 11 23 21 2 0.39911936D-01 0.38702453D-01 0.55938361D+05 0.55938361D+05 0.55938361D+05 0.11430328D+01  1  2  6  2  7  2        2 0.851257575008D-03 0.100000000000D+01
0.128337817851D-06 0.000000000000D+00 0.000000000000D+00 0.105703825288D-06 0.000000000000D+00  7 -2 21 23 -11 11 23 -2 2 0.39911936D-01 0.47614515D-01 0.66527339D+05 0.66527339D+05 0.66527339D+05 0.11365430D+01  1  2 12  4  7  2        2 0.430307348100D-04 0.100000000000D+01
-.192134321509D-06 0.000000000000D+00 -.374294314598D-07 0.105703825288D-06 0.000000000000D+00  7 -2 21 23 -11 11 23 -2 2 0.39911936D-01 0.48277984D-01 0.55938361D+05 0.55938361D+05 0.55938361D+05 0.11430328D+01  1  2  5  4  7  2        2 -.636913253824D-04 0.100000000000D+01
  </mgrwgt>
  </event>
  <event>
  8     66 0.28248871E-05 0.69313447E+03 0.75467711E-02 0.87189319E-01
       -2 -1    0    0    0  501 0.00000000E+00 0.00000000E+00 0.82190533E+03 0.82190540E+03 0.32000000E+00 0.0000E+00 0.9000E+01
        2 -1    0    0  501    0 0.00000000E+00 0.00000000E+00 -.74487743E+03 0.74487750E+03 0.32000000E+00 0.0000E+00 0.9000E+01
       25  2    1    2    0    0 0.17125314E+02 -.67752063E+03 -.27951541E+03 0.79548690E+03 0.30877673E+03 0.0000E+00 0.0000E+00
       23  2    1    2    0    0 -.17125314E+02 0.67752063E+03 0.35654331E+03 0.77129600E+03 0.91907090E+02 0.0000E+00 0.0000E+00
       23  1    3    3    0    0 -.17023144E+02 -.42869047E+03 -.46711571E+02 0.44109243E+03 0.91188000E+02 0.0000E+00 0.9000E+01
      -13  1    4    4    0    0 0.30043395E+01 0.60972003E+03 0.34198979E+03 0.69908838E+03 0.10565837E+00 0.0000E+00 0.9000E+01
       13  1    4    4    0    0 -.20129653E+02 0.67800600E+02 0.14553521E+02 0.72207621E+02 0.10565837E+00 0.0000E+00 0.9000E+01
       23  1    3    3    0    0 0.34148458E+02 -.24883016E+03 -.23280384E+03 0.35439447E+03 0.91188000E+02 0.0000E+00 0.9000E+01
#aMCatNLO 1  0  0  2  1 0.55565533D+03 0.00000000D+00  -5  7  0 0.00000000D+00 0.00000000D+00 0.00000000D+00 0.00000000D+00 0.00000000D+00
  <mgrwgt>
 0.3240832501D-03    3    2    0
 0.782444144050501D+03 0.000000000000000D+00 0.000000000000000D+00 0.782444144050501D+03
 0.782444144050501D+03 0.000000000000000D+00 0.000000000000000D+00 -.782444144050501D+03
 0.443925722817061D+03 -.170231430896520D+02 -.428690469384776D+03 -.684798517277882D+02
 0.683101941801759D+03 0.300437006417292D+01 0.609720743641705D+03 0.307993265229709D+03
 0.715778720492103D+02 -.201296837543553D+02 0.677998843660880D+02 0.110165003058080D+02
 0.366282751432971D+03 0.341484567798344D+02 -.248830158623017D+03 -.250529913807729D+03
 0.000000000000000D+00 0.000000000000000D+00 -.000000000000000D+00 0.000000000000000D+00
 0.185006500345290D+04 0.000000000000000D+00 0.000000000000000D+00 0.185006500345290D+04
 0.905997949993957D+03 0.000000000000000D+00 0.000000000000000D+00 -.905997949993957D+03
 0.412286939694571D+03 -.150728997748465D+03 -.366410355262783D+03 -.684798517277882D+02
 0.815333432660157D+03 -.230990747230308D+03 0.718715541560443D+03 0.307993265229709D+03
 0.926004491095800D+02 -.457677100393111D+02 0.797420630161121D+02 0.110165003058080D+02
 0.340389968416864D+03 -.762052953994690D+02 -.197427441090152D+03 -.250529913807729D+03
 0.109545216356568D+04 0.503692750417553D+03 -.234619808223620D+03 0.944067053458940D+03
0.150606506501D-03 0.000000000000D+00 0.000000000000D+00 0.184731397634D-07 0.000000000000D+00  7 -2 2 23 -13 13 23 21 0 0.12644698D+00 0.11459654D+00 0.48043540D+06 0.48043540D+06 0.48043540D+06 0.10697377D+01  1  2  2  2  7  2        2 0.321556305696D-03 0.100000000000D+01
-.821759486099D-05 0.000000000000D+00 -.578368640569D-06 0.184731397634D-07 0.000000000000D+00  7 -2 2 23 -13 13 23 21 2 0.12644698D+00 0.11459654D+00 0.48043540D+06 0.48043540D+06 0.48043540D+06 0.10697377D+01  1  2  3  2  7  2        2 -.200776382913D-04 0.100000000000D+01
0.925185023810D-05 0.000000000000D+00 0.000000000000D+00 0.184731397634D-07 0.000000000000D+00  7 -2 2 23 -13 13 23 21 2 0.12644698D+00 0.11459654D+00 0.48043540D+06 0.48043540D+06 0.48043540D+06 0.10697377D+01  1  2 15  2  7  2        2 0.226045826970D-04 0.100000000000D+01
  </mgrwgt>
  </event>
  <event>
  8     66 0.28248871E-05 0.19724186E+03 0.75467711E-02 0.10622424E+00
       -2 -1    0    0    0  501 0.00000000E+00 0.00000000E+00 0.33152495E+02 0.33154039E+02 0.32000000E+00 0.0000E+00 0.9000E+01
        2 -1    0    0  501    0 0.00000000E+00 0.00000000E+00 -.16902828E+04 0.16902829E+04 0.32000000E+00 0.0000E+00 0.9000E+01
       25  2    1    2    0    0 -.29929171E+02 -.95784680E+02 -.13703059E+04 0.14063561E+04 0.30004821E+03 0.0000E+00 0.0000E+00
       23  2    1    2    0    0 0.29929171E+02 0.95784680E+02 -.28682448E+03 0.31708079E+03 0.90562027E+02 0.0000E+00 0.0000E+00
       23  1    3    3    0    0 0.59161454E+02 0.12466763E+02 -.24023372E+03 0.26397536E+03 0.91188000E+02 0.0000E+00 0.9000E+01
      -13  1    4    4    0    0 -.18975311E+02 0.19461856E+02 -.16118647E+02 0.31601396E+02 0.10565837E+00 0.0000E+00 0.9000E+01
       13  1    4    4    0    0 0.48904481E+02 0.76322824E+02 -.27070584E+03 0.28547939E+03 0.10565837E+00 0.0000E+00 0.9000E+01
       23  1    3    3    0    0 -.89090624E+02 -.10825144E+03 -.11300721E+04 0.11423808E+04 0.91188000E+02 0.0000E+00 0.9000E+01
#aMCatNLO 1  0  0  1  1 0.77975850D+01 0.00000000D+00  -5  7  0 0.00000000D+00 0.00000000D+00 0.00000000D+00 0.00000000D+00 0.00000000D+00
  <mgrwgt>
 0.1792966404D-03    8    2    0
 0.236724416306088D+03 0.000000000000000D+00 0.000000000000000D+00 0.236724416306088D+03
 0.236724416306088D+03 0.000000000000000D+00 0.000000000000000D+00 -.236724416306088D+03
 0.120068488943468D+03 0.591614526495747D+02 0.124667598811515D+02 0.494539494037179D+02
 0.586172940617543D+02 -.189753959187937D+02 0.194617854593116D+02 0.519341931638774D+02
 0.916907623826403D+02 0.489045688211717D+02 0.763229025351089D+02 0.137968693311695D+02
 0.203072287224314D+03 -.890906255519526D+02 -.108251447875572D+03 -.115185011898765D+03
 0.000000000000000D+00 0.000000000000000D+00 -.000000000000000D+00 -.000000000000000D+00
 0.237423895322084D+03 0.000000000000000D+00 0.000000000000000D+00 0.237423895322084D+03
 0.259533190198189D+03 0.000000000000000D+00 0.000000000000000D+00 -.259533190198189D+03
 0.119289104466933D+03 0.573760626015280D+02 0.133016325781082D+02 0.494539494037179D+02
 0.590441147247707D+02 -.198530430629411D+02 0.198721852142628D+02 0.519341931638774D+02
 0.915060409738499D+02 0.475380872114329D+02 0.769618879423102D+02 0.137968693311695D+02
 0.203673780239139D+03 -.921245814444078D+02 -.106832728788864D+03 -.115185011898765D+03
 0.234440451155814D+02 0.706347469438783D+01 -.330297694581699D+01 -.221092948761049D+02
0.924744709462D-06 0.000000000000D+00 0.000000000000D+00 0.159794872392D-06 0.000000000000D+00  7 -2 2 23 -13 13 23 21 0 0.51005049D-02 0.26004363D+00 0.38904351D+05 0.38904351D+05 0.38904351D+05 0.11570057D+01  1  2  2  1  7  1       -2 0.203482909014D-03 0.100000000000D+01
-.492950349577D-07 0.000000000000D+00 -.355126317521D-08 0.159794872392D-06 0.000000000000D+00  7 -2 2 23 -13 13 23 21 2 0.51005049D-02 0.26004363D+00 0.38904351D+05 0.38904351D+05 0.38904351D+05 0.11570057D+01  1  2  3  1  7  1       -2 -.145204551083D-04 0.100000000000D+01
0.587771677003D-07 0.000000000000D+00 0.000000000000D+00 0.159794872392D-06 0.000000000000D+00  7 -2 2 23 -13 13 23 21 2 0.51005049D-02 0.26004363D+00 0.38904351D+05 0.38904351D+05 0.38904351D+05 0.11570057D+01  1  2 15  1  7  1       -2 0.173135332132D-04 0.100000000000D+01
-.930567160006D-07 0.000000000000D+00 0.000000000000D+00 0.159794872392D-06 0.000000000000D+00  7 -2 2 23 -13 13 23 21 2 0.51005049D-02 0.26004363D+00 0.38904351D+05 0.38904351D+05 0.38904351D+05 0.11570057D+01  1  2  4  1  7  1       -2 -.274109931836D-04 0.100000000000D+01
0.149268928612D-08 0.000000000000D+00 0.000000000000D+00 0.159794872392D-06 0.000000000000D+00  7 -2 2 23 -13 13 23 21 2 0.57923110D-02 0.26004363D+00 0.38904351D+05 0.38904351D+05 0.38904351D+05 0.11570057D+01  1  2  5  1  7  1       -2 0.364364855831D-06 0.100000000000D+01
-.148069596067D-08 0.000000000000D+00 0.000000000000D+00 0.159794872392D-06 0.000000000000D+00  7 -2 2 23 -13 13 23 21 2 0.51005049D-02 0.26004363D+00 0.38904351D+05 0.38904351D+05 0.38904351D+05 0.11570057D+01  1  2  6  1  7  1       -2 -.436157094611D-06 0.100000000000D+01
0.777871698507D-09 0.000000000000D+00 0.000000000000D+00 0.159794872392D-06 0.188061715144D-07  7 -2 2 23 -13 13 23 21 2 0.51155760D-02 0.28509925D+00 0.40577474D+05 0.40577474D+05 0.40577474D+05 0.11553585D+01  1  2 11  1  7  1       -2 0.186876185374D-06 0.100000000000D+01
0.797562669685D-10 0.000000000000D+00 0.000000000000D+00 0.159794872392D-06 0.109899893479D-10  7 21 2 23 -13 13 23 2 2 0.51155760D-02 0.28509925D+00 0.40577474D+05 0.40577474D+05 0.40577474D+05 0.11553585D+01  1  2 11  3  7  1       -2 0.316562492438D-06 0.100000000000D+01
  </mgrwgt>
  </event>
  <event>
  8     66 0.28248871E-05 0.19685500E+03 0.75467711E-02 0.95518397E-01
       -2 -1    0    0    0  501 0.00000000E+00 0.00000000E+00 0.13179474E+03 0.13179513E+03 0.32000000E+00 0.0000E+00 0.9000E+01
        2 -1    0    0  501    0 0.00000000E+00 0.00000000E+00 -.43762546E+04 0.43762546E+04 0.32000000E+00 0.0000E+00 0.9000E+01
       25  2    1    2    0    0 -.24915332E+03 -.11688173E+03 -.41940835E+04 0.42138086E+04 0.30017957E+03 0.0000E+00 0.0000E+00
       23  2    1    2    0    0 0.24915332E+03 0.11688173E+03 -.50376321E+02 0.29424110E+03 0.91111651E+02 0.0000E+00 0.0000E+00
       23  1    3    3    0    0 -.13699078E+03 -.13496854E+03 -.14157712E+04 0.14316795E+04 0.91188000E+02 0.0000E+00 0.9000E+01
      -13  1    4    4    0    0 0.46318763E+02 0.48678798E+02 0.18044409E+02 0.69574889E+02 0.10565837E+00 0.0000E+00 0.9000E+01
       13  1    4    4    0    0 0.20283456E+03 0.68202934E+02 -.68420730E+02 0.22466621E+03 0.10565837E+00 0.0000E+00 0.9000E+01
       23  1    3    3    0    0 -.11216254E+03 0.18086810E+02 -.27783124E+04 0.27821291E+04 0.91188000E+02 0.0000E+00 0.9000E+01
#aMCatNLO 1  0  0  1  2 0.26494798D+03 0.00000000D+00  -5  7  0 0.00000000D+00 0.00000000D+00 0.00000000D+00 0.00000000D+00 0.00000000D+00
  <mgrwgt>
 0.1202851083D-03    9    2    0
 0.759452582045183D+03 0.000000000000000D+00 0.000000000000000D+00 0.759452582045183D+03
 0.759452582045183D+03 0.000000000000000D+00 0.000000000000000D+00 -.759452582045183D+03
 0.292907401262180D+03 -.136990780652154D+03 -.134968542250982D+03 -.201237454240312D+03
 0.256918859186376D+03 0.463185528884225D+02 0.486787721453807D+02 0.247976347675277D+03
 0.475604312050210D+03 0.202834767520758D+03 0.682029601836207D+02 0.424742127587723D+03
 0.493474591591599D+03 -.112162539757026D+03 0.180868099219803D+02 -.471481021022687D+03
 0.000000000000000D+00 0.000000000000000D+00 0.000000000000000D+00 0.000000000000000D+00
 0.996679005475012D+03 0.000000000000000D+00 0.000000000000000D+00 0.996679005475012D+03
 0.848654866134885D+03 0.000000000000000D+00 0.000000000000000D+00 -.848654866134885D+03
 0.321283302873251D+03 -.190156954402533D+03 -.135098220063688D+03 -.201237454240312D+03
 0.252698017758087D+03 0.220460058773723D+01 0.485711736397778D+02 0.247976347675277D+03
 0.447375617295083D+03 0.122938880198986D+03 0.680080858268402D+02 0.424742127587723D+03
 0.520482979751825D+03 -.199933722307632D+03 0.178727269032321D+02 -.471481021022687D+03
 0.303493953931651D+03 0.264947195923442D+03 0.646233693837386D+00 0.148024139340127D+03
0.361132704382D-03 0.000000000000D+00 0.000000000000D+00 0.407954937822D-05 0.000000000000D+00  7 -2 2 23 -13 13 23 21 0 0.20276144D-01 0.67326997D+00 0.10230489D+06 0.10230489D+06 0.10230489D+06 0.11209108D+01  1  2  2  1  7  1       -2 0.157129645454D-03 0.100000000000D+01
-.182193593621D-05 0.000000000000D+00 -.138684467325D-05 0.407954937822D-05 0.000000000000D+00  7 -2 2 23 -13 13 23 21 2 0.20276144D-01 0.67326997D+00 0.10230489D+06 0.10230489D+06 0.10230489D+06 0.11209108D+01  1  2  3  1  7  1       -2 -.996016534080D-06 0.100000000000D+01
0.213176126634D-04 0.000000000000D+00 0.000000000000D+00 0.407954937822D-05 0.000000000000D+00  7 -2 2 23 -13 13 23 21 2 0.20276144D-01 0.67326997D+00 0.10230489D+06 0.10230489D+06 0.10230489D+06 0.11209108D+01  1  2 15  1  7  1       -2 0.116539194699D-04 0.100000000000D+01
0.111175455639D-04 0.000000000000D+00 0.000000000000D+00 0.407954937822D-05 0.000000000000D+00  7 -2 2 23 -13 13 23 21 2 0.27511491D-01 0.67326997D+00 0.21390166D+06 0.21390166D+06 0.21390166D+06 0.10955910D+01  1  2 12  1  7  1       -2 0.322769468559D-05 0.100000000000D+01
-.204837926346D-03 0.000000000000D+00 0.000000000000D+00 0.407954937822D-05 0.000000000000D+00  7 -2 2 23 -13 13 23 21 2 0.20276144D-01 0.67326997D+00 0.10230489D+06 0.10230489D+06 0.10230489D+06 0.11209108D+01  1  2  4  1  7  1       -2 -.111980864635D-03 0.100000000000D+01
-.353737268358D-04 0.000000000000D+00 -.122912827404D-03 0.407954937822D-05 0.000000000000D+00  7 -2 2 23 -13 13 23 21 2 0.35679412D-01 0.67326997D+00 0.10230489D+06 0.10230489D+06 0.10230489D+06 0.11209108D+01  1  2  5  1  7  1       -2 -.727977804348D-05 0.100000000000D+01
0.104942607224D-03 0.000000000000D+00 0.105596965356D-03 0.407954937822D-05 0.000000000000D+00  7 -2 2 23 -13 13 23 21 2 0.20276144D-01 0.67326997D+00 0.10230489D+06 0.10230489D+06 0.10230489D+06 0.11209108D+01  1  2  6  1  7  1       -2 0.573700588738D-04 0.100000000000D+01
0.435075634438D-06 0.000000000000D+00 0.000000000000D+00 0.407954937822D-05 0.000000000000D+00  7 21 2 23 -13 13 23 2 2 0.27511491D-01 0.67326997D+00 0.21390166D+06 0.21390166D+06 0.21390166D+06 0.10955910D+01  1  2 12  3  7  1       -2 0.149495338870D-05 0.100000000000D+01
0.409627859507D-05 0.000000000000D+00 -.766083724716D-05 0.407954937822D-05 0.000000000000D+00  7 21 2 23 -13 13 23 2 2 0.35679412D-01 0.67326997D+00 0.10230489D+06 0.10230489D+06 0.10230489D+06 0.11209108D+01  1  2  5  3  7  1       -2 0.966549561736D-05 0.100000000000D+01
  </mgrwgt>
  </event>
  <event>
  8     66 0.28248871E-05 0.39544224E+03 0.75467711E-02 0.87842696E-01
       -2 -1    0    0    0  501 0.00000000E+00 0.00000000E+00 0.12287433E+04 0.12287433E+04 0.32000000E+00 0.0000E+00 0.9000E+01
        2 -1    0    0  501    0 0.00000000E+00 0.00000000E+00 -.13252177E+03 0.13252215E+03 0.32000000E+00 0.0000E+00 0.9000E+01
       25  2    1    2    0    0 -.72112542E+02 0.33732146E+03 0.64124483E+03 0.78296430E+03 0.28784054E+03 0.0000E+00 0.0000E+00
       23  2    1    2    0    0 0.72112542E+02 -.33732146E+03 0.45497666E+03 0.57830115E+03 0.91882940E+02 0.0000E+00 0.0000E+00
       23  1    3    3    0    0 -.10008470E+01 0.30984295E+03 0.52702059E+03 0.61811779E+03 0.91188000E+02 0.0000E+00 0.9000E+01
      -13  1    4    4    0    0 0.26318018E+02 -.24051388E+03 0.36763356E+03 0.44010681E+03 0.10565837E+00 0.0000E+00 0.9000E+01
       13  1    4    4    0    0 0.45794524E+02 -.96807583E+02 0.87343105E+02 0.13819434E+03 0.10565837E+00 0.0000E+00 0.9000E+01
       23  1    3    3    0    0 -.71111695E+02 0.27478512E+02 0.11422425E+03 0.16484651E+03 0.91188000E+02 0.0000E+00 0.9000E+01
#aMCatNLO 1  0  0  2  2 0.79017792D+03 0.00000000D+00  -5  7  0 0.00000000D+00 0.00000000D+00 0.00000000D+00 0.00000000D+00 0.00000000D+00
  <mgrwgt>
 0.2614124235D-02    3    2    0
 0.403528830494007D+03 0.000000000000000D+00 0.000000000000000D+00 0.403528830494007D+03
 0.403528830494007D+03 0.000000000000000D+00 0.000000000000000D+00 -.403528830494007D+03
 0.326731425280589D+03 -.100084705131081D+01 0.309842947513659D+03 0.493408461937284D+02
 0.242974620562052D+03 0.263179922731627D+02 -.240514066322443D+03 0.222937978152325D+02
 0.114454839976925D+03 0.457945496134093D+02 -.968073935093270D+02 -.403868565473812D+02
 0.122896775168448D+03 -.711116948352612D+02 0.274785123181113D+02 -.312477874615797D+02
 0.000000000000000D+00 -.000000000000000D+00 -.000000000000000D+00 0.000000000000000D+00
 0.183708743008052D+04 0.000000000000000D+00 0.000000000000000D+00 0.183708743008052D+04
 0.687422458200079D+03 0.000000000000000D+00 0.000000000000000D+00 -.687422458200079D+03
 0.672526681175178D+03 0.285356921625732D+03 0.600094820612270D+03 0.493408461937284D+02
 0.190507709509307D+03 0.150541185458391D+03 -.114601594414033D+03 0.222937978152325D+02
 0.124196823998782D+03 0.114185046068363D+03 -.274868725753140D+02 -.403868565473812D+02
 0.142247961272975D+03 0.487093128836204D+01 0.104494406307025D+03 -.312477874615797D+02
 0.139503071232436D+04 -.554954084440848D+03 -.562500759929948D+03 0.114966497188044D+04
0.496898878962D-03 0.000000000000D+00 0.000000000000D+00 0.115990604430D-08 0.000000000000D+00  7 -2 2 23 -13 13 23 21 0 0.18903746D+00 0.20387997D-01 0.15637456D+06 0.15637456D+06 0.15637456D+06 0.11061284D+01  1  2  2  2  7  2        2 0.258437230556D-02 0.100000000000D+01
-.275917390605D-04 0.000000000000D+00 -.190822253169D-05 0.115990604430D-08 0.000000000000D+00  7 -2 2 23 -13 13 23 21 2 0.18903746D+00 0.20387997D-01 0.15637456D+06 0.15637456D+06 0.15637456D+06 0.11061284D+01  1  2  3  2  7  2        2 -.175580866037D-03 0.100000000000D+01
0.322671201509D-04 0.000000000000D+00 0.000000000000D+00 0.115990604430D-08 0.000000000000D+00  7 -2 2 23 -13 13 23 21 2 0.18903746D+00 0.20387997D-01 0.15637456D+06 0.15637456D+06 0.15637456D+06 0.11061284D+01  1  2 15  2  7  2        2 0.205332795015D-03 0.100000000000D+01
  </mgrwgt>
  </event>
  <event>
  8     66 0.28248871E-05 0.19275255E+03 0.75467711E-02 0.97634196E-01
       -2 -1    0    0    0  501 0.00000000E+00 0.00000000E+00 0.98962612E+02 0.98963129E+02 0.32000000E+00 0.0000E+00 0.9000E+01
        2 -1    0    0  501    0 0.00000000E+00 0.00000000E+00 -.16701966E+04 0.16701966E+04 0.32000000E+00 0.0000E+00 0.9000E+01
       25  2    1    2    0    0 -.19449676E+03 -.18908785E+03 -.13443302E+04 0.14038294E+04 0.29988343E+03 0.0000E+00 0.0000E+00
       23  2    1    2    0    0 0.19449676E+03 0.18908785E+03 -.22690373E+03 0.36533031E+03 0.91639120E+02 0.0000E+00 0.0000E+00
       23  1    3    3    0    0 0.12198948E+02 -.10544092E+02 -.57435449E+03 0.58177171E+03 0.91188000E+02 0.0000E+00 0.9000E+01
      -13  1    4    4    0    0 0.71873884E+02 0.18705006E+02 -.40496805E+02 0.84591577E+02 0.10565837E+00 0.0000E+00 0.9000E+01
       13  1    4    4    0    0 0.12262287E+03 0.17038285E+03 -.18640693E+03 0.28073873E+03 0.10565837E+00 0.0000E+00 0.9000E+01
       23  1    3    3    0    0 -.20669570E+03 -.17854376E+03 -.76997575E+03 0.82205772E+03 0.91188000E+02 0.0000E+00 0.9000E+01
#aMCatNLO 1  0  0  2  1 0.10393917D+03 0.00000000D+00  -5  7  0 0.00000000D+00 0.00000000D+00 0.00000000D+00 0.00000000D+00 0.00000000D+00
  <mgrwgt>
 0.2372675919D-03    9    2    0
 0.406555655631759D+03 0.000000000000000D+00 0.000000000000000D+00 0.406555655631759D+03
 0.406555655631759D+03 0.000000000000000D+00 0.000000000000000D+00 -.406555655631759D+03
 0.155946427531933D+03 0.121989475546031D+02 -.105440924390748D+02 -.125475275290268D+03
 0.105798430251595D+03 0.718738167927414D+02 0.187048044690014D+02 0.753498015466635D+02
 0.250621196095910D+03 0.122622939265957D+03 0.170383050235315D+03 0.136909513514701D+03
 0.300745257384079D+03 -.206695703613301D+03 -.178543762265242D+03 -.867840397710959D+02
 0.000000000000000D+00 0.000000000000000D+00 -.000000000000000D+00 -.000000000000000D+00
 0.450216145119774D+03 0.000000000000000D+00 0.000000000000000D+00 0.450216145119774D+03
 0.476795179193043D+03 0.000000000000000D+00 0.000000000000000D+00 -.476795179193043D+03
 0.155157971731678D+03 -.353757455860768D+01 0.147841298753793D+01 -.125475275290268D+03
 0.100810138673391D+03 0.614229831775217D+02 0.266891102099839D+02 0.753498015466635D+02
 0.253427165326737D+03 0.971267771916489D+02 0.189861798124522D+03 0.136909513514701D+03
 0.310332334383000D+03 -.237605700574103D+03 -.154928912457619D+03 -.867840397710959D+02
 0.107283714198012D+03 0.825935147635400D+02 -.631004088644255D+02 -.265790340732687D+02
0.344113012970D-05 0.000000000000D+00 0.000000000000D+00 0.587255094351D-06 0.000000000000D+00  7 -2 2 23 -13 13 23 21 0 0.15225059D-01 0.25695336D+00 0.11047086D+06 0.11047086D+06 0.11047086D+06 0.11181903D+01  1  2  2  2  7  2        2 0.144255021856D-03 0.100000000000D+01
-.181739388180D-06 0.000000000000D+00 -.132148457684D-07 0.587255094351D-06 0.000000000000D+00  7 -2 2 23 -13 13 23 21 2 0.15225059D-01 0.25695336D+00 0.11047086D+06 0.11047086D+06 0.11047086D+06 0.11181903D+01  1  2  3  2  7  2        2 -.952599413647D-05 0.100000000000D+01
0.212649779766D-06 0.000000000000D+00 0.000000000000D+00 0.587255094351D-06 0.000000000000D+00  7 -2 2 23 -13 13 23 21 2 0.15225059D-01 0.25695336D+00 0.11047086D+06 0.11047086D+06 0.11047086D+06 0.11181903D+01  1  2 15  2  7  2        2 0.111461834194D-04 0.100000000000D+01
0.268246646127D-05 0.000000000000D+00 0.000000000000D+00 0.587255094351D-06 0.000000000000D+00  7 -2 2 23 -13 13 23 21 2 0.15225059D-01 0.31318761D+00 0.14953395D+06 0.14953395D+06 0.14953395D+06 0.11076586D+01  1  2 12  2  7  2        2 0.870241405937D-04 0.100000000000D+01
-.267483019482D-05 0.000000000000D+00 0.000000000000D+00 0.587255094351D-06 0.000000000000D+00  7 -2 2 23 -13 13 23 21 2 0.15225059D-01 0.25695336D+00 0.11047086D+06 0.11047086D+06 0.11047086D+06 0.11181903D+01  1  2  4  2  7  2        2 -.140203051232D-03 0.100000000000D+01
-.645810633979D-05 0.000000000000D+00 -.196369793492D-05 0.587255094351D-06 0.000000000000D+00  7 -2 2 23 -13 13 23 21 2 0.15225059D-01 0.31681118D+00 0.11047086D+06 0.11047086D+06 0.11047086D+06 0.11181903D+01  1  2  5  2  7  2        2 -.209330039975D-03 0.100000000000D+01
0.676278388109D-05 0.000000000000D+00 0.192141376766D-05 0.587255094351D-06 0.000000000000D+00  7 -2 2 23 -13 13 23 21 2 0.15225059D-01 0.25695336D+00 0.11047086D+06 0.11047086D+06 0.11047086D+06 0.11181903D+01  1  2  6  2  7  2        2 0.354475935254D-03 0.100000000000D+01
0.761464008477D-07 0.000000000000D+00 0.000000000000D+00 0.587255094351D-06 0.000000000000D+00  7 -2 21 23 -13 13 23 -2 2 0.15225059D-01 0.31318761D+00 0.14953395D+06 0.14953395D+06 0.14953395D+06 0.11076586D+01  1  2 12  4  7  2        2 0.489622304271D-06 0.100000000000D+01
-.166947580213D-06 0.000000000000D+00 -.582031918406D-07 0.587255094351D-06 0.000000000000D+00  7 -2 21 23 -13 13 23 -2 2 0.15225059D-01 0.31681118D+00 0.11047086D+06 0.11047086D+06 0.11047086D+06 0.11181903D+01  1  2  5  4  7  2        2 -.106422613906D-05 0.100000000000D+01
  </mgrwgt>
  </event>
  <event>
  8     66 0.28248871E-05 0.18694276E+03 0.75467711E-02 0.92570058E-01
       -2 -1    0    0    0  501 0.00000000E+00 0.00000000E+00 0.11832442E+03 0.11832485E+03 0.32000000E+00 0.0000E+00 0.9000E+01
        2 -1    0    0  501    0 0.00000000E+00 0.00000000E+00 -.15379119E+04 0.15379120E+04 0.32000000E+00 0.0000E+00 0.9000E+01
       25  2    1    2    0    0 -.36645764E+03 0.27249945E+02 -.76281680E+03 0.89820718E+03 0.29975474E+03 0.0000E+00 0.0000E+00
       23  2    1    2    0    0 0.36645764E+03 -.27249945E+02 -.65677071E+03 0.75802965E+03 0.90705121E+02 0.0000E+00 0.0000E+00
       23  1    3    3    0    0 -.23836653E+03 0.12874736E+03 -.42903147E+03 0.51553636E+03 0.91188000E+02 0.0000E+00 0.9000E+01
      -13  1    4    4    0    0 0.16134556E+02 0.20456968E+01 -.87210287E+02 0.88713889E+02 0.10565837E+00 0.0000E+00 0.9000E+01
       13  1    4    4    0    0 0.35032308E+03 -.29295642E+02 -.56956043E+03 0.66931576E+03 0.10565837E+00 0.0000E+00 0.9000E+01
       23  1    3    3    0    0 -.12809111E+03 -.10149741E+03 -.33378534E+03 0.38267082E+03 0.91188000E+02 0.0000E+00 0.9000E+01
#aMCatNLO 1  0  0  1  2 0.31092146D+03 0.00000000D+00  -5  7  0 0.00000000D+00 0.00000000D+00 0.00000000D+00 0.00000000D+00 0.00000000D+00
  <mgrwgt>
 0.3126895671D-03    7    2    0
 0.426582848285093D+03 0.000000000000000D+00 0.000000000000000D+00 0.426582848285093D+03
 0.426582848285093D+03 0.000000000000000D+00 0.000000000000000D+00 -.426582848285093D+03
 0.286934393980027D+03 -.238366526707901D+03 0.128747356120193D+03 0.249321547796650D+02
 0.271086842453162D+02 0.161341025995609D+02 0.204573933190776D+01 -.216883942560296D+02
 0.351637335306369D+03 0.350323532575632D+03 -.292956845247592D+02 0.800006083224644D+01
 0.187485283038473D+03 -.128091108467292D+03 -.101497410927342D+03 -.112438213558818D+02
 0.000000000000000D+00 0.000000000000000D+00 -.000000000000000D+00 0.000000000000000D+00
 0.832338946893778D+03 0.000000000000000D+00 0.000000000000000D+00 0.832338946893778D+03
 0.517911466432386D+03 0.000000000000000D+00 0.000000000000000D+00 -.517911466432386D+03
 0.403574570011718D+03 -.351130973969000D+03 0.175050304180733D+03 0.249321547796650D+02
 0.236968211259115D+02 0.783724473128891D+01 0.545256646821928D+01 -.216883942560296D+02
 0.252104251788135D+03 0.251728742489657D+03 0.111889678215627D+02 0.800006083224644D+01
 0.228679344438241D+03 -.196053403867115D+03 -.735909678027041D+02 -.112438213558818D+02
 0.442195425962158D+03 0.287618390615170D+03 -.118100870667811D+03 0.314427480461391D+03
0.989164583965D-05 0.000000000000D+00 0.000000000000D+00 0.896578588065D-06 0.000000000000D+00  7 -2 2 23 -13 13 23 21 0 0.18203793D-01 0.23660187D+00 0.17673892D+06 0.17673892D+06 0.17673892D+06 0.11019735D+01  1  2  2  1  7  1       -2 0.361608336180D-03 0.100000000000D+01
-.549393609124D-06 0.000000000000D+00 -.379865245544D-07 0.896578588065D-06 0.000000000000D+00  7 -2 2 23 -13 13 23 21 2 0.18203793D-01 0.23660187D+00 0.17673892D+06 0.17673892D+06 0.17673892D+06 0.11019735D+01  1  2  3  1  7  1       -2 -.243890994860D-04 0.100000000000D+01
0.643093402687D-06 0.000000000000D+00 0.000000000000D+00 0.896578588065D-06 0.000000000000D+00  7 -2 2 23 -13 13 23 21 2 0.18203793D-01 0.23660187D+00 0.17673892D+06 0.17673892D+06 0.17673892D+06 0.11019735D+01  1  2 15  1  7  1       -2 0.285486920787D-04 0.100000000000D+01
0.915415886028D-06 0.000000000000D+00 0.000000000000D+00 0.896578588065D-06 0.000000000000D+00  7 -2 2 23 -13 13 23 21 2 0.35847738D-01 0.23660187D+00 0.36219490D+06 0.36219490D+06 0.36219490D+06 0.10785498D+01  1  2 12  1  7  1       -2 0.117614543252D-04 0.100000000000D+01
-.477518506298D-05 0.000000000000D+00 -.302220259914D-05 0.896578588065D-06 0.000000000000D+00  7 -2 2 23 -13 13 23 21 2 0.42992538D-01 0.23660187D+00 0.17673892D+06 0.17673892D+06 0.17673892D+06 0.11019735D+01  1  2  5  1  7  1       -2 -.468700814205D-04 0.100000000000D+01
0.671775131495D-07 0.000000000000D+00 0.000000000000D+00 0.896578588065D-06 0.000000000000D+00  7 21 2 23 -13 13 23 2 2 0.35847738D-01 0.23660187D+00 0.36219490D+06 0.36219490D+06 0.36219490D+06 0.10785498D+01  1  2 12  3  7  1       -2 0.956058676200D-05 0.100000000000D+01
-.257408016193D-06 0.000000000000D+00 -.283556208593D-06 0.896578588065D-06 0.000000000000D+00  7 21 2 23 -13 13 23 2 2 0.42992538D-01 0.23660187D+00 0.17673892D+06 0.17673892D+06 0.17673892D+06 0.11019735D+01  1  2  5  3  7  1       -2 -.275303213819D-04 0.100000000000D+01
  </mgrwgt>
  </event>
  <event>
  8     66 0.28248871E-05 0.32322310E+03 0.75467711E-02 0.98297764E-01
       -2 -1    0    0    0  501 0.00000000E+00 0.00000000E+00 0.70516878E+02 0.70517604E+02 0.32000000E+00 0.0000E+00 0.9000E+01
        2 -1    0    0  501    0 0.00000000E+00 0.00000000E+00 -.16200623E+04 0.16200623E+04 0.32000000E+00 0.0000E+00 0.9000E+01
       25  2    1    2    0    0 -.13006513E+03 -.21893503E+03 -.76690995E+03 0.86255303E+03 0.30165770E+03 0.0000E+00 0.0000E+00
       23  2    1    2    0    0 0.13006513E+03 0.21893503E+03 -.78263545E+03 0.82802688E+03 0.90888878E+02 0.0000E+00 0.0000E+00
       23  1    3    3    0    0 -.19012098E+03 -.13530206E+03 -.41552821E+03 0.48521292E+03 0.91188000E+02 0.0000E+00 0.9000E+01
      -13  1    4    4    0    0 0.94854959E+02 0.19161513E+03 -.53018626E+03 0.57167412E+03 0.10565837E+00 0.0000E+00 0.9000E+01
       13  1    4    4    0    0 0.35210171E+02 0.27319895E+02 -.25244919E+03 0.25635276E+03 0.10565837E+00 0.0000E+00 0.9000E+01
       23  1    3    3    0    0 0.60055847E+02 -.83632968E+02 -.35138174E+03 0.37734011E+03 0.91188000E+02 0.0000E+00 0.9000E+01
#aMCatNLO 1  0  0  1  2 0.80308433D+02 0.00000000D+00  -5  7  0 0.00000000D+00 0.00000000D+00 0.00000000D+00 0.00000000D+00 0.00000000D+00
  <mgrwgt>
 0.3454994892D-03    3    2    0
 0.337997593931093D+03 0.000000000000000D+00 0.000000000000000D+00 0.337997593931093D+03
 0.337997593931093D+03 0.000000000000000D+00 0.000000000000000D+00 -.337997593931093D+03
 0.260965454061080D+03 -.190120977797728D+03 -.135302061213153D+03 0.730416518297178D+02
 0.214370238180062D+03 0.948550398990961D+02 0.191615355982554D+03 -.155137285910507D+02
 0.624312230387917D+02 0.352100906587452D+02 0.273196733920180D+02 -.437211913341318D+02
 0.138228272582252D+03 0.600558472398867D+02 -.836329681614190D+02 -.138067319045353D+02
 0.000000000000000D+00 -.000000000000000D+00 -.000000000000000D+00 -.000000000000000D+00
 0.342834733040410D+03 0.000000000000000D+00 0.000000000000000D+00 0.342834733040410D+03
 0.995717981716130D+03 0.000000000000000D+00 0.000000000000000D+00 -.995717981716130D+03
 0.236964838893297D+03 -.173937974732608D+03 -.110668792220893D+03 0.730416518297178D+02
 0.241090644112813D+03 0.109657764213086D+03 0.214147607158523D+03 -.155137285910507D+02
 0.678795670045257D+02 0.394452616144567D+02 0.337663202202016D+02 -.437211913341318D+02
 0.134813757153468D+03 0.689298604635101D+02 -.701252184626298D+02 -.138067319045353D+02
 0.657803907592438D+03 -.440949115584455D+02 -.671199166952020D+02 -.652883248675720D+03
0.448583077169D-05 0.000000000000D+00 0.000000000000D+00 0.569566619372D-07 0.000000000000D+00  7 -2 2 23 -13 13 23 21 0 0.10848809D-01 0.24924041D+00 0.10447317D+06 0.10447317D+06 0.10447317D+06 0.11201658D+01  1  2  2  1  7  1       -2 0.341829416808D-03 0.100000000000D+01
-.248607495605D-06 0.000000000000D+00 -.172267713096D-07 0.569566619372D-07 0.000000000000D+00  7 -2 2 23 -13 13 23 21 2 0.10848809D-01 0.24924041D+00 0.10447317D+06 0.10447317D+06 0.10447317D+06 0.11201658D+01  1  2  3  1  7  1       -2 -.237708873003D-04 0.100000000000D+01
0.286990896885D-06 0.000000000000D+00 0.000000000000D+00 0.569566619372D-07 0.000000000000D+00  7 -2 2 23 -13 13 23 21 2 0.10848809D-01 0.24924041D+00 0.10447317D+06 0.10447317D+06 0.10447317D+06 0.11201658D+01  1  2 15  1  7  1       -2 0.274409596921D-04 0.100000000000D+01
  </mgrwgt>
  </event>
  <event>
  8     66 0.28248871E-05 0.39431273E+03 0.75467711E-02 0.95137029E-01
       -2 -1    0    0    0  501 0.00000000E+00 0.00000000E+00 0.21374141E+03 0.21374165E+03 0.32000000E+00 0.0000E+00 0.9000E+01
        2 -1    0    0  501    0 0.00000000E+00 0.00000000E+00 -.97046335E+03 0.97046340E+03 0.32000000E+00 0.0000E+00 0.9000E+01
       25  2    1    2    0    0 0.12021821E+03 -.34543780E+03 -.20361891E+03 0.51468434E+03 0.29943216E+03 0.0000E+00 0.0000E+00
       23  2    1    2    0    0 -.12021821E+03 0.34543780E+03 -.55310304E+03 0.66952071E+03 0.92494999E+02 0.0000E+00 0.0000E+00
       23  1    3    3    0    0 0.67606072E+02 -.27119499E+03 -.24143560E+03 0.38042569E+03 0.91188000E+02 0.0000E+00 0.9000E+01
      -13  1    4    4    0    0 -.97986584E+02 0.28839603E+03 -.51210509E+03 0.59583997E+03 0.10565837E+00 0.0000E+00 0.9000E+01
       13  1    4    4    0    0 -.22231630E+02 0.57041766E+02 -.40997950E+02 0.73680740E+02 0.10565837E+00 0.0000E+00 0.9000E+01
       23  1    3    3    0    0 0.52612142E+02 -.74242807E+02 0.37816690E+02 0.13425865E+03 0.91188000E+02 0.0000E+00 0.9000E+01
#aMCatNLO 1  0  0  2  2 0.15298040D+03 0.00000000D+00  -5  7  0 0.00000000D+00 0.00000000D+00 0.00000000D+00 0.00000000D+00 0.00000000D+00
  <mgrwgt>
 0.4493214108D-03    3    2    0
 0.455443052299513D+03 0.000000000000000D+00 0.000000000000000D+00 0.455443052299513D+03
 0.455443052299513D+03 0.000000000000000D+00 0.000000000000000D+00 -.455443052299513D+03
 0.294002072771236D+03 0.676060720986238D+02 -.271194989464054D+03 0.215966543018205D+01
 0.349193917166154D+03 -.979866832676580D+02 0.288396332530230D+03 -.170770480678481D+03
 0.617296875316908D+02 -.222315309719308D+02 0.570414641118836D+02 0.791105083898306D+01
 0.205960427129945D+03 0.526121421409649D+02 -.742428071780598D+02 0.160699764409316D+03
 0.000000000000000D+00 -.000000000000000D+00 -.000000000000000D+00 0.000000000000000D+00
 0.141573169034353D+04 0.000000000000000D+00 0.000000000000000D+00 0.141573169034353D+04
 0.467954968234640D+03 0.000000000000000D+00 0.000000000000000D+00 -.467954968234640D+03
 0.257933271457754D+03 0.811538980057757D+02 -.227208498662786D+03 0.215966543018205D+01
 0.395529703239244D+03 -.797066690165498D+02 0.347747086238908D+03 -.170770480678481D+03
 0.706506821055709D+02 -.189821173945572D+02 0.675915185198906D+02 0.791105083898306D+01
 0.199529400401021D+03 0.625653108371726D+02 -.419272927700918D+02 0.160699764409316D+03
 0.960043601374579D+03 -.450304224318412D+02 -.146202813325921D+03 0.947776722108888D+03
0.158153487449D-04 0.000000000000D+00 0.000000000000D+00 0.350303295254D-06 0.000000000000D+00  7 -2 2 23 -13 13 23 21 0 0.32883316D-01 0.14930208D+00 0.15548253D+06 0.15548253D+06 0.15548253D+06 0.11063237D+01  1  2  2  2  7  2        2 0.444226622267D-03 0.100000000000D+01
-.856439601566D-06 0.000000000000D+00 -.607351034575D-07 0.350303295254D-06 0.000000000000D+00  7 -2 2 23 -13 13 23 21 2 0.32883316D-01 0.14930208D+00 0.15548253D+06 0.15548253D+06 0.15548253D+06 0.11063237D+01  1  2  3  2  7  2        2 -.294433336254D-04 0.100000000000D+01
0.100463541188D-05 0.000000000000D+00 0.000000000000D+00 0.350303295254D-06 0.000000000000D+00  7 -2 2 23 -13 13 23 21 2 0.32883316D-01 0.14930208D+00 0.15548253D+06 0.15548253D+06 0.15548253D+06 0.11063237D+01  1  2 15  2  7  2        2 0.345381221861D-04 0.100000000000D+01
  </mgrwgt>
  </event>
  <event>
  8     66 0.28248871E-05 0.12587961E+04 0.75467711E-02 0.78040668E-01
       -2 -1    0    0    0  501 0.00000000E+00 0.00000000E+00 0.21001985E+04 0.21001985E+04 0.32000000E+00 0.0000E+00 0.9000E+01
        2 -1    0    0  501    0 0.00000000E+00 0.00000000E+00 -.10224558E+04 0.10224558E+04 0.32000000E+00 0.0000E+00 0.9000E+01
       25  2    1    2    0    0 -.10309532E+04 0.70296453E+03 0.13278447E+04 0.18467768E+04 0.30064800E+03 0.0000E+00 0.0000E+00
       23  2    1    2    0    0 0.10309532E+04 -.70296453E+03 -.25010204E+03 0.12758776E+04 0.91043422E+02 0.0000E+00 0.0000E+00
       23  1    3    3    0    0 -.27150750E+03 0.25425913E+03 0.28221030E+03 0.47573305E+03 0.91188000E+02 0.0000E+00 0.9000E+01
      -13  1    4    4    0    0 0.92398030E+02 -.63150916E+02 -.49648520E+02 0.12243537E+03 0.10565837E+00 0.0000E+00 0.9000E+01
       13  1    4    4    0    0 0.93855515E+03 -.63981362E+03 -.20045352E+03 0.11534422E+04 0.10565837E+00 0.0000E+00 0.9000E+01
       23  1    3    3    0    0 -.75944567E+03 0.44870541E+03 0.10456344E+04 0.13710437E+04 0.91188000E+02 0.0000E+00 0.9000E+01
#aMCatNLO 1  0  0  2  2 0.25042466D+04 0.00000000D+00  -5  7  0 0.00000000D+00 0.00000000D+00 0.00000000D+00 0.00000000D+00 0.00000000D+00
  <mgrwgt>
 0.4034750702D-03    5    2    0
 0.146538738150953D+04 0.000000000000000D+00 0.000000000000000D+00 0.146538738150953D+04
 0.146538738150953D+04 0.000000000000000D+00 0.000000000000000D+00 -.146538738150953D+04
 0.403101522881709D+03 -.271507502708212D+03 0.254259127497496D+03 0.125744019591054D+03
 0.148707137118585D+03 0.923968901474595D+02 -.631501389234908D+02 -.979218426860299D+02
 0.130267365531069D+04 0.938556285796322D+03 -.639814394579535D+03 -.637736850998558D+03
 0.107629244770807D+04 -.759445673235569D+03 0.448705406005530D+03 0.609914674093534D+03
 0.000000000000000D+00 -.000000000000000D+00 0.000000000000000D+00 -.000000000000000D+00
 0.226853501591313D+04 0.000000000000000D+00 0.000000000000000D+00 0.226853501591313D+04
 0.652440606827243D+04 0.000000000000000D+00 0.000000000000000D+00 -.652440606827243D+04
 0.295467853774776D+03 -.137242998804153D+02 0.250970289875415D+03 0.125744019591054D+03
 0.275231932928401D+03 0.248837144948793D+03 -.651460276778959D+02 -.979218426860299D+02
 0.252232819562457D+04 0.235004276216560D+04 -.657822355438189D+03 -.637736850998558D+03
 0.761928769806409D+03 -.811128278639161D+02 0.440051131569963D+03 0.609914674093534D+03
 0.493798433205140D+04 -.250404277937006D+04 0.319469616707066D+02 -.425587105235930D+04
0.749019983903D-02 0.000000000000D+00 0.000000000000D+00 0.948207539974D-05 0.000000000000D+00  7 -2 2 23 -13 13 23 21 0 0.32310746D+00 0.15730089D+00 0.15845677D+07 0.15845677D+07 0.15845677D+07 0.10348102D+01  1  2  2  2  7  2        2 0.400387564821D-03 0.100000000000D+01
-.404438447047D-03 0.000000000000D+00 -.287643395968D-04 0.948207539974D-05 0.000000000000D+00  7 -2 2 23 -13 13 23 21 2 0.32310746D+00 0.15730089D+00 0.15845677D+07 0.15845677D+07 0.15845677D+07 0.10348102D+01  1  2  3  2  7  2        2 -.231505357949D-04 0.100000000000D+01
0.459471728744D-03 0.000000000000D+00 0.000000000000D+00 0.948207539974D-05 0.000000000000D+00  7 -2 2 23 -13 13 23 21 2 0.32310746D+00 0.15730089D+00 0.15845677D+07 0.15845677D+07 0.15845677D+07 0.10348102D+01  1  2 15  2  7  2        2 0.263007060300D-04 0.100000000000D+01
-.521038304720D-03 0.000000000000D+00 -.279411246096D-02 0.948207539974D-05 0.000000000000D+00  7 -2 2 23 -13 13 23 21 2 0.32310746D+00 0.73841871D+00 0.15845677D+07 0.15845677D+07 0.15845677D+07 0.10348102D+01  1  2  5  2  7  2        2 -.625271121863D-07 0.100000000000D+01
-.143930350391D-03 0.000000000000D+00 -.524318648864D-03 0.948207539974D-05 0.000000000000D+00  7 -2 21 23 -13 13 23 -2 2 0.32310746D+00 0.73841871D+00 0.15845677D+07 0.15845677D+07 0.15845677D+07 0.10348102D+01  1  2  5  4  7  2        2 -.137739062973D-09 0.100000000000D+01
  </mgrwgt>
  </event>
  <event>
  8     66 0.28248871E-05 0.27037592E+03 0.75467711E-02 0.95338394E-01
       -2 -1    0    0    0  501 0.00000000E+00 0.00000000E+00 0.59186795E+03 0.59186804E+03 0.32000000E+00 0.0000E+00 0.9000E+01
        2 -1    0    0  501    0 0.00000000E+00 0.00000000E+00 -.59505008E+03 0.59505016E+03 0.32000000E+00 0.0000E+00 0.9000E+01
       25  2    1    2    0    0 0.31388597E+03 -.13730753E+03 0.43042859E+03 0.62669899E+03 0.30017510E+03 0.0000E+00 0.0000E+00
       23  2    1    2    0    0 -.31388597E+03 0.13730753E+03 -.43361072E+03 0.56021921E+03 0.91921410E+02 0.0000E+00 0.0000E+00
       23  1    3    3    0    0 0.16319920E+03 -.13694154E+03 0.37720468E+03 0.44270259E+03 0.91188000E+02 0.0000E+00 0.9000E+01
      -13  1    4    4    0    0 -.77075994E+02 0.18094808E+02 -.49084364E+02 0.93152654E+02 0.10565837E+00 0.0000E+00 0.9000E+01
       13  1    4    4    0    0 -.23680998E+03 0.11921273E+03 -.38452635E+03 0.46706655E+03 0.10565837E+00 0.0000E+00 0.9000E+01
       23  1    3    3    0    0 0.15068678E+03 -.36599004E+00 0.53223911E+02 0.18399640E+03 0.91188000E+02 0.0000E+00 0.9000E+01
#aMCatNLO 1  0  0  1  2 0.17376277D+03 0.00000000D+00  -5  7  0 0.00000000D+00 0.00000000D+00 0.00000000D+00 0.00000000D+00 0.00000000D+00
  <mgrwgt>
 0.1387202729D-03    7    2    0
 0.593456966712364D+03 0.000000000000000D+00 0.000000000000000D+00 0.593456966712364D+03
 0.593456966712364D+03 0.000000000000000D+00 0.000000000000000D+00 -.593456966712364D+03
 0.443715472801935D+03 0.163199197410625D+03 -.136941543414166D+03 0.378392924235799D+03
 0.930208998968374D+02 -.770757828711670D+02 0.180946742072781D+02 -.488343555066167D+02
 0.466037808012404D+03 -.236810190428146D+03 0.119212859255806D+03 -.383275966366855D+03
 0.184139752713550D+03 0.150686775888688D+03 -.365990048918526D+00 0.537173976376730D+02
 0.000000000000000D+00 -.000000000000000D+00 -.000000000000000D+00 0.000000000000000D+00
 0.651694040788512D+04 0.000000000000000D+00 0.000000000000000D+00 0.651694040788512D+04
 0.601058591864309D+03 0.000000000000000D+00 0.000000000000000D+00 -.601058591864309D+03
 0.431517399807735D+03 0.171108251586360D+03 -.737073681538582D+02 0.378392924235799D+03
 0.952405960826800D+02 -.753745552122157D+02 0.316962661996364D+02 -.488343555066167D+02
 0.484020532391788D+03 -.228224974859218D+03 0.187853054893691D+03 -.383275966366855D+03
 0.188787303721083D+03 0.154056736484597D+03 0.265773933452460D+02 0.537173976376730D+02
 0.591843316774614D+04 -.215654579995237D+02 -.172419346284715D+03 0.591588181602081D+04
0.206091037261D-04 0.000000000000D+00 0.000000000000D+00 0.284132694467D-05 0.000000000000D+00  7 -2 2 23 -13 13 23 21 0 0.91056621D-01 0.91546179D-01 0.14143732D+06 0.14143732D+06 0.14143732D+06 0.11095720D+01  1  2  2  1  7  1       -2 0.135797980161D-03 0.100000000000D+01
-.855282487632D-06 0.000000000000D+00 -.791443848098D-07 0.284132694467D-05 0.000000000000D+00  7 -2 2 23 -13 13 23 21 2 0.91056621D-01 0.91546179D-01 0.14143732D+06 0.14143732D+06 0.14143732D+06 0.11095720D+01  1  2  3  1  7  1       -2 -.693832708618D-05 0.100000000000D+01
0.121481198613D-05 0.000000000000D+00 0.000000000000D+00 0.284132694467D-05 0.000000000000D+00  7 -2 2 23 -13 13 23 21 2 0.91056621D-01 0.91546179D-01 0.14143732D+06 0.14143732D+06 0.14143732D+06 0.11095720D+01  1  2 15  1  7  1       -2 0.985494620770D-05 0.100000000000D+01
0.214934687320D-02 0.000000000000D+00 0.000000000000D+00 0.284132694467D-05 0.000000000000D+00  7 -2 2 23 -13 13 23 21 2 0.99044912D+00 0.91546179D-01 0.22068142D+06 0.22068142D+06 0.22068142D+06 0.10945582D+01  1  2 12  1  7  1       -2 0.570499230328D-08 0.100000000000D+01
-.308388489565D-02 0.000000000000D+00 -.147010974709D-04 0.284132694467D-05 0.000000000000D+00  7 -2 2 23 -13 13 23 21 2 0.99992191D+00 0.91546179D-01 0.14143732D+06 0.14143732D+06 0.14143732D+06 0.11095720D+01  1  2  5  1  7  1       -2 -.356484286223D-10 0.100000000000D+01
0.604592409595D-03 0.000000000000D+00 0.000000000000D+00 0.284132694467D-05 0.000000000000D+00  7 21 2 23 -13 13 23 2 2 0.99044912D+00 0.91546179D-01 0.22068142D+06 0.22068142D+06 0.22068142D+06 0.10945582D+01  1  2 12  3  7  1       -2 0.427681331423D-11 0.100000000000D+01
-.872497852604D-03 0.000000000000D+00 -.414698271438D-05 0.284132694467D-05 0.000000000000D+00  7 21 2 23 -13 13 23 2 2 0.99992191D+00 0.91546179D-01 0.14143732D+06 0.14143732D+06 0.14143732D+06 0.11095720D+01  1  2  5  3  7  1       -2 -.387182071938D-13 0.100000000000D+01
  </mgrwgt>
  </event>
  <event>
  8     66 0.28248871E-05 0.19911477E+03 0.75467711E-02 0.97364479E-01
       -4 -1    0    0    0  501 0.00000000E+00 0.00000000E+00 0.61317658E+03 0.61317854E+03 0.15500000E+01 0.0000E+00 0.9000E+01
        4 -1    0    0  501    0 0.00000000E+00 0.00000000E+00 -.12342373E+03 0.12343347E+03 0.15500000E+01 0.0000E+00 0.9000E+01
       25  2    1    2    0    0 0.24220009E+01 -.16009666E+03 0.20071764E+03 0.39518831E+03 0.30041541E+03 0.0000E+00 0.0000E+00
       23  2    1    2    0    0 -.24220009E+01 0.16009666E+03 0.28903520E+03 0.34142370E+03 0.85976650E+02 0.0000E+00 0.0000E+00
       23  1    3    3    0    0 -.11053643E+03 -.34391846E+02 0.72053198E+02 0.16403663E+03 0.91188000E+02 0.0000E+00 0.9000E+01
      -13  1    4    4    0    0 -.64945102E+01 -.95576804E+01 0.25194310E+02 0.27718087E+02 0.10565837E+00 0.0000E+00 0.9000E+01
       13  1    4    4    0    0 0.40725093E+01 0.16965434E+03 0.26384089E+03 0.31370561E+03 0.10565837E+00 0.0000E+00 0.9000E+01
       23  1    3    3    0    0 0.11295843E+03 -.12570482E+03 0.12866444E+03 0.23115168E+03 0.91188000E+02 0.0000E+00 0.9000E+01
#aMCatNLO 1  0  0  2  1 0.22752951D+03 0.00000000D+00  -5  7  0 0.00000000D+00 0.00000000D+00 0.00000000D+00 0.00000000D+00 0.00000000D+00
  <mgrwgt>
 0.3770979186D-04    7    2    0
 0.275108794692784D+03 0.000000000000000D+00 0.000000000000000D+00 0.275108794692784D+03
 0.275108794692784D+03 0.000000000000000D+00 0.000000000000000D+00 -.275108794692784D+03
 0.155471386501208D+03 -.110536427698666D+03 -.343918470518148D+02 -.495479533844745D+02
 0.146820958385205D+02 -.649452530630672D+01 -.955794787567471D+01 0.905708074730097D+01
 0.185131545071395D+03 0.407252432420597D+01 0.169654614622130D+03 0.739892915465950D+02
 0.194932561974446D+03 0.112958428680767D+03 -.125704819694641D+03 -.334984189094215D+02
 0.000000000000000D+00 -.000000000000000D+00 0.000000000000000D+00 -.000000000000000D+00
 0.336375755729339D+03 0.000000000000000D+00 0.000000000000000D+00 0.336375755729339D+03
 0.632371163345019D+03 0.000000000000000D+00 0.000000000000000D+00 -.632371163345019D+03
 0.140268982563980D+03 -.636050841813944D+02 -.697103271203176D+02 -.495479533844745D+02
 0.161186797489625D+02 -.160671853084435D+01 -.132362978490636D+02 0.905708074730097D+01
 0.159496262567617D+03 0.587618657794663D+02 0.128497804026323D+03 0.739892915465950D+02
 0.279522720984195D+03 0.188250225801668D+03 -.182366138903575D+03 -.334984189094215D+02
 0.373340273209604D+03 -.181800288868895D+03 0.136814959846634D+03 -.295995407615680D+03
0.922207746167D-05 0.000000000000D+00 0.000000000000D+00 0.111471524061D-07 0.000000000000D+00  7 -4 4 23 -13 13 23 21 0 0.94335758D-01 0.18989166D-01 0.67770809D+05 0.67770809D+05 0.67770809D+05 0.11358564D+01  1  2  2  2  7  2        4 0.477844376744D-04 0.100000000000D+01
-.510437953301D-06 0.000000000000D+00 -.354152056816D-07 0.111471524061D-07 0.000000000000D+00  7 -4 4 23 -13 13 23 21 2 0.94335758D-01 0.18989166D-01 0.67770809D+05 0.67770809D+05 0.67770809D+05 0.11358564D+01  1  2  3  2  7  2        4 -.341230259831D-05 0.100000000000D+01
0.607665906471D-06 0.000000000000D+00 0.000000000000D+00 0.111471524061D-07 0.000000000000D+00  7 -4 4 23 -13 13 23 21 2 0.94335758D-01 0.18989166D-01 0.67770809D+05 0.67770809D+05 0.67770809D+05 0.11358564D+01  1  2 15  2  7  2        4 0.406227620448D-05 0.100000000000D+01
0.200401235344D-06 0.000000000000D+00 0.000000000000D+00 0.111471524061D-07 0.000000000000D+00  7 -4 4 23 -13 13 23 21 2 0.94335758D-01 0.43200608D-01 0.15637831D+06 0.15637831D+06 0.15637831D+06 0.11061275D+01  1  2 12  2  7  2        4 0.255427443880D-06 0.100000000000D+01
-.488046863014D-05 0.000000000000D+00 -.313723012742D-05 0.111471524061D-07 0.000000000000D+00  7 -4 4 23 -13 13 23 21 2 0.94335758D-01 0.51769349D-01 0.67770809D+05 0.67770809D+05 0.67770809D+05 0.11358564D+01  1  2  5  2  7  2        4 -.434446586402D-05 0.100000000000D+01
0.179067020204D-07 0.000000000000D+00 0.000000000000D+00 0.111471524061D-07 0.000000000000D+00  7 -4 21 23 -13 13 23 -4 2 0.94335758D-01 0.43200608D-01 0.15637831D+06 0.15637831D+06 0.15637831D+06 0.11061275D+01  1  2 12  4  7  2        4 0.469840134564D-06 0.100000000000D+01
-.366211895141D-06 0.000000000000D+00 -.351592988859D-06 0.111471524061D-07 0.000000000000D+00  7 -4 21 23 -13 13 23 -4 2 0.94335758D-01 0.51769349D-01 0.67770809D+05 0.67770809D+05 0.67770809D+05 0.11358564D+01  1  2  5  4  7  2        4 -.710542113400D-05 0.100000000000D+01
  </mgrwgt>
  </event>
  <event>
  8     66 0.28248871E-05 0.13312638E+03 0.75467711E-02 0.98984305E-01
       -2 -1    0    0    0  501 0.00000000E+00 0.00000000E+00 0.10049956E+03 0.10050007E+03 0.32000000E+00 0.0000E+00 0.9000E+01
        2 -1    0    0  501    0 0.00000000E+00 0.00000000E+00 -.10937655E+04 0.10937656E+04 0.32000000E+00 0.0000E+00 0.9000E+01
       25  2    1    2    0    0 -.21714754E+03 0.63938168E+02 -.79817847E+03 0.88222896E+03 0.29999654E+03 0.0000E+00 0.0000E+00
       23  2    1    2    0    0 0.21714754E+03 -.63938168E+02 -.19508749E+03 0.31203667E+03 0.89814313E+02 0.0000E+00 0.0000E+00
       23  1    3    3    0    0 -.67206970E+02 -.78350696E+02 -.41663535E+03 0.43881189E+03 0.91188000E+02 0.0000E+00 0.9000E+01
      -13  1    4    4    0    0 0.18873168E+03 -.18157435E+02 -.14937771E+03 0.24137740E+03 0.10565837E+00 0.0000E+00 0.9000E+01
       13  1    4    4    0    0 0.28415857E+02 -.45780733E+02 -.45709778E+02 0.70659262E+02 0.10565837E+00 0.0000E+00 0.9000E+01
       23  1    3    3    0    0 -.14994057E+03 0.14228886E+03 -.38154312E+03 0.44341707E+03 0.91188000E+02 0.0000E+00 0.9000E+01
#aMCatNLO 1  0  0  2  1 0.82217325D+02 0.00000000D+00  -5  7  0 0.00000000D+00 0.00000000D+00 0.00000000D+00 0.00000000D+00 0.00000000D+00
  <mgrwgt>
 0.2000393966D-03    9    2    0
 0.331546800890661D+03 0.000000000000000D+00 0.000000000000000D+00 0.331546800890661D+03
 0.331546800890661D+03 0.000000000000000D+00 0.000000000000000D+00 -.331546800890661D+03
 0.166233313878720D+03 -.672069697524396D+02 -.783506955431409D+02 -.930733851522642D+02
 0.210976372430460D+03 0.188731902675605D+03 -.181573973590630D+02 0.925289552383873D+02
 0.587908282971093D+02 0.284156354753440D+02 -.457807702813752D+02 0.235166797153959D+02
 0.227093087175032D+03 -.149940568398509D+03 0.142288863183579D+03 -.229722498015190D+02
 0.000000000000000D+00 -.000000000000000D+00 -.000000000000000D+00 -.000000000000000D+00
 0.345404359893624D+03 0.000000000000000D+00 0.000000000000000D+00 0.345404359893624D+03
 0.483388687372802D+03 0.000000000000000D+00 0.000000000000000D+00 -.483388687372802D+03
 0.155097744476370D+03 -.583733610883140D+02 -.605801509506938D+02 -.930733851522642D+02
 0.220992387931784D+03 0.200607016782847D+03 0.573173479597007D+01 0.925289552383873D+02
 0.557263238501578D+02 0.315637896331697D+02 -.394476378127912D+02 0.235166797153959D+02
 0.236354789231503D+03 -.137200072047636D+03 0.167918882255238D+03 -.229722498015190D+02
 0.160621801776611D+03 -.365973732800669D+02 -.736228282877230D+02 -.137984327479178D+03
0.195470369470D-05 0.000000000000D+00 0.000000000000D+00 0.195541167916D-06 0.000000000000D+00  7 -2 2 23 -13 13 23 21 0 0.15461513D-01 0.16827166D+00 0.92157414D+05 0.92157414D+05 0.92157414D+05 0.11246444D+01  1  2  2  2  7  2        2 0.166720073826D-03 0.100000000000D+01
-.107568859832D-06 0.000000000000D+00 -.750657687295D-08 0.195541167916D-06 0.000000000000D+00  7 -2 2 23 -13 13 23 21 2 0.15461513D-01 0.16827166D+00 0.92157414D+05 0.92157414D+05 0.92157414D+05 0.11246444D+01  1  2  3  2  7  2        2 -.116044346920D-04 0.100000000000D+01
0.123553602988D-06 0.000000000000D+00 0.000000000000D+00 0.195541167916D-06 0.000000000000D+00  7 -2 2 23 -13 13 23 21 2 0.15461513D-01 0.16827166D+00 0.92157414D+05 0.92157414D+05 0.92157414D+05 0.11246444D+01  1  2 15  2  7  2        2 0.133288548290D-04 0.100000000000D+01
0.389914399678D-05 0.000000000000D+00 0.000000000000D+00 0.195541167916D-06 0.000000000000D+00  7 -2 2 23 -13 13 23 21 2 0.15461513D-01 0.24759051D+00 0.11996881D+06 0.11996881D+06 0.11996881D+06 0.11152907D+01  1  2 12  2  7  2        2 0.213427392595D-03 0.100000000000D+01
-.396393786768D-05 0.000000000000D+00 0.000000000000D+00 0.195541167916D-06 0.000000000000D+00  7 -2 2 23 -13 13 23 21 2 0.15461513D-01 0.16827166D+00 0.92157414D+05 0.92157414D+05 0.92157414D+05 0.11246444D+01  1  2  4  2  7  2        2 -.427626156680D-03 0.100000000000D+01
-.469938968539D-05 0.000000000000D+00 -.766704897036D-06 0.195541167916D-06 0.000000000000D+00  7 -2 2 23 -13 13 23 21 2 0.15461513D-01 0.24911997D+00 0.92157414D+05 0.92157414D+05 0.92157414D+05 0.11246444D+01  1  2  5  2  7  2        2 -.259867796691D-03 0.100000000000D+01
0.469001141989D-05 0.000000000000D+00 0.711252990575D-06 0.195541167916D-06 0.000000000000D+00  7 -2 2 23 -13 13 23 21 2 0.15461513D-01 0.16827166D+00 0.92157414D+05 0.92157414D+05 0.92157414D+05 0.11246444D+01  1  2  6  2  7  2        2 0.505954337635D-03 0.100000000000D+01
0.180891115852D-06 0.000000000000D+00 0.000000000000D+00 0.195541167916D-06 0.000000000000D+00  7 -2 21 23 -13 13 23 -2 2 0.15461513D-01 0.24759051D+00 0.11996881D+06 0.11996881D+06 0.11996881D+06 0.11152907D+01  1  2 12  4  7  2        2 0.318411185594D-05 0.100000000000D+01
-.195060424824D-06 0.000000000000D+00 -.359826780074D-07 0.195541167916D-06 0.000000000000D+00  7 -2 21 23 -13 13 23 -2 2 0.15461513D-01 0.24911997D+00 0.92157414D+05 0.92157414D+05 0.92157414D+05 0.11246444D+01  1  2  5  4  7  2        2 -.347698603006D-05 0.100000000000D+01
  </mgrwgt>
  </event>
  <event>
  8     66 0.28248871E-05 0.36165661E+03 0.75467711E-02 0.90398065E-01
       -2 -1    0    0    0  501 0.00000000E+00 0.00000000E+00 0.50849349E+03 0.50849359E+03 0.32000000E+00 0.0000E+00 0.9000E+01
        2 -1    0    0  501    0 0.00000000E+00 0.00000000E+00 -.29279159E+03 0.29279176E+03 0.32000000E+00 0.0000E+00 0.9000E+01
       25  2    1    2    0    0 0.29336190E+03 -.47036571E+00 0.25515524E+03 0.49137759E+03 0.30047680E+03 0.0000E+00 0.0000E+00
       23  2    1    2    0    0 -.29336190E+03 0.47036571E+00 -.39453339E+02 0.30990777E+03 0.91786874E+02 0.0000E+00 0.0000E+00
       23  1    3    3    0    0 -.98514070E+01 0.40734262E+02 0.53422444E+02 0.11369054E+03 0.91188000E+02 0.0000E+00 0.9000E+01
      -11  1    4    4    0    0 -.11181370E+03 -.37969361E+02 -.38922398E+02 0.12433394E+03 0.51099893E-03 0.0000E+00 0.9000E+01
       11  1    4    4    0    0 -.18154820E+03 0.38439727E+02 -.53094104E+00 0.18557382E+03 0.51099893E-03 0.0000E+00 0.9000E+01
       23  1    3    3    0    0 0.30321331E+03 -.41204628E+02 0.20173280E+03 0.37768705E+03 0.91188000E+02 0.0000E+00 0.9000E+01
#aMCatNLO 1  0  0  2  2 0.56020812D+03 0.00000000D+00  -5  7  0 0.00000000D+00 0.00000000D+00 0.00000000D+00 0.00000000D+00 0.00000000D+00
  <mgrwgt>
 0.1388065991D-03    3    2    0
 0.385853245922803D+03 0.000000000000000D+00 0.000000000000000D+00 0.385853245922803D+03
 0.385853245922803D+03 0.000000000000000D+00 0.000000000000000D+00 -.385853245922803D+03
 0.103115943456751D+03 -.985140700957872D+01 0.407342621430355D+02 0.236921108930779D+02
 0.139978870835261D+03 -.111813702329093D+03 -.379693614191401D+02 -.751671992640295D+02
 0.192835116859746D+03 -.181548200621821D+03 0.384397271308235D+02 -.524215654420865D+02
 0.335776560693848D+03 0.303213309960492D+03 -.412046278547188D+02 0.103896653813038D+03
 0.000000000000000D+00 0.000000000000000D+00 0.000000000000000D+00 0.000000000000000D+00
 0.986397371662653D+03 0.000000000000000D+00 0.000000000000000D+00 0.986397371662653D+03
 0.630765102730312D+03 0.000000000000000D+00 0.000000000000000D+00 -.630765102730312D+03
 0.990308445514657D+02 -.183792012085919D+02 -.243463687834707D+02 0.236921108930779D+02
 0.210848813424013D+03 -.126613770735611D+03 -.150917418932429D+03 -.751671992640295D+02
 0.227743088797165D+03 -.199290774806510D+03 -.969643287425603D+02 -.524215654420865D+02
 0.415983064725428D+03 0.271499467579567D+03 -.283231677650691D+03 0.103896653813038D+03
 0.663556662894894D+03 0.727842791711451D+02 0.555459794109151D+03 0.355632268932341D+03
0.670868259593D-05 0.000000000000D+00 0.000000000000D+00 0.194464590333D-06 0.000000000000D+00  7 -2 2 23 -11 11 23 21 0 0.78229789D-01 0.45044881D-01 0.13079550D+06 0.13079550D+06 0.13079550D+06 0.11122780D+01  1  2  2  2  7  2        2 0.137377289072D-03 0.100000000000D+01
-.370804009668D-06 0.000000000000D+00 -.257631076051D-07 0.194464590333D-06 0.000000000000D+00  7 -2 2 23 -11 11 23 21 2 0.78229789D-01 0.45044881D-01 0.13079550D+06 0.13079550D+06 0.13079550D+06 0.11122780D+01  1  2  3  2  7  2        2 -.939396228254D-05 0.100000000000D+01
0.427222576857D-06 0.000000000000D+00 0.000000000000D+00 0.194464590333D-06 0.000000000000D+00  7 -2 2 23 -11 11 23 21 2 0.78229789D-01 0.45044881D-01 0.13079550D+06 0.13079550D+06 0.13079550D+06 0.11122780D+01  1  2 15  2  7  2        2 0.108232723180D-04 0.100000000000D+01
  </mgrwgt>
  </event>
  <event>
  8     66 0.28248871E-05 0.23640823E+03 0.75467711E-02 0.99108764E-01
       -2 -1    0    0    0  501 0.00000000E+00 0.00000000E+00 0.12751532E+03 0.12751572E+03 0.32000000E+00 0.0000E+00 0.9000E+01
        2 -1    0    0  501    0 0.00000000E+00 0.00000000E+00 -.64660562E+03 0.64660570E+03 0.32000000E+00 0.0000E+00 0.9000E+01
       25  2    1    2    0    0 -.18838085E+03 0.52118052E+02 -.31467381E+03 0.47678219E+03 0.30016331E+03 0.0000E+00 0.0000E+00
       23  2    1    2    0    0 0.18838085E+03 -.52118052E+02 -.20441649E+03 0.29733924E+03 0.91765395E+02 0.0000E+00 0.0000E+00
       23  1    3    3    0    0 -.58619771E+02 0.45713715E+02 0.72315366E+01 0.11787098E+03 0.91188000E+02 0.0000E+00 0.9000E+01
      -11  1    4    4    0    0 0.22856471E+02 -.13230836E+02 0.57265434E+01 0.27023445E+02 0.51099893E-03 0.0000E+00 0.9000E+01
       11  1    4    4    0    0 0.16552437E+03 -.38887216E+02 -.21014304E+03 0.27031580E+03 0.51099893E-03 0.0000E+00 0.9000E+01
       23  1    3    3    0    0 -.12976107E+03 0.64043370E+01 -.32190534E+03 0.35891121E+03 0.91188000E+02 0.0000E+00 0.9000E+01
#aMCatNLO 1  0  0  1  2 0.18381389D+03 0.00000000D+00  -5  7  0 0.00000000D+00 0.00000000D+00 0.00000000D+00 0.00000000D+00 0.00000000D+00
  <mgrwgt>
 0.3840979873D-03    3    2    0
 0.287145104229338D+03 0.000000000000000D+00 0.000000000000000D+00 0.287145104229338D+03
 0.287145104229338D+03 0.000000000000000D+00 0.000000000000000D+00 -.287145104229338D+03
 0.165422063239915D+03 -.586197708368911D+02 0.457137150741045D+02 0.116289235889245D+03
 0.416026958971892D+02 0.228564707311646D+02 -.132308360307704D+02 0.321451556156800D+02
 0.174431039914876D+03 0.165524374524295D+03 -.388872160343446D+02 -.389313954697785D+02
 0.192834409406695D+03 -.129761074418568D+03 0.640433699101049D+01 -.109502996035146D+03
 0.000000000000000D+00 -.000000000000000D+00 -.000000000000000D+00 -.000000000000000D+00
 0.336559342991032D+03 0.000000000000000D+00 0.000000000000000D+00 0.336559342991032D+03
 0.542391261728055D+03 0.000000000000000D+00 0.000000000000000D+00 -.542391261728055D+03
 0.170995485129300D+03 -.218374700716485D+02 0.832114361597618D+02 0.116289235889245D+03
 0.457815127295748D+02 0.324106460689944D+02 -.349083079542783D+01 0.321451556156800D+02
 0.211362307927167D+03 0.207705191257380D+03 0.411402282554437D+01 -.389313954697785D+02
 0.174850569074656D+03 -.895601409924676D+02 0.473871835675752D+02 -.109502996035146D+03
 0.275960729858389D+03 -.128718226262259D+03 -.131221811757454D+03 -.205831918737022D+03
0.330819062677D-05 0.000000000000D+00 0.000000000000D+00 0.380352560438D-06 0.000000000000D+00  7 -2 2 23 -11 11 23 21 0 0.19617779D-01 0.99477825D-01 0.55888851D+05 0.55888851D+05 0.55888851D+05 0.11430662D+01  1  2  2  1  7  1       -2 0.378973744345D-03 0.100000000000D+01
-.175341119349D-06 0.000000000000D+00 -.127043230734D-07 0.380352560438D-06 0.000000000000D+00  7 -2 2 23 -11 11 23 21 2 0.19617779D-01 0.99477825D-01 0.55888851D+05 0.55888851D+05 0.55888851D+05 0.11430662D+01  1  2  3  1  7  1       -2 -.262449141150D-04 0.100000000000D+01
0.209575961861D-06 0.000000000000D+00 0.000000000000D+00 0.380352560438D-06 0.000000000000D+00  7 -2 2 23 -11 11 23 21 2 0.19617779D-01 0.99477825D-01 0.55888851D+05 0.55888851D+05 0.55888851D+05 0.11430662D+01  1  2 15  1  7  1       -2 0.313691571037D-04 0.100000000000D+01
  </mgrwgt>
  </event>
  <event>
  8     66 0.28248871E-05 0.15991298E+03 0.75467711E-02 0.10693642E+00
       -2 -1    0    0    0  501 0.00000000E+00 0.00000000E+00 0.24590248E+02 0.24592330E+02 0.32000000E+00 0.0000E+00 0.9000E+01
        2 -1    0    0  501    0 0.00000000E+00 0.00000000E+00 -.27841964E+04 0.27841964E+04 0.32000000E+00 0.0000E+00 0.9000E+01
       25  2    1    2    0    0 0.18180047E+02 -.76992919E+02 -.10619159E+04 0.11063193E+04 0.30003119E+03 0.0000E+00 0.0000E+00
       23  2    1    2    0    0 -.18180047E+02 0.76992919E+02 -.16976903E+04 0.17024695E+04 0.99957066E+02 0.0000E+00 0.0000E+00
       23  1    3    3    0    0 -.46325331E+02 0.55242360E+02 -.63664162E+03 0.64716733E+03 0.91188000E+02 0.0000E+00 0.9000E+01
      -11  1    4    4    0    0 -.24810629E+02 0.10591456E+02 -.10593415E+03 0.10931509E+03 0.51099893E-03 0.0000E+00 0.9000E+01
       11  1    4    4    0    0 0.66305816E+01 0.66401463E+02 -.15917562E+04 0.15931544E+04 0.51099893E-03 0.0000E+00 0.9000E+01
       23  1    3    3    0    0 0.64505379E+02 -.13223528E+03 -.42527425E+03 0.45915199E+03 0.91188000E+02 0.0000E+00 0.9000E+01
#aMCatNLO 1  0  0  2  1 0.42449414D+00 0.00000000D+00  -5  7  0 0.00000000D+00 0.00000000D+00 0.00000000D+00 0.00000000D+00 0.00000000D+00
  <mgrwgt>
 0.6860305255D-03    9    2    0
 0.261662053565372D+03 0.000000000000000D+00 0.000000000000000D+00 0.261662053565372D+03
 0.261662053565372D+03 0.000000000000000D+00 0.000000000000000D+00 -.261662053565372D+03
 0.116325990591854D+03 -.463253310564387D+02 0.552423593714326D+02 -.432783742357488D+01
 0.281020528799298D+02 -.248106282590101D+02 0.105914564687159D+02 0.787268387088405D+01
 0.157099450250473D+03 0.663058066032977D+01 0.664014633103032D+02 -.142222074022840D+03
 0.221796613408487D+03 0.645053786551190D+02 -.132235279150452D+03 0.138677227575531D+03
 0.000000000000000D+00 0.000000000000000D+00 -.000000000000000D+00 -.000000000000000D+00
 0.261812936054916D+03 0.000000000000000D+00 0.000000000000000D+00 0.261812936054916D+03
 0.261960878988858D+03 0.000000000000000D+00 0.000000000000000D+00 -.261960878988858D+03
 0.116381929551312D+03 -.463620593687247D+02 0.553293001619620D+02 -.432783742357488D+01
 0.281178078924876D+02 -.248195014447695D+02 0.106124604772430D+02 0.787268387088405D+01
 0.157147024738584D+03 0.658098311048672D+01 0.665188672944041D+02 -.142222074022840D+03
 0.221677517112460D+03 0.644353850926029D+02 -.132069595096969D+03 0.138677227575531D+03
 0.449535748930504D+00 0.165192610404636D+00 -.391032836640067D+00 -.147942933942227D+00
0.134689896011D-05 0.000000000000D+00 0.000000000000D+00 0.121154630890D-07 0.000000000000D+00  7 -2 2 23 -11 11 23 21 0 0.37832766D-02 0.42833807D+00 0.36681887D+05 0.36681887D+05 0.36681887D+05 0.11593189D+01  1  2  2  2  7  2        2 0.116654891545D-03 0.100000000000D+01
-.659694371454D-07 0.000000000000D+00 -.517244665345D-08 0.121154630890D-07 0.000000000000D+00  7 -2 2 23 -11 11 23 21 2 0.37832766D-02 0.42833807D+00 0.36681887D+05 0.36681887D+05 0.36681887D+05 0.11593189D+01  1  2  3  2  7  2        2 -.767921064534D-05 0.100000000000D+01
0.830570233567D-07 0.000000000000D+00 0.000000000000D+00 0.121154630890D-07 0.000000000000D+00  7 -2 2 23 -11 11 23 21 2 0.37832766D-02 0.42833807D+00 0.36681887D+05 0.36681887D+05 0.36681887D+05 0.11593189D+01  1  2 15  2  7  2        2 0.966830104257D-05 0.100000000000D+01
-.134366410995D-03 0.000000000000D+00 0.000000000000D+00 0.121154630890D-07 0.000000000000D+00  7 -2 2 23 -11 11 23 21 2 0.37832766D-02 0.42833807D+00 0.36681887D+05 0.36681887D+05 0.36681887D+05 0.11593189D+01  1  2  4  2  7  2        2 -.156410001107D-01 0.100000000000D+01
-.109090424109D-02 0.000000000000D+00 -.814245676805D-04 0.121154630890D-07 0.000000000000D+00  7 -2 2 23 -11 11 23 21 2 0.37832766D-02 0.42891393D+00 0.36681887D+05 0.36681887D+05 0.36681887D+05 0.11593189D+01  1  2  5  2  7  2        2 -.126346364084D+00 0.100000000000D+01
0.109101272318D-02 0.000000000000D+00 0.814244941962D-04 0.121154630890D-07 0.000000000000D+00  7 -2 2 23 -11 11 23 21 2 0.37832766D-02 0.42833807D+00 0.36681887D+05 0.36681887D+05 0.36681887D+05 0.11593189D+01  1  2  6  2  7  2        2 0.126999969692D+00 0.100000000000D+01
0.134366467358D-03 0.000000000000D+00 0.000000000000D+00 0.121154630890D-07 0.481871279296D-06  7 -2 2 23 -11 11 23 21 2 0.37854582D-02 0.42882725D+00 0.36769309D+05 0.36769309D+05 0.36769309D+05 0.11592251D+01  1  2 11  2  7  2        2 0.155574365818D-01 0.100000000000D+01
-.274195913846D-06 0.000000000000D+00 -.204699578119D-07 0.121154630890D-07 0.000000000000D+00  7 -2 21 23 -11 11 23 -2 2 0.37832766D-02 0.42891393D+00 0.36681887D+05 0.36681887D+05 0.36681887D+05 0.11593189D+01  1  2  5  4  7  2        2 -.309635927169D-05 0.100000000000D+01
0.390303254900D-07 0.000000000000D+00 0.000000000000D+00 0.121154630890D-07 0.103001515629D-09  7 -2 21 23 -11 11 23 -2 2 0.37854582D-02 0.42882725D+00 0.36769309D+05 0.36769309D+05 0.36769309D+05 0.11592251D+01  1  2 11  4  7  2        2 0.440823925585D-06 0.100000000000D+01
  </mgrwgt>
  </event>
  <event>
  8     66 0.28248871E-05 0.15608776E+03 0.75467711E-02 0.10348831E+00
       -2 -1    0    0    0  501 0.00000000E+00 0.00000000E+00 0.13831413E+03 0.13831450E+03 0.32000000E+00 0.0000E+00 0.9000E+01
        2 -1    0    0  501    0 0.00000000E+00 0.00000000E+00 -.48085502E+03 0.48085512E+03 0.32000000E+00 0.0000E+00 0.9000E+01
       25  2    1    2    0    0 -.12378986E+03 -.76271240E+02 -.28538607E+03 0.43892852E+03 0.30011964E+03 0.0000E+00 0.0000E+00
       23  2    1    2    0    0 0.12378986E+03 0.76271240E+02 -.57154813E+02 0.18024110E+03 0.89882990E+02 0.0000E+00 0.0000E+00
       23  1    3    3    0    0 -.96040126E+02 0.63520596E+02 -.20347106E+03 0.25094680E+03 0.91188000E+02 0.0000E+00 0.9000E+01
      -13  1    4    4    0    0 0.87765963E+02 0.79529298E+02 -.73225117E+01 0.11866509E+03 0.10565837E+00 0.0000E+00 0.9000E+01
       13  1    4    4    0    0 0.36023896E+02 -.32580579E+01 -.49832301E+02 0.61576014E+02 0.10565837E+00 0.0000E+00 0.9000E+01
       23  1    3    3    0    0 -.27749732E+02 -.13979184E+03 -.81915011E+02 0.18798172E+03 0.91188000E+02 0.0000E+00 0.9000E+01
#aMCatNLO 1  0  0  2  1 0.19312717D+02 0.00000000D+00  -5  7  0 0.00000000D+00 0.00000000D+00 0.00000000D+00 0.00000000D+00 0.00000000D+00
  <mgrwgt>
 0.2678760698D-03    9    2    0
 0.257893757170464D+03 0.000000000000000D+00 0.000000000000000D+00 0.257893757170464D+03
 0.257893757170464D+03 0.000000000000000D+00 0.000000000000000D+00 -.257893757170464D+03
 0.166117781045895D+03 -.960401276808780D+02 0.635205951288304D+02 -.775969954645901D+02
 0.137586945680773D+03 0.877660367928337D+02 0.795294117298464D+02 0.700168770893659D+02
 0.408236449826257D+02 0.360238242747514D+02 -.325816998412563D+01 -.189271868655601D+02
 0.171259142631635D+03 -.277497333867072D+02 -.139791836874551D+03 0.265073052407843D+02
 0.000000000000000D+00 -.000000000000000D+00 0.000000000000000D+00 -.000000000000000D+00
 0.262873491612634D+03 0.000000000000000D+00 0.000000000000000D+00 0.262873491612634D+03
 0.277504558189669D+03 0.000000000000000D+00 0.000000000000000D+00 -.277504558189669D+03
 0.162084323296457D+03 -.920278580822189D+02 0.588698237311584D+02 -.775969954645901D+02
 0.137575265792622D+03 0.911298938832895D+02 0.756302394640107D+02 0.700168770893659D+02
 0.418257148250693D+02 0.370342124146128D+02 -.442934857665703D+01 -.189271868655601D+02
 0.174663648428599D+03 -.235208284537683D+02 -.144693718371288D+03 0.265073052407843D+02
 0.242290974595553D+02 -.126154197619151D+02 0.146230037527756D+02 -.146310665770347D+02
0.115451638174D-05 0.000000000000D+00 0.000000000000D+00 0.156397220091D-06 0.000000000000D+00  7 -2 2 23 -13 13 23 21 0 0.21279133D-01 0.73977731D-01 0.55386216D+05 0.55386216D+05 0.55386216D+05 0.11434076D+01  1  2  2  2  7  2        2 0.161489863719D-03 0.100000000000D+01
-.634868250702D-07 0.000000000000D+00 -.443364689703D-08 0.156397220091D-06 0.000000000000D+00  7 -2 2 23 -13 13 23 21 2 0.21279133D-01 0.73977731D-01 0.55386216D+05 0.55386216D+05 0.55386216D+05 0.11434076D+01  1  2  3  2  7  2        2 -.116099651473D-04 0.100000000000D+01
0.726454961459D-07 0.000000000000D+00 0.000000000000D+00 0.156397220091D-06 0.000000000000D+00  7 -2 2 23 -13 13 23 21 2 0.21279133D-01 0.73977731D-01 0.55386216D+05 0.55386216D+05 0.55386216D+05 0.11434076D+01  1  2 15  2  7  2        2 0.132848300010D-04 0.100000000000D+01
0.479018687359D-05 0.000000000000D+00 0.000000000000D+00 0.156397220091D-06 0.000000000000D+00  7 -2 2 23 -13 13 23 21 2 0.21279133D-01 0.80281293D-01 0.60019972D+05 0.60019972D+05 0.60019972D+05 0.11403826D+01  1  2 12  2  7  2        2 0.796323567886D-03 0.100000000000D+01
-.481201250638D-05 0.000000000000D+00 0.000000000000D+00 0.156397220091D-06 0.000000000000D+00  7 -2 2 23 -13 13 23 21 2 0.21279133D-01 0.73977731D-01 0.55386216D+05 0.55386216D+05 0.55386216D+05 0.11434076D+01  1  2  4  2  7  2        2 -.879982538510D-03 0.100000000000D+01
-.117307668111D-04 0.000000000000D+00 -.182740002681D-05 0.156397220091D-06 0.000000000000D+00  7 -2 2 23 -13 13 23 21 2 0.21279133D-01 0.80706985D-01 0.55386216D+05 0.55386216D+05 0.55386216D+05 0.11434076D+01  1  2  5  2  7  2        2 -.194837087929D-02 0.100000000000D+01
0.118518212724D-04 0.000000000000D+00 0.182049633295D-05 0.156397220091D-06 0.000000000000D+00  7 -2 2 23 -13 13 23 21 2 0.21279133D-01 0.73977731D-01 0.55386216D+05 0.55386216D+05 0.55386216D+05 0.11434076D+01  1  2  6  2  7  2        2 0.216736672140D-02 0.100000000000D+01
0.663897765331D-07 0.000000000000D+00 0.000000000000D+00 0.156397220091D-06 0.000000000000D+00  7 -2 21 23 -13 13 23 -2 2 0.21279133D-01 0.80281293D-01 0.60019972D+05 0.60019972D+05 0.60019972D+05 0.11403826D+01  1  2 12  4  7  2        2 0.209337238743D-04 0.100000000000D+01
-.164206106825D-06 0.000000000000D+00 -.263036164633D-07 0.156397220091D-06 0.000000000000D+00  7 -2 21 23 -13 13 23 -2 2 0.21279133D-01 0.80706985D-01 0.55386216D+05 0.55386216D+05 0.55386216D+05 0.11434076D+01  1  2  5  4  7  2        2 -.515592541672D-04 0.100000000000D+01
  </mgrwgt>
  </event>
  <event>
  9     66 0.28248871E-05 0.25108134E+03 0.75467711E-02 0.94998559E-01
       21 -1    0    0  502  501 0.00000000E+00 0.00000000E+00 0.41642728E+03 0.41642795E+03 0.75000000E+00 0.0000E+00 0.9000E+01
        2 -1    0    0  501    0 0.00000000E+00 0.00000000E+00 -.70843495E+03 0.70843502E+03 0.32000000E+00 0.0000E+00 0.9000E+01
       25  2    1    2    0    0 -.42289456E+01 0.23441523E+03 -.34560113E+03 0.51500909E+03 0.30137325E+03 0.0000E+00 0.0000E+00
       23  2    1    2    0    0 0.22180114E+03 0.42473272E+02 0.83231490E+02 0.25646540E+03 0.88584962E+02 0.0000E+00 0.0000E+00
       23  1    3    3    0    0 -.11677495E+03 0.10740395E+03 -.21465036E+03 0.28206742E+03 0.91188000E+02 0.0000E+00 0.9000E+01
      -11  1    4    4    0    0 0.12828797E+02 0.27665852E+02 0.23854439E+02 0.38717072E+02 0.51099893E-03 0.0000E+00 0.9000E+01
       11  1    4    4    0    0 0.20897235E+03 0.14807421E+02 0.59377051E+02 0.21774833E+03 0.51099893E-03 0.0000E+00 0.9000E+01
       23  1    3    3    0    0 0.11254600E+03 0.12701128E+03 -.13095076E+03 0.23294167E+03 0.91188000E+02 0.0000E+00 0.9000E+01
        2  1    1    2  502    0 -.21757220E+03 -.27688851E+03 -.29638031E+02 0.35338849E+03 0.32000000E+00 0.0000E+00 0.9000E+01
#aMCatNLO 2  0  0  1  1 0.35214330D+03 0.00000000D+00  -5  7  0 0.00000000D+00 0.00000000D+00 0.00000000D+00 0.00000000D+00 0.00000000D+00
  <mgrwgt>
 0.2555846789D-04    1    2    0
 0.317147503378195D+03 0.000000000000000D+00 0.000000000000000D+00 0.317147503378195D+03
 0.317147503378195D+03 0.000000000000000D+00 0.000000000000000D+00 -.317147503378195D+03
 0.247452902206577D+03 -.191940750912279D+03 0.117458355094832D+02 -.126247657221323D+03
 0.404801666022539D+02 -.161614916451433D+01 0.928280610986656D+01 0.393682798805193D+02
 0.211257283982412D+03 0.134685116948806D+03 -.797325992324513D+02 0.141888237453812D+03
 0.135104653965147D+03 0.588717831279869D+02 0.587039576131015D+02 -.550088601130087D+02
 0.000000000000000D+00 -.000000000000000D+00 -.000000000000000D+00 0.000000000000000D+00
 0.593421693986007D+03 0.000000000000000D+00 0.000000000000000D+00 0.593421693986007D+03
 0.497137168865107D+03 0.000000000000000D+00 0.000000000000000D+00 -.497137168865107D+03
 0.222318959941056D+03 -.116774948180291D+03 0.107403953041267D+03 -.126247657221323D+03
 0.497979804372455D+02 0.128287972832315D+02 0.276658517877751D+02 0.393682798805193D+02
 0.253023660999500D+03 0.208972345994815D+03 0.148074206823433D+02 0.141888237453812D+03
 0.200348931128743D+03 0.112546002540859D+03 0.127011280922485D+03 -.550088601130087D+02
 0.365069330344570D+03 -.217572197638614D+03 -.276888506433871D+03 0.962845251208999D+02
0.185658274770D-06 0.000000000000D+00 0.000000000000D+00 0.143769665161D-07 0.971785102294D-13  7 21 2 23 -11 11 23 2 2 0.64065784D-01 0.10899004D+00 0.23414932D+06 0.23414932D+06 0.23414932D+06 0.10926056D+01  1  2  1  3  7  1       -2 0.255584678880D-04 0.100000000000D+01
  </mgrwgt>
  </event>
  <event>
  8     66 0.28248871E-05 0.11655748E+03 0.75467711E-02 0.98617735E-01
       -2 -1    0    0    0  501 0.00000000E+00 0.00000000E+00 0.20739926E+03 0.20739950E+03 0.32000000E+00 0.0000E+00 0.9000E+01
        2 -1    0    0  501    0 0.00000000E+00 0.00000000E+00 -.70502367E+03 0.70502374E+03 0.32000000E+00 0.0000E+00 0.9000E+01
       25  2    1    2    0    0 -.25265550E+03 0.14128327E+03 -.13402414E+03 0.43859417E+03 0.30100933E+03 0.0000E+00 0.0000E+00
       23  2    1    2    0    0 0.25265550E+03 -.14128327E+03 -.36360027E+03 0.47382907E+03 0.92266288E+02 0.0000E+00 0.0000E+00
       23  1    3    3    0    0 -.26173918E+03 0.12347483E+03 -.15815521E+03 0.34217211E+03 0.91188000E+02 0.0000E+00 0.9000E+01
      -11  1    4    4    0    0 0.35535163E+02 -.84829920E+00 -.92927704E+02 0.99493847E+02 0.51099893E-03 0.0000E+00 0.9000E+01
       11  1    4    4    0    0 0.21712034E+03 -.14043497E+03 -.27067257E+03 0.37433522E+03 0.51099893E-03 0.0000E+00 0.9000E+01
       23  1    3    3    0    0 0.90836775E+01 0.17808436E+02 0.24131075E+02 0.96422060E+02 0.91188000E+02 0.0000E+00 0.9000E+01
#aMCatNLO 1  0  0  1  2 0.22456776D+02 0.00000000D+00  -5  7  0 0.00000000D+00 0.00000000D+00 0.00000000D+00 0.00000000D+00 0.00000000D+00
  <mgrwgt>
 0.2317636476D-03    9    2    0
 0.382389239802138D+03 0.000000000000000D+00 0.000000000000000D+00 0.382389239802138D+03
 0.382389239802138D+03 0.000000000000000D+00 0.000000000000000D+00 -.382389239802138D+03
 0.305322260308739D+03 -.261739178716124D+03 0.123474831383690D+03 0.339558483300866D+02
 0.582356928962409D+02 0.355351625003638D+02 -.848299198426147D+00 -.461294758440628D+02
 0.270482092278045D+03 0.217120338696542D+03 -.140434968106501D+03 -.793557842903333D+02
 0.130738434121252D+03 0.908367751921837D+01 0.178084359212373D+02 0.915294118043095D+02
 0.000000000000000D+00 0.000000000000000D+00 -.000000000000000D+00 0.000000000000000D+00
 0.405126792018732D+03 0.000000000000000D+00 0.000000000000000D+00 0.405126792018732D+03
 0.388139411439660D+03 0.000000000000000D+00 0.000000000000000D+00 -.388139411439660D+03
 0.310601726203863D+03 -.263623444700904D+03 0.132317273041099D+03 0.339558483300866D+02
 0.580189627098924D+02 0.351795103453451D+02 0.820697353274889D+00 -.461294758440628D+02
 0.265236792835666D+03 0.215481440237108D+03 -.132743981734608D+03 -.793557842903333D+02
 0.131250634557623D+03 0.828218723582983D+01 0.215696517618298D+02 0.915294118043095D+02
 0.281580871513479D+02 0.468030688262132D+01 -.219636404215964D+02 0.169873805790714D+02
0.422691049710D-05 0.000000000000D+00 0.000000000000D+00 0.118804940967D-06 0.000000000000D+00  7 -2 2 23 -11 11 23 21 0 0.31907603D-01 0.10846520D+00 0.11933791D+06 0.11933791D+06 0.11933791D+06 0.11154754D+01  1  2  2  1  7  1       -2 0.190025030026D-03 0.100000000000D+01
-.231882145810D-06 0.000000000000D+00 -.162324492799D-07 0.118804940967D-06 0.000000000000D+00  7 -2 2 23 -11 11 23 21 2 0.31907603D-01 0.10846520D+00 0.11933791D+06 0.11933791D+06 0.11933791D+06 0.11154754D+01  1  2  3  1  7  1       -2 -.129710482425D-04 0.100000000000D+01
0.268582311576D-06 0.000000000000D+00 0.000000000000D+00 0.118804940967D-06 0.000000000000D+00  7 -2 2 23 -11 11 23 21 2 0.31907603D-01 0.10846520D+00 0.11933791D+06 0.11933791D+06 0.11933791D+06 0.11154754D+01  1  2 15  1  7  1       -2 0.150239860355D-04 0.100000000000D+01
0.176678031210D-04 0.000000000000D+00 0.000000000000D+00 0.118804940967D-06 0.000000000000D+00  7 -2 2 23 -11 11 23 21 2 0.34035429D-01 0.10846520D+00 0.12728588D+06 0.12728588D+06 0.12728588D+06 0.11132237D+01  1  2 12  1  7  1       -2 0.876093568789D-03 0.100000000000D+01
-.177413202197D-04 0.000000000000D+00 0.000000000000D+00 0.118804940967D-06 0.000000000000D+00  7 -2 2 23 -11 11 23 21 2 0.31907603D-01 0.10846520D+00 0.11933791D+06 0.11933791D+06 0.11933791D+06 0.11154754D+01  1  2  4  1  7  1       -2 -.992415865624D-03 0.100000000000D+01
-.530545023271D-04 0.000000000000D+00 -.775750154141D-05 0.118804940967D-06 0.000000000000D+00  7 -2 2 23 -11 11 23 21 2 0.34240610D-01 0.10846520D+00 0.11933791D+06 0.11933791D+06 0.11933791D+06 0.11154754D+01  1  2  5  1  7  1       -2 -.261533722154D-02 0.100000000000D+01
0.534879733700D-04 0.000000000000D+00 0.773822594336D-05 0.118804940967D-06 0.000000000000D+00  7 -2 2 23 -11 11 23 21 2 0.31907603D-01 0.10846520D+00 0.11933791D+06 0.11933791D+06 0.11933791D+06 0.11154754D+01  1  2  6  1  7  1       -2 0.299201596809D-02 0.100000000000D+01
0.229994201568D-06 0.000000000000D+00 0.000000000000D+00 0.118804940967D-06 0.000000000000D+00  7 21 2 23 -11 11 23 2 2 0.34035429D-01 0.10846520D+00 0.12728588D+06 0.12728588D+06 0.12728588D+06 0.11132237D+01  1  2 12  3  7  1       -2 0.131185255385D-03 0.100000000000D+01
-.620169940745D-06 0.000000000000D+00 -.926159028867D-07 0.118804940967D-06 0.000000000000D+00  7 21 2 23 -11 11 23 2 2 0.34240610D-01 0.10846520D+00 0.11933791D+06 0.11933791D+06 0.11933791D+06 0.11154754D+01  1  2  5  3  7  1       -2 -.351856025292D-03 0.100000000000D+01
  </mgrwgt>
  </event>
  <event>
  9     66 0.28248871E-05 0.22599646E+03 0.75467711E-02 0.10381790E+00
       21 -1    0    0  502  501 0.00000000E+00 0.00000000E+00 0.82793131E+02 0.82796528E+02 0.75000000E+00 0.0000E+00 0.9000E+01
        2 -1    0    0  501    0 0.00000000E+00 0.00000000E+00 -.13817409E+04 0.13817409E+04 0.32000000E+00 0.0000E+00 0.9000E+01
       25  2    1    2    0    0 -.45716729E+02 0.18616808E+03 -.64200893E+03 0.73416833E+03 0.30013180E+03 0.0000E+00 0.0000E+00
       23  2    1    2    0    0 0.63326401E+02 -.16850818E+03 -.27255593E+03 0.34517790E+03 0.11160556E+03 0.0000E+00 0.0000E+00
       23  1    3    3    0    0 -.14404747E+01 0.12385850E+03 -.57988827E+03 0.59994055E+03 0.91188000E+02 0.0000E+00 0.9000E+01
      -13  1    4    4    0    0 0.24009992E+02 -.45968694E+02 -.10053885E+02 0.52827004E+02 0.10565837E+00 0.0000E+00 0.9000E+01
       13  1    4    4    0    0 0.39316409E+02 -.12253949E+03 -.26250205E+03 0.29235089E+03 0.10565837E+00 0.0000E+00 0.9000E+01
       23  1    3    3    0    0 -.44276254E+02 0.62309577E+02 -.62120662E+02 0.13422778E+03 0.91188000E+02 0.0000E+00 0.9000E+01
        2  1    1    2  502    0 -.17609672E+02 -.17659894E+02 -.38438287E+03 0.38519121E+03 0.32000000E+00 0.0000E+00 0.9000E+01
#aMCatNLO 2  0  0  1  2 0.24939375D+02 0.00000000D+00  -5  7  0 0.00000000D+00 0.00000000D+00 0.00000000D+00 0.00000000D+00 0.00000000D+00
  <mgrwgt>
 0.5178819513D-04    1    2    0
 0.286329098244964D+03 0.000000000000000D+00 0.000000000000000D+00 0.286329098244964D+03
 0.286329098244964D+03 0.000000000000000D+00 0.000000000000000D+00 -.286329098244964D+03
 0.200881314690883D+03 -.766995855377496D+01 0.117611766186497D+03 -.134709670915691D+03
 0.841907063285274D+02 0.214340147738736D+02 -.485526326698618D+02 0.653551826835116D+02
 0.134363456916668D+03 0.352281413050899D+02 -.126639710100361D+03 -.278370336149980D+02
 0.153222718553848D+03 -.489921975251886D+02 0.575805765837255D+02 0.971915218471772D+02
 0.000000000000000D+00 -.000000000000000D+00 -.000000000000000D+00 -.000000000000000D+00
 0.288006192223340D+03 0.000000000000000D+00 0.000000000000000D+00 0.288006192223340D+03
 0.397217110013472D+03 0.000000000000000D+00 0.000000000000000D+00 -.397217110013472D+03
 0.204462830341046D+03 -.144059158882124D+01 0.123858899174553D+03 -.134709670915691D+03
 0.834323313008990D+02 0.240100613899946D+02 -.459692392231640D+02 0.653551826835116D+02
 0.131668733595015D+03 0.393165490433027D+02 -.122539642309573D+03 -.278370336149980D+02
 0.153637101289697D+03 -.442763469374011D+02 0.623098766778523D+02 0.971915218471772D+02
 0.112022305710156D+03 -.176096719070749D+02 -.176598943196684D+02 -.109210917790132D+03
0.349697511286D-07 0.000000000000D+00 0.000000000000D+00 0.228481903965D-08 0.348220446047D-13  7 21 2 23 -13 13 23 2 2 0.12737659D-01 0.21257561D+00 0.57191419D+05 0.57191419D+05 0.57191419D+05 0.11421971D+01  1  2  1  3  7  1       -2 0.517881951280D-04 0.100000000000D+01
  </mgrwgt>
  </event>
  <event>
  8     66 0.28248871E-05 0.19815673E+03 0.75467711E-02 0.99841970E-01
       -2 -1    0    0    0  501 0.00000000E+00 0.00000000E+00 0.64390678E+02 0.64391474E+02 0.32000000E+00 0.0000E+00 0.9000E+01
        2 -1    0    0  501    0 0.00000000E+00 0.00000000E+00 -.18642093E+04 0.18642093E+04 0.32000000E+00 0.0000E+00 0.9000E+01
       25  2    1    2    0    0 0.11167914E+03 0.21904067E+02 -.35601049E+03 0.47743062E+03 0.29705978E+03 0.0000E+00 0.0000E+00
       23  2    1    2    0    0 -.11167914E+03 -.21904067E+02 -.14438081E+04 0.14511702E+04 0.91438250E+02 0.0000E+00 0.0000E+00
       23  1    3    3    0    0 0.59221482E+02 -.71471287E+02 -.47765724E+02 0.13860788E+03 0.91188000E+02 0.0000E+00 0.9000E+01
      -11  1    4    4    0    0 -.15914057E+02 0.15974793E+02 -.70773283E+02 0.74278589E+02 0.51099893E-03 0.0000E+00 0.9000E+01
       11  1    4    4    0    0 -.95765082E+02 -.37878860E+02 -.13730349E+04 0.13768916E+04 0.51099893E-03 0.0000E+00 0.9000E+01
       23  1    3    3    0    0 0.52457657E+02 0.93375354E+02 -.30824477E+03 0.33882274E+03 0.91188000E+02 0.0000E+00 0.9000E+01
#aMCatNLO 1  0  0  1  2 0.18333596D+03 0.00000000D+00  -5  7  0 0.00000000D+00 0.00000000D+00 0.00000000D+00 0.00000000D+00 0.00000000D+00
  <mgrwgt>
 0.5038403001D-03    3    2    0
 0.346465720473630D+03 0.000000000000000D+00 0.000000000000000D+00 0.346465720473630D+03
 0.346465720473630D+03 0.000000000000000D+00 0.000000000000000D+00 -.346465720473630D+03
 0.261713669875198D+03 0.592214817663647D+02 -.714712869056676D+02 0.227075901189422D+03
 0.229094436065888D+02 -.159140569737679D+02 0.159747926268772D+02 -.404862909234906D+01
 0.265914529742425D+03 -.957650819356978D+02 -.378788597014161D+02 -.245162758586423D+03
 0.142393797723048D+03 0.524576571431009D+02 0.933753539802065D+02 0.221354864893502D+02
 0.000000000000000D+00 -.000000000000000D+00 0.000000000000000D+00 -.000000000000000D+00
 0.370640188729944D+03 0.000000000000000D+00 0.000000000000000D+00 0.370640188729944D+03
 0.104419083690583D+04 0.000000000000000D+00 0.000000000000000D+00 -.104419083690583D+04
 0.290834330761971D+03 0.650337012426043D+02 -.143096154411860D+03 0.227075901189422D+03
 0.191444179611822D+02 -.154716949111535D+02 0.105234974281941D+02 -.404862909234906D+01
 0.283004280795372D+03 -.899910376937441D+02 -.109033287970253D+03 -.245162758586423D+03
 0.123791730345557D+03 0.552576468430897D+02 0.588706536501097D+02 0.221354864893502D+02
 0.698056265771694D+03 -.148286154807963D+02 0.182735291303809D+03 -.673550648175887D+03
0.735820489319D-05 0.000000000000D+00 0.000000000000D+00 0.418348048188D-07 0.000000000000D+00  7 -2 2 23 -11 11 23 21 0 0.99063215D-02 0.28680150D+00 0.39266089D+05 0.39266089D+05 0.39266089D+05 0.11566430D+01  1  2  2  1  7  1       -2 0.486663559641D-03 0.100000000000D+01
-.253629784864D-06 0.000000000000D+00 -.282574442497D-07 0.418348048188D-07 0.000000000000D+00  7 -2 2 23 -11 11 23 21 2 0.99063215D-02 0.28680150D+00 0.39266089D+05 0.39266089D+05 0.39266089D+05 0.11566430D+01  1  2  3  1  7  1       -2 -.224417055366D-04 0.100000000000D+01
0.447756428952D-06 0.000000000000D+00 0.000000000000D+00 0.418348048188D-07 0.000000000000D+00  7 -2 2 23 -11 11 23 21 2 0.99063215D-02 0.28680150D+00 0.39266089D+05 0.39266089D+05 0.39266089D+05 0.11566430D+01  1  2 15  1  7  1       -2 0.396184459805D-04 0.100000000000D+01
  </mgrwgt>
  </event>
  <event>
  7     66 0.28248871E-05 0.66681496E+03 0.75467711E-02 0.87529610E-01
       -2 -1    0    0    0  501 0.00000000E+00 0.00000000E+00 0.81412632E+03 0.81412639E+03 0.32000000E+00 0.0000E+00 0.9000E+01
        2 -1    0    0  501    0 0.00000000E+00 0.00000000E+00 -.55234203E+03 0.55234212E+03 0.32000000E+00 0.0000E+00 0.9000E+01
       25  2    1    2    0    0 0.59957175E+03 -.18181932E+03 0.14054403E+03 0.70928839E+03 0.30131852E+03 0.0000E+00 0.0000E+00
       23  1    3    3    0    0 0.37074374E+02 -.49943449E+01 0.21617319E+02 0.10090596E+03 0.91188000E+02 0.0000E+00 0.9000E+01
      -11  1    1    2    0    0 -.47805602E+03 0.90813323E+02 0.13431455E+03 0.50480196E+03 0.51099893E-03 0.0000E+00 0.9000E+01
       11  1    1    2    0    0 -.12151573E+03 0.91005995E+02 -.13074291E+02 0.15237815E+03 0.51099893E-03 0.0000E+00 0.9000E+01
       23  1    3    3    0    0 0.56249738E+03 -.17682497E+03 0.11892671E+03 0.60838243E+03 0.91188000E+02 0.0000E+00 0.9000E+01
#aMCatNLO 1  0  0  1  2 0.53407006D+03 0.00000000D+00  -5  7  0 0.00000000D+00 0.00000000D+00 0.00000000D+00 0.00000000D+00 0.00000000D+00
  <mgrwgt>
 0.3993279574D-03    3    2    0
 0.670579070308208D+03 0.000000000000000D+00 0.000000000000000D+00 0.670579070308208D+03
 0.670579070308208D+03 0.000000000000000D+00 0.000000000000000D+00 -.670579070308208D+03
 0.985907148113676D+02 0.370743735452459D+02 -.499434487433935D+01 0.232917335554085D+01
 0.488111373372330D+03 -.478056023882673D+03 0.908133237564846D+02 0.383156765986422D+02
 0.157805839460765D+03 -.121515728347793D+03 0.910059948420748D+02 -.430641339727893D+02
 0.596650212971954D+03 0.562497378685220D+03 -.176824973724220D+03 0.241928401860617D+01
 0.000000000000000D+00 -.000000000000000D+00 -.000000000000000D+00 -.000000000000000D+00
 0.786863547718897D+03 0.000000000000000D+00 0.000000000000000D+00 0.786863547718897D+03
 0.181763116615046D+04 0.000000000000000D+00 0.000000000000000D+00 -.181763116615046D+04
 0.118993847286796D+03 0.756163950400819D+02 0.110009136318569D+02 0.232917335554085D+01
 0.363422017532402D+03 -.327218951898614D+03 0.153411959352856D+03 0.383156765986422D+02
 0.139055403233301D+03 -.689309664209042D+02 0.112829107068300D+03 -.430641339727893D+02
 0.822113153421819D+03 0.813811201855104D+03 -.725276532445101D+02 0.241928401860617D+01
 0.116091029239504D+04 -.493277678575668D+03 -.204714326808502D+03 -.103076761843156D+04
0.125737625510D-03 0.000000000000D+00 0.000000000000D+00 0.190096076968D-09 0.000000000000D+00  7 -2 2 23 -11 11 23 21 0 0.12525022D+00 0.84975708D-01 0.44464219D+06 0.44464219D+06 0.44464219D+06 0.10721307D+01  1  2  2  1  7  1       -2 0.395871346027D-03 0.100000000000D+01
-.698515452183D-05 0.000000000000D+00 -.482865589436D-06 0.190096076968D-09 0.000000000000D+00  7 -2 2 23 -11 11 23 21 2 0.12525022D+00 0.84975708D-01 0.44464219D+06 0.44464219D+06 0.44464219D+06 0.10721307D+01  1  2  3  1  7  1       -2 -.252790221705D-04 0.100000000000D+01
0.794029292392D-05 0.000000000000D+00 0.000000000000D+00 0.190096076968D-09 0.000000000000D+00  7 -2 2 23 -11 11 23 21 2 0.12525022D+00 0.84975708D-01 0.44464219D+06 0.44464219D+06 0.44464219D+06 0.10721307D+01  1  2 15  1  7  1       -2 0.287356335836D-04 0.100000000000D+01
  </mgrwgt>
  </event>
  <event>
  9     66 0.28248871E-05 0.43377983E+03 0.75467711E-02 0.96045698E-01
       -2 -1    0    0    0  502 0.00000000E+00 0.00000000E+00 0.25801301E+03 0.25801320E+03 0.32000000E+00 0.0000E+00 0.9000E+01
        2 -1    0    0  501    0 0.00000000E+00 0.00000000E+00 -.11070658E+04 0.11070659E+04 0.32000000E+00 0.0000E+00 0.9000E+01
       25  2    1    2    0    0 -.84613763E+02 0.38559829E+03 -.90101696E+02 0.50419620E+03 0.30041631E+03 0.0000E+00 0.0000E+00
       23  2    1    2    0    0 0.81809622E+02 -.36916561E+03 -.73679797E+03 0.83314804E+03 0.91040334E+02 0.0000E+00 0.0000E+00
       23  1    3    3    0    0 0.63503112E+02 0.21098529E+03 -.97503428E+02 0.25762300E+03 0.91188000E+02 0.0000E+00 0.9000E+01
      -11  1    4    4    0    0 0.26712444E+02 -.36782747E+02 -.14737921E+03 0.15423085E+03 0.51099893E-03 0.0000E+00 0.9000E+01
       11  1    4    4    0    0 0.55097177E+02 -.33238286E+03 -.58941876E+03 0.67891718E+03 0.51099893E-03 0.0000E+00 0.9000E+01
       23  1    3    3    0    0 -.14811687E+03 0.17461300E+03 0.74017329E+01 0.24657321E+03 0.91188000E+02 0.0000E+00 0.9000E+01
       21  1    1    2  501  502 0.28041409E+01 -.16432683E+02 -.22153140E+02 0.27734823E+02 0.75000000E+00 0.0000E+00 0.9000E+01
#aMCatNLO 2  0  0  1  1 0.16670221D+02 0.00000000D+00  -5  7  0 0.00000000D+00 0.00000000D+00 0.00000000D+00 0.00000000D+00 0.00000000D+00
  <mgrwgt>
 0.8005299289D-04    2    2    0
 0.525463761405938D+03 0.000000000000000D+00 0.000000000000000D+00 0.525463761405938D+03
 0.525463761405938D+03 0.000000000000000D+00 0.000000000000000D+00 -.525463761405938D+03
 0.247986743042395D+03 0.641688944936738D+02 0.207083704398220D+03 0.786184821333064D+02
 0.809487506806094D+02 0.269275468420337D+02 -.380432791980840D+02 -.661839585222746D+02
 0.405520114277248D+03 0.561719428277086D+02 -.338681148301045D+03 -.215838726154225D+03
 0.316471914811623D+03 -.147268384163416D+03 0.169640723100909D+03 0.203404202543193D+03
 0.000000000000000D+00 0.000000000000000D+00 -.000000000000000D+00 -.000000000000000D+00
 0.531268657468391D+03 0.000000000000000D+00 0.000000000000000D+00 0.531268657468391D+03
 0.537635907054885D+03 0.000000000000000D+00 0.000000000000000D+00 -.537635907054885D+03
 0.251084756585776D+03 0.635031117560010D+02 0.210985290269483D+03 0.786184821333064D+02
 0.802922260172648D+02 0.267124444790037D+02 -.367827473564105D+02 -.661839585222746D+02
 0.400125506651691D+03 0.550971770927473D+02 -.332382861233555D+03 -.215838726154225D+03
 0.319557240009795D+03 -.148116874274056D+03 0.174613001353647D+03 0.203404202543193D+03
 0.178448352587500D+02 0.280414094630398D+01 -.164326830331653D+02 -.636724958649412D+01
-.212936463718D-04 0.000000000000D+00 0.000000000000D+00 0.143883766916D-05 0.000000000000D+00  7 -2 2 23 -11 11 23 21 2 0.39260028D-01 0.16645936D+00 0.18816494D+06 0.18816494D+06 0.18816494D+06 0.10998658D+01  1  2  8  1  7  1       -2 -.445478394089D-03 0.100000000000D+01
0.266238529725D-04 0.000000000000D+00 0.000000000000D+00 0.143883766916D-05 0.333454541981D-07  7 -2 2 23 -11 11 23 21 2 0.39693741D-01 0.17031532D+00 0.19535022D+06 0.19535022D+06 0.19535022D+06 0.10986109D+01  1  2  1  1  7  1       -2 0.525531386976D-03 0.100000000000D+01
  </mgrwgt>
  </event>
  <event>
  8     66 0.28248871E-05 0.98400433E+02 0.75467711E-02 0.10462345E+00
       -4 -1    0    0    0  501 0.00000000E+00 0.00000000E+00 0.42468029E+03 0.42468312E+03 0.15500000E+01 0.0000E+00 0.9000E+01
        4 -1    0    0  501    0 0.00000000E+00 0.00000000E+00 -.15598172E+03 0.15598942E+03 0.15500000E+01 0.0000E+00 0.9000E+01
       25  2    1    2    0    0 0.47452853E+02 -.87819185E+02 0.30554366E+03 0.43991929E+03 0.30034658E+03 0.0000E+00 0.0000E+00
       23  2    1    2    0    0 -.47452853E+02 0.87819185E+02 -.36845089E+02 0.14075326E+03 0.92140853E+02 0.0000E+00 0.0000E+00
       23  1    3    3    0    0 -.23390945E+01 0.74303409E+02 0.15973455E+03 0.19838560E+03 0.91188000E+02 0.0000E+00 0.9000E+01
      -11  1    4    4    0    0 0.27470055E+02 0.25780396E+02 -.17654337E+02 0.41604187E+02 0.51099893E-03 0.0000E+00 0.9000E+01
       11  1    4    4    0    0 -.74922908E+02 0.62038789E+02 -.19190752E+02 0.99149072E+02 0.51099893E-03 0.0000E+00 0.9000E+01
       23  1    3    3    0    0 0.49791947E+02 -.16212259E+03 0.14580911E+03 0.24153369E+03 0.91188000E+02 0.0000E+00 0.9000E+01
#aMCatNLO 1  0  0  1  2 0.64793489D+01 0.00000000D+00  -5  7  0 0.00000000D+00 0.00000000D+00 0.00000000D+00 0.00000000D+00 0.00000000D+00
  <mgrwgt>
 0.4206675765D-05   11    2    0
 0.257381856907983D+03 0.000000000000000D+00 0.000000000000000D+00 0.257381856907983D+03
 0.257381856907983D+03 0.000000000000000D+00 0.000000000000000D+00 -.257381856907983D+03
 0.140407381364232D+03 -.233909449479082D+01 0.743034090807051D+02 0.766323262956998D+02
 0.561463512941288D+02 0.274700552661699D+02 0.257803959494747D+02 -.416314786190161D+02
 0.121861098182339D+03 -.749229080014588D+02 0.620387888061018D+02 -.734021375048612D+02
 0.196348882975266D+03 0.497919472300797D+02 -.162122593836282D+03 0.384012898281774D+02
 0.000000000000000D+00 -.000000000000000D+00 0.000000000000000D+00 0.000000000000000D+00
 0.280085432236853D+03 0.000000000000000D+00 0.000000000000000D+00 0.280085432236853D+03
 0.257864944157519D+03 0.000000000000000D+00 0.000000000000000D+00 -.257864944157519D+03
 0.139533453746945D+03 -.171505750593192D+01 0.726558911225486D+02 0.766323262956998D+02
 0.559698153341231D+02 0.277199817729524D+02 0.251205658184173D+02 -.416314786190161D+02
 0.120806450742927D+03 -.743819596740561D+02 0.606106329439624D+02 -.734021375048612D+02
 0.198494770272615D+03 0.506721226583805D+02 -.164446342028044D+03 0.384012898281774D+02
 0.231458862977628D+02 -.229508725134478D+01 0.605925214311546D+01 0.222204880793341D+02
0.123342738839D-05 0.000000000000D+00 0.000000000000D+00 0.114234200848D-06 0.000000000000D+00  7 -4 4 23 -11 11 23 21 0 0.65336240D-01 0.23997998D-01 0.49540683D+05 0.49540683D+05 0.49540683D+05 0.11476481D+01  1  2  2  1  7  1       -4 0.103883725938D-04 0.100000000000D+01
-.667651298434D-07 0.000000000000D+00 -.473668594030D-08 0.114234200848D-06 0.000000000000D+00  7 -4 4 23 -11 11 23 21 2 0.65336240D-01 0.23997998D-01 0.49540683D+05 0.49540683D+05 0.49540683D+05 0.11476481D+01  1  2  3  1  7  1       -4 -.740629677884D-06 0.100000000000D+01
0.756831839108D-07 0.000000000000D+00 0.000000000000D+00 0.114234200848D-06 0.000000000000D+00  7 -4 4 23 -11 11 23 21 2 0.65336240D-01 0.23997998D-01 0.49540683D+05 0.49540683D+05 0.49540683D+05 0.11476481D+01  1  2 15  1  7  1       -4 0.839558198308D-06 0.100000000000D+01
0.362918824481D-04 0.000000000000D+00 0.000000000000D+00 0.114234200848D-06 0.000000000000D+00  7 -4 4 23 -11 11 23 21 2 0.71157749D-01 0.23997998D-01 0.50892937D+05 0.50892937D+05 0.50892937D+05 0.11466198D+01  1  2 12  1  7  1       -4 0.327131413448D-03 0.100000000000D+01
-.410471345125D-04 0.000000000000D+00 0.000000000000D+00 0.114234200848D-06 0.000000000000D+00  7 -4 4 23 -11 11 23 21 2 0.65336240D-01 0.23997998D-01 0.49540683D+05 0.49540683D+05 0.49540683D+05 0.11476481D+01  1  2  4  1  7  1       -4 -.455338379232D-03 0.100000000000D+01
-.481687037658D-04 0.000000000000D+00 -.182040648107D-05 0.114234200848D-06 0.000000000000D+00  7 -4 4 23 -11 11 23 21 2 0.71164275D-01 0.23997998D-01 0.49540683D+05 0.49540683D+05 0.49540683D+05 0.11476481D+01  1  2  5  1  7  1       -4 -.434392373579D-03 0.100000000000D+01
0.481549823931D-04 0.000000000000D+00 0.181378152302D-05 0.114234200848D-06 0.000000000000D+00  7 -4 4 23 -11 11 23 21 2 0.65336240D-01 0.23997998D-01 0.49540683D+05 0.49540683D+05 0.49540683D+05 0.11476481D+01  1  2  6  1  7  1       -4 0.534186171464D-03 0.100000000000D+01
0.458567334144D-05 0.000000000000D+00 0.000000000000D+00 0.114234200848D-06 0.191303811863D-07  7 -4 4 23 -11 11 23 21 2 0.71099530D-01 0.24043040D-01 0.50892937D+05 0.50892937D+05 0.50892937D+05 0.11466198D+01  1  2 11  1  7  1       -4 0.412713049310D-04 0.100000000000D+01
0.535556924773D-06 0.000000000000D+00 0.000000000000D+00 0.114234200848D-06 0.000000000000D+00  7 21 4 23 -11 11 23 4 2 0.71157749D-01 0.23997998D-01 0.50892937D+05 0.50892937D+05 0.50892937D+05 0.11466198D+01  1  2 12  3  7  1       -4 0.111284515245D-03 0.100000000000D+01
-.691401777441D-06 0.000000000000D+00 -.257739145774D-07 0.114234200848D-06 0.000000000000D+00  7 21 4 23 -11 11 23 4 2 0.71164275D-01 0.23997998D-01 0.49540683D+05 0.49540683D+05 0.49540683D+05 0.11476481D+01  1  2  5  3  7  1       -4 -.143961209431D-03 0.100000000000D+01
0.652596999909D-07 0.000000000000D+00 0.000000000000D+00 0.114234200848D-06 0.271353653372D-09  7 21 4 23 -11 11 23 4 2 0.71099530D-01 0.24043040D-01 0.50892937D+05 0.50892937D+05 0.50892937D+05 0.11466198D+01  1  2 11  3  7  1       -4 0.135379318048D-04 0.100000000000D+01
  </mgrwgt>
  </event>
  <event>
  8     66 0.28248871E-05 0.28436847E+03 0.75467711E-02 0.96268325E-01
       -2 -1    0    0    0  501 0.00000000E+00 0.00000000E+00 0.61634790E+03 0.61634798E+03 0.32000000E+00 0.0000E+00 0.9000E+01
        2 -1    0    0  501    0 0.00000000E+00 0.00000000E+00 -.25201179E+03 0.25201199E+03 0.32000000E+00 0.0000E+00 0.9000E+01
       25  2    1    2    0    0 -.21664133E+03 0.11986342E+03 0.44718595E+03 0.59241281E+03 0.29946111E+03 0.0000E+00 0.0000E+00
       23  2    1    2    0    0 0.21664133E+03 -.11986342E+03 -.82849840E+02 0.27594717E+03 0.89342261E+02 0.0000E+00 0.0000E+00
       23  1    3    3    0    0 -.10521744E+03 0.53061760E+02 0.38365635E+02 0.15386173E+03 0.91188000E+02 0.0000E+00 0.9000E+01
      -13  1    4    4    0    0 0.13013827E+03 -.24795639E+02 -.59856190E+02 0.14537389E+03 0.10565837E+00 0.0000E+00 0.9000E+01
       13  1    4    4    0    0 0.86503056E+02 -.95067783E+02 -.22993650E+02 0.13057328E+03 0.10565837E+00 0.0000E+00 0.9000E+01
       23  1    3    3    0    0 -.11142389E+03 0.66801662E+02 0.40882032E+03 0.43855108E+03 0.91188000E+02 0.0000E+00 0.9000E+01
#aMCatNLO 1  0  0  2  1 0.25500298D+03 0.00000000D+00  -5  7  0 0.00000000D+00 0.00000000D+00 0.00000000D+00 0.00000000D+00 0.00000000D+00
  <mgrwgt>
 0.1157209045D-03    4    2    0
 0.394115544185425D+03 0.000000000000000D+00 0.000000000000000D+00 0.394115544185425D+03
 0.394115544185425D+03 0.000000000000000D+00 0.000000000000000D+00 -.394115544185425D+03
 0.151769430900774D+03 -.105217435962637D+03 0.530617599087481D+02 -.288522029796626D+02
 0.187818874207083D+03 0.130138331080369D+03 -.247955413117795D+02 -.133135740592405D+03
 0.154474989999456D+03 0.865029946280742D+02 -.950678811033687D+02 -.856846102764259D+02
 0.294167793263538D+03 -.111423889745806D+03 0.668016625064002D+02 0.247672553848493D+03
 0.000000000000000D+00 -.000000000000000D+00 -.000000000000000D+00 0.000000000000000D+00
 0.623606005653497D+03 0.000000000000000D+00 0.000000000000000D+00 0.623606005653497D+03
 0.491868597214512D+03 0.000000000000000D+00 0.000000000000000D+00 -.491868597214512D+03
 0.130307502374571D+03 -.619059905153114D+02 0.632454943267678D+02 -.288522029796626D+02
 0.236550694095398D+03 0.195298070282074D+03 -.947466083955874D+01 -.133135740592405D+03
 0.182559978789741D+03 0.138252960479785D+03 -.829000140896403D+02 -.856846102764259D+02
 0.279035062843424D+03 -.234115735870288D+02 0.874958241539449D+02 0.247672553848493D+03
 0.287021364764876D+03 -.248233466659519D+03 -.583666435515137D+02 0.131737408438985D+03
0.903087486034D-05 0.000000000000D+00 0.000000000000D+00 0.803037107140D-07 0.000000000000D+00  7 -2 2 23 -13 13 23 21 0 0.94822776D-01 0.38771067D-01 0.80865426D+05 0.80865426D+05 0.80865426D+05 0.11293707D+01  1  2  2  2  7  2        2 0.141806991609D-03 0.100000000000D+01
-.436737011280D-06 0.000000000000D+00 -.346809373477D-07 0.803037107140D-07 0.000000000000D+00  7 -2 2 23 -13 13 23 21 2 0.94822776D-01 0.38771067D-01 0.80865426D+05 0.80865426D+05 0.80865426D+05 0.11293707D+01  1  2  3  2  7  2        2 -.874703437985D-05 0.100000000000D+01
0.562783254959D-06 0.000000000000D+00 0.000000000000D+00 0.803037107140D-07 0.000000000000D+00  7 -2 2 23 -13 13 23 21 2 0.94822776D-01 0.38771067D-01 0.80865426D+05 0.80865426D+05 0.80865426D+05 0.11293707D+01  1  2 15  2  7  2        2 0.112715074573D-04 0.100000000000D+01
-.142851736905D-05 0.000000000000D+00 0.000000000000D+00 0.803037107140D-07 0.000000000000D+00  7 -2 2 23 -13 13 23 21 2 0.94822776D-01 0.38771067D-01 0.80865426D+05 0.80865426D+05 0.80865426D+05 0.11293707D+01  1  2  4  2  7  2        2 -.286105601691D-04 0.100000000000D+01
  </mgrwgt>
  </event>
  <event>
  8     66 0.28248871E-05 0.36174949E+03 0.75467711E-02 0.90257244E-01
       -2 -1    0    0    0  501 0.00000000E+00 0.00000000E+00 0.36435082E+03 0.36435096E+03 0.32000000E+00 0.0000E+00 0.9000E+01
        2 -1    0    0  501    0 0.00000000E+00 0.00000000E+00 -.56311027E+03 0.56311036E+03 0.32000000E+00 0.0000E+00 0.9000E+01
       25  2    1    2    0    0 -.20847903E+03 -.23503368E+03 0.13347370E+03 0.45462997E+03 0.30028127E+03 0.0000E+00 0.0000E+00
       23  2    1    2    0    0 0.20847903E+03 0.23503368E+03 -.33223315E+03 0.47283135E+03 0.12035898E+03 0.0000E+00 0.0000E+00
       23  1    3    3    0    0 -.10013192E+02 -.68326991E+02 0.13874303E+03 0.17981580E+03 0.91188000E+02 0.0000E+00 0.9000E+01
      -11  1    4    4    0    0 0.18909065E+03 0.13470636E+03 -.25415653E+03 0.34423338E+03 0.51099893E-03 0.0000E+00 0.9000E+01
       11  1    4    4    0    0 0.19388382E+02 0.10032731E+03 -.78076618E+02 0.12859797E+03 0.51099893E-03 0.0000E+00 0.9000E+01
       23  1    3    3    0    0 -.19846584E+03 -.16670668E+03 -.52693353E+01 0.27481417E+03 0.91188000E+02 0.0000E+00 0.9000E+01
#aMCatNLO 1  0  0  1  1 0.57042015D+03 0.00000000D+00  -5  7  0 0.00000000D+00 0.00000000D+00 0.00000000D+00 0.00000000D+00 0.00000000D+00
  <mgrwgt>
 0.1765687074D-03    3    2    0
 0.452956724222995D+03 0.000000000000000D+00 0.000000000000000D+00 0.452956724222995D+03
 0.452956724222995D+03 0.000000000000000D+00 0.000000000000000D+00 -.452956724222995D+03
 0.214533397232551D+03 -.100131915750508D+02 -.683269913150765D+02 0.181495138878291D+03
 0.296658730196377D+03 0.189090650431736D+03 0.134706363929735D+03 -.184676267121306D+03
 0.114526585890782D+03 0.193883825171987D+02 0.100327311726488D+03 -.517190489172174D+02
 0.280194735126281D+03 -.198465841373884D+03 -.166706684341146D+03 0.549001771602319D+02
 0.000000000000000D+00 -.000000000000000D+00 -.000000000000000D+00 -.000000000000000D+00
 0.674067837128725D+03 0.000000000000000D+00 0.000000000000000D+00 0.674067837128725D+03
 0.112133965539741D+04 0.000000000000000D+00 0.000000000000000D+00 -.112133965539741D+04
 0.227427489339960D+03 0.102043579521058D+03 -.739148195946573D+01 0.181495138878291D+03
 0.495687988895395D+03 0.389985837375960D+03 0.243951440543958D+03 -.184676267121306D+03
 0.176243043511787D+03 0.931114353790687D+02 0.140417274460964D+03 -.517190489172174D+02
 0.171182616373055D+03 -.840215769793904D+02 -.104472876642677D+03 0.549001771602319D+02
 0.724866354405937D+03 -.501119275296697D+03 -.272504356402779D+03 -.447271818268683D+03
0.866709748869D-05 0.000000000000D+00 0.000000000000D+00 0.152958819181D-08 0.000000000000D+00  7 -2 2 23 -11 11 23 21 0 0.56053990D-01 0.86632367D-01 0.13086269D+06 0.13086269D+06 0.13086269D+06 0.11122602D+01  1  2  2  1  7  1       -2 0.174353646829D-03 0.100000000000D+01
-.451908412580D-06 0.000000000000D+00 -.332839364557D-07 0.152958819181D-08 0.000000000000D+00  7 -2 2 23 -11 11 23 21 2 0.56053990D-01 0.86632367D-01 0.13086269D+06 0.13086269D+06 0.13086269D+06 0.11122602D+01  1  2  3  1  7  1       -2 -.112465818299D-04 0.100000000000D+01
0.540913632247D-06 0.000000000000D+00 0.000000000000D+00 0.152958819181D-08 0.000000000000D+00  7 -2 2 23 -11 11 23 21 2 0.56053990D-01 0.86632367D-01 0.13086269D+06 0.13086269D+06 0.13086269D+06 0.11122602D+01  1  2 15  1  7  1       -2 0.134616423563D-04 0.100000000000D+01
  </mgrwgt>
  </event>
  <event>
  8     66 0.28248871E-05 0.81360724E+02 0.75467711E-02 0.10493894E+00
       -2 -1    0    0    0  501 0.00000000E+00 0.00000000E+00 0.48691449E+02 0.48692500E+02 0.32000000E+00 0.0000E+00 0.9000E+01
        2 -1    0    0  501    0 0.00000000E+00 0.00000000E+00 -.11902714E+04 0.11902714E+04 0.32000000E+00 0.0000E+00 0.9000E+01
       25  2    1    2    0    0 -.18443143E+02 0.42462056E+02 -.46714216E+03 0.55693259E+03 0.29968140E+03 0.0000E+00 0.0000E+00
       23  2    1    2    0    0 0.18443143E+02 -.42462056E+02 -.67443778E+03 0.68203135E+03 0.90317519E+02 0.0000E+00 0.0000E+00
       23  1    3    3    0    0 -.51153283E+02 0.13398912E+03 -.26031403E+03 0.31088324E+03 0.91188000E+02 0.0000E+00 0.9000E+01
      -11  1    4    4    0    0 0.23597701E+02 -.65333707E+01 -.58495627E+03 0.58546851E+03 0.51099893E-03 0.0000E+00 0.9000E+01
       11  1    4    4    0    0 -.51545574E+01 -.35928686E+02 -.89481513E+02 0.96562835E+02 0.51099893E-03 0.0000E+00 0.9000E+01
       23  1    3    3    0    0 0.32710139E+02 -.91527066E+02 -.20682813E+03 0.24604935E+03 0.91188000E+02 0.0000E+00 0.9000E+01
#aMCatNLO 1  0  0  2  1 0.62188223D+02 0.00000000D+00  -5  7  0 0.00000000D+00 0.00000000D+00 0.00000000D+00 0.00000000D+00 0.00000000D+00
  <mgrwgt>
 0.1185910048D-03    9    2    0
 0.240742012768977D+03 0.000000000000000D+00 0.000000000000000D+00 0.240742012768977D+03
 0.240742012768977D+03 0.000000000000000D+00 0.000000000000000D+00 -.240742012768977D+03
 0.182776254497389D+03 -.511532825243738D+02 0.133989122389573D+03 0.672470418111294D+02
 0.119630182335941D+03 0.235977006985476D+02 -.653337068146377D+01 -.117097583728320D+03
 0.363201447063631D+02 -.515455742174403D+01 -.359286857701554D+02 -.130881171546129D+01
 0.142757443998261D+03 0.327101392475702D+02 -.915270659379540D+02 0.511593536326516D+02
 0.000000000000000D+00 -.000000000000000D+00 0.000000000000000D+00 -.000000000000000D+00
 0.248310648005580D+03 0.000000000000000D+00 0.000000000000000D+00 0.248310648005580D+03
 0.416356886828891D+03 0.000000000000000D+00 0.000000000000000D+00 -.416356886828891D+03
 0.169735040052853D+03 -.317031629521323D+02 0.122341641742403D+03 0.672470418111294D+02
 0.123672300728860D+03 0.370221284005632D+02 -.145724349801593D+02 -.117097583728320D+03
 0.384347962245769D+02 -.102988805029102D+01 -.383986966357205D+02 -.130881171546129D+01
 0.153641376559050D+03 0.490642038975169D+02 -.101320509664885D+03 0.511593536326516D+02
 0.179184021269131D+03 -.533532812956568D+02 0.319499995383622D+02 -.168046238823312D+03
0.577172063147D-06 0.000000000000D+00 0.000000000000D+00 0.136708557173D-06 0.000000000000D+00  7 -2 2 23 -11 11 23 21 0 0.74910763D-02 0.18311876D+00 0.33126463D+05 0.33126463D+05 0.33126463D+05 0.11633623D+01  1  2  2  2  7  2        2 0.132856161687D-03 0.100000000000D+01
-.290155113226D-07 0.000000000000D+00 -.221649269538D-08 0.136708557173D-06 0.000000000000D+00  7 -2 2 23 -11 11 23 21 2 0.74910763D-02 0.18311876D+00 0.33126463D+05 0.33126463D+05 0.33126463D+05 0.11633623D+01  1  2  3  2  7  2        2 -.903933697704D-05 0.100000000000D+01
0.363259217807D-07 0.000000000000D+00 0.000000000000D+00 0.136708557173D-06 0.000000000000D+00  7 -2 2 23 -11 11 23 21 2 0.74910763D-02 0.18311876D+00 0.33126463D+05 0.33126463D+05 0.33126463D+05 0.11633623D+01  1  2 15  2  7  2        2 0.113167830932D-04 0.100000000000D+01
0.158655361403D-05 0.000000000000D+00 0.000000000000D+00 0.136708557173D-06 0.000000000000D+00  7 -2 2 23 -11 11 23 21 2 0.74910763D-02 0.31771122D+00 0.48643801D+05 0.48643801D+05 0.48643801D+05 0.11483473D+01  1  2 12  2  7  2        2 0.164667177361D-03 0.100000000000D+01
-.159922167366D-05 0.000000000000D+00 0.000000000000D+00 0.136708557173D-06 0.000000000000D+00  7 -2 2 23 -11 11 23 21 2 0.74910763D-02 0.18311876D+00 0.33126463D+05 0.33126463D+05 0.33126463D+05 0.11633623D+01  1  2  4  2  7  2        2 -.498212954045D-03 0.100000000000D+01
-.173645826309D-05 0.000000000000D+00 -.181765966728D-06 0.136708557173D-06 0.000000000000D+00  7 -2 2 23 -11 11 23 21 2 0.74910763D-02 0.31946374D+00 0.33126463D+05 0.33126463D+05 0.33126463D+05 0.11633623D+01  1  2  5  2  7  2        2 -.183603518990D-03 0.100000000000D+01
0.160717165477D-05 0.000000000000D+00 0.156845015640D-06 0.136708557173D-06 0.000000000000D+00  7 -2 2 23 -11 11 23 21 2 0.74910763D-02 0.18311876D+00 0.33126463D+05 0.33126463D+05 0.33126463D+05 0.11633623D+01  1  2  6  2  7  2        2 0.500689648576D-03 0.100000000000D+01
0.968031866047D-07 0.000000000000D+00 0.000000000000D+00 0.136708557173D-06 0.000000000000D+00  7 -2 21 23 -11 11 23 -2 2 0.74910763D-02 0.31771122D+00 0.48643801D+05 0.48643801D+05 0.48643801D+05 0.11483473D+01  1  2 12  4  7  2        2 0.206186675870D-05 0.100000000000D+01
-.976541292390D-07 0.000000000000D+00 -.111830391841D-07 0.136708557173D-06 0.000000000000D+00  7 -2 21 23 -11 11 23 -2 2 0.74910763D-02 0.31946374D+00 0.33126463D+05 0.33126463D+05 0.33126463D+05 0.11633623D+01  1  2  5  4  7  2        2 -.214482270907D-05 0.100000000000D+01
  </mgrwgt>
  </event>
  <event>
  8     66 0.28248871E-05 0.31564296E+03 0.75467711E-02 0.89993578E-01
       -2 -1    0    0    0  501 0.00000000E+00 0.00000000E+00 0.12635553E+03 0.12635594E+03 0.32000000E+00 0.0000E+00 0.9000E+01
        2 -1    0    0  501    0 0.00000000E+00 0.00000000E+00 -.14124578E+04 0.14124579E+04 0.32000000E+00 0.0000E+00 0.9000E+01
       25  2    1    2    0    0 0.11524412E+03 -.21455668E+03 -.12060725E+04 0.12674418E+04 0.30410888E+03 0.0000E+00 0.0000E+00
       23  2    1    2    0    0 -.11524412E+03 0.21455668E+03 -.80029810E+02 0.27137196E+03 0.89006697E+02 0.0000E+00 0.0000E+00
       23  1    3    3    0    0 0.15448184E+03 -.59338614E+02 -.79200995E+03 0.81423628E+03 0.91188000E+02 0.0000E+00 0.9000E+01
      -11  1    4    4    0    0 -.78420166E+02 0.20580696E+03 -.77344992E+02 0.23342766E+03 0.51099893E-03 0.0000E+00 0.9000E+01
       11  1    4    4    0    0 -.36823950E+02 0.87497215E+01 -.26848180E+01 0.37944291E+02 0.51099893E-03 0.0000E+00 0.9000E+01
       23  1    3    3    0    0 -.39237723E+02 -.15521807E+03 -.41406254E+03 0.45320557E+03 0.91188000E+02 0.0000E+00 0.9000E+01
#aMCatNLO 1  0  0  1  2 0.63293557D+03 0.00000000D+00  -5  7  0 0.00000000D+00 0.00000000D+00 0.00000000D+00 0.00000000D+00 0.00000000D+00
  <mgrwgt>
 0.3805353527D-03    5    2    0
 0.422459700239783D+03 0.000000000000000D+00 0.000000000000000D+00 0.422459700239783D+03
 0.422459700239783D+03 0.000000000000000D+00 0.000000000000000D+00 -.422459700239783D+03
 0.277366349689516D+03 0.154481839272857D+03 -.593386142859201D+02 -.203054502007685D+03
 0.307399900811971D+03 -.784201661110411D+02 0.205806959109061D+03 0.214449229769210D+03
 0.650195124249382D+02 -.368239503086194D+02 0.874972144896960D+01 0.528675330823225D+02
 0.195133637553141D+03 -.392377228531969D+02 -.155218066272111D+03 -.642622608438481D+02
 0.000000000000000D+00 -.000000000000000D+00 -.000000000000000D+00 0.000000000000000D+00
 0.187729238115707D+04 0.000000000000000D+00 0.000000000000000D+00 0.187729238115707D+04
 0.602065653386252D+03 0.000000000000000D+00 0.000000000000000D+00 -.602065653386252D+03
 0.352338095901296D+03 0.238718094359543D+03 0.132700501578218D+03 -.203054502007685D+03
 0.501673854811138D+03 0.298105185217585D+02 0.452547806798269D+03 0.214449229769210D+03
 0.761611915720646D+02 -.179380525219976D+02 0.518051862189908D+02 0.528675330823225D+02
 0.125523892311885D+03 0.365698699093339D+01 -.574280808882815D+02 -.642622608438481D+02
 0.142366099994694D+04 -.254247547350237D+03 -.579625413707196D+03 0.127522672777082D+04
0.975653856244D-05 0.000000000000D+00 0.000000000000D+00 0.589833573520D-08 0.000000000000D+00  7 -2 2 23 -11 11 23 21 0 0.19439346D-01 0.21730124D+00 0.99630481D+05 0.99630481D+05 0.99630481D+05 0.11218540D+01  1  2  2  1  7  1       -2 0.379468403149D-03 0.100000000000D+01
-.486037496254D-06 0.000000000000D+00 -.374676770354D-07 0.589833573520D-08 0.000000000000D+00  7 -2 2 23 -11 11 23 21 2 0.19439346D-01 0.21730124D+00 0.99630481D+05 0.99630481D+05 0.99630481D+05 0.11218540D+01  1  2  3  1  7  1       -2 -.237915268487D-04 0.100000000000D+01
0.601946384664D-06 0.000000000000D+00 0.000000000000D+00 0.589833573520D-08 0.000000000000D+00  7 -2 2 23 -11 11 23 21 2 0.19439346D-01 0.21730124D+00 0.99630481D+05 0.99630481D+05 0.99630481D+05 0.11218540D+01  1  2 15  1  7  1       -2 0.294652648872D-04 0.100000000000D+01
-.192269478557D-06 0.000000000000D+00 -.454987818782D-05 0.589833573520D-08 0.000000000000D+00  7 -2 2 23 -11 11 23 21 2 0.11625899D+00 0.21730124D+00 0.99630481D+05 0.99630481D+05 0.99630481D+05 0.11218540D+01  1  2  5  1  7  1       -2 -.271432623480D-06 0.100000000000D+01
-.330051149089D-06 0.000000000000D+00 -.997309677932D-06 0.589833573520D-08 0.000000000000D+00  7 21 2 23 -11 11 23 2 2 0.11625899D+00 0.21730124D+00 0.99630481D+05 0.99630481D+05 0.99630481D+05 0.11218540D+01  1  2  5  3  7  1       -2 -.433535588999D-05 0.100000000000D+01
  </mgrwgt>
  </event>
  <event>
  9     66 0.28248871E-05 0.19854904E+03 0.75467711E-02 0.10256006E+00
       21 -1    0    0  502  501 0.00000000E+00 0.00000000E+00 0.19622430E+03 0.19622573E+03 0.75000000E+00 0.0000E+00 0.9000E+01
        2 -1    0    0  501    0 0.00000000E+00 0.00000000E+00 -.81584012E+03 0.81584019E+03 0.32000000E+00 0.0000E+00 0.9000E+01
       25  2    1    2    0    0 0.15523454E+02 -.17204288E+03 -.63421014E+03 0.72250187E+03 0.29991119E+03 0.0000E+00 0.0000E+00
       23  2    1    2    0    0 -.11856295E+02 0.61790310E+02 -.86398383E+02 0.14000234E+03 0.90428764E+02 0.0000E+00 0.0000E+00
       23  1    3    3    0    0 0.41021865E+02 -.20866493E+03 -.52313252E+03 0.57201987E+03 0.91188000E+02 0.0000E+00 0.9000E+01
      -13  1    4    4    0    0 0.69811315E+01 -.72756706E+01 0.13655358E+02 0.16975027E+02 0.10565837E+00 0.0000E+00 0.9000E+01
       13  1    4    4    0    0 -.18837426E+02 0.69065980E+02 -.10005374E+03 0.12302732E+03 0.10565837E+00 0.0000E+00 0.9000E+01
       23  1    3    3    0    0 -.25498411E+02 0.36622046E+02 -.11107761E+03 0.15048199E+03 0.91188000E+02 0.0000E+00 0.9000E+01
        2  1    1    2  502    0 -.36671595E+01 0.11025257E+03 0.10099269E+03 0.14956171E+03 0.32000000E+00 0.0000E+00 0.9000E+01
#aMCatNLO 2  0  0  1  2 0.11031354D+03 0.00000000D+00  -5  7  0 0.00000000D+00 0.00000000D+00 0.00000000D+00 0.00000000D+00 0.00000000D+00
  <mgrwgt>
 0.8612310811D-04    2    2    0
 0.230471145410367D+03 0.000000000000000D+00 0.000000000000000D+00 0.230471145410367D+03
 0.230471145410367D+03 0.000000000000000D+00 0.000000000000000D+00 -.230471145410367D+03
 0.202280245172000D+03 0.392651212056266D+02 -.155848673292778D+03 -.822890486786216D+02
 0.513153388479571D+02 0.657727011757406D+01 0.486721072740308D+01 0.506587976428199D+02
 0.904577586244605D+02 -.194737665283878D+02 0.881965546897457D+02 0.497456062559288D+01
 0.116888948176317D+03 -.263686247948128D+02 0.627849078756297D+02 0.266556904102088D+02
 0.000000000000000D+00 -.000000000000000D+00 0.000000000000000D+00 0.000000000000000D+00
 0.655428991532617D+03 0.000000000000000D+00 0.000000000000000D+00 0.655428991532617D+03
 0.244249698821662D+03 0.000000000000000D+00 0.000000000000000D+00 -.244249698821662D+03
 0.245582143513628D+03 0.410218663340134D+02 -.208664939122005D+03 -.822890486786216D+02
 0.516525614127824D+02 0.698116283491999D+01 -.727576025975403D+01 0.506587976428199D+02
 0.717615505520027D+02 -.188374595101486D+02 0.690660843208406D+02 0.497456062559288D+01
 0.104962469860824D+03 -.254984101759737D+02 0.366220423042916D+02 0.266556904102088D+02
 0.425719965015042D+03 -.366715948281113D+01 0.110252572756626D+03 0.411179292710955D+03
-.121274700426D-06 0.000000000000D+00 0.000000000000D+00 0.147559296072D-06 0.000000000000D+00  7 21 2 23 -13 13 23 2 2 0.29828063D-01 0.11843349D+00 0.68877998D+05 0.68877998D+05 0.68877998D+05 0.11352567D+01  1  2 13  3  7  1       -2 -.858748128858D-04 0.100000000000D+01
0.267292147048D-06 0.000000000000D+00 0.000000000000D+00 0.147559296072D-06 0.158100758946D-10  7 21 2 23 -13 13 23 2 2 0.30188461D-01 0.12551395D+00 0.68877998D+05 0.68877998D+05 0.68877998D+05 0.11352567D+01  1  2  1  3  7  1       -2 0.171997920991D-03 0.100000000000D+01
  </mgrwgt>
  </event>
  <event>
  9     66 0.28248871E-05 0.20770579E+03 0.75467711E-02 0.10123267E+00
       -2 -1    0    0    0  501 0.00000000E+00 0.00000000E+00 0.61298684E+02 0.61299520E+02 0.32000000E+00 0.0000E+00 0.9000E+01
        2 -1    0    0  502    0 0.00000000E+00 0.00000000E+00 -.16139219E+04 0.16139219E+04 0.32000000E+00 0.0000E+00 0.9000E+01
       25  2    1    2    0    0 0.51673047E+02 -.11260893E+03 -.59499789E+03 0.67838619E+03 0.30138756E+03 0.0000E+00 0.0000E+00
       23  2    1    2    0    0 -.94973298E+02 -.21710740E+02 -.41566875E+03 0.43680475E+03 0.92339537E+02 0.0000E+00 0.0000E+00
       23  1    3    3    0    0 0.11244444E+03 0.25919329E+02 -.23190183E+03 0.27460749E+03 0.91188000E+02 0.0000E+00 0.9000E+01
      -11  1    4    4    0    0 0.66026639E+00 -.19988394E+02 -.15331427E+02 0.25199693E+02 0.51099893E-03 0.0000E+00 0.9000E+01
       11  1    4    4    0    0 -.95633564E+02 -.17223453E+01 -.40033733E+03 0.41160505E+03 0.51099893E-03 0.0000E+00 0.9000E+01
       23  1    3    3    0    0 -.60771390E+02 -.13852826E+03 -.36309606E+03 0.40377871E+03 0.91188000E+02 0.0000E+00 0.9000E+01
       21  1    1    2  502  501 0.43300251E+02 0.13431967E+03 -.54195653E+03 0.56003047E+03 0.75000000E+00 0.0000E+00 0.9000E+01
#aMCatNLO 2  0  0  2  1 0.14112649D+03 0.00000000D+00  -5  7  0 0.00000000D+00 0.00000000D+00 0.00000000D+00 0.00000000D+00 0.00000000D+00
  <mgrwgt>
 0.5276617040D-04    2    2    0
 0.224881679547007D+03 0.000000000000000D+00 0.000000000000000D+00 0.224881679547007D+03
 0.224881679547007D+03 0.000000000000000D+00 0.000000000000000D+00 -.224881679547007D+03
 0.178348650043851D+03 0.127994399527414D+03 0.741561346675158D+02 0.401408894925609D+02
 0.221255507501669D+02 0.295754691660059D+01 -.128621078097494D+02 0.177583528212698D+02
 0.111254820351482D+03 -.849779641214839D+02 0.313318914364950D+02 -.646118661255031D+02
 0.138034337948514D+03 -.459739823225310D+02 -.926259182942614D+02 0.671262381167236D+01
 0.000000000000000D+00 0.000000000000000D+00 0.000000000000000D+00 -.000000000000000D+00
 0.276446707705532D+03 0.000000000000000D+00 0.000000000000000D+00 0.276446707705532D+03
 0.357868025699948D+03 0.000000000000000D+00 0.000000000000000D+00 -.357868025699948D+03
 0.152453617496453D+03 0.112444437422120D+03 0.259193292221038D+02 0.401408894925609D+02
 0.267456714624317D+02 0.660266250733448D+00 -.199883940207755D+02 0.177583528212698D+02
 0.115427199599894D+03 -.956335646601535D+02 -.172234539105421D+01 -.646118661255031D+02
 0.176758454657237D+03 -.607713899474438D+02 -.138528259911952D+03 0.671262381167236D+01
 0.162929790189465D+03 0.433002509347443D+02 0.134319670101677D+03 -.814213179944161D+02
-.136444313559D-06 0.000000000000D+00 0.000000000000D+00 0.169194760831D-07 0.000000000000D+00  7 -2 2 23 -11 11 23 21 2 0.76715348D-02 0.25759763D+00 0.84239253D+05 0.84239253D+05 0.84239253D+05 0.11278862D+01  1  2 13  2  7  2        2 -.210967468387D-04 0.100000000000D+01
0.607304540458D-06 0.000000000000D+00 0.000000000000D+00 0.169194760831D-07 0.641776744864D-11  7 -2 2 23 -11 11 23 21 2 0.94306061D-02 0.24829502D+00 0.84239253D+05 0.84239253D+05 0.84239253D+05 0.11278862D+01  1  2  1  2  7  2        2 0.738629172383D-04 0.100000000000D+01
  </mgrwgt>
  </event>
  <event>
  8     66 0.28248871E-05 0.17890721E+03 0.75467711E-02 0.10349657E+00
       -2 -1    0    0    0  501 0.00000000E+00 0.00000000E+00 0.57469812E+02 0.57470703E+02 0.32000000E+00 0.0000E+00 0.9000E+01
        2 -1    0    0  501    0 0.00000000E+00 0.00000000E+00 -.11249615E+04 0.11249616E+04 0.32000000E+00 0.0000E+00 0.9000E+01
       25  2    1    2    0    0 0.27355677E+02 0.10785997E+03 -.47372189E+03 0.57157134E+03 0.29983205E+03 0.0000E+00 0.0000E+00
       23  2    1    2    0    0 -.27355677E+02 -.10785997E+03 -.59376984E+03 0.61086095E+03 0.90589029E+02 0.0000E+00 0.0000E+00
       23  1    3    3    0    0 0.14255175E+02 0.28774796E+01 -.40596092E+03 0.41633041E+03 0.91188000E+02 0.0000E+00 0.9000E+01
      -13  1    4    4    0    0 -.12935994E-01 -.95996861E+02 -.54729109E+03 0.55564642E+03 0.10565837E+00 0.0000E+00 0.9000E+01
       13  1    4    4    0    0 -.27342741E+02 -.11863109E+02 -.46478748E+02 0.55214527E+02 0.10565837E+00 0.0000E+00 0.9000E+01
       23  1    3    3    0    0 0.13100502E+02 0.10498249E+03 -.67760974E+02 0.15524093E+03 0.91188000E+02 0.0000E+00 0.9000E+01
#aMCatNLO 1  0  0  1  1 0.11340885D+03 0.00000000D+00  -5  7  0 0.00000000D+00 0.00000000D+00 0.00000000D+00 0.00000000D+00 0.00000000D+00
  <mgrwgt>
 0.1655656205D-03    4    2    0
 0.254267342641119D+03 0.000000000000000D+00 0.000000000000000D+00 0.254267342641119D+03
 0.254267342641119D+03 0.000000000000000D+00 0.000000000000000D+00 -.254267342641119D+03
 0.115867404499226D+03 0.142551753133605D+02 0.287748047691325D+01 -.699893860830174D+02
 0.143128164641065D+03 -.128995272910331D-01 -.959969767272884D+02 -.106161442182850D+03
 0.308173333878043D+02 -.273427779575778D+02 -.118629947906272D+02 0.783261675911841D+01
 0.218721782754143D+03 0.131005021715084D+02 0.104982491041002D+03 0.168318211506749D+03
 0.000000000000000D+00 -.000000000000000D+00 -.000000000000000D+00 -.000000000000000D+00
 0.292988202470601D+03 0.000000000000000D+00 0.000000000000000D+00 0.292988202470601D+03
 0.359525629162093D+03 0.000000000000000D+00 0.000000000000000D+00 -.359525629162093D+03
 0.121559284000493D+03 0.342656565208330D+02 0.197169673538112D+02 -.699893860830174D+02
 0.132857516197510D+03 0.232473595229813D+02 -.764226934819640D+02 -.106161442182850D+03
 0.252053887655351D+02 -.226211452046442D+02 -.788958345902636D+01 0.783261675911841D+01
 0.241404772070379D+03 0.518802780954186D+02 0.137616964994376D+03 0.168318211506749D+03
 0.131486870598777D+03 -.867721489345888D+02 -.730216554071965D+02 -.665374266914919D+02
0.104421832281D-05 0.000000000000D+00 0.000000000000D+00 0.220146974708D-06 0.000000000000D+00  7 -2 2 23 -13 13 23 21 0 0.88415815D-02 0.17307108D+00 0.32007790D+05 0.32007790D+05 0.32007790D+05 0.11647345D+01  1  2  2  1  7  1       -2 0.203976814489D-03 0.100000000000D+01
-.492965191164D-07 0.000000000000D+00 -.401007330860D-08 0.220146974708D-06 0.000000000000D+00  7 -2 2 23 -13 13 23 21 2 0.88415815D-02 0.17307108D+00 0.32007790D+05 0.32007790D+05 0.32007790D+05 0.11647345D+01  1  2  3  1  7  1       -2 -.130635030023D-04 0.100000000000D+01
0.661115681919D-07 0.000000000000D+00 0.000000000000D+00 0.220146974708D-06 0.000000000000D+00  7 -2 2 23 -13 13 23 21 2 0.88415815D-02 0.17307108D+00 0.32007790D+05 0.32007790D+05 0.32007790D+05 0.11647345D+01  1  2 15  1  7  1       -2 0.175194655737D-04 0.100000000000D+01
-.161763778311D-06 0.000000000000D+00 0.000000000000D+00 0.220146974708D-06 0.000000000000D+00  7 -2 2 23 -13 13 23 21 2 0.88415815D-02 0.17307108D+00 0.32007790D+05 0.32007790D+05 0.32007790D+05 0.11647345D+01  1  2  4  1  7  1       -2 -.428671565764D-04 0.100000000000D+01
  </mgrwgt>
  </event>
  <event>
  8     66 0.28248871E-05 0.55950300E+02 0.75467711E-02 0.11271941E+00
       -2 -1    0    0    0  501 0.00000000E+00 0.00000000E+00 0.19799778E+02 0.19802363E+02 0.32000000E+00 0.0000E+00 0.9000E+01
        2 -1    0    0  501    0 0.00000000E+00 0.00000000E+00 -.22692183E+04 0.22692184E+04 0.32000000E+00 0.0000E+00 0.9000E+01
       25  2    1    2    0    0 0.20643669E+02 -.20532719E+02 -.19776682E+04 0.20004742E+04 0.29979638E+03 0.0000E+00 0.0000E+00
       23  2    1    2    0    0 -.20643669E+02 0.20532719E+02 -.27175038E+03 0.28854652E+03 0.92536855E+02 0.0000E+00 0.0000E+00
       23  1    3    3    0    0 -.23282899E+01 -.41054563E+02 -.17555631E+04 0.17584106E+04 0.91188000E+02 0.0000E+00 0.9000E+01
      -11  1    4    4    0    0 -.68250609E+01 0.14507806E+02 -.27295320E+03 0.27342368E+03 0.51099893E-03 0.0000E+00 0.9000E+01
       11  1    4    4    0    0 -.13818609E+02 0.60249131E+01 0.12028188E+01 0.15122840E+02 0.51099893E-03 0.0000E+00 0.9000E+01
       23  1    3    3    0    0 0.22971959E+02 0.20521844E+02 -.22210508E+03 0.24206358E+03 0.91188000E+02 0.0000E+00 0.9000E+01
#aMCatNLO 1  0  0  2  1 0.39444377D+02 0.00000000D+00  -5  7  0 0.00000000D+00 0.00000000D+00 0.00000000D+00 0.00000000D+00 0.00000000D+00
  <mgrwgt>
 0.4012385329D-03    9    2    0
 0.211974063384320D+03 0.000000000000000D+00 0.000000000000000D+00 0.211974063384320D+03
 0.211974063384320D+03 0.000000000000000D+00 0.000000000000000D+00 -.211974063384320D+03
 0.179366648753586D+03 -.232828954405278D+01 -.410545632401826D+02 -.148883327629554D+03
 0.280375551623470D+02 -.682506096368705D+01 0.145078060791598D+02 -.230010131318840D+02
 0.880346804525814D+02 -.138186091689891D+02 0.602491380122945D+01 0.867343727521598D+02
 0.128509242400126D+03 0.229719596767289D+02 0.205218433597934D+02 0.851499680092787D+02
 0.000000000000000D+00 -.000000000000000D+00 0.000000000000000D+00 -.000000000000000D+00
 0.228656766481510D+03 0.000000000000000D+00 0.000000000000000D+00 0.228656766481510D+03
 0.237558803002463D+03 0.000000000000000D+00 0.000000000000000D+00 -.237558803002463D+03
 0.181889523126237D+03 0.121303583175790D+02 -.495495352160611D+02 -.148883327629554D+03
 0.269273676153109D+02 -.462518584723280D+01 0.132153008847908D+02 -.230010131318840D+02
 0.870224128253265D+02 -.681225449768923D+01 0.190843021608731D+01 0.867343727521598D+02
 0.129939832901167D+03 0.333159329035417D+02 0.144443896779596D+02 0.851499680092787D+02
 0.404364330159324D+02 -.340088508761987D+02 0.199814144372234D+02 -.890203652095317D+01
0.968926896502D-06 0.000000000000D+00 0.000000000000D+00 0.787651258842D-07 0.000000000000D+00  7 -2 2 23 -11 11 23 21 0 0.30463203D-02 0.34911072D+00 0.12926432D+05 0.12926432D+05 0.12926432D+05 0.12028620D+01  1  2  2  2  7  2        2 0.225725303795D-03 0.100000000000D+01
-.284309374963D-07 0.000000000000D+00 -.372093440688D-08 0.787651258842D-07 0.000000000000D+00  7 -2 2 23 -11 11 23 21 2 0.30463203D-02 0.34911072D+00 0.12926432D+05 0.12926432D+05 0.12926432D+05 0.12028620D+01  1  2  3  2  7  2        2 -.958323234346D-05 0.100000000000D+01
0.580890895416D-07 0.000000000000D+00 0.000000000000D+00 0.787651258842D-07 0.000000000000D+00  7 -2 2 23 -11 11 23 21 2 0.30463203D-02 0.34911072D+00 0.12926432D+05 0.12926432D+05 0.12926432D+05 0.12028620D+01  1  2 15  2  7  2        2 0.195801225960D-04 0.100000000000D+01
0.880823887117D-06 0.000000000000D+00 0.000000000000D+00 0.787651258842D-07 0.000000000000D+00  7 -2 2 23 -11 11 23 21 2 0.30463203D-02 0.40360967D+00 0.17313224D+05 0.17313224D+05 0.17313224D+05 0.11901571D+01  1  2 12  2  7  2        2 0.185824942858D-03 0.100000000000D+01
-.901193964384D-06 0.000000000000D+00 0.000000000000D+00 0.787651258842D-07 0.000000000000D+00  7 -2 2 23 -11 11 23 21 2 0.30463203D-02 0.34911072D+00 0.12926432D+05 0.12926432D+05 0.12926432D+05 0.12028620D+01  1  2  4  2  7  2        2 -.303765964395D-03 0.100000000000D+01
-.213545629465D-05 0.000000000000D+00 -.673060806292D-06 0.787651258842D-07 0.000000000000D+00  7 -2 2 23 -11 11 23 21 2 0.30463203D-02 0.40332774D+00 0.12926432D+05 0.12926432D+05 0.12926432D+05 0.12028620D+01  1  2  5  2  7  2        2 -.462977258128D-03 0.100000000000D+01
0.221643716679D-05 0.000000000000D+00 0.666107926214D-06 0.787651258842D-07 0.000000000000D+00  7 -2 2 23 -11 11 23 21 2 0.30463203D-02 0.34911072D+00 0.12926432D+05 0.12926432D+05 0.12926432D+05 0.12028620D+01  1  2  6  2  7  2        2 0.747095741984D-03 0.100000000000D+01
0.195533873155D-07 0.000000000000D+00 0.000000000000D+00 0.787651258842D-07 0.000000000000D+00  7 -2 21 23 -11 11 23 -2 2 0.30463203D-02 0.40360967D+00 0.17313224D+05 0.17313224D+05 0.17313224D+05 0.11901571D+01  1  2 12  4  7  2        2 0.506527916562D-06 0.100000000000D+01
-.428588675144D-07 0.000000000000D+00 -.148825946195D-07 0.787651258842D-07 0.000000000000D+00  7 -2 21 23 -11 11 23 -2 2 0.30463203D-02 0.40332774D+00 0.12926432D+05 0.12926432D+05 0.12926432D+05 0.12028620D+01  1  2  5  4  7  2        2 -.116765134249D-05 0.100000000000D+01
  </mgrwgt>
  </event>
  <event>
  8     66 0.28248871E-05 0.22456627E+03 0.75467711E-02 0.95548438E-01
       -2 -1    0    0    0  501 0.00000000E+00 0.00000000E+00 0.18133754E+03 0.18133783E+03 0.32000000E+00 0.0000E+00 0.9000E+01
        2 -1    0    0  501    0 0.00000000E+00 0.00000000E+00 -.19209670E+04 0.19209670E+04 0.32000000E+00 0.0000E+00 0.9000E+01
       25  2    1    2    0    0 -.41223988E+03 -.10240953E+02 -.15653006E+04 0.16453844E+04 0.29508855E+03 0.0000E+00 0.0000E+00
       23  2    1    2    0    0 0.41223988E+03 0.10240953E+02 -.17432886E+03 0.45692046E+03 0.91318990E+02 0.0000E+00 0.0000E+00
       23  1    3    3    0    0 -.13110498E+03 0.91820196E+02 -.74702173E+03 0.76939988E+03 0.91188000E+02 0.0000E+00 0.9000E+01
      -11  1    4    4    0    0 0.19031775E+03 0.21480393E+02 -.35149927E+02 0.19472486E+03 0.51099893E-03 0.0000E+00 0.9000E+01
       11  1    4    4    0    0 0.22192213E+03 -.11239441E+02 -.13917893E+03 0.26219560E+03 0.51099893E-03 0.0000E+00 0.9000E+01
       23  1    3    3    0    0 -.28113490E+03 -.10206115E+03 -.81827885E+03 0.87598450E+03 0.91188000E+02 0.0000E+00 0.9000E+01
#aMCatNLO 1  0  0  2  1 0.11585216D+02 0.00000000D+00  -5  7  0 0.00000000D+00 0.00000000D+00 0.00000000D+00 0.00000000D+00 0.00000000D+00
  <mgrwgt>
 0.5317121929D-03    9    2    0
 0.590206541655229D+03 0.000000000000000D+00 0.000000000000000D+00 0.590206541655229D+03
 0.590206541655229D+03 0.000000000000000D+00 0.000000000000000D+00 -.590206541655229D+03
 0.269373585543566D+03 -.131104984283859D+03 0.918201956093062D+02 -.196538576413880D+03
 0.295001112242632D+03 0.190317753798767D+03 0.214803933668266D+02 0.224373352950363D+03
 0.261853505297027D+03 0.221922127738097D+03 -.112394406282503D+02 0.138533398250746D+03
 0.354184880227234D+03 -.281134897253005D+03 -.102061148347882D+03 -.166368174787229D+03
 0.000000000000000D+00 0.000000000000000D+00 -.000000000000000D+00 -.000000000000000D+00
 0.593627668881641D+03 0.000000000000000D+00 0.000000000000000D+00 0.593627668881641D+03
 0.600125109210849D+03 0.000000000000000D+00 0.000000000000000D+00 -.600125109210849D+03
 0.270471283640960D+03 -.131504047443405D+03 0.944390672211292D+02 -.196538576413880D+03
 0.294942354947348D+03 0.189881656843125D+03 0.243423010869798D+02 0.224373352950363D+03
 0.261428959706487D+03 0.221535307809375D+03 -.870091582086887D+01 0.138533398250746D+03
 0.353627335449244D+03 -.281658124934282D+03 -.986274409553554D+02 -.166368174787229D+03
 0.132828443484501D+02 0.174520772518790D+01 -.114530115318848D+02 -.649744032920751D+01
0.136534147530D-04 0.000000000000D+00 0.000000000000D+00 0.301647203404D-07 0.000000000000D+00  7 -2 2 23 -11 11 23 21 0 0.27898108D-01 0.29553341D+00 0.20730998D+06 0.20730998D+06 0.20730998D+06 0.10966300D+01  1  2  2  2  7  2        2 0.149482392364D-03 0.100000000000D+01
-.696424326570D-06 0.000000000000D+00 -.524327076780D-07 0.301647203404D-07 0.000000000000D+00  7 -2 2 23 -11 11 23 21 2 0.27898108D-01 0.29553341D+00 0.20730998D+06 0.20730998D+06 0.20730998D+06 0.10966300D+01  1  2  3  2  7  2        2 -.916944288174D-05 0.100000000000D+01
0.840783470862D-06 0.000000000000D+00 0.000000000000D+00 0.301647203404D-07 0.000000000000D+00  7 -2 2 23 -11 11 23 21 2 0.27898108D-01 0.29553341D+00 0.20730998D+06 0.20730998D+06 0.20730998D+06 0.10966300D+01  1  2 15  2  7  2        2 0.110701417481D-04 0.100000000000D+01
0.120186176644D-04 0.000000000000D+00 0.000000000000D+00 0.301647203404D-07 0.000000000000D+00  7 -2 2 23 -11 11 23 21 2 0.27898108D-01 0.30134666D+00 0.21279313D+06 0.21279313D+06 0.21279313D+06 0.10957632D+01  1  2 12  2  7  2        2 0.150530917745D-03 0.100000000000D+01
-.117473467465D-04 0.000000000000D+00 0.000000000000D+00 0.301647203404D-07 0.000000000000D+00  7 -2 2 23 -11 11 23 21 2 0.27898108D-01 0.29553341D+00 0.20730998D+06 0.20730998D+06 0.20730998D+06 0.10966300D+01  1  2  4  2  7  2        2 -.154670968395D-03 0.100000000000D+01
-.620954529259D-03 0.000000000000D+00 -.718938031737D-04 0.301647203404D-07 0.000000000000D+00  7 -2 2 23 -11 11 23 21 2 0.27898108D-01 0.30125677D+00 0.20730998D+06 0.20730998D+06 0.20730998D+06 0.10966300D+01  1  2  5  2  7  2        2 -.780388003989D-02 0.100000000000D+01
0.622232284834D-03 0.000000000000D+00 0.718805798634D-04 0.301647203404D-07 0.000000000000D+00  7 -2 2 23 -11 11 23 21 2 0.27898108D-01 0.29553341D+00 0.20730998D+06 0.20730998D+06 0.20730998D+06 0.10966300D+01  1  2  6  2  7  2        2 0.819259634864D-02 0.100000000000D+01
0.566631315478D-06 0.000000000000D+00 0.000000000000D+00 0.301647203404D-07 0.000000000000D+00  7 -2 21 23 -11 11 23 -2 2 0.27898108D-01 0.30134666D+00 0.21279313D+06 0.21279313D+06 0.21279313D+06 0.10957632D+01  1  2 12  4  7  2        2 0.149857228083D-05 0.100000000000D+01
-.216065826218D-05 0.000000000000D+00 -.251281002678D-06 0.301647203404D-07 0.000000000000D+00  7 -2 21 23 -11 11 23 -2 2 0.27898108D-01 0.30125677D+00 0.20730998D+06 0.20730998D+06 0.20730998D+06 0.10966300D+01  1  2  5  4  7  2        2 -.574572867449D-05 0.100000000000D+01
  </mgrwgt>
  </event>
</LesHouchesEvents>
