<event>
12    7  0.1698542E-007  0.1493277E+04  0.7818608E-02  0.8888936E-01
         -1   -1    0    0    0  501 -0.00000000000E+00  0.00000000000E+00  0.36401060938E+03  0.36401060938E+03  0.00000000000E+00 0.  1.
          2   -1    0    0  501    0  0.00000000000E+00 -0.00000000000E+00 -0.15314645492E+04  0.15314645492E+04  0.00000000000E+00 0. -1.
         24    2    1    2    0    0 -0.29543448231E+03  0.20903332766E+03  0.84774160079E+01  0.37086383718E+03  0.80570799490E+02 0.  0.
        254    2    1    2    0    0  0.29543448231E+03 -0.20903332766E+03 -0.11759313558E+04  0.15246113214E+04  0.90036029584E+03 0.  0.
         23    2    4    4    0    0  0.84687813446E+02 -0.20236011227E+03 -0.12548803146E+04  0.12771152412E+04  0.90427289759E+02 0.  0.
         23    2    4    4    0    0  0.21074666887E+03 -0.66732153989E+01  0.78948958756E+02  0.24749608015E+03  0.10277490628E+03 0.  0.
          4    1    3    3  502    0 -0.54022226841E+02  0.53634940522E+02  0.32466262204E+02  0.82759688370E+02  0.00000000000E+00 0. -1.
         -3    1    3    3    0  502 -0.24141225547E+03  0.15539838714E+03 -0.23988846196E+02  0.28810414881E+03  0.00000000000E+00 0.  1.
         13    1    5    5    0    0  0.19234935658E+02 -0.14795489115E+02 -0.45879714605E+02  0.51902191284E+02  0.00000000000E+00 0. -1.
        -13    1    5    5    0    0  0.65452877788E+02 -0.18756462315E+03 -0.12090006000E+04  0.12252130499E+04  0.00000000000E+00 0.  1.
          3    1    6    6  503    0  0.10334639546E+02  0.97094475123E+00  0.42378690393E+02  0.43631421105E+02  0.00000000000E+00 0. -1.
         -3    1    6    6    0  503  0.20041202932E+03 -0.76441601501E+01  0.36570268363E+02  0.20386465905E+03  0.00000000000E+00 0.  1.
<mgrwt>
<rscale>  0 0.14932774E+04</rscale>
<asrwt>0</asrwt>
<pdfrwt beam="1">  1        2 0.23560993E+00 0.14932774E+04</pdfrwt>
<pdfrwt beam="2">  1       -1 0.56001633E-01 0.14932774E+04</pdfrwt>
<totfact> 0.43292070E+01</totfact>
</mgrwt>
</event>
<event>
12    7  0.1698542E-007  0.1762166E+04  0.7818608E-02  0.8726682E-01
         -1   -1    0    0    0  501 -0.00000000000E+00  0.00000000000E+00  0.80755422571E+03  0.80755422571E+03  0.00000000000E+00 0.  1.
          2   -1    0    0  501    0  0.00000000000E+00 -0.00000000000E+00 -0.96130699109E+03  0.96130699109E+03  0.00000000000E+00 0. -1.
         24    2    1    2    0    0 -0.40427801102E+03  0.44873426186E+03  0.14088953254E+03  0.62549795537E+03  0.81207658717E+02 0.  0.
        254    2    1    2    0    0  0.40427801102E+03 -0.44873426186E+03 -0.29464229792E+03  0.11433632614E+04  0.92502017054E+03 0.  0.
         23    2    4    4    0    0  0.21776944398E+03 -0.66334956564E+03  0.26800597822E+02  0.70448184393E+03  0.90112260104E+02 0.  0.
         23    2    4    4    0    0  0.18650856704E+03  0.21461530378E+03 -0.32144289575E+03  0.43888141750E+03  0.91903151235E+02 0.  0.
          2    1    3    3  502    0 -0.18031274684E+02  0.38570694988E+02  0.27827293986E+02  0.50864365416E+02  0.00000000000E+00 0. -1.
         -1    1    3    3    0  502 -0.38624673633E+03  0.41016356687E+03  0.11306223856E+03  0.57463358995E+03  0.00000000000E+00 0.  1.
         13    1    5    5    0    0  0.16495159942E+03 -0.43683194593E+03  0.55078107570E+02  0.47017526208E+03  0.00000000000E+00 0. -1.
        -13    1    5    5    0    0  0.52817844560E+02 -0.22651761971E+03 -0.28277509749E+02  0.23430658186E+03  0.00000000000E+00 0.  1.
          2    1    6    6  503    0  0.29879973628E+02  0.10643623090E+02 -0.80301441792E+02  0.86338989398E+02  0.00000000000E+00 0. -1.
         -2    1    6    6    0  503  0.15662859341E+03  0.20397168069E+03 -0.24114145395E+03  0.35254242810E+03  0.00000000000E+00 0.  1.
<mgrwt>
<rscale>  0 0.17621663E+04</rscale>
<asrwt>0</asrwt>
<pdfrwt beam="1">  1        2 0.14789338E+00 0.17621663E+04</pdfrwt>
<pdfrwt beam="2">  1       -1 0.12423911E+00 0.17621663E+04</pdfrwt>
<totfact> 0.16386837E+01</totfact>
</mgrwt>
</event>
<event>
12    7  0.1698542E-007  0.3553433E+04  0.7818608E-02  0.8101242E-01
          2   -1    0    0  501    0  0.00000000000E+00  0.00000000000E+00  0.13640398632E+04  0.13640398632E+04  0.00000000000E+00 0. -1.
         -1   -1    0    0    0  501 -0.00000000000E+00 -0.00000000000E+00 -0.23142449506E+04  0.23142449506E+04  0.00000000000E+00 0.  1.
         24    2    1    2    0    0  0.16642723027E+04  0.66652966171E+02 -0.30079761417E+03  0.16944427646E+04  0.80075978004E+02 0.  0.
        254    2    1    2    0    0 -0.16642723027E+04 -0.66652966171E+02 -0.64940747325E+03  0.19838420493E+04  0.86003156599E+03 0.  0.
         23    2    4    4    0    0 -0.14383502547E+04  0.61970480010E+02 -0.82017349776E+03  0.16594427238E+04  0.91508423758E+02 0.  0.
         23    2    4    4    0    0 -0.22592204810E+03 -0.12862344618E+03  0.17076602450E+03  0.32439932549E+03  0.92136445161E+02 0.  0.
          2    1    3    3  502    0  0.19336310906E+03 -0.17352226727E+02 -0.29576575358E+02  0.19638015564E+03  0.00000000000E+00 0. -1.
         -1    1    3    3    0  502  0.14709091937E+04  0.84005192898E+02 -0.27122103881E+03  0.14980626090E+04  0.00000000000E+00 0.  1.
         13    1    5    5    0    0 -0.56328304454E+03  0.68961964891E+02 -0.32031585329E+03  0.65164851472E+03  0.00000000000E+00 0.  1.
        -13    1    5    5    0    0 -0.87506721011E+03 -0.69914848806E+01 -0.49985764446E+03  0.10077942091E+04  0.00000000000E+00 0. -1.
          2    1    6    6  503    0 -0.70068011364E+02 -0.53628562750E+02  0.10957185746E+02  0.88913490982E+02  0.00000000000E+00 0.  1.
         -2    1    6    6    0  503 -0.15585403673E+03 -0.74994883431E+02  0.15980883876E+03  0.23548583450E+03  0.00000000000E+00 0. -1.
<mgrwt>
<rscale>  0 0.35534335E+04</rscale>
<asrwt>0</asrwt>
<pdfrwt beam="1">  1        2 0.20985229E+00 0.35534335E+04</pdfrwt>
<pdfrwt beam="2">  1       -1 0.35603768E+00 0.35534335E+04</pdfrwt>
<totfact> 0.20022678E-01</totfact>
</mgrwt>
</event>
<event>
12    7  0.1698542E-007  0.1297361E+04  0.7818608E-02  0.9031660E-01
         -1   -1    0    0    0  501 -0.00000000000E+00  0.00000000000E+00  0.73943736259E+03  0.73943736259E+03  0.00000000000E+00 0.  1.
          2   -1    0    0  501    0  0.00000000000E+00 -0.00000000000E+00 -0.56906336656E+03  0.56906336656E+03  0.00000000000E+00 0. -1.
         24    2    1    2    0    0  0.16936429791E+03  0.23319294973E+03  0.20228045177E+03  0.36128513751E+03  0.80909530969E+02 0.  0.
        254    2    1    2    0    0 -0.16936429791E+03 -0.23319294973E+03 -0.31906455740E+02  0.94721559164E+03  0.90174061565E+03 0.  0.
         23    2    4    4    0    0 -0.54859197289E+02 -0.54047223285E+03 -0.17590015019E+03  0.57891764466E+03  0.95315321178E+02 0.  0.
         23    2    4    4    0    0 -0.11450510062E+03  0.30727928311E+03  0.14399369445E+03  0.36829794699E+03  0.85890731838E+02 0.  0.
          4    1    3    3  502    0  0.19011014054E+02  0.62487439900E+02  0.15949325934E+02  0.67234513446E+02  0.00000000000E+00 0. -1.
         -3    1    3    3    0  502  0.15035328386E+03  0.17070550983E+03  0.18633112584E+03  0.29405062406E+03  0.00000000000E+00 0.  1.
         13    1    5    5    0    0  0.82951784074E-01 -0.35637259118E+03 -0.84968000947E+02  0.36636183181E+03  0.00000000000E+00 0.  1.
        -13    1    5    5    0    0 -0.54942149073E+02 -0.18409964167E+03 -0.90932149245E+02  0.21255581284E+03  0.00000000000E+00 0. -1.
          4    1    6    6  503    0 -0.63055192088E+02  0.23765213881E+03  0.13693932310E+03  0.28143715913E+03  0.00000000000E+00 0. -1.
         -4    1    6    6    0  503 -0.51449908534E+02  0.69627144306E+02  0.70543713553E+01  0.86860787859E+02  0.00000000000E+00 0.  1.
<mgrwt>
<rscale>  0 0.12973615E+04</rscale>
<asrwt>0</asrwt>
<pdfrwt beam="1">  1        2 0.87548210E-01 0.12973615E+04</pdfrwt>
<pdfrwt beam="2">  1       -1 0.11375959E+00 0.12973615E+04</pdfrwt>
<totfact> 0.41748794E+01</totfact>
</mgrwt>
</event>
<event>
12    7  0.1698542E-007  0.1834667E+04  0.7818608E-02  0.8688078E-01
         -1   -1    0    0    0  501 -0.00000000000E+00  0.00000000000E+00  0.47597784888E+03  0.47597784888E+03  0.00000000000E+00 0.  1.
          2   -1    0    0  501    0  0.00000000000E+00 -0.00000000000E+00 -0.17679410063E+04  0.17679410063E+04  0.00000000000E+00 0. -1.
         24    2    1    2    0    0 -0.31879033542E+03  0.42677598841E+03  0.35649253462E+02  0.54026309462E+03  0.82754576280E+02 0.  0.
        254    2    1    2    0    0  0.31879033542E+03 -0.42677598841E+03 -0.13276124109E+04  0.17036557606E+04  0.92526926606E+03 0.  0.
         23    2    4    4    0    0  0.31580172953E+03 -0.38309817735E+03 -0.15610742187E+03  0.52779944457E+03  0.87793967069E+02 0.  0.
         23    2    4    4    0    0  0.29886058833E+01 -0.43677811061E+02 -0.11715049890E+04  0.11758563160E+04  0.91090359666E+02 0.  0.
          2    1    3    3  502    0 -0.29155313573E+02  0.51815935117E+02  0.29626799701E+02  0.66427936157E+02  0.00000000000E+00 0. -1.
         -1    1    3    3    0  502 -0.28963502185E+03  0.37496005330E+03  0.60224537609E+01  0.47383515846E+03  0.00000000000E+00 0.  1.
         13    1    5    5    0    0  0.31035506840E+03 -0.36181137121E+03 -0.16451295987E+03  0.50427398384E+03  0.00000000000E+00 0. -1.
        -13    1    5    5    0    0  0.54466611384E+01 -0.21286806146E+02  0.84055379943E+01  0.23525460727E+02  0.00000000000E+00 0.  1.
          3    1    6    6  503    0 -0.42544351383E+02 -0.17854173618E+02 -0.68244396065E+03  0.68400186606E+03  0.00000000000E+00 0. -1.
         -3    1    6    6    0  503  0.45532957266E+02 -0.25823637443E+02 -0.48906102840E+03  0.49185444996E+03  0.00000000000E+00 0.  1.
<mgrwt>
<rscale>  0 0.18346670E+04</rscale>
<asrwt>0</asrwt>
<pdfrwt beam="1">  1        2 0.27199092E+00 0.18346670E+04</pdfrwt>
<pdfrwt beam="2">  1       -1 0.73227363E-01 0.18346670E+04</pdfrwt>
<totfact> 0.18116933E+01</totfact>
</mgrwt>
</event>
<event>
12    7  0.1698542E-007  0.4570863E+04  0.7818608E-02  0.7898347E-01
          2   -1    0    0  501    0  0.00000000000E+00  0.00000000000E+00  0.44819335506E+04  0.44819335506E+04  0.00000000000E+00 0. -1.
         -1   -1    0    0    0  501 -0.00000000000E+00 -0.00000000000E+00 -0.11653894444E+04  0.11653894444E+04  0.00000000000E+00 0.  1.
         24    2    1    2    0    0 -0.74703038734E+03 -0.10160753198E+04 -0.62648132222E+03  0.14103136512E+04  0.77732185419E+02 0.  0.
        254    2    1    2    0    0  0.74703038734E+03  0.10160753198E+04  0.39430254284E+04  0.42370093438E+04  0.90240522796E+03 0.  0.
         23    2    4    4    0    0  0.75679771904E+03  0.10164639761E+04  0.26367815452E+04  0.29266830526E+04  0.83156305054E+02 0.  0.
         23    2    4    4    0    0 -0.97673316983E+01 -0.38865628497E+00  0.13062438832E+04  0.13103262912E+04  0.10289001524E+03 0.  0.
          4    1    3    3  502    0 -0.10823025340E+03 -0.11022203284E+03 -0.91285924379E+02  0.17943189310E+03  0.00000000000E+00 0. -1.
         -3    1    3    3    0  502 -0.63880013394E+03 -0.90585328695E+03 -0.53519539784E+03  0.12308817581E+04  0.00000000000E+00 0.  1.
         13    1    5    5    0    0  0.34949823367E+03  0.53598419309E+03  0.13006955796E+04  0.14495644385E+04  0.00000000000E+00 0. -1.
        -13    1    5    5    0    0  0.40729948536E+03  0.48047978298E+03  0.13360859657E+04  0.14771186141E+04  0.00000000000E+00 0.  1.
          3    1    6    6  503    0  0.46109850252E+02 -0.56588834172E+01  0.67206968830E+03  0.67367336832E+03  0.00000000000E+00 0. -1.
         -3    1    6    6    0  503 -0.55877181950E+02  0.52702271323E+01  0.63417419485E+03  0.63665292285E+03  0.00000000000E+00 0.  1.
<mgrwt>
<rscale>  0 0.45708634E+04</rscale>
<asrwt>0</asrwt>
<pdfrwt beam="1">  1        2 0.68952823E+00 0.45708634E+04</pdfrwt>
<pdfrwt beam="2">  1       -1 0.17929069E+00 0.45708634E+04</pdfrwt>
<totfact> 0.22857064E-02</totfact>
</mgrwt>
</event>
<event>
12    7  0.1698542E-007  0.1843012E+04  0.7818608E-02  0.8683755E-01
          2   -1    0    0  501    0  0.00000000000E+00  0.00000000000E+00  0.42799285262E+04  0.42799285262E+04  0.00000000000E+00 0. -1.
         -1   -1    0    0    0  501 -0.00000000000E+00 -0.00000000000E+00 -0.19840833964E+03  0.19840833964E+03  0.00000000000E+00 0.  1.
         24    2    1    2    0    0 -0.50968059696E+02  0.22236113664E+03  0.31443117904E+04  0.31535948579E+04  0.80135350399E+02 0.  0.
        254    2    1    2    0    0  0.50968059696E+02 -0.22236113664E+03  0.93720839619E+03  0.13247420080E+04  0.90804162436E+03 0.  0.
         23    2    4    4    0    0  0.29214456341E+03  0.22111869460E+03  0.20108307997E+03  0.42756127963E+03  0.90179375459E+02 0.  0.
         23    2    4    4    0    0 -0.24117650371E+03 -0.44347983124E+03  0.73612531622E+03  0.89718072833E+03  0.90621804520E+02 0.  0.
          2    1    3    3  502    0 -0.76542585804E+01  0.20780033329E+02  0.77871211491E+03  0.77902692853E+03  0.00000000000E+00 0. -1.
         -1    1    3    3    0  502 -0.43313801116E+02  0.20158110331E+03  0.23655996754E+04  0.23745679293E+04  0.00000000000E+00 0.  1.
         13    1    5    5    0    0  0.41526151643E+02  0.62629274212E+02  0.12583773324E+02  0.76191853959E+02  0.00000000000E+00 0.  1.
        -13    1    5    5    0    0  0.25061841177E+03  0.15848942038E+03  0.18849930664E+03  0.35136942567E+03  0.00000000000E+00 0. -1.
          3    1    6    6  503    0 -0.55108282943E+01 -0.44325130489E+02  0.10513801440E+03  0.11423260696E+03  0.00000000000E+00 0. -1.
         -3    1    6    6    0  503 -0.23566567542E+03 -0.39915470075E+03  0.63098730182E+03  0.78294812137E+03  0.00000000000E+00 0.  1.
<mgrwt>
<rscale>  0 0.18430122E+04</rscale>
<asrwt>0</asrwt>
<pdfrwt beam="1">  1        2 0.65845048E+00 0.18430122E+04</pdfrwt>
<pdfrwt beam="2">  1       -1 0.30524363E-01 0.18430122E+04</pdfrwt>
<totfact> 0.21330832E+00</totfact>
</mgrwt>
</event>
<event>
12    7  0.1698542E-007  0.2694386E+04  0.7818608E-02  0.8336829E-01
          2   -1    0    0  501    0  0.00000000000E+00  0.00000000000E+00  0.89340894425E+03  0.89340894425E+03  0.00000000000E+00 0. -1.
         -1   -1    0    0    0  501 -0.00000000000E+00 -0.00000000000E+00 -0.20314642728E+04  0.20314642728E+04  0.00000000000E+00 0.  1.
         24    2    1    2    0    0  0.59166656470E+03  0.88142702402E+03  0.92106192726E+02  0.10690928162E+04  0.86561980960E+02 0.  0.
        254    2    1    2    0    0 -0.59166656470E+03 -0.88142702402E+03 -0.12301615213E+04  0.18557804008E+04  0.89646004101E+03 0.  0.
         23    2    4    4    0    0  0.22540248462E+03 -0.14447479413E+03 -0.23978873423E+03  0.37263338527E+03  0.98375589173E+02 0.  0.
         23    2    4    4    0    0 -0.81706904932E+03 -0.73695222989E+03 -0.99037278707E+03  0.14831470156E+04  0.90478681883E+02 0.  0.
          4    1    3    3  502    0  0.50054682786E+03  0.76412940330E+03  0.10743149606E+03  0.91977301451E+03  0.00000000000E+00 0. -1.
         -3    1    3    3    0  502  0.91119736840E+02  0.11729762072E+03 -0.15325303336E+02  0.14931980174E+03  0.00000000000E+00 0.  1.
         13    1    5    5    0    0  0.77113793537E+02 -0.25638701892E+01 -0.89948718253E+02  0.11850688798E+03  0.00000000000E+00 0. -1.
        -13    1    5    5    0    0  0.14828869108E+03 -0.14191092394E+03 -0.14984001597E+03  0.25412649729E+03  0.00000000000E+00 0.  1.
          3    1    6    6  503    0 -0.19836701703E+03 -0.22309641575E+03 -0.29979322736E+03  0.42308091819E+03  0.00000000000E+00 0. -1.
         -3    1    6    6    0  503 -0.61870203229E+03 -0.51385581414E+03 -0.69057955971E+03  0.10600660974E+04  0.00000000000E+00 0.  1.
<mgrwt>
<rscale>  0 0.26943855E+04</rscale>
<asrwt>0</asrwt>
<pdfrwt beam="1">  1        2 0.13744753E+00 0.26943855E+04</pdfrwt>
<pdfrwt beam="2">  1       -1 0.31253296E+00 0.26943855E+04</pdfrwt>
<totfact> 0.81160980E-01</totfact>
</mgrwt>
</event>
<event>
12    7  0.1698542E-007  0.2844563E+04  0.7818608E-02  0.8289565E-01
          2   -1    0    0  501    0  0.00000000000E+00  0.00000000000E+00  0.34780986003E+04  0.34780986003E+04  0.00000000000E+00 0. -1.
         -1   -1    0    0    0  501 -0.00000000000E+00 -0.00000000000E+00 -0.58160666035E+03  0.58160666035E+03  0.00000000000E+00 0.  1.
         24    2    1    2    0    0 -0.24601022622E+03 -0.87580009462E+03  0.25793882986E+04  0.27363240659E+04  0.81722466664E+02 0.  0.
        254    2    1    2    0    0  0.24601022622E+03  0.87580009462E+03  0.31710364133E+03  0.13233811947E+04  0.90732366336E+03 0.  0.
         23    2    4    4    0    0 -0.65646124695E+02  0.31147801653E+03 -0.28490809220E+03  0.43665915878E+03  0.90391545383E+02 0.  0.
         23    2    4    4    0    0  0.31165635091E+03  0.56432207809E+03  0.60201173353E+03  0.88672203596E+03  0.90932683101E+02 0.  0.
          2    1    3    3  502    0 -0.13121214992E+03 -0.43383278107E+03  0.11655151760E+04  0.12505411371E+04  0.00000000000E+00 0. -1.
         -1    1    3    3    0  502 -0.11479807630E+03 -0.44196731355E+03  0.14138731226E+04  0.14857829288E+04  0.00000000000E+00 0.  1.
         13    1    5    5    0    0 -0.82941921447E+02  0.28974824270E+03 -0.27222309384E+03  0.40612660502E+03  0.00000000000E+00 0.  1.
        -13    1    5    5    0    0  0.17295796752E+02  0.21729773831E+02 -0.12684998355E+02  0.30532553763E+02  0.00000000000E+00 0. -1.
          4    1    6    6  503    0  0.15396031565E+03  0.36898106452E+03  0.35961477079E+03  0.53774862914E+03  0.00000000000E+00 0. -1.
         -4    1    6    6    0  503  0.15769603526E+03  0.19534101357E+03  0.24239696274E+03  0.34897340682E+03  0.00000000000E+00 0.  1.
<mgrwt>
<rscale>  0 0.28445635E+04</rscale>
<asrwt>0</asrwt>
<pdfrwt beam="1">  1        2 0.53509208E+00 0.28445635E+04</pdfrwt>
<pdfrwt beam="2">  1       -1 0.89477950E-01 0.28445635E+04</pdfrwt>
<totfact> 0.10148578E+00</totfact>
</mgrwt>
</event>
<event>
12    7  0.1698542E-007  0.1637032E+04  0.7818608E-02  0.8798115E-01
         -1   -1    0    0    0  501 -0.00000000000E+00  0.00000000000E+00  0.10539781828E+04  0.10539781828E+04  0.00000000000E+00 0.  1.
          2   -1    0    0  501    0  0.00000000000E+00 -0.00000000000E+00 -0.63565678530E+03  0.63565678530E+03  0.00000000000E+00 0. -1.
         24    2    1    2    0    0  0.34638949975E+02  0.43187534267E+03 -0.23748657239E+03  0.50191378053E+03  0.88325548731E+02 0.  0.
        254    2    1    2    0    0 -0.34638949975E+02 -0.43187534267E+03  0.65580796990E+03  0.11877211876E+04  0.89043885672E+03 0.  0.
         23    2    4    4    0    0 -0.21415616027E+03  0.17853529867E+03  0.36756273527E+02  0.29536246987E+03  0.90278741188E+02 0.  0.
         23    2    4    4    0    0  0.17951721030E+03 -0.61041064135E+03  0.61905169637E+03  0.89235871769E+03  0.90837758702E+02 0.  0.
          4    1    3    3  502    0  0.16984154628E+02  0.40800232889E+03 -0.23714387323E+03  0.47221984128E+03  0.00000000000E+00 0. -1.
         -3    1    3    3    0  502  0.17654795347E+02  0.23873013779E+02 -0.34269916779E+00  0.29693939253E+02  0.00000000000E+00 0.  1.
         13    1    5    5    0    0 -0.66285562455E+02  0.71762014159E+02  0.54919181552E+02  0.11206997354E+03  0.00000000000E+00 0. -1.
        -13    1    5    5    0    0 -0.14787059782E+03  0.10677328451E+03 -0.18162908025E+02  0.18329249634E+03  0.00000000000E+00 0.  1.
          4    1    6    6  503    0  0.25176198549E+02 -0.23662238539E+03  0.24373481109E+03  0.34063272358E+03  0.00000000000E+00 0. -1.
         -4    1    6    6    0  503  0.15434101175E+03 -0.37378825596E+03  0.37531688528E+03  0.55172599411E+03  0.00000000000E+00 0.  1.
<mgrwt>
<rscale>  0 0.16370319E+04</rscale>
<asrwt>0</asrwt>
<pdfrwt beam="1">  1        2 0.97793352E-01 0.16370319E+04</pdfrwt>
<pdfrwt beam="2">  1       -1 0.16215049E+00 0.16370319E+04</pdfrwt>
<totfact> 0.14211698E+01</totfact>
</mgrwt>
</event>
<event>
12    7  0.1698542E-007  0.1299007E+04  0.7818608E-02  0.9030353E-01
         -1   -1    0    0    0  501 -0.00000000000E+00  0.00000000000E+00  0.43384128729E+03  0.43384128729E+03  0.00000000000E+00 0.  1.
          2   -1    0    0  501    0  0.00000000000E+00 -0.00000000000E+00 -0.97237125287E+03  0.97237125287E+03  0.00000000000E+00 0. -1.
         24    2    1    2    0    0  0.17709650844E+03  0.25072216562E+03 -0.44233517530E+03  0.54415354839E+03  0.78853657419E+02 0.  0.
        254    2    1    2    0    0 -0.17709650844E+03 -0.25072216562E+03 -0.96194790279E+02  0.86205899177E+03  0.79979215424E+03 0.  0.
         23    2    4    4    0    0 -0.26260688784E+03  0.10069802664E+02 -0.37060054269E+03  0.46345492834E+03  0.91552880312E+02 0.  0.
         23    2    4    4    0    0  0.85510379406E+02 -0.26079196828E+03  0.27440575241E+03  0.39860406343E+03  0.90896681558E+02 0.  0.
          4    1    3    3  502    0  0.15132192529E+03  0.16474564672E+03 -0.35002749457E+03  0.41540185381E+03  0.00000000000E+00 0. -1.
         -3    1    3    3    0  502  0.25774583145E+02  0.85976518898E+02 -0.92307680724E+02  0.12875169459E+03  0.00000000000E+00 0.  1.
         13    1    5    5    0    0 -0.45783349340E+02  0.19176831128E+01 -0.17569855343E+02  0.49076393532E+02  0.00000000000E+00 0.  1.
        -13    1    5    5    0    0 -0.21682353850E+03  0.81521195509E+01 -0.35303068735E+03  0.41437853481E+03  0.00000000000E+00 0. -1.
          3    1    6    6  503    0  0.95697143760E+02 -0.22441061144E+03  0.20121136133E+03  0.31623421349E+03  0.00000000000E+00 0. -1.
         -3    1    6    6    0  503 -0.10186764354E+02 -0.36381356839E+02  0.73194391079E+02  0.82369849938E+02  0.00000000000E+00 0.  1.
<mgrwt>
<rscale>  0 0.12990070E+04</rscale>
<asrwt>0</asrwt>
<pdfrwt beam="1">  1        2 0.14959558E+00 0.12990070E+04</pdfrwt>
<pdfrwt beam="2">  1       -1 0.66744813E-01 0.12990070E+04</pdfrwt>
<totfact> 0.66772339E+01</totfact>
</mgrwt>
</event>
<event>
12    7  0.1698542E-007  0.2121198E+04  0.7818608E-02  0.8551963E-01
          2   -1    0    0  501    0  0.00000000000E+00  0.00000000000E+00  0.10102816500E+04  0.10102816500E+04  0.00000000000E+00 0. -1.
         -1   -1    0    0    0  501 -0.00000000000E+00 -0.00000000000E+00 -0.11134223575E+04  0.11134223575E+04  0.00000000000E+00 0.  1.
         24    2    1    2    0    0  0.37864464569E+03  0.46432086474E+03 -0.66337864225E+03  0.89725855042E+03  0.77692021230E+02 0.  0.
        254    2    1    2    0    0 -0.37864464569E+03 -0.46432086474E+03  0.56023793477E+03  0.12264454572E+04  0.91177644338E+03 0.  0.
         23    2    4    4    0    0 -0.24790923063E+03  0.19004524249E+02 -0.18585508273E+03  0.32315933530E+03  0.89831429039E+02 0.  0.
         23    2    4    4    0    0 -0.13073541506E+03 -0.48332538899E+03  0.74609301750E+03  0.90328612186E+03  0.92605868059E+02 0.  0.
          4    1    3    3  502    0  0.74262457070E+02  0.12233972013E+03 -0.19930592612E+03  0.24536660701E+03  0.00000000000E+00 0. -1.
         -3    1    3    3    0  502  0.30438218862E+03  0.34198114461E+03 -0.46407271613E+03  0.65189194340E+03  0.00000000000E+00 0.  1.
         13    1    5    5    0    0 -0.16792188171E+03 -0.11536285309E+02 -0.78167994478E+02  0.18558308004E+03  0.00000000000E+00 0. -1.
        -13    1    5    5    0    0 -0.79987348912E+02  0.30540809558E+02 -0.10768708825E+03  0.13757625526E+03  0.00000000000E+00 0.  1.
          3    1    6    6  503    0 -0.38627171356E+01 -0.78923047589E+02  0.71316745551E+02  0.10644175036E+03  0.00000000000E+00 0. -1.
         -3    1    6    6    0  503 -0.12687269793E+03 -0.40440234140E+03  0.67477627195E+03  0.79684437150E+03  0.00000000000E+00 0.  1.
<mgrwt>
<rscale>  0 0.21211979E+04</rscale>
<asrwt>0</asrwt>
<pdfrwt beam="1">  1        2 0.15542795E+00 0.21211979E+04</pdfrwt>
<pdfrwt beam="2">  1       -1 0.17129575E+00 0.21211979E+04</pdfrwt>
<totfact> 0.62662891E+00</totfact>
</mgrwt>
</event>
<event>
12    7  0.1698542E-007  0.2581036E+04  0.7818608E-02  0.8374671E-01
          2   -1    0    0  501    0  0.00000000000E+00  0.00000000000E+00  0.22429267295E+04  0.22429267295E+04  0.00000000000E+00 0. -1.
         -1   -1    0    0    0  501 -0.00000000000E+00 -0.00000000000E+00 -0.74252838976E+03  0.74252838976E+03  0.00000000000E+00 0.  1.
         24    2    1    2    0    0 -0.47363846333E+03  0.84228699417E+03  0.13398158364E+04  0.16538403225E+04  0.79376081264E+02 0.  0.
        254    2    1    2    0    0  0.47363846333E+03 -0.84228699417E+03  0.16058250329E+03  0.13316147967E+04  0.90201466288E+03 0.  0.
         23    2    4    4    0    0  0.64376858089E+03 -0.28150917389E+03 -0.28412355180E+02  0.70908276958E+03  0.91135676159E+02 0.  0.
         23    2    4    4    0    0 -0.17013011756E+03 -0.56077782028E+03  0.18899485847E+03  0.62253202717E+03  0.91711764227E+02 0.  0.
          4    1    3    3  502    0 -0.43341015826E+03  0.77789829767E+03  0.12670962730E+04  0.15487101381E+04  0.00000000000E+00 0. -1.
         -3    1    3    3    0  502 -0.40228305064E+02  0.64388696506E+02  0.72719563415E+02  0.10513018439E+03  0.00000000000E+00 0.  1.
         13    1    5    5    0    0  0.34694820657E+03 -0.19442937765E+03  0.66718190335E+01  0.39776922217E+03  0.00000000000E+00 0. -1.
        -13    1    5    5    0    0  0.29682037431E+03 -0.87079796241E+02 -0.35084174213E+02  0.31131354741E+03  0.00000000000E+00 0.  1.
          4    1    6    6  503    0 -0.14529682843E+03 -0.52870632177E+03  0.15550919926E+03  0.56993390326E+03  0.00000000000E+00 0. -1.
         -4    1    6    6    0  503 -0.24833289128E+02 -0.32071498514E+02  0.33485659207E+02  0.52598123905E+02  0.00000000000E+00 0.  1.
<mgrwt>
<rscale>  0 0.25810360E+04</rscale>
<asrwt>0</asrwt>
<pdfrwt beam="1">  1        2 0.34506565E+00 0.25810360E+04</pdfrwt>
<pdfrwt beam="2">  1       -1 0.11423514E+00 0.25810360E+04</pdfrwt>
<totfact> 0.34321788E+00</totfact>
</mgrwt>
</event>
<event>
12    7  0.1698542E-007  0.1448452E+04  0.7818608E-02  0.8919474E-01
          2   -1    0    0  501    0  0.00000000000E+00  0.00000000000E+00  0.24709357353E+04  0.24709357353E+04  0.00000000000E+00 0. -1.
         -1   -1    0    0    0  501 -0.00000000000E+00 -0.00000000000E+00 -0.21226909522E+03  0.21226909522E+03  0.00000000000E+00 0.  1.
         24    2    1    2    0    0  0.41751379474E+02 -0.92562298906E+02  0.13356911364E+04  0.13419714185E+04  0.80656799333E+02 0.  0.
        254    2    1    2    0    0 -0.41751379474E+02  0.92562298906E+02  0.92297550369E+03  0.13412334121E+04  0.96783899919E+03 0.  0.
         23    2    4    4    0    0 -0.38608503061E+03 -0.19825498970E+03  0.70231491305E+03  0.83087623653E+03  0.93500756880E+02 0.  0.
         23    2    4    4    0    0  0.34433365114E+03  0.29081728861E+03  0.22066059064E+03  0.51035717553E+03  0.92913893976E+02 0.  0.
          4    1    3    3  502    0 -0.12910375611E+02 -0.56010950531E+02  0.83577080319E+03  0.83774503272E+03  0.00000000000E+00 0. -1.
         -3    1    3    3    0  502  0.54661755085E+02 -0.36551348375E+02  0.49992033320E+03  0.50422638574E+03  0.00000000000E+00 0.  1.
         13    1    5    5    0    0 -0.38430797395E+03 -0.18678482647E+03  0.65421133600E+03  0.78139213101E+03  0.00000000000E+00 0. -1.
        -13    1    5    5    0    0 -0.17770566563E+01 -0.11470163238E+02  0.48103577045E+02  0.49484105524E+02  0.00000000000E+00 0.  1.
          2    1    6    6  503    0  0.21472344862E+03  0.15067977419E+03  0.17095111921E+03  0.31310515629E+03  0.00000000000E+00 0. -1.
         -2    1    6    6    0  503  0.12961020251E+03  0.14013751442E+03  0.49709471436E+02  0.19725201924E+03  0.00000000000E+00 0.  1.
<mgrwt>
<rscale>  0 0.14484520E+04</rscale>
<asrwt>0</asrwt>
<pdfrwt beam="1">  1        2 0.38014394E+00 0.14484520E+04</pdfrwt>
<pdfrwt beam="2">  1       -1 0.32656786E-01 0.14484520E+04</pdfrwt>
<totfact> 0.35210859E+01</totfact>
</mgrwt>
</event>
<event>
12    7  0.1698542E-007  0.2879746E+04  0.7818608E-02  0.8278929E-01
          2   -1    0    0  501    0  0.00000000000E+00  0.00000000000E+00  0.19975340211E+04  0.19975340211E+04  0.00000000000E+00 0. -1.
         -1   -1    0    0    0  501 -0.00000000000E+00 -0.00000000000E+00 -0.10378967307E+04  0.10378967307E+04  0.00000000000E+00 0.  1.
         24    2    1    2    0    0  0.44815402361E+02 -0.12951953585E+04  0.50305906535E+03  0.13924418096E+04  0.79286397476E+02 0.  0.
        254    2    1    2    0    0 -0.44815402361E+02  0.12951953585E+04  0.45657822500E+03  0.16429889422E+04  0.90078274385E+03 0.  0.
         23    2    4    4    0    0  0.38683993793E+03  0.46111765068E+03  0.40917829861E+02  0.61193262207E+03  0.10253116508E+03 0.  0.
         23    2    4    4    0    0 -0.43165534029E+03  0.83407770786E+03  0.41566039514E+03  0.10310563201E+04  0.91058309096E+02 0.  0.
          4    1    3    3  502    0  0.84003440798E+01 -0.76568455353E+03  0.33402514926E+03  0.83541379067E+03  0.00000000000E+00 0. -1.
         -3    1    3    3    0  502  0.36415058282E+02 -0.52951080500E+03  0.16903391609E+03  0.55702801893E+03  0.00000000000E+00 0.  1.
         13    1    5    5    0    0  0.45218567105E+02  0.20906721052E+02  0.21824427131E+02  0.54388559604E+02  0.00000000000E+00 0. -1.
        -13    1    5    5    0    0  0.34162137083E+03  0.44021092963E+03  0.19093402730E+02  0.55754406247E+03  0.00000000000E+00 0.  1.
          2    1    6    6  503    0 -0.22424475027E+03  0.39172063800E+03  0.15455455147E+03  0.47709315195E+03  0.00000000000E+00 0. -1.
         -2    1    6    6    0  503 -0.20741059003E+03  0.44235706985E+03  0.26110584367E+03  0.55396316818E+03  0.00000000000E+00 0.  1.
<mgrwt>
<rscale>  0 0.28797458E+04</rscale>
<asrwt>0</asrwt>
<pdfrwt beam="1">  1        2 0.30731293E+00 0.28797458E+04</pdfrwt>
<pdfrwt beam="2">  1       -1 0.15967642E+00 0.28797458E+04</pdfrwt>
<totfact> 0.19371841E+00</totfact>
</mgrwt>
</event>
<event>
12    7  0.1698542E-007  0.1858721E+04  0.7818608E-02  0.8675681E-01
          2   -1    0    0  501    0  0.00000000000E+00  0.00000000000E+00  0.11112853256E+04  0.11112853256E+04  0.00000000000E+00 0. -1.
         -1   -1    0    0    0  501 -0.00000000000E+00 -0.00000000000E+00 -0.77721817416E+03  0.77721817416E+03  0.00000000000E+00 0.  1.
         24    2    1    2    0    0 -0.33487472022E+03  0.22928020482E+03  0.71879097314E+03  0.82920221521E+03  0.78774107896E+02 0.  0.
        254    2    1    2    0    0  0.33487472022E+03 -0.22928020482E+03 -0.38472382166E+03  0.10593012846E+04  0.89966454970E+03 0.  0.
         23    2    4    4    0    0 -0.28532144391E+03  0.42356352363E+02 -0.99674887030E+02  0.31872072168E+03  0.91899011865E+02 0.  0.
         23    2    4    4    0    0  0.62019616413E+03 -0.27163655718E+03 -0.28504893463E+03  0.74058056291E+03  0.93685504861E+02 0.  0.
          2    1    3    3  502    0 -0.33520108573E+03  0.23342017715E+03  0.70481123663E+03  0.81461869992E+03  0.00000000000E+00 0. -1.
         -1    1    3    3    0  502  0.32636551193E+00 -0.41399723303E+01  0.13979736508E+02  0.14583515289E+02  0.00000000000E+00 0.  1.
         13    1    5    5    0    0 -0.98363207107E+02  0.56618697300E+02 -0.54258084709E+02  0.12579720646E+03  0.00000000000E+00 0.  1.
        -13    1    5    5    0    0 -0.18695823680E+03 -0.14262344938E+02 -0.45416802321E+02  0.19292351522E+03  0.00000000000E+00 0. -1.
          1    1    6    6  503    0  0.15481401276E+03 -0.25505197216E+02 -0.72292570381E+02  0.17275447712E+03  0.00000000000E+00 0. -1.
         -1    1    6    6    0  503  0.46538215136E+03 -0.24613135997E+03 -0.21275636425E+03  0.56782608578E+03  0.00000000000E+00 0.  1.
<mgrwt>
<rscale>  0 0.18587212E+04</rscale>
<asrwt>0</asrwt>
<pdfrwt beam="1">  1        2 0.17096697E+00 0.18587212E+04</pdfrwt>
<pdfrwt beam="2">  1       -1 0.11957203E+00 0.18587212E+04</pdfrwt>
<totfact> 0.14351069E+01</totfact>
</mgrwt>
</event>
<event>
12    7  0.1698542E-007  0.1414585E+04  0.7818608E-02  0.8943328E-01
          2   -1    0    0  501    0  0.00000000000E+00  0.00000000000E+00  0.10531055209E+04  0.10531055209E+04  0.00000000000E+00 0. -1.
         -1   -1    0    0    0  501 -0.00000000000E+00 -0.00000000000E+00 -0.47503592847E+03  0.47503592847E+03  0.00000000000E+00 0.  1.
         24    2    1    2    0    0  0.12143931429E+03 -0.76112938424E+02  0.61391318161E+03  0.63547905815E+03  0.80022199060E+02 0.  0.
        254    2    1    2    0    0 -0.12143931429E+03  0.76112938424E+02 -0.35843589189E+02  0.89266239120E+03  0.88035259716E+03 0.  0.
         23    2    4    4    0    0 -0.34107706989E+03  0.35387066354E+03  0.84416125165E+02  0.50784243529E+03  0.96020012375E+02 0.  0.
         23    2    4    4    0    0  0.21963775559E+03 -0.27775772511E+03 -0.12025971435E+03  0.38481995592E+03  0.90740850951E+02 0.  0.
          4    1    3    3  502    0  0.31670522796E+02 -0.10101870319E+02  0.31010378652E+03  0.31188047104E+03  0.00000000000E+00 0. -1.
         -3    1    3    3    0  502  0.89768791497E+02 -0.66011068106E+02  0.30380939509E+03  0.32359858712E+03  0.00000000000E+00 0.  1.
         13    1    5    5    0    0 -0.20552679439E+03  0.24928164585E+03  0.16030323909E+02  0.32348040661E+03  0.00000000000E+00 0. -1.
        -13    1    5    5    0    0 -0.13555027549E+03  0.10458901768E+03  0.68385801256E+02  0.18436202868E+03  0.00000000000E+00 0.  1.
          1    1    6    6  503    0  0.14848855962E+03 -0.19440868631E+03 -0.37484776860E+02  0.24748474327E+03  0.00000000000E+00 0. -1.
         -1    1    6    6    0  503  0.71149195972E+02 -0.83349038799E+02 -0.82774937495E+02  0.13733521265E+03  0.00000000000E+00 0.  1.
<mgrwt>
<rscale>  0 0.14145854E+04</rscale>
<asrwt>0</asrwt>
<pdfrwt beam="1">  1        2 0.16201623E+00 0.14145854E+04</pdfrwt>
<pdfrwt beam="2">  1       -1 0.73082451E-01 0.14145854E+04</pdfrwt>
<totfact> 0.48784634E+01</totfact>
</mgrwt>
</event>
<event>
12    7  0.1698542E-007  0.1314996E+04  0.7818608E-02  0.9017757E-01
         -1   -1    0    0    0  501 -0.00000000000E+00  0.00000000000E+00  0.14182716785E+04  0.14182716785E+04  0.00000000000E+00 0.  1.
          2   -1    0    0  501    0  0.00000000000E+00 -0.00000000000E+00 -0.30480994610E+03  0.30480994610E+03  0.00000000000E+00 0. -1.
         24    2    1    2    0    0 -0.20097644247E+03 -0.23256704027E+03  0.19558678037E+03  0.37267717027E+03  0.78454610688E+02 0.  0.
        254    2    1    2    0    0  0.20097644247E+03  0.23256704027E+03  0.91787495207E+03  0.13504044544E+04  0.94160437771E+03 0.  0.
         23    2    4    4    0    0 -0.13294917898E+03  0.16788347292E+03 -0.11257816300E+03  0.26085176859E+03  0.97516448467E+02 0.  0.
         23    2    4    4    0    0  0.33392562145E+03  0.64683567346E+02  0.10304531151E+04  0.10895526858E+04  0.97985448926E+02 0.  0.
          2    1    3    3  502    0 -0.20816025797E+03 -0.22148513591E+03  0.18582709301E+03  0.35625562020E+03  0.00000000000E+00 0. -1.
         -1    1    3    3    0  502  0.71838155001E+01 -0.11081904362E+02  0.97596873618E+01  0.16421550074E+02  0.00000000000E+00 0.  1.
         13    1    5    5    0    0 -0.36387698121E+01 -0.12023752444E+02 -0.12561168037E+02  0.17764971462E+02  0.00000000000E+00 0. -1.
        -13    1    5    5    0    0 -0.12931040917E+03  0.17990722537E+03 -0.10001699496E+03  0.24308679713E+03  0.00000000000E+00 0.  1.
          3    1    6    6  503    0  0.27213877881E+02  0.63474104477E+01  0.27807967249E+02  0.39422935091E+02  0.00000000000E+00 0. -1.
         -3    1    6    6    0  503  0.30671174357E+03  0.58336156898E+02  0.10026451478E+04  0.10501297507E+04  0.00000000000E+00 0.  1.
<mgrwt>
<rscale>  0 0.13149955E+04</rscale>
<asrwt>0</asrwt>
<pdfrwt beam="1">  1        2 0.46893839E-01 0.13149955E+04</pdfrwt>
<pdfrwt beam="2">  1       -1 0.21819564E+00 0.13149955E+04</pdfrwt>
<totfact> 0.13694906E+01</totfact>
</mgrwt>
</event>
<event>
12    7  0.1698542E-007  0.2000311E+04  0.7818608E-02  0.8606475E-01
         -1   -1    0    0    0  501 -0.00000000000E+00  0.00000000000E+00  0.13667994720E+04  0.13667994720E+04  0.00000000000E+00 0.  1.
          2   -1    0    0  501    0  0.00000000000E+00 -0.00000000000E+00 -0.73186347330E+03  0.73186347330E+03  0.00000000000E+00 0. -1.
         24    2    1    2    0    0 -0.57317804905E+03 -0.53967675004E+03  0.36594627767E+03  0.87189412354E+03  0.80613981858E+02 0.  0.
        254    2    1    2    0    0  0.57317804905E+03  0.53967675004E+03  0.26898972102E+03  0.12267688218E+04  0.90156652642E+03 0.  0.
         23    2    4    4    0    0  0.36192802913E+03 -0.18193829824E+03  0.21461473651E+03  0.46739920607E+03  0.91154210369E+02 0.  0.
         23    2    4    4    0    0  0.21125001992E+03  0.72161504828E+03  0.54374984504E+02  0.75936961568E+03  0.91272807923E+02 0.  0.
          4    1    3    3  502    0 -0.22966299320E+03 -0.25262982913E+03  0.19140972385E+03  0.39141359633E+03  0.00000000000E+00 0. -1.
         -3    1    3    3    0  502 -0.34351505586E+03 -0.28704692091E+03  0.17453655382E+03  0.48048052721E+03  0.00000000000E+00 0.  1.
         13    1    5    5    0    0  0.20038911421E+03 -0.14761947004E+03  0.11166349867E+03  0.27279303871E+03  0.00000000000E+00 0. -1.
        -13    1    5    5    0    0  0.16153891492E+03 -0.34318828192E+02  0.10295123785E+03  0.19460616736E+03  0.00000000000E+00 0.  1.
          1    1    6    6  503    0  0.19348585175E+03  0.65650613007E+03  0.75684389980E+02  0.68859654409E+03  0.00000000000E+00 0. -1.
         -1    1    6    6    0  503  0.17764168167E+02  0.65108918212E+02 -0.21309405476E+02  0.70773071596E+02  0.00000000000E+00 0.  1.
<mgrwt>
<rscale>  0 0.20003106E+04</rscale>
<asrwt>0</asrwt>
<pdfrwt beam="1">  1        2 0.11259438E+00 0.20003106E+04</pdfrwt>
<pdfrwt beam="2">  1       -1 0.21027684E+00 0.20003106E+04</pdfrwt>
<totfact> 0.52535568E+00</totfact>
</mgrwt>
</event>
<event>
12    7  0.1698542E-007  0.3522229E+04  0.7818608E-02  0.8108542E-01
          2   -1    0    0  501    0  0.00000000000E+00  0.00000000000E+00  0.18757546340E+04  0.18757546340E+04  0.00000000000E+00 0. -1.
         -1   -1    0    0    0  501 -0.00000000000E+00 -0.00000000000E+00 -0.16534809978E+04  0.16534809978E+04  0.00000000000E+00 0.  1.
         24    2    1    2    0    0  0.25422238817E+03  0.91505001671E+03 -0.12450749649E+04  0.15680246285E+04  0.80895066439E+02 0.  0.
        254    2    1    2    0    0 -0.25422238817E+03 -0.91505001671E+03  0.14673486011E+04  0.19612110033E+04  0.88954546069E+03 0.  0.
         23    2    4    4    0    0  0.11464999648E+03  0.76168954322E+01  0.66324399899E+03  0.67980037666E+03  0.95043732665E+02 0.  0.
         23    2    4    4    0    0 -0.36887238466E+03 -0.92266691214E+03  0.80410460210E+03  0.12814106266E+04  0.89710178013E+02 0.  0.
          4    1    3    3  502    0  0.70781089658E+02  0.30780392731E+03 -0.35695127602E+03  0.47662084907E+03  0.00000000000E+00 0. -1.
         -3    1    3    3    0  502  0.18344129852E+03  0.60724608940E+03 -0.88812368886E+03  0.10914037795E+04  0.00000000000E+00 0.  1.
         13    1    5    5    0    0 -0.15559834248E+02  0.10957651980E+01  0.37421952209E+02  0.40542713900E+02  0.00000000000E+00 0. -1.
        -13    1    5    5    0    0  0.13020983073E+03  0.65211302342E+01  0.62582204678E+03  0.63925766276E+03  0.00000000000E+00 0.  1.
          4    1    6    6  503    0 -0.47314954155E+02 -0.94725984065E+02  0.12186044205E+03  0.16143631649E+03  0.00000000000E+00 0. -1.
         -4    1    6    6    0  503 -0.32155743050E+03 -0.82794092808E+03  0.68224416004E+03  0.11199743102E+04  0.00000000000E+00 0.  1.
<mgrwt>
<rscale>  0 0.35222292E+04</rscale>
<asrwt>0</asrwt>
<pdfrwt beam="1">  1        2 0.28857764E+00 0.35222292E+04</pdfrwt>
<pdfrwt beam="2">  1       -1 0.25438169E+00 0.35222292E+04</pdfrwt>
<totfact> 0.47711933E-01</totfact>
</mgrwt>
</event>
<event>
12    7  0.1698542E-007  0.1832375E+04  0.7818608E-02  0.8689270E-01
         -1   -1    0    0    0  501 -0.00000000000E+00  0.00000000000E+00  0.33883999869E+03  0.33883999869E+03  0.00000000000E+00 0.  1.
          2   -1    0    0  501    0  0.00000000000E+00 -0.00000000000E+00 -0.24772739291E+04  0.24772739291E+04  0.00000000000E+00 0. -1.
         24    2    1    2    0    0  0.21054879842E+03  0.32566892415E+03  0.55459200054E+02  0.39974716226E+03  0.79567745899E+02 0.  0.
        254    2    1    2    0    0 -0.21054879842E+03 -0.32566892415E+03 -0.21938931305E+04  0.24163667656E+04  0.93555878118E+03 0.  0.
         23    2    4    4    0    0 -0.20038689990E+03  0.21422064597E+03 -0.15067385534E+04  0.15377596370E+04  0.91641901047E+02 0.  0.
         23    2    4    4    0    0 -0.10161898519E+02 -0.53988957012E+03 -0.68715457705E+03  0.87860712854E+03  0.90471329496E+02 0.  0.
          4    1    3    3  502    0  0.10469353048E+03  0.12259591916E+03 -0.10128532348E+02  0.16153353177E+03  0.00000000000E+00 0. -1.
         -3    1    3    3    0  502  0.10585526794E+03  0.20307300499E+03  0.65587732402E+02  0.23821363048E+03  0.00000000000E+00 0.  1.
         13    1    5    5    0    0 -0.82543937773E+01 -0.92870137017E+01 -0.71243476861E+02  0.72318853941E+02  0.00000000000E+00 0.  1.
        -13    1    5    5    0    0 -0.19213250613E+03  0.22350765967E+03 -0.14354950766E+04  0.14654407831E+04  0.00000000000E+00 0. -1.
          1    1    6    6  503    0  0.11437506968E+02 -0.46574045877E+03 -0.54635602756E+03  0.71801803622E+03  0.00000000000E+00 0. -1.
         -1    1    6    6    0  503 -0.21599405486E+02 -0.74149111351E+02 -0.14079854949E+03  0.16058909232E+03  0.00000000000E+00 0.  1.
<mgrwt>
<rscale>  0 0.18323750E+04</rscale>
<asrwt>0</asrwt>
<pdfrwt beam="1">  1        2 0.38111907E+00 0.18323750E+04</pdfrwt>
<pdfrwt beam="2">  1       -1 0.52129230E-01 0.18323750E+04</pdfrwt>
<totfact> 0.14270232E+01</totfact>
</mgrwt>
</event>
<event>
12    7  0.1698542E-007  0.2036643E+04  0.7818608E-02  0.8589678E-01
         -1   -1    0    0    0  501 -0.00000000000E+00  0.00000000000E+00  0.51401334697E+03  0.51401334697E+03  0.00000000000E+00 0.  1.
          2   -1    0    0  501    0  0.00000000000E+00 -0.00000000000E+00 -0.20174163155E+04  0.20174163155E+04  0.00000000000E+00 0. -1.
         24    2    1    2    0    0 -0.37670617986E+03  0.75869158542E+02 -0.15009703739E+04  0.15514596992E+04  0.80320979075E+02 0.  0.
        254    2    1    2    0    0  0.37670617986E+03 -0.75869158542E+02 -0.24325946351E+01  0.97996996329E+03  0.90148296505E+03 0.  0.
         23    2    4    4    0    0  0.23273577800E+03 -0.42833050190E+03 -0.21046791392E+03  0.53844512382E+03  0.89406081227E+02 0.  0.
         23    2    4    4    0    0  0.14397040186E+03  0.35246134336E+03  0.20803531928E+03  0.44152483947E+03  0.81908574792E+02 0.  0.
          4    1    3    3  502    0 -0.30228300004E+03  0.27370858457E+02 -0.11826390059E+04  0.12209665001E+04  0.00000000000E+00 0. -1.
         -3    1    3    3    0  502 -0.74423179826E+02  0.48498300086E+02 -0.31833136798E+03  0.33049319910E+03  0.00000000000E+00 0.  1.
         13    1    5    5    0    0  0.12422172419E+03 -0.21463336407E+03 -0.58956830752E+02  0.25490081527E+03  0.00000000000E+00 0. -1.
        -13    1    5    5    0    0  0.10851405381E+03 -0.21369713783E+03 -0.15151108316E+03  0.28354430855E+03  0.00000000000E+00 0.  1.
          2    1    6    6  503    0  0.37736000888E+02  0.30532549679E+02  0.41312108512E+02  0.63741137914E+02  0.00000000000E+00 0. -1.
         -2    1    6    6    0  503  0.10623440097E+03  0.32192879368E+03  0.16672321077E+03  0.37778370155E+03  0.00000000000E+00 0.  1.
<mgrwt>
<rscale>  0 0.20366432E+04</rscale>
<asrwt>0</asrwt>
<pdfrwt beam="1">  1        2 0.31037174E+00 0.20366432E+04</pdfrwt>
<pdfrwt beam="2">  1       -1 0.79078976E-01 0.20366432E+04</pdfrwt>
<totfact> 0.11016038E+01</totfact>
</mgrwt>
</event>
<event>
12    7  0.1698542E-007  0.2070543E+04  0.7818608E-02  0.8574332E-01
         -1   -1    0    0    0  501 -0.00000000000E+00  0.00000000000E+00  0.97431271178E+03  0.97431271178E+03  0.00000000000E+00 0.  1.
          2   -1    0    0  501    0  0.00000000000E+00 -0.00000000000E+00 -0.11000443845E+04  0.11000443845E+04  0.00000000000E+00 0. -1.
         24    2    1    2    0    0  0.53851397436E+03 -0.34877022115E+03  0.49894880959E+03  0.81742309502E+03  0.87135721435E+02 0.  0.
        254    2    1    2    0    0 -0.53851397436E+03  0.34877022115E+03 -0.62468048235E+03  0.12569340013E+04  0.88205408613E+03 0.  0.
         23    2    4    4    0    0  0.23563257384E+02  0.40262009914E+03 -0.48018781117E+01  0.41356032959E+03  0.91383351014E+02 0.  0.
         23    2    4    4    0    0 -0.56207723175E+03 -0.53849877997E+02 -0.61987860424E+03  0.84337367172E+03  0.90548563427E+02 0.  0.
          2    1    3    3  502    0  0.26787320215E+03 -0.20664198897E+03  0.30420790361E+03  0.45497188117E+03  0.00000000000E+00 0. -1.
         -1    1    3    3    0  502  0.27064077221E+03 -0.14212823218E+03  0.19474090597E+03  0.36245121385E+03  0.00000000000E+00 0.  1.
         13    1    5    5    0    0  0.53337410671E+02  0.19085987152E+03 -0.19991477079E+02  0.19917838509E+03  0.00000000000E+00 0. -1.
        -13    1    5    5    0    0 -0.29774153287E+02  0.21176022762E+03  0.15189598968E+02  0.21438194449E+03  0.00000000000E+00 0.  1.
          1    1    6    6  503    0 -0.24966406030E+03 -0.40833820204E+01 -0.21460493274E+03  0.32924777019E+03  0.00000000000E+00 0. -1.
         -1    1    6    6    0  503 -0.31241317145E+03 -0.49766495976E+02 -0.40527367150E+03  0.51412590153E+03  0.00000000000E+00 0.  1.
<mgrwt>
<rscale>  0 0.20705431E+04</rscale>
<asrwt>0</asrwt>
<pdfrwt beam="1">  1        2 0.16923760E+00 0.20705431E+04</pdfrwt>
<pdfrwt beam="2">  1       -1 0.14989426E+00 0.20705431E+04</pdfrwt>
<totfact> 0.80225705E+00</totfact>
</mgrwt>
</event>
<event>
12    7  0.1698542E-007  0.2532847E+04  0.7818608E-02  0.8391376E-01
         -1   -1    0    0    0  501 -0.00000000000E+00  0.00000000000E+00  0.46413861989E+03  0.46413861989E+03  0.00000000000E+00 0.  1.
          2   -1    0    0  501    0  0.00000000000E+00 -0.00000000000E+00 -0.34554937528E+04  0.34554937528E+04  0.00000000000E+00 0. -1.
         24    2    1    2    0    0  0.18459074902E+03  0.85333910437E+03 -0.23535858184E+04  0.25115936893E+04  0.80469149506E+02 0.  0.
        254    2    1    2    0    0 -0.18459074902E+03 -0.85333910437E+03 -0.63776931455E+03  0.14080386834E+04  0.90197664253E+03 0.  0.
         23    2    4    4    0    0 -0.48317771032E+03 -0.40309857391E+03 -0.57397608048E+03  0.85660156150E+03  0.91479692717E+02 0.  0.
         23    2    4    4    0    0  0.29858696130E+03 -0.45024053046E+03 -0.63793234072E+02  0.55143712189E+03  0.90236433625E+02 0.  0.
          4    1    3    3  502    0  0.70086617923E+02  0.30257331624E+03 -0.94965450256E+03  0.99915285114E+03  0.00000000000E+00 0. -1.
         -3    1    3    3    0  502  0.11450413110E+03  0.55076578813E+03 -0.14039313158E+04  0.15124408382E+04  0.00000000000E+00 0.  1.
         13    1    5    5    0    0 -0.23227494649E+03 -0.14276392915E+03 -0.27756288104E+03  0.38906855844E+03  0.00000000000E+00 0. -1.
        -13    1    5    5    0    0 -0.25090276382E+03 -0.26033464476E+03 -0.29641319944E+03  0.46753300307E+03  0.00000000000E+00 0.  1.
          4    1    6    6  503    0  0.23111712628E+03 -0.37965214751E+03 -0.21391389171E+02  0.44498142736E+03  0.00000000000E+00 0. -1.
         -4    1    6    6    0  503  0.67469835015E+02 -0.70588382952E+02 -0.42401844902E+02  0.10645569452E+03  0.00000000000E+00 0.  1.
<mgrwt>
<rscale>  0 0.25328467E+04</rscale>
<asrwt>0</asrwt>
<pdfrwt beam="1">  1        2 0.53161443E+00 0.25328467E+04</pdfrwt>
<pdfrwt beam="2">  1       -1 0.71405941E-01 0.25328467E+04</pdfrwt>
<totfact> 0.17506382E+00</totfact>
</mgrwt>
</event>
<event>
12    7  0.1698542E-007  0.3336064E+04  0.7818608E-02  0.8153779E-01
          2   -1    0    0  501    0  0.00000000000E+00  0.00000000000E+00  0.24385478476E+04  0.24385478476E+04  0.00000000000E+00 0. -1.
         -1   -1    0    0    0  501 -0.00000000000E+00 -0.00000000000E+00 -0.11409785590E+04  0.11409785590E+04  0.00000000000E+00 0.  1.
         24    2    1    2    0    0 -0.94462926993E+03  0.99739758859E+03  0.13555547964E+04  0.19316824024E+04  0.82107795922E+02 0.  0.
        254    2    1    2    0    0  0.94462926993E+03 -0.99739758859E+03 -0.57985507839E+02  0.16478440043E+04  0.90824068177E+03 0.  0.
         23    2    4    4    0    0  0.46233302996E+03  0.65840157878E+02 -0.47079741658E+02  0.47666088733E+03  0.83080337343E+02 0.  0.
         23    2    4    4    0    0  0.48229623997E+03 -0.10632377465E+04 -0.10905766181E+02  0.11711831170E+04  0.92015157037E+02 0.  0.
          2    1    3    3  502    0 -0.78330091748E+03  0.79711071311E+03  0.11355080567E+04  0.15932119643E+04  0.00000000000E+00 0. -1.
         -1    1    3    3    0  502 -0.16132835245E+03  0.20028687548E+03  0.22004673970E+03  0.33847043807E+03  0.00000000000E+00 0.  1.
         13    1    5    5    0    0  0.46394056883E+03  0.64593387343E+02 -0.52042098787E+02  0.47129771604E+03  0.00000000000E+00 0. -1.
        -13    1    5    5    0    0 -0.16075388737E+01  0.12467705345E+01  0.49623571292E+01  0.53631712889E+01  0.00000000000E+00 0.  1.
          1    1    6    6  503    0  0.38708332624E+03 -0.75594085301E+03  0.20160500796E+00  0.84928211764E+03  0.00000000000E+00 0. -1.
         -1    1    6    6    0  503  0.95212913728E+02 -0.30729689346E+03 -0.11107371189E+02  0.32190099932E+03  0.00000000000E+00 0.  1.
<mgrwt>
<rscale>  0 0.33360640E+04</rscale>
<asrwt>0</asrwt>
<pdfrwt beam="1">  1        2 0.37516121E+00 0.33360640E+04</pdfrwt>
<pdfrwt beam="2">  1       -1 0.17553516E+00 0.33360640E+04</pdfrwt>
<totfact> 0.80141819E-01</totfact>
</mgrwt>
</event>
<event>
12    7  0.1698542E-007  0.2103558E+04  0.7818608E-02  0.8559677E-01
          2   -1    0    0  501    0  0.00000000000E+00  0.00000000000E+00  0.13503650206E+04  0.13503650206E+04  0.00000000000E+00 0. -1.
         -1   -1    0    0    0  501 -0.00000000000E+00 -0.00000000000E+00 -0.81921517175E+03  0.81921517175E+03  0.00000000000E+00 0.  1.
         24    2    1    2    0    0 -0.45869837112E+03  0.69953448338E+03  0.64854727642E+02  0.84371139407E+03  0.88826188060E+02 0.  0.
        254    2    1    2    0    0  0.45869837112E+03 -0.69953448338E+03  0.46629512123E+03  0.13258687983E+04  0.91692106591E+03 0.  0.
         23    2    4    4    0    0  0.18228600039E+03 -0.72694646999E+03  0.63630110149E+03  0.98721356042E+03  0.89622351897E+02 0.  0.
         23    2    4    4    0    0  0.27641237073E+03  0.27411986610E+02 -0.17000598026E+03  0.33865523787E+03  0.92898445164E+02 0.  0.
          2    1    3    3  502    0 -0.22067775595E+03  0.27726372578E+03  0.56967919910E+02  0.35891390264E+03  0.00000000000E+00 0. -1.
         -1    1    3    3    0  502 -0.23802061517E+03  0.42227075760E+03  0.78868077321E+01  0.48479749143E+03  0.00000000000E+00 0.  1.
         13    1    5    5    0    0  0.10896332643E+03 -0.32763421628E+03  0.24518129253E+03  0.42347497257E+03  0.00000000000E+00 0.  1.
        -13    1    5    5    0    0  0.73322673968E+02 -0.39931225371E+03  0.39111980896E+03  0.56373858785E+03  0.00000000000E+00 0. -1.
          4    1    6    6  503    0  0.23160039898E+03  0.53296529640E+01 -0.99219108231E+02  0.25201504211E+03  0.00000000000E+00 0. -1.
         -4    1    6    6    0  503  0.44811971745E+02  0.22082333646E+02 -0.70786872029E+02  0.86640195767E+02  0.00000000000E+00 0.  1.
<mgrwt>
<rscale>  0 0.21035584E+04</rscale>
<asrwt>0</asrwt>
<pdfrwt beam="1">  1        2 0.20774846E+00 0.21035584E+04</pdfrwt>
<pdfrwt beam="2">  1       -1 0.12603310E+00 0.21035584E+04</pdfrwt>
<totfact> 0.88967542E+00</totfact>
</mgrwt>
</event>
<event>
12    7  0.1698542E-007  0.2261874E+04  0.7818608E-02  0.8493107E-01
          2   -1    0    0  501    0  0.00000000000E+00  0.00000000000E+00  0.28472254495E+04  0.28472254495E+04  0.00000000000E+00 0. -1.
         -1   -1    0    0    0  501 -0.00000000000E+00 -0.00000000000E+00 -0.44921564081E+03  0.44921564081E+03  0.00000000000E+00 0.  1.
         24    2    1    2    0    0 -0.84288590487E+03 -0.86458746849E+01  0.16774956998E+04  0.18790871688E+04  0.80283032366E+02 0.  0.
        254    2    1    2    0    0  0.84288590487E+03  0.86458746849E+01  0.72051410895E+03  0.14173539216E+04  0.88273447764E+03 0.  0.
         23    2    4    4    0    0  0.14256955324E+03  0.95546638169E+02  0.67689739007E+03  0.70451212778E+03  0.93231024429E+02 0.  0.
         23    2    4    4    0    0  0.70031635163E+03 -0.86900763484E+02  0.43616718877E+02  0.71284179379E+03  0.90808974001E+02 0.  0.
          4    1    3    3  502    0 -0.78363193514E+03 -0.28039191393E+02  0.15412164001E+04  0.17292232933E+04  0.00000000000E+00 0. -1.
         -3    1    3    3    0  502 -0.59253969738E+02  0.19393316708E+02  0.13627929965E+03  0.14986387548E+03  0.00000000000E+00 0.  1.
         13    1    5    5    0    0  0.12922816394E+03  0.95527099960E+02  0.46108107641E+03  0.48828383570E+03  0.00000000000E+00 0. -1.
        -13    1    5    5    0    0  0.13341389302E+02  0.19538208865E-01  0.21581631367E+03  0.21622829208E+03  0.00000000000E+00 0.  1.
          4    1    6    6  503    0  0.28683004417E+03 -0.14788997236E+02  0.57389218274E+02  0.29288856423E+03  0.00000000000E+00 0. -1.
         -4    1    6    6    0  503  0.41348630746E+03 -0.72111766248E+02 -0.13772499397E+02  0.41995322957E+03  0.00000000000E+00 0.  1.
<mgrwt>
<rscale>  0 0.22618737E+04</rscale>
<asrwt>0</asrwt>
<pdfrwt beam="1">  1        2 0.43803467E+00 0.22618737E+04</pdfrwt>
<pdfrwt beam="2">  1       -1 0.69110101E-01 0.22618737E+04</pdfrwt>
<totfact> 0.47466225E+00</totfact>
</mgrwt>
</event>
<event>
12    7  0.1698542E-007  0.2204907E+04  0.7818608E-02  0.8516388E-01
         -1   -1    0    0    0  501 -0.00000000000E+00  0.00000000000E+00  0.44554357992E+03  0.44554357992E+03  0.00000000000E+00 0.  1.
          2   -1    0    0  501    0  0.00000000000E+00 -0.00000000000E+00 -0.27279132470E+04  0.27279132470E+04  0.00000000000E+00 0. -1.
         24    2    1    2    0    0 -0.68855939206E+03  0.49247002426E+03 -0.45909077930E+03  0.96642415208E+03  0.81058848473E+02 0.  0.
        254    2    1    2    0    0  0.68855939206E+03 -0.49247002426E+03 -0.18232788878E+04  0.22070326749E+04  0.91104696038E+03 0.  0.
         23    2    4    4    0    0  0.66138581360E+03 -0.55390672844E+03 -0.80889397250E+03  0.11861314982E+04  0.91403577423E+02 0.  0.
         23    2    4    4    0    0  0.27173578460E+02  0.61436704186E+02 -0.10143849153E+04  0.10209011767E+04  0.93539211967E+02 0.  0.
          2    1    3    3  502    0 -0.21921170093E+03  0.16275591118E+03 -0.19151201598E+03  0.33349678965E+03  0.00000000000E+00 0. -1.
         -1    1    3    3    0  502 -0.46934769113E+03  0.32971411308E+03 -0.26757876332E+03  0.63292736243E+03  0.00000000000E+00 0.  1.
         13    1    5    5    0    0  0.73173634726E+02 -0.35893526719E+02 -0.10281506185E+03  0.13120084993E+03  0.00000000000E+00 0.  1.
        -13    1    5    5    0    0  0.58821217887E+03 -0.51801320172E+03 -0.70607891065E+03  0.10549306482E+04  0.00000000000E+00 0. -1.
          2    1    6    6  503    0  0.44682561642E+02  0.21779047266E+02 -0.22956833813E+03  0.23488822892E+03  0.00000000000E+00 0. -1.
         -2    1    6    6    0  503 -0.17508983182E+02  0.39657656920E+02 -0.78481657719E+03  0.78601294778E+03  0.00000000000E+00 0.  1.
<mgrwt>
<rscale>  0 0.22049075E+04</rscale>
<asrwt>0</asrwt>
<pdfrwt beam="1">  1        2 0.41967895E+00 0.22049075E+04</pdfrwt>
<pdfrwt beam="2">  1       -1 0.68545168E-01 0.22049075E+04</pdfrwt>
<totfact> 0.57257838E+00</totfact>
</mgrwt>
</event>
<event>
12    7  0.1698542E-007  0.1560648E+04  0.7818608E-02  0.8845095E-01
         -1   -1    0    0    0  501 -0.00000000000E+00  0.00000000000E+00  0.15598489617E+03  0.15598489617E+03  0.00000000000E+00 0.  1.
          2   -1    0    0  501    0  0.00000000000E+00 -0.00000000000E+00 -0.39036189836E+04  0.39036189836E+04  0.00000000000E+00 0. -1.
         24    2    1    2    0    0  0.19405242579E+02 -0.48129653346E+03 -0.17262743667E+04  0.17939884330E+04  0.79676797832E+02 0.  0.
        254    2    1    2    0    0 -0.19405242579E+02  0.48129653346E+03 -0.20213597207E+04  0.22656154467E+04  0.90282629305E+03 0.  0.
         23    2    4    4    0    0  0.12798161096E+03  0.29480920034E+03 -0.19796038597E+04  0.20075376861E+04  0.89913082867E+02 0.  0.
         23    2    4    4    0    0 -0.14738685354E+03  0.18648733312E+03 -0.41755860947E+02  0.25807776057E+03  0.91433957397E+02 0.  0.
          4    1    3    3  502    0 -0.95203747586E+01 -0.19395738193E+03 -0.82640350761E+03  0.84891275225E+03  0.00000000000E+00 0. -1.
         -3    1    3    3    0  502  0.28925617338E+02 -0.28733915153E+03 -0.89987085912E+03  0.94507568079E+03  0.00000000000E+00 0.  1.
         13    1    5    5    0    0  0.13600757125E+03  0.26095971487E+03 -0.16434506013E+04  0.16695891444E+04  0.00000000000E+00 0. -1.
        -13    1    5    5    0    0 -0.80259602841E+01  0.33849485472E+02 -0.33615325838E+03  0.33794854169E+03  0.00000000000E+00 0.  1.
          4    1    6    6  503    0 -0.14992557723E+03  0.16465254309E+03 -0.14630917149E+02  0.22316407056E+03  0.00000000000E+00 0. -1.
         -4    1    6    6    0  503  0.25387236899E+01  0.21834790028E+02 -0.27124943798E+02  0.34913690002E+02  0.00000000000E+00 0.  1.
<mgrwt>
<rscale>  0 0.15606481E+04</rscale>
<asrwt>0</asrwt>
<pdfrwt beam="1">  1        2 0.60055678E+00 0.15606481E+04</pdfrwt>
<pdfrwt beam="2">  1       -1 0.23997676E-01 0.15606481E+04</pdfrwt>
<totfact> 0.68531033E+00</totfact>
</mgrwt>
</event>
<event>
12    7  0.1698542E-007  0.1876190E+04  0.7818608E-02  0.8666800E-01
         -1   -1    0    0    0  501 -0.00000000000E+00  0.00000000000E+00  0.85047450714E+03  0.85047450714E+03  0.00000000000E+00 0.  1.
          2   -1    0    0  501    0  0.00000000000E+00 -0.00000000000E+00 -0.10347424505E+04  0.10347424505E+04  0.00000000000E+00 0. -1.
         24    2    1    2    0    0  0.45773529321E+02 -0.51151505013E+03  0.43413142881E+03  0.67728860675E+03  0.80665338650E+02 0.  0.
        254    2    1    2    0    0 -0.45773529321E+02  0.51151505013E+03 -0.61839937219E+03  0.12079283509E+04  0.90162644977E+03 0.  0.
         23    2    4    4    0    0 -0.18516293956E+02  0.35664332502E+03  0.16458735920E+03  0.40373839044E+03  0.91533462117E+02 0.  0.
         23    2    4    4    0    0 -0.27257235365E+02  0.15487172512E+03 -0.78298673140E+03  0.80418996047E+03  0.94472550834E+02 0.  0.
          4    1    3    3  502    0  0.41269414276E+00 -0.26319133812E+02  0.51027282996E+02  0.57416467420E+02  0.00000000000E+00 0. -1.
         -3    1    3    3    0  502  0.45360835178E+02 -0.48519591632E+03  0.38310414581E+03  0.61987213933E+03  0.00000000000E+00 0.  1.
         13    1    5    5    0    0 -0.27219625405E+02  0.30939734395E+03  0.17214321714E+03  0.35510690173E+03  0.00000000000E+00 0.  1.
        -13    1    5    5    0    0  0.87033314490E+01  0.47245981072E+02 -0.75558579326E+01  0.48631488717E+02  0.00000000000E+00 0. -1.
          4    1    6    6  503    0  0.35215938881E+02  0.65142914504E+02 -0.30606523998E+03  0.31489632069E+03  0.00000000000E+00 0.  1.
         -4    1    6    6    0  503 -0.62473174247E+02  0.89728810611E+02 -0.47692149142E+03  0.48929363978E+03  0.00000000000E+00 0. -1.
<mgrwt>
<rscale>  0 0.18761898E+04</rscale>
<asrwt>0</asrwt>
<pdfrwt beam="1">  1        2 0.15919115E+00 0.18761898E+04</pdfrwt>
<pdfrwt beam="2">  1       -1 0.13084223E+00 0.18761898E+04</pdfrwt>
<totfact> 0.12782723E+01</totfact>
</mgrwt>
</event>
<event>
12    7  0.1698542E-007  0.1758113E+04  0.7818608E-02  0.8728897E-01
         -3   -1    0    0    0  501 -0.00000000000E+00  0.00000000000E+00  0.48652241910E+03  0.48652241910E+03  0.00000000000E+00 0.  1.
          2   -1    0    0  501    0  0.00000000000E+00 -0.00000000000E+00 -0.15882939845E+04  0.15882939845E+04  0.00000000000E+00 0. -1.
         24    2    1    2    0    0  0.36621558889E+03 -0.12942714309E+03 -0.10069179836E+04  0.10821755449E+04  0.79717258482E+02 0.  0.
        254    2    1    2    0    0 -0.36621558889E+03  0.12942714309E+03 -0.94853581778E+02  0.99264085870E+03  0.90855568320E+03 0.  0.
         23    2    4    4    0    0  0.13766949469E+02 -0.46162576699E+02 -0.43359627873E+03  0.44592594881E+03  0.92323921675E+02 0.  0.
         23    2    4    4    0    0 -0.37998253835E+03  0.17558971979E+03  0.33874269695E+03  0.54671490989E+03  0.94509781558E+02 0.  0.
          2    1    3    3  502    0  0.34142033677E+03 -0.13279960570E+03 -0.97544095993E+03  0.10419638420E+04  0.00000000000E+00 0. -1.
         -1    1    3    3    0  502  0.24795252119E+02  0.33724626119E+01 -0.31477023649E+02  0.40211702892E+02  0.00000000000E+00 0.  1.
         13    1    5    5    0    0  0.31975658865E+02 -0.54288424818E+02 -0.41095260627E+03  0.41575439917E+03  0.00000000000E+00 0. -1.
        -13    1    5    5    0    0 -0.18208709396E+02  0.81258481197E+01 -0.22643672460E+02  0.30171549645E+02  0.00000000000E+00 0.  1.
          3    1    6    6  503    0 -0.37898598605E+03  0.16810686200E+03  0.31186368720E+03  0.51879596574E+03  0.00000000000E+00 0. -1.
         -3    1    6    6    0  503 -0.99655230145E+00  0.74828577917E+01  0.26879009754E+02  0.27918944153E+02  0.00000000000E+00 0.  1.
<mgrwt>
<rscale>  0 0.17581133E+04</rscale>
<asrwt>0</asrwt>
<pdfrwt beam="1">  1        2 0.24435293E+00 0.17581133E+04</pdfrwt>
<pdfrwt beam="2">  1       -3 0.74849601E-01 0.17581133E+04</pdfrwt>
<totfact> 0.11535806E+01</totfact>
</mgrwt>
</event>
<event>
12    7  0.1698542E-007  0.2049732E+04  0.7818608E-02  0.8583716E-01
         -1   -1    0    0    0  501 -0.00000000000E+00  0.00000000000E+00  0.93720063050E+03  0.93720063050E+03  0.00000000000E+00 0.  1.
          2   -1    0    0  501    0  0.00000000000E+00 -0.00000000000E+00 -0.11207318338E+04  0.11207318338E+04  0.00000000000E+00 0. -1.
         24    2    1    2    0    0  0.35899290660E+03 -0.14561557909E+03 -0.80696152992E+03  0.89858984389E+03  0.78720981288E+02 0.  0.
        254    2    1    2    0    0 -0.35899290660E+03  0.14561557909E+03  0.62343032663E+03  0.11593426204E+04  0.89740188069E+03 0.  0.
         23    2    4    4    0    0 -0.51167414937E+03 -0.11768388079E+03  0.64880984132E+03  0.84077085887E+03  0.10139771203E+03 0.  0.
         23    2    4    4    0    0  0.15268124276E+03  0.26329945988E+03 -0.25379514694E+02  0.31857176154E+03  0.90585208599E+02 0.  0.
          2    1    3    3  502    0  0.29755745673E+03 -0.86835193872E+02 -0.64782237338E+03  0.71816057982E+03  0.00000000000E+00 0. -1.
         -1    1    3    3    0  502  0.61435449879E+02 -0.58780385222E+02 -0.15913915654E+03  0.18042926407E+03  0.00000000000E+00 0.  1.
         13    1    5    5    0    0 -0.20779190397E+03 -0.52605490900E+02  0.34501855116E+03  0.40618051858E+03  0.00000000000E+00 0. -1.
        -13    1    5    5    0    0 -0.30388224540E+03 -0.65078389889E+02  0.30379129015E+03  0.43459034029E+03  0.00000000000E+00 0.  1.
          1    1    6    6  503    0  0.49951378921E+01  0.39576379884E+02 -0.30873743695E+02  0.50442336356E+02  0.00000000000E+00 0. -1.
         -1    1    6    6    0  503  0.14768610487E+03  0.22372308000E+03  0.54942290013E+01  0.26812942518E+03  0.00000000000E+00 0.  1.
<mgrwt>
<rscale>  0 0.20497323E+04</rscale>
<asrwt>0</asrwt>
<pdfrwt beam="1">  1        2 0.17242028E+00 0.20497323E+04</pdfrwt>
<pdfrwt beam="2">  1       -1 0.14418471E+00 0.20497323E+04</pdfrwt>
<totfact> 0.86582970E+00</totfact>
</mgrwt>
</event>
<event>
12    7  0.1698542E-007  0.1532960E+04  0.7818608E-02  0.8862826E-01
          2   -1    0    0  501    0  0.00000000000E+00  0.00000000000E+00  0.77235484053E+03  0.77235484053E+03  0.00000000000E+00 0. -1.
         -1   -1    0    0    0  501 -0.00000000000E+00 -0.00000000000E+00 -0.76064947633E+03  0.76064947633E+03  0.00000000000E+00 0.  1.
         24    2    1    2    0    0  0.12455021500E+03  0.13741955047E+03 -0.46968060254E+03  0.51091679135E+03  0.77712356626E+02 0.  0.
        254    2    1    2    0    0 -0.12455021500E+03 -0.13741955047E+03  0.48138596674E+03  0.10220875255E+04  0.88234549464E+03 0.  0.
         23    2    4    4    0    0  0.18230699430E+03 -0.22478609781E+03 -0.12587003157E+03  0.32964621445E+03  0.95177370793E+02 0.  0.
         23    2    4    4    0    0 -0.30685720930E+03  0.87366547347E+02  0.60725599831E+03  0.69244131106E+03  0.94450311179E+02 0.  0.
          4    1    3    3  502    0  0.85744777488E+02  0.44758330957E+02 -0.28065287801E+03  0.29685267894E+03  0.00000000000E+00 0. -1.
         -3    1    3    3    0  502  0.38805437511E+02  0.92661219510E+02 -0.18902772453E+03  0.21406411241E+03  0.00000000000E+00 0.  1.
         13    1    5    5    0    0  0.24385036499E+02 -0.84683304416E+02 -0.96310041658E+01  0.88649017440E+02  0.00000000000E+00 0. -1.
        -13    1    5    5    0    0  0.15792195780E+03 -0.14010279340E+03 -0.11623902740E+03  0.24099719701E+03  0.00000000000E+00 0.  1.
          2    1    6    6  503    0 -0.18700009317E+03  0.83211252575E+02  0.45263704960E+03  0.49676296769E+03  0.00000000000E+00 0. -1.
         -2    1    6    6    0  503 -0.11985711613E+03  0.41552947718E+01  0.15461894871E+03  0.19567834337E+03  0.00000000000E+00 0.  1.
<mgrwt>
<rscale>  0 0.15329596E+04</rscale>
<asrwt>0</asrwt>
<pdfrwt beam="1">  1        2 0.11882382E+00 0.15329596E+04</pdfrwt>
<pdfrwt beam="2">  1       -1 0.11702300E+00 0.15329596E+04</pdfrwt>
<totfact> 0.26145761E+01</totfact>
</mgrwt>
</event>
<event>
12    7  0.1698542E-007  0.1971447E+04  0.7818608E-02  0.8620088E-01
         -1   -1    0    0    0  501 -0.00000000000E+00  0.00000000000E+00  0.46293589443E+03  0.46293589443E+03  0.00000000000E+00 0.  1.
          2   -1    0    0  501    0  0.00000000000E+00 -0.00000000000E+00 -0.20988886481E+04  0.20988886481E+04  0.00000000000E+00 0. -1.
         24    2    1    2    0    0  0.39362297708E+03  0.28290248576E+03 -0.14380743974E+04  0.15197596965E+04  0.81478205578E+02 0.  0.
        254    2    1    2    0    0 -0.39362297708E+03 -0.28290248576E+03 -0.19787835629E+03  0.10420648461E+04  0.90098303816E+03 0.  0.
         23    2    4    4    0    0 -0.35319077958E+02 -0.52998468659E+03 -0.24966584456E+03  0.59390399395E+03  0.90871969259E+02 0.  0.
         23    2    4    4    0    0 -0.35830389912E+03  0.24708220083E+03  0.51787488270E+02  0.44816085215E+03  0.93460726332E+02 0.  0.
          2    1    3    3  502    0  0.10679724909E+03  0.12261459659E+03 -0.44899575094E+03  0.47753238222E+03  0.00000000000E+00 0. -1.
         -1    1    3    3    0  502  0.28682572799E+03  0.16028788917E+03 -0.98907864647E+03  0.10422273142E+04  0.00000000000E+00 0.  1.
         13    1    5    5    0    0  0.51434202885E+01 -0.25840608917E+03 -0.16473391330E+03  0.30649212695E+03  0.00000000000E+00 0.  1.
        -13    1    5    5    0    0 -0.40462498247E+02 -0.27157859743E+03 -0.84931931262E+02  0.28741186700E+03  0.00000000000E+00 0. -1.
          1    1    6    6  503    0 -0.55194408468E+02  0.83735826353E+02  0.24300716018E+01  0.10031957231E+03  0.00000000000E+00 0. -1.
         -1    1    6    6    0  503 -0.30310949065E+03  0.16334637448E+03  0.49357416668E+02  0.34784127983E+03  0.00000000000E+00 0.  1.
<mgrwt>
<rscale>  0 0.19714471E+04</rscale>
<asrwt>0</asrwt>
<pdfrwt beam="1">  1        2 0.32290594E+00 0.19714471E+04</pdfrwt>
<pdfrwt beam="2">  1       -1 0.71220907E-01 0.19714471E+04</pdfrwt>
<totfact> 0.12420712E+01</totfact>
</mgrwt>
</event>
<event>
12    7  0.1698542E-007  0.1539630E+04  0.7818608E-02  0.8858519E-01
          2   -1    0    0  501    0  0.00000000000E+00  0.00000000000E+00  0.15902294874E+04  0.15902294874E+04  0.00000000000E+00 0. -1.
         -1   -1    0    0    0  501 -0.00000000000E+00 -0.00000000000E+00 -0.37265990452E+03  0.37265990452E+03  0.00000000000E+00 0.  1.
         24    2    1    2    0    0 -0.68742298650E+02  0.30216130089E+03  0.90325055606E+03  0.95825438754E+03  0.79768094153E+02 0.  0.
        254    2    1    2    0    0  0.68742298650E+02 -0.30216130089E+03  0.31431902687E+03  0.10046350044E+04  0.90247885631E+03 0.  0.
         23    2    4    4    0    0  0.46568558789E+03 -0.26578039297E+03  0.14916368269E+03  0.56388447665E+03  0.90628994942E+02 0.  0.
         23    2    4    4    0    0 -0.39694328924E+03 -0.36380907917E+02  0.16515534418E+03  0.44075052777E+03  0.89984413551E+02 0.  0.
          2    1    3    3  502    0 -0.82624926956E+02  0.27285163639E+03  0.84190354676E+03  0.88886246185E+03  0.00000000000E+00 0. -1.
         -1    1    3    3    0  502  0.13882628306E+02  0.29309664495E+02  0.61347009298E+02  0.69391925692E+02  0.00000000000E+00 0.  1.
         13    1    5    5    0    0  0.42153919823E+03 -0.26474671246E+03  0.12374109789E+03  0.51293077185E+03  0.00000000000E+00 0. -1.
        -13    1    5    5    0    0  0.44146389663E+02 -0.10336805067E+01  0.25422584801E+02  0.50953704808E+02  0.00000000000E+00 0.  1.
          4    1    6    6  503    0 -0.36091669415E+03 -0.28014669940E+02  0.17556373520E+03  0.40232860570E+03  0.00000000000E+00 0. -1.
         -4    1    6    6    0  503 -0.36026595088E+02 -0.83662379771E+01 -0.10408391019E+02  0.38421922064E+02  0.00000000000E+00 0.  1.
<mgrwt>
<rscale>  0 0.15396295E+04</rscale>
<asrwt>0</asrwt>
<pdfrwt beam="1">  1        2 0.24465069E+00 0.15396295E+04</pdfrwt>
<pdfrwt beam="2">  1       -1 0.57332294E-01 0.15396295E+04</pdfrwt>
<totfact> 0.38186171E+01</totfact>
</mgrwt>
</event>
<event>
12    7  0.1698542E-007  0.4463565E+04  0.7818608E-02  0.7917047E-01
          2   -1    0    0  501    0  0.00000000000E+00  0.00000000000E+00  0.33863304347E+04  0.33863304347E+04  0.00000000000E+00 0. -1.
         -1   -1    0    0    0  501 -0.00000000000E+00 -0.00000000000E+00 -0.14708705624E+04  0.14708705624E+04  0.00000000000E+00 0.  1.
         24    2    1    2    0    0  0.11808989140E+03 -0.10081562576E+04 -0.11272189701E+04  0.15189270647E+04  0.78692815193E+02 0.  0.
        254    2    1    2    0    0 -0.11808989140E+03  0.10081562576E+04  0.30426788424E+04  0.33382739325E+04  0.92512380148E+03 0.  0.
         23    2    4    4    0    0  0.21908037447E+03  0.22642883164E+03  0.23709547692E+03  0.40493650157E+03  0.92157901753E+02 0.  0.
         23    2    4    4    0    0 -0.33717026587E+03  0.78172742591E+03  0.28055833655E+04  0.29333374309E+04  0.91590972041E+02 0.  0.
          4    1    3    3  502    0  0.26862264364E+02 -0.56539117556E+03 -0.62695618167E+03  0.84466728147E+03  0.00000000000E+00 0. -1.
         -3    1    3    3    0  502  0.91227627032E+02 -0.44276508199E+03 -0.50026278847E+03  0.67425978324E+03  0.00000000000E+00 0.  1.
         13    1    5    5    0    0  0.10854138647E+03  0.15835403362E+03  0.10129205230E+03  0.21706522614E+03  0.00000000000E+00 0. -1.
        -13    1    5    5    0    0  0.11053898800E+03  0.68074798018E+02  0.13580342462E+03  0.18787127543E+03  0.00000000000E+00 0.  1.
          1    1    6    6  503    0 -0.69176595187E+02  0.21412492525E+03  0.86346368244E+03  0.89230287225E+03  0.00000000000E+00 0. -1.
         -1    1    6    6    0  503 -0.26799367068E+03  0.56760250066E+03  0.19421196831E+04  0.20410345587E+04  0.00000000000E+00 0.  1.
<mgrwt>
<rscale>  0 0.44635653E+04</rscale>
<asrwt>0</asrwt>
<pdfrwt beam="1">  1        2 0.52097391E+00 0.44635653E+04</pdfrwt>
<pdfrwt beam="2">  1       -1 0.22628778E+00 0.44635653E+04</pdfrwt>
<totfact> 0.83837810E-02</totfact>
</mgrwt>
</event>
<event>
12    7  0.1698542E-007  0.3128284E+04  0.7818608E-02  0.8208018E-01
         -1   -1    0    0    0  501 -0.00000000000E+00  0.00000000000E+00  0.20839345410E+04  0.20839345410E+04  0.00000000000E+00 0.  1.
          2   -1    0    0  501    0  0.00000000000E+00 -0.00000000000E+00 -0.11740003059E+04  0.11740003059E+04  0.00000000000E+00 0. -1.
         24    2    1    2    0    0  0.52957365321E+02 -0.28142967004E+03  0.18807273627E+04  0.19040137284E+04  0.78267002134E+02 0.  0.
        254    2    1    2    0    0 -0.52957365321E+02  0.28142967004E+03 -0.97079312763E+03  0.13539211184E+04  0.89925299921E+03 0.  0.
         23    2    4    4    0    0 -0.46540519752E+03  0.11618387912E+03 -0.54484316381E+03  0.73171323952E+03  0.91921162344E+02 0.  0.
         23    2    4    4    0    0  0.41244783220E+03  0.16524579092E+03 -0.42594996382E+03  0.62220787892E+03  0.91048817730E+02 0.  0.
          4    1    3    3  502    0  0.34429118565E+02 -0.47317065954E+02  0.27101284625E+03  0.27725842055E+03  0.00000000000E+00 0. -1.
         -3    1    3    3    0  502  0.18528246756E+02 -0.23411260409E+03  0.16097145164E+04  0.16267553079E+04  0.00000000000E+00 0.  1.
         13    1    5    5    0    0 -0.64935555424E+02  0.45228738147E+02 -0.62849302540E+02  0.10105592483E+03  0.00000000000E+00 0. -1.
        -13    1    5    5    0    0 -0.40046964210E+03  0.70955140975E+02 -0.48199386127E+03  0.63065731469E+03  0.00000000000E+00 0.  1.
          4    1    6    6  503    0  0.77804062203E+02  0.72205773129E+02 -0.10430369030E+03  0.14881668448E+03  0.00000000000E+00 0. -1.
         -4    1    6    6    0  503  0.33464377000E+03  0.93040017792E+02 -0.32164627352E+03  0.47339119445E+03  0.00000000000E+00 0.  1.
<mgrwt>
<rscale>  0 0.31282837E+04</rscale>
<asrwt>0</asrwt>
<pdfrwt beam="1">  1        2 0.18061543E+00 0.31282837E+04</pdfrwt>
<pdfrwt beam="2">  1       -1 0.32060531E+00 0.31282837E+04</pdfrwt>
<totfact> 0.45944449E-01</totfact>
</mgrwt>
</event>
<event>
12    7  0.1698542E-007  0.1640311E+04  0.7818608E-02  0.8796159E-01
         -1   -1    0    0    0  501 -0.00000000000E+00  0.00000000000E+00  0.24416397411E+03  0.24416397411E+03  0.00000000000E+00 0.  1.
          2   -1    0    0  501    0  0.00000000000E+00 -0.00000000000E+00 -0.27549322005E+04  0.27549322005E+04  0.00000000000E+00 0. -1.
         24    2    1    2    0    0  0.56111588099E+03  0.75114014676E+02 -0.10162752462E+04  0.11660600205E+04  0.79921513438E+02 0.  0.
        254    2    1    2    0    0 -0.56111588099E+03 -0.75114014676E+02 -0.14944929801E+04  0.18330361541E+04  0.89778568003E+03 0.  0.
         23    2    4    4    0    0 -0.48395981584E+02 -0.28582301665E+03 -0.11134782372E+04  0.11541611740E+04  0.90649119278E+02 0.  0.
         23    2    4    4    0    0 -0.51271989940E+03  0.21070900197E+03 -0.38101474291E+03  0.67887498008E+03  0.91755247851E+02 0.  0.
          2    1    3    3  502    0  0.45650074508E+03  0.38591326846E+02 -0.86107964487E+03  0.97536679028E+03  0.00000000000E+00 0. -1.
         -1    1    3    3    0  502  0.10461513590E+03  0.36522687830E+02 -0.15519560135E+03  0.19069323025E+03  0.00000000000E+00 0.  1.
         13    1    5    5    0    0 -0.13865741366E+02 -0.16987203283E+02 -0.29186856792E+02  0.36506115493E+02  0.00000000000E+00 0. -1.
        -13    1    5    5    0    0 -0.34530240219E+02 -0.26883581337E+03 -0.10842913804E+04  0.11176550585E+04  0.00000000000E+00 0.  1.
          2    1    6    6  503    0 -0.95389721713E+02  0.10965983286E+02 -0.39548877341E+02  0.10384394781E+03  0.00000000000E+00 0. -1.
         -2    1    6    6    0  503 -0.41733017769E+03  0.19974301869E+03 -0.34146586557E+03  0.57503103227E+03  0.00000000000E+00 0.  1.
<mgrwt>
<rscale>  0 0.16403112E+04</rscale>
<asrwt>0</asrwt>
<pdfrwt beam="1">  1        2 0.42383571E+00 0.16403112E+04</pdfrwt>
<pdfrwt beam="2">  1       -1 0.37563689E-01 0.16403112E+04</pdfrwt>
<totfact> 0.18369049E+01</totfact>
</mgrwt>
</event>
<event>
12    7  0.1698542E-007  0.1990747E+04  0.7818608E-02  0.8610959E-01
         -1   -1    0    0    0  501 -0.00000000000E+00  0.00000000000E+00  0.78530888285E+03  0.78530888285E+03  0.00000000000E+00 0.  1.
          2   -1    0    0  501    0  0.00000000000E+00 -0.00000000000E+00 -0.12616288324E+04  0.12616288324E+04  0.00000000000E+00 0. -1.
         24    2    1    2    0    0 -0.44305488788E+03  0.30624138431E+03  0.39544953535E+03  0.67286550560E+03  0.79285777315E+02 0.  0.
        254    2    1    2    0    0  0.44305488788E+03 -0.30624138431E+03 -0.87176948487E+03  0.13740722096E+04  0.91542939835E+03 0.  0.
         23    2    4    4    0    0 -0.17554262616E+03  0.17880767561E+03 -0.27624049549E+03  0.38361833074E+03  0.89815443385E+02 0.  0.
         23    2    4    4    0    0  0.61859751404E+03 -0.48504905992E+03 -0.59552898938E+03  0.99045387888E+03  0.91698604675E+02 0.  0.
          2    1    3    3  502    0 -0.11265959469E+03  0.83886635579E+02  0.62355973525E+02  0.15367959962E+03  0.00000000000E+00 0. -1.
         -1    1    3    3    0  502 -0.33039529319E+03  0.22235474873E+03  0.33309356182E+03  0.51918590599E+03  0.00000000000E+00 0.  1.
         13    1    5    5    0    0 -0.71867966725E+02  0.13296292011E+03 -0.13628413854E+03  0.20351292142E+03  0.00000000000E+00 0.  1.
        -13    1    5    5    0    0 -0.10367465943E+03  0.45844755505E+02 -0.13995635695E+03  0.18010540932E+03  0.00000000000E+00 0. -1.
          2    1    6    6  503    0  0.40646887728E+03 -0.36515275852E+03 -0.38474243073E+03  0.66826658099E+03  0.00000000000E+00 0.  1.
         -2    1    6    6    0  503  0.21212863675E+03 -0.11989630140E+03 -0.21078655864E+03  0.32218729790E+03  0.00000000000E+00 0. -1.
<mgrwt>
<rscale>  0 0.19907469E+04</rscale>
<asrwt>0</asrwt>
<pdfrwt beam="1">  1        2 0.19409674E+00 0.19907469E+04</pdfrwt>
<pdfrwt beam="2">  1       -1 0.12081675E+00 0.19907469E+04</pdfrwt>
<totfact> 0.11236427E+01</totfact>
</mgrwt>
</event>
<event>
12    7  0.1698542E-007  0.1378330E+04  0.7818608E-02  0.8969655E-01
         -3   -1    0    0    0  501 -0.00000000000E+00  0.00000000000E+00  0.55621424394E+03  0.55621424394E+03  0.00000000000E+00 0.  1.
          2   -1    0    0  501    0  0.00000000000E+00 -0.00000000000E+00 -0.85389467081E+03  0.85389467081E+03  0.00000000000E+00 0. -1.
         24    2    1    2    0    0  0.18170686790E+03  0.33704730399E+03 -0.16555057920E+03  0.42492462269E+03  0.80843489077E+02 0.  0.
        254    2    1    2    0    0 -0.18170686790E+03 -0.33704730399E+03 -0.13212984767E+03  0.98518429206E+03  0.89805986532E+03 0.  0.
         23    2    4    4    0    0  0.24422147435E+03 -0.45173792691E+03 -0.11397035614E+03  0.53386663937E+03  0.91176002415E+02 0.  0.
         23    2    4    4    0    0 -0.42592834225E+03  0.11469062292E+03 -0.18159491530E+02  0.45131765269E+03  0.93749478804E+02 0.  0.
          4    1    3    3  502    0 -0.16339932980E+01  0.55908765789E+01  0.66457912547E+01  0.88371022637E+01  0.00000000000E+00 0. -1.
         -3    1    3    3    0  502  0.18334086120E+03  0.33145642741E+03 -0.17219637046E+03  0.41608752043E+03  0.00000000000E+00 0.  1.
         13    1    5    5    0    0  0.19263380233E+03 -0.35660860091E+03 -0.12729846280E+03  0.42483217236E+03  0.00000000000E+00 0.  1.
        -13    1    5    5    0    0  0.51587672014E+02 -0.95129326000E+02  0.13328106659E+02  0.10903446701E+03  0.00000000000E+00 0. -1.
          1    1    6    6  503    0 -0.31394606320E+03  0.97098290644E+02 -0.52697324750E+02  0.33281709193E+03  0.00000000000E+00 0. -1.
         -1    1    6    6    0  503 -0.11198227905E+03  0.17592332277E+02  0.34537833220E+02  0.11850056076E+03  0.00000000000E+00 0.  1.
<mgrwt>
<rscale>  0 0.13783300E+04</rscale>
<asrwt>0</asrwt>
<pdfrwt beam="1">  1        2 0.13136841E+00 0.13783300E+04</pdfrwt>
<pdfrwt beam="2">  1       -3 0.85571422E-01 0.13783300E+04</pdfrwt>
<totfact> 0.24361738E+01</totfact>
</mgrwt>
</event>
<event>
12    7  0.1698542E-007  0.2560979E+04  0.7818608E-02  0.8381578E-01
          2   -1    0    0  501    0  0.00000000000E+00  0.00000000000E+00  0.37572923428E+04  0.37572923428E+04  0.00000000000E+00 0. -1.
         -1   -1    0    0    0  501 -0.00000000000E+00 -0.00000000000E+00 -0.43639236259E+03  0.43639236259E+03  0.00000000000E+00 0.  1.
         24    2    1    2    0    0  0.38066883703E+03 -0.24109948430E+03 -0.22976065186E+03  0.51243900482E+03  0.82256013217E+02 0.  0.
        254    2    1    2    0    0 -0.38066883703E+03  0.24109948430E+03  0.35506606320E+04  0.36812457005E+04  0.86101176475E+03 0.  0.
         23    2    4    4    0    0 -0.51765778462E+03  0.34235654403E+03  0.15617178710E+04  0.16829718917E+04  0.90852046972E+02 0.  0.
         23    2    4    4    0    0  0.13698894760E+03 -0.10125705973E+03  0.19889427610E+04  0.19982738088E+04  0.90476209566E+02 0.  0.
          4    1    3    3  502    0  0.19562935188E+03 -0.88237677029E+02 -0.13976845983E+03  0.25610926053E+03  0.00000000000E+00 0. -1.
         -3    1    3    3    0  502  0.18503948515E+03 -0.15286180727E+03 -0.89992192025E+02  0.25632974429E+03  0.00000000000E+00 0.  1.
         13    1    5    5    0    0 -0.41073185773E+03  0.30684349431E+03  0.12272186246E+04  0.13300071961E+04  0.00000000000E+00 0.  1.
        -13    1    5    5    0    0 -0.10692592689E+03  0.35513049719E+02  0.33449924635E+03  0.35296469561E+03  0.00000000000E+00 0. -1.
          3    1    6    6  503    0 -0.11933005491E+02 -0.18353870165E+02  0.27891056502E+03  0.27976841217E+03  0.00000000000E+00 0. -1.
         -3    1    6    6    0  503  0.14892195309E+03 -0.82903189570E+02  0.17100321960E+04  0.17185053967E+04  0.00000000000E+00 0.  1.
<mgrwt>
<rscale>  0 0.25609793E+04</rscale>
<asrwt>0</asrwt>
<pdfrwt beam="1">  1        2 0.57804495E+00 0.25609793E+04</pdfrwt>
<pdfrwt beam="2">  1       -1 0.67137289E-01 0.25609793E+04</pdfrwt>
<totfact> 0.12018516E+00</totfact>
</mgrwt>
</event>
<event>
12    7  0.1698542E-007  0.1939523E+04  0.7818608E-02  0.8635430E-01
          2   -1    0    0  501    0  0.00000000000E+00  0.00000000000E+00  0.66308564714E+03  0.66308564714E+03  0.00000000000E+00 0. -1.
         -1   -1    0    0    0  501 -0.00000000000E+00 -0.00000000000E+00 -0.14182738374E+04  0.14182738374E+04  0.00000000000E+00 0.  1.
         24    2    1    2    0    0  0.26935253258E+03  0.10535985427E+03 -0.10402399748E+04  0.10826500590E+04  0.79877777651E+02 0.  0.
        254    2    1    2    0    0 -0.26935253258E+03 -0.10535985427E+03  0.28505178450E+03  0.99870942559E+03  0.91242233161E+03 0.  0.
         23    2    4    4    0    0 -0.32827654354E+03  0.10071595730E+03  0.54396662039E+03  0.65006970320E+03  0.93710948297E+02 0.  0.
         23    2    4    4    0    0  0.58924010964E+02 -0.20607581157E+03 -0.25891483589E+03  0.34863972239E+03  0.92593113165E+02 0.  0.
          2    1    3    3  502    0  0.22387053819E+02  0.37873647449E+02 -0.15870635411E+03  0.16469153040E+03  0.00000000000E+00 0. -1.
         -1    1    3    3    0  502  0.24696547876E+03  0.67486206818E+02 -0.88153362069E+03  0.91795852859E+03  0.00000000000E+00 0.  1.
         13    1    5    5    0    0 -0.27191331767E+03  0.11866370713E+03  0.44750255141E+03  0.53691383036E+03  0.00000000000E+00 0.  1.
        -13    1    5    5    0    0 -0.56363225872E+02 -0.17947749827E+02  0.96464068975E+02  0.11315587284E+03  0.00000000000E+00 0. -1.
          3    1    6    6  503    0  0.43982209213E+02 -0.29436925707E+02 -0.36816284797E+02  0.64470195816E+02  0.00000000000E+00 0. -1.
         -3    1    6    6    0  503  0.14941801751E+02 -0.17663888586E+03 -0.22209855109E+03  0.28416952658E+03  0.00000000000E+00 0.  1.
<mgrwt>
<rscale>  0 0.19395226E+04</rscale>
<asrwt>0</asrwt>
<pdfrwt beam="1">  1        2 0.10201318E+00 0.19395226E+04</pdfrwt>
<pdfrwt beam="2">  1       -1 0.21819597E+00 0.19395226E+04</pdfrwt>
<totfact> 0.52902820E+00</totfact>
</mgrwt>
</event>
<event>
12    7  0.1698542E-007  0.1451014E+04  0.7818608E-02  0.8917698E-01
         -1   -1    0    0    0  501 -0.00000000000E+00  0.00000000000E+00  0.67267371711E+03  0.67267371711E+03  0.00000000000E+00 0.  1.
          2   -1    0    0  501    0  0.00000000000E+00 -0.00000000000E+00 -0.78248962630E+03  0.78248962630E+03  0.00000000000E+00 0. -1.
         24    2    1    2    0    0 -0.15391423069E+03 -0.24132394235E+03 -0.36126450075E+03  0.46823613341E+03  0.82499706474E+02 0.  0.
        254    2    1    2    0    0  0.15391423069E+03  0.24132394235E+03  0.25144859156E+03  0.98692721001E+03  0.91042412539E+03 0.  0.
         23    2    4    4    0    0 -0.68502962678E+02  0.49468229321E+03  0.35918773233E+03  0.62194568232E+03  0.91637206398E+02 0.  0.
         23    2    4    4    0    0  0.22241719336E+03 -0.25335835086E+03 -0.10773914077E+03  0.36498152768E+03  0.89128734101E+02 0.  0.
          2    1    3    3  502    0 -0.15933610704E+03 -0.23621975290E+03 -0.32950804843E+03  0.43561831992E+03  0.00000000000E+00 0. -1.
         -1    1    3    3    0  502  0.54218763502E+01 -0.51041894470E+01 -0.31756452318E+02  0.32617813490E+02  0.00000000000E+00 0.  1.
         13    1    5    5    0    0 -0.78904192453E+02  0.46618049977E+03  0.35514777657E+03  0.59133752896E+03  0.00000000000E+00 0. -1.
        -13    1    5    5    0    0  0.10401229775E+02  0.28501793434E+02  0.40399557623E+01  0.30608153364E+02  0.00000000000E+00 0.  1.
          2    1    6    6  503    0  0.15325350224E+03 -0.20614018664E+03 -0.11394939317E+03  0.28100689796E+03  0.00000000000E+00 0. -1.
         -2    1    6    6    0  503  0.69163691125E+02 -0.47218164218E+02  0.62102524038E+01  0.83974629723E+02  0.00000000000E+00 0.  1.
<mgrwt>
<rscale>  0 0.14510137E+04</rscale>
<asrwt>0</asrwt>
<pdfrwt beam="1">  1        2 0.12038302E+00 0.14510137E+04</pdfrwt>
<pdfrwt beam="2">  1       -1 0.10348826E+00 0.14510137E+04</pdfrwt>
<totfact> 0.34599283E+01</totfact>
</mgrwt>
</event>
<event>
12    7  0.1698542E-007  0.1257200E+04  0.7818608E-02  0.9064212E-01
         -1   -1    0    0    0  501 -0.00000000000E+00  0.00000000000E+00  0.60907066430E+03  0.60907066430E+03  0.00000000000E+00 0.  1.
          2   -1    0    0  501    0  0.00000000000E+00 -0.00000000000E+00 -0.64875591048E+03  0.64875591048E+03  0.00000000000E+00 0. -1.
         24    2    1    2    0    0 -0.29087258654E+02  0.28129272391E+03  0.41305928769E+02  0.30097572225E+03  0.94385064995E+02 0.  0.
        254    2    1    2    0    0  0.29087258654E+02 -0.28129272391E+03 -0.80991174941E+02  0.95685085253E+03  0.91051211877E+03 0.  0.
         23    2    4    4    0    0 -0.62657991512E+02 -0.47647806167E+03 -0.34968288232E+03  0.60032518999E+03  0.84586336907E+02 0.  0.
         23    2    4    4    0    0  0.91745250166E+02  0.19518533776E+03  0.26869170738E+03  0.35652566254E+03  0.91655918691E+02 0.  0.
          2    1    3    3  502    0 -0.14322681998E+02  0.21142069349E+03  0.71213274515E+02  0.22355129013E+03  0.00000000000E+00 0. -1.
         -1    1    3    3    0  502 -0.14764576656E+02  0.69872030422E+02 -0.29907345746E+02  0.77424432117E+02  0.00000000000E+00 0.  1.
         13    1    5    5    0    0 -0.16964033706E+02 -0.25003939560E+03 -0.23000495563E+03  0.34016136966E+03  0.00000000000E+00 0.  1.
        -13    1    5    5    0    0 -0.45693957805E+02 -0.22643866607E+03 -0.11967792668E+03  0.26016382033E+03  0.00000000000E+00 0. -1.
          2    1    6    6  503    0 -0.41512556417E+01  0.61456239777E+02  0.35426938877E+02  0.71057514234E+02  0.00000000000E+00 0. -1.
         -2    1    6    6    0  503  0.95896505807E+02  0.13372909799E+03  0.23326476850E+03  0.28546814831E+03  0.00000000000E+00 0.  1.
<mgrwt>
<rscale>  0 0.12572004E+04</rscale>
<asrwt>0</asrwt>
<pdfrwt beam="1">  1        2 0.99808601E-01 0.12572004E+04</pdfrwt>
<pdfrwt beam="2">  1       -1 0.93703180E-01 0.12572004E+04</pdfrwt>
<totfact> 0.55928121E+01</totfact>
</mgrwt>
</event>
<event>
12    7  0.1698542E-007  0.1174133E+04  0.7818608E-02  0.9135804E-01
         -1   -1    0    0    0  501 -0.00000000000E+00  0.00000000000E+00  0.24517798592E+03  0.24517798592E+03  0.00000000000E+00 0.  1.
          2   -1    0    0  501    0  0.00000000000E+00 -0.00000000000E+00 -0.14057021008E+04  0.14057021008E+04  0.00000000000E+00 0. -1.
         24    2    1    2    0    0 -0.31740019940E+02 -0.23424911572E+03 -0.13044391605E+03  0.28016873229E+03  0.74825304807E+02 0.  0.
        254    2    1    2    0    0  0.31740019940E+02  0.23424911572E+03 -0.10300801989E+04  0.13707113545E+04  0.87287131014E+03 0.  0.
         23    2    4    4    0    0 -0.17879602545E+03 -0.26301773653E+03 -0.23919622367E+03  0.40787415343E+03  0.89443519450E+02 0.  0.
         23    2    4    4    0    0  0.21053604539E+03  0.49726685225E+03 -0.79088397519E+03  0.96283720102E+03  0.99791105347E+02 0.  0.
          4    1    3    3  502    0 -0.47836828674E+02 -0.12116126230E+03 -0.92648998959E+02  0.15985071369E+03  0.00000000000E+00 0. -1.
         -3    1    3    3    0  502  0.16096808734E+02 -0.11308785342E+03 -0.37794917092E+02  0.12031801860E+03  0.00000000000E+00 0.  1.
         13    1    5    5    0    0  0.74639494048E+01 -0.90184831873E+01 -0.23102343375E+02  0.25899070430E+02  0.00000000000E+00 0.  1.
        -13    1    5    5    0    0 -0.18625997485E+03 -0.25399925335E+03 -0.21609388030E+03  0.38197508300E+03  0.00000000000E+00 0. -1.
          1    1    6    6  503    0  0.19866516347E+03  0.36254341145E+03 -0.57803314026E+03  0.71065313874E+03  0.00000000000E+00 0. -1.
         -1    1    6    6    0  503  0.11870881915E+02  0.13472344080E+03 -0.21285083493E+03  0.25218406229E+03  0.00000000000E+00 0.  1.
<mgrwt>
<rscale>  0 0.11741332E+04</rscale>
<asrwt>0</asrwt>
<pdfrwt beam="1">  1        2 0.21626186E+00 0.11741332E+04</pdfrwt>
<pdfrwt beam="2">  1       -1 0.37719690E-01 0.11741332E+04</pdfrwt>
<totfact> 0.10959318E+02</totfact>
</mgrwt>
</event>
<event>
12    7  0.1698542E-007  0.2676922E+04  0.7818608E-02  0.8342532E-01
          2   -1    0    0  501    0  0.00000000000E+00  0.00000000000E+00  0.43516888154E+04  0.43516888154E+04  0.00000000000E+00 0. -1.
         -1   -1    0    0    0  501 -0.00000000000E+00 -0.00000000000E+00 -0.41167427126E+03  0.41167427126E+03  0.00000000000E+00 0.  1.
         24    2    1    2    0    0 -0.11455777670E+04 -0.29894922618E+03  0.16699913013E+04  0.20486892968E+04  0.80856839093E+02 0.  0.
        254    2    1    2    0    0  0.11455777670E+04  0.29894922618E+03  0.22700232429E+04  0.27146737898E+04  0.90262351060E+03 0.  0.
         23    2    4    4    0    0  0.12153024560E+04  0.18612603474E+03  0.15723750593E+04  0.19982742352E+04  0.95570033322E+02 0.  0.
         23    2    4    4    0    0 -0.69724689010E+02  0.11282319145E+03  0.69764818357E+03  0.71639955469E+03  0.94470784552E+02 0.  0.
          4    1    3    3  502    0 -0.19311739228E+03 -0.21371312848E+02  0.25619500958E+03  0.32153840074E+03  0.00000000000E+00 0. -1.
         -3    1    3    3    0  502 -0.95246037476E+03 -0.27757791334E+03  0.14137962917E+04  0.17271508961E+04  0.00000000000E+00 0.  1.
         13    1    5    5    0    0  0.60567276561E+03  0.13577971248E+03  0.82723858546E+03  0.10342143427E+04  0.00000000000E+00 0.  1.
        -13    1    5    5    0    0  0.60962969044E+03  0.50346322252E+02  0.74513647384E+03  0.96405989247E+03  0.00000000000E+00 0. -1.
          3    1    6    6  503    0 -0.46000302071E+02  0.12053404999E+03  0.64932018746E+03  0.66201298389E+03  0.00000000000E+00 0. -1.
         -3    1    6    6    0  503 -0.23724386939E+02 -0.77108585406E+01  0.48327996103E+02  0.54386570791E+02  0.00000000000E+00 0.  1.
<mgrwt>
<rscale>  0 0.26769224E+04</rscale>
<asrwt>0</asrwt>
<pdfrwt beam="1">  1        2 0.66949055E+00 0.26769224E+04</pdfrwt>
<pdfrwt beam="2">  1       -1 0.63334506E-01 0.26769224E+04</pdfrwt>
<totfact> 0.43116122E-01</totfact>
</mgrwt>
</event>
<event>
12    7  0.1698542E-007  0.1484969E+04  0.7818608E-02  0.8894510E-01
          2   -1    0    0  501    0  0.00000000000E+00  0.00000000000E+00  0.30033840261E+04  0.30033840261E+04  0.00000000000E+00 0. -1.
         -1   -1    0    0    0  501 -0.00000000000E+00 -0.00000000000E+00 -0.18355405124E+03  0.18355405124E+03  0.00000000000E+00 0.  1.
         24    2    1    2    0    0  0.87756135587E+02  0.20340644084E+03  0.19579296533E+02  0.23659681643E+03  0.80742709798E+02 0.  0.
        254    2    1    2    0    0 -0.87756135587E+02 -0.20340644084E+03  0.28002506783E+04  0.29503412609E+04  0.90223853542E+03 0.  0.
         23    2    4    4    0    0  0.33325662334E+02 -0.50159689588E+03  0.10424007374E+04  0.11609071828E+04  0.91630475395E+02 0.  0.
         23    2    4    4    0    0 -0.12108179792E+03  0.29819045504E+03  0.17578499409E+04  0.17894340781E+04  0.91975843563E+02 0.  0.
          2    1    3    3  502    0 -0.56564225470E-01  0.19265523840E+02  0.26153886985E+02  0.32483679176E+02  0.00000000000E+00 0. -1.
         -1    1    3    3    0  502  0.87812699812E+02  0.18414091700E+03 -0.65745904521E+01  0.20411313726E+03  0.00000000000E+00 0.  1.
         13    1    5    5    0    0  0.20889811149E+01 -0.45429751150E+03  0.92708925164E+03  0.10324171024E+04  0.00000000000E+00 0. -1.
        -13    1    5    5    0    0  0.31236681220E+02 -0.47299384377E+02  0.11531148577E+03  0.12849008042E+03  0.00000000000E+00 0.  1.
          1    1    6    6  503    0  0.10786430293E+02  0.94386254022E+01  0.39750196978E+02  0.42255329696E+02  0.00000000000E+00 0.  1.
         -1    1    6    6    0  503 -0.13186822821E+03  0.28875182964E+03  0.17180997439E+04  0.17471787484E+04  0.00000000000E+00 0. -1.
<mgrwt>
<rscale>  0 0.14849691E+04</rscale>
<asrwt>0</asrwt>
<pdfrwt beam="1">  1        2 0.46205905E+00 0.14849691E+04</pdfrwt>
<pdfrwt beam="2">  1       -1 0.28239087E-01 0.14849691E+04</pdfrwt>
<totfact> 0.21816376E+01</totfact>
</mgrwt>
</event>
<event>
12    7  0.1698542E-007  0.2443806E+04  0.7818608E-02  0.8423283E-01
         -1   -1    0    0    0  501 -0.00000000000E+00  0.00000000000E+00  0.60200627078E+03  0.60200627078E+03  0.00000000000E+00 0.  1.
          2   -1    0    0  501    0  0.00000000000E+00 -0.00000000000E+00 -0.24801191990E+04  0.24801191990E+04  0.00000000000E+00 0. -1.
         24    2    1    2    0    0  0.89383054098E+03  0.37223766800E+03 -0.28413566693E+03  0.10123025257E+04  0.80804757599E+02 0.  0.
        254    2    1    2    0    0 -0.89383054098E+03 -0.37223766800E+03 -0.15939772612E+04  0.20698229440E+04  0.89772467541E+03 0.  0.
         23    2    4    4    0    0 -0.66977464777E+03  0.16573469470E+03 -0.62430062543E+03  0.93488743821E+03  0.90538297964E+02 0.  0.
         23    2    4    4    0    0 -0.22405589321E+03 -0.53797236271E+03 -0.96967663581E+03  0.11349355058E+04  0.90501480728E+02 0.  0.
          4    1    3    3  502    0  0.16372065172E+03  0.10055582856E+03 -0.68622684712E+02  0.20402205595E+03  0.00000000000E+00 0. -1.
         -3    1    3    3    0  502  0.73010988925E+03  0.27168183945E+03 -0.21551298222E+03  0.80828046975E+03  0.00000000000E+00 0.  1.
         13    1    5    5    0    0 -0.64698504764E+03  0.15807282647E+03 -0.62100907371E+03  0.91062008542E+03  0.00000000000E+00 0.  1.
        -13    1    5    5    0    0 -0.22789600127E+02  0.76618682318E+01 -0.32915517123E+01  0.24267352790E+02  0.00000000000E+00 0. -1.
          3    1    6    6  503    0 -0.38245208230E+02 -0.52330377139E+02 -0.16049494526E+03  0.17308897070E+03  0.00000000000E+00 0. -1.
         -3    1    6    6    0  503 -0.18581068498E+03 -0.48564198557E+03 -0.80918169056E+03  0.96184653513E+03  0.00000000000E+00 0.  1.
<mgrwt>
<rscale>  0 0.24438063E+04</rscale>
<asrwt>0</asrwt>
<pdfrwt beam="1">  1        2 0.38155680E+00 0.24438063E+04</pdfrwt>
<pdfrwt beam="2">  1       -1 0.92616350E-01 0.24438063E+04</pdfrwt>
<totfact> 0.41290082E+00</totfact>
</mgrwt>
</event>
<event>
12    7  0.1698542E-007  0.1253769E+04  0.7818608E-02  0.9067052E-01
          2   -1    0    0  501    0  0.00000000000E+00  0.00000000000E+00  0.10287366626E+04  0.10287366626E+04  0.00000000000E+00 0. -1.
         -1   -1    0    0    0  501 -0.00000000000E+00 -0.00000000000E+00 -0.38200666368E+03  0.38200666368E+03  0.00000000000E+00 0.  1.
         24    2    1    2    0    0 -0.38847290717E+02 -0.19218866663E+03  0.41569341780E+03  0.46652679019E+03  0.80003954812E+02 0.  0.
        254    2    1    2    0    0  0.38847290717E+02  0.19218866663E+03  0.23103658111E+03  0.94421653608E+03  0.89427141831E+03 0.  0.
         23    2    4    4    0    0 -0.33517081587E+02 -0.12344473619E+03 -0.28601281176E+03  0.32705568623E+03  0.93808825538E+02 0.  0.
         23    2    4    4    0    0  0.72364372304E+02  0.31563340281E+03  0.51704939288E+03  0.61716084985E+03  0.93200818459E+02 0.  0.
          4    1    3    3  502    0 -0.45795975900E+02 -0.65412718419E+02  0.21158053538E+03  0.22614689494E+03  0.00000000000E+00 0. -1.
         -3    1    3    3    0  502  0.69486851839E+01 -0.12677594821E+03  0.20411288243E+03  0.24037989525E+03  0.00000000000E+00 0.  1.
         13    1    5    5    0    0  0.12111791440E+02  0.10021667449E+02 -0.16054414626E+02  0.22469391165E+02  0.00000000000E+00 0. -1.
        -13    1    5    5    0    0 -0.45628873027E+02 -0.13346640364E+03 -0.26995839714E+03  0.30458629506E+03  0.00000000000E+00 0.  1.
          2    1    6    6  503    0 -0.12165736973E+02  0.14083715403E+03  0.24637250424E+03  0.28404668623E+03  0.00000000000E+00 0. -1.
         -2    1    6    6    0  503  0.84530109277E+02  0.17479624878E+03  0.27067688864E+03  0.33311416362E+03  0.00000000000E+00 0.  1.
<mgrwt>
<rscale>  0 0.12537691E+04</rscale>
<asrwt>0</asrwt>
<pdfrwt beam="1">  1        2 0.15826718E+00 0.12537691E+04</pdfrwt>
<pdfrwt beam="2">  1       -1 0.58770256E-01 0.12537691E+04</pdfrwt>
<totfact> 0.79457049E+01</totfact>
</mgrwt>
</event>
<event>
12    7  0.1698542E-007  0.2151533E+04  0.7818608E-02  0.8538876E-01
         -1   -1    0    0    0  501 -0.00000000000E+00  0.00000000000E+00  0.84029629910E+03  0.84029629910E+03  0.00000000000E+00 0.  1.
          2   -1    0    0  501    0  0.00000000000E+00 -0.00000000000E+00 -0.13772205204E+04  0.13772205204E+04  0.00000000000E+00 0. -1.
         24    2    1    2    0    0  0.81810733511E+03 -0.13136746128E+03  0.11605741388E+03  0.84038991091E+03  0.78923110686E+02 0.  0.
        254    2    1    2    0    0 -0.81810733511E+03  0.13136746128E+03 -0.65298163515E+03  0.13771269086E+04  0.88517596263E+03 0.  0.
         23    2    4    4    0    0 -0.50612475485E+03  0.52120001734E+02 -0.84642627594E+03  0.99135508926E+03  0.86421700704E+02 0.  0.
         23    2    4    4    0    0 -0.31198258026E+03  0.79247459549E+02  0.19344464079E+03  0.38577181931E+03  0.88237051708E+02 0.  0.
          4    1    3    3  502    0  0.43604571221E+03 -0.10493098040E+03  0.43455288230E+02  0.45059375924E+03  0.00000000000E+00 0. -1.
         -3    1    3    3    0  502  0.38206162289E+03 -0.26436480883E+02  0.72602125653E+02  0.38979615167E+03  0.00000000000E+00 0.  1.
         13    1    5    5    0    0 -0.43373470086E+03  0.73947548314E+02 -0.70650868795E+03  0.83231517875E+03  0.00000000000E+00 0. -1.
        -13    1    5    5    0    0 -0.72390053992E+02 -0.21827546580E+02 -0.13991758799E+03  0.15903991051E+03  0.00000000000E+00 0.  1.
          3    1    6    6  503    0 -0.30971154578E+03  0.73923204899E+02  0.16866387888E+03  0.36032400121E+03  0.00000000000E+00 0. -1.
         -3    1    6    6    0  503 -0.22710344807E+01  0.53242546507E+01  0.24780761908E+02  0.25447818098E+02  0.00000000000E+00 0.  1.
<mgrwt>
<rscale>  0 0.21515328E+04</rscale>
<asrwt>0</asrwt>
<pdfrwt beam="1">  1        2 0.21188008E+00 0.21515328E+04</pdfrwt>
<pdfrwt beam="2">  1       -1 0.12927635E+00 0.21515328E+04</pdfrwt>
<totfact> 0.80219692E+00</totfact>
</mgrwt>
</event>
<event>
12    7  0.1698542E-007  0.1843205E+04  0.7818608E-02  0.8683655E-01
          2   -1    0    0  501    0  0.00000000000E+00  0.00000000000E+00  0.17867108381E+04  0.17867108381E+04  0.00000000000E+00 0. -1.
         -1   -1    0    0    0  501 -0.00000000000E+00 -0.00000000000E+00 -0.47537135904E+03  0.47537135904E+03  0.00000000000E+00 0.  1.
         24    2    1    2    0    0  0.10992059278E+03  0.53525244196E+03 -0.37481112477E+02  0.55318077983E+03  0.77630071782E+02 0.  0.
        254    2    1    2    0    0 -0.10992059278E+03 -0.53525244196E+03  0.13488205915E+04  0.17089014173E+04  0.89579537426E+03 0.  0.
         23    2    4    4    0    0 -0.10843045126E+03  0.23441787040E+03  0.37984666406E+03  0.46805149284E+03  0.89887769069E+02 0.  0.
         23    2    4    4    0    0 -0.14901415186E+01 -0.76967031236E+03  0.96897392746E+03  0.12408499244E+04  0.91670347702E+02 0.  0.
          2    1    3    3  502    0  0.17732649703E+02  0.89386763773E+02  0.22728965455E+02  0.93920425223E+02  0.00000000000E+00 0. -1.
         -1    1    3    3    0  502  0.92187943075E+02  0.44586567819E+03 -0.60210077933E+02  0.45926035461E+03  0.00000000000E+00 0.  1.
         13    1    5    5    0    0  0.86902516147E+01  0.58337243760E+01  0.12310137551E+01  0.10538890268E+02  0.00000000000E+00 0. -1.
        -13    1    5    5    0    0 -0.11712070287E+03  0.22858414602E+03  0.37861565031E+03  0.45751260257E+03  0.00000000000E+00 0.  1.
          2    1    6    6  503    0 -0.30421144318E+02 -0.60200531071E+03  0.71542048695E+03  0.93550110278E+03  0.00000000000E+00 0.  1.
         -2    1    6    6    0  503  0.28931002799E+02 -0.16766500165E+03  0.25355344051E+03  0.30534882167E+03  0.00000000000E+00 0. -1.
<mgrwt>
<rscale>  0 0.18432050E+04</rscale>
<asrwt>0</asrwt>
<pdfrwt beam="1">  1        2 0.27487859E+00 0.18432050E+04</pdfrwt>
<pdfrwt beam="2">  1       -1 0.73134056E-01 0.18432050E+04</pdfrwt>
<totfact> 0.17721596E+01</totfact>
</mgrwt>
</event>
<event>
12    7  0.1698542E-007  0.1937254E+04  0.7818608E-02  0.8636532E-01
         -1   -1    0    0    0  501 -0.00000000000E+00  0.00000000000E+00  0.74092310112E+03  0.74092310112E+03  0.00000000000E+00 0.  1.
          2   -1    0    0  501    0  0.00000000000E+00 -0.00000000000E+00 -0.12663094955E+04  0.12663094955E+04  0.00000000000E+00 0. -1.
         24    2    1    2    0    0 -0.65878034632E+03  0.36449412507E+03 -0.18833777591E+03  0.78040993950E+03  0.81981973135E+02 0.  0.
        254    2    1    2    0    0  0.65878034632E+03 -0.36449412507E+03 -0.33704861847E+03  0.12268226571E+04  0.90809941576E+03 0.  0.
         23    2    4    4    0    0  0.68193957993E+03 -0.44069683950E+03  0.52728605557E+02  0.81893449498E+03  0.92833755770E+02 0.  0.
         23    2    4    4    0    0 -0.23159233605E+02  0.76202714431E+02 -0.38977722403E+03  0.40788816214E+03  0.90018135137E+02 0.  0.
          4    1    3    3  502    0 -0.50638053917E+03  0.24407644461E+03 -0.12253604080E+03  0.57533437456E+03  0.00000000000E+00 0. -1.
         -3    1    3    3    0  502 -0.15239980715E+03  0.12041768046E+03 -0.65801735111E+02  0.20507556493E+03  0.00000000000E+00 0.  1.
         13    1    5    5    0    0  0.35728816203E+03 -0.22201466237E+03  0.73179839823E+02  0.42696677855E+03  0.00000000000E+00 0. -1.
        -13    1    5    5    0    0  0.32465141790E+03 -0.21868217713E+03 -0.20451234265E+02  0.39196771643E+03  0.00000000000E+00 0.  1.
          3    1    6    6  503    0 -0.34595151190E+02  0.50942444663E+01 -0.22981084779E+03  0.23245602073E+03  0.00000000000E+00 0. -1.
         -3    1    6    6    0  503  0.11435917585E+02  0.71108469964E+02 -0.15996637624E+03  0.17543214141E+03  0.00000000000E+00 0.  1.
<mgrwt>
<rscale>  0 0.19372537E+04</rscale>
<asrwt>0</asrwt>
<pdfrwt beam="1">  1        2 0.19481685E+00 0.19372537E+04</pdfrwt>
<pdfrwt beam="2">  1       -1 0.11398817E+00 0.19372537E+04</pdfrwt>
<totfact> 0.12913075E+01</totfact>
</mgrwt>
</event>
<event>
12    7  0.1698542E-007  0.1463155E+04  0.7818608E-02  0.8909331E-01
         -1   -1    0    0    0  501 -0.00000000000E+00  0.00000000000E+00  0.45412528828E+03  0.45412528828E+03  0.00000000000E+00 0.  1.
          2   -1    0    0  501    0  0.00000000000E+00 -0.00000000000E+00 -0.11785414894E+04  0.11785414894E+04  0.00000000000E+00 0. -1.
         24    2    1    2    0    0 -0.14854051469E+03  0.43326360754E+03 -0.19353784050E+03  0.50359039211E+03  0.79779378256E+02 0.  0.
        254    2    1    2    0    0  0.14854051469E+03 -0.43326360754E+03 -0.53087836060E+03  0.11290763856E+04  0.88498588268E+03 0.  0.
         23    2    4    4    0    0  0.32152286954E+03 -0.17816156053E+03  0.12450317618E+03  0.39864246853E+03  0.91083914880E+02 0.  0.
         23    2    4    4    0    0 -0.17298235485E+03 -0.25510204701E+03 -0.65538153677E+03  0.73043391703E+03  0.94914692881E+02 0.  0.
          4    1    3    3  502    0 -0.47568710090E+01  0.22208943697E+00 -0.11288622625E+02  0.12251944592E+02  0.00000000000E+00 0. -1.
         -3    1    3    3    0  502 -0.14378364368E+03  0.43304151810E+03 -0.18224921788E+03  0.49133844752E+03  0.00000000000E+00 0.  1.
         13    1    5    5    0    0  0.25192106068E+03 -0.12568430698E+03  0.13241097998E+03  0.31111643070E+03  0.00000000000E+00 0.  1.
        -13    1    5    5    0    0  0.69601808859E+02 -0.52477253549E+02 -0.79078037998E+01  0.87526037825E+02  0.00000000000E+00 0. -1.
          2    1    6    6  503    0 -0.45744787546E+02 -0.15200558205E+03 -0.32363480085E+03  0.36046881541E+03  0.00000000000E+00 0. -1.
         -2    1    6    6    0  503 -0.12723756730E+03 -0.10309646497E+03 -0.33174673593E+03  0.36996510162E+03  0.00000000000E+00 0.  1.
<mgrwt>
<rscale>  0 0.14631548E+04</rscale>
<asrwt>0</asrwt>
<pdfrwt beam="1">  1        2 0.18131408E+00 0.14631548E+04</pdfrwt>
<pdfrwt beam="2">  1       -1 0.69865429E-01 0.14631548E+04</pdfrwt>
<totfact> 0.44653797E+01</totfact>
</mgrwt>
</event>
<event>
12    7  0.1698542E-007  0.2791399E+04  0.7818608E-02  0.8305944E-01
          2   -1    0    0  501    0  0.00000000000E+00  0.00000000000E+00  0.28676177475E+04  0.28676177475E+04  0.00000000000E+00 0. -1.
         -1   -1    0    0    0  501 -0.00000000000E+00 -0.00000000000E+00 -0.67930154632E+03  0.67930154632E+03  0.00000000000E+00 0.  1.
         24    2    1    2    0    0  0.58097709879E+02 -0.70220691855E+03 -0.32411030833E+03  0.77959295356E+03  0.79042905578E+02 0.  0.
        254    2    1    2    0    0 -0.58097709879E+02  0.70220691855E+03  0.25124265095E+04  0.27673263402E+04  0.92159546840E+03 0.  0.
         23    2    4    4    0    0 -0.39776019623E+03  0.79193671596E+02  0.64055248786E+03  0.76346209808E+03  0.89900356949E+02 0.  0.
         23    2    4    4    0    0  0.33966248635E+03  0.62301324695E+03  0.18718740216E+04  0.20038642422E+04  0.89685213844E+02 0.  0.
          2    1    3    3  502    0  0.47075650739E+02 -0.16617743130E+03 -0.71759477522E+02  0.18703068780E+03  0.00000000000E+00 0. -1.
         -1    1    3    3    0  502  0.11022059140E+02 -0.53602948725E+03 -0.25235083081E+03  0.59256226576E+03  0.00000000000E+00 0.  1.
         13    1    5    5    0    0 -0.35961316363E+03  0.44217051763E+02  0.53863594439E+03  0.64915749685E+03  0.00000000000E+00 0.  1.
        -13    1    5    5    0    0 -0.38147032602E+02  0.34976619833E+02  0.10191654347E+03  0.11430460124E+03  0.00000000000E+00 0. -1.
          3    1    6    6  503    0  0.43590212710E+01  0.82368003567E+01  0.64544820803E+01  0.11336061286E+02  0.00000000000E+00 0. -1.
         -3    1    6    6    0  503  0.33530346508E+03  0.61477644660E+03  0.18654195396E+04  0.19925281809E+04  0.00000000000E+00 0.  1.
<mgrwt>
<rscale>  0 0.27913991E+04</rscale>
<asrwt>0</asrwt>
<pdfrwt beam="1">  1        2 0.44117196E+00 0.27913991E+04</pdfrwt>
<pdfrwt beam="2">  1       -1 0.10450793E+00 0.27913991E+04</pdfrwt>
<totfact> 0.17910252E+00</totfact>
</mgrwt>
</event>
<event>
12    7  0.1698542E-007  0.2401979E+04  0.7818608E-02  0.8438763E-01
         -1   -1    0    0    0  501 -0.00000000000E+00  0.00000000000E+00  0.99836181808E+03  0.99836181808E+03  0.00000000000E+00 0.  1.
          2   -1    0    0  501    0  0.00000000000E+00 -0.00000000000E+00 -0.14447429149E+04  0.14447429149E+04  0.00000000000E+00 0. -1.
         24    2    1    2    0    0  0.68625762828E+03  0.34984850129E+03 -0.89036533672E+03  0.11798539154E+04  0.77209601607E+02 0.  0.
        254    2    1    2    0    0 -0.68625762828E+03 -0.34984850129E+03  0.44398423993E+03  0.12632508176E+04  0.89740577028E+03 0.  0.
         23    2    4    4    0    0 -0.14230671714E+03 -0.19070392941E+03  0.61394608270E+03  0.66484286853E+03  0.92016612308E+02 0.  0.
         23    2    4    4    0    0 -0.54395091114E+03 -0.15914457189E+03 -0.16996184277E+03  0.59840794903E+03  0.89417319230E+02 0.  0.
          2    1    3    3  502    0  0.64377023857E+03  0.32784727968E+03 -0.86004289954E+03  0.11232086840E+04  0.00000000000E+00 0. -1.
         -1    1    3    3    0  502  0.42487389706E+02  0.22001221618E+02 -0.30322437179E+02  0.56645231336E+02  0.00000000000E+00 0.  1.
         13    1    5    5    0    0 -0.10027147325E+03 -0.18220667315E+03  0.45618218446E+03  0.50135399221E+03  0.00000000000E+00 0. -1.
        -13    1    5    5    0    0 -0.42035243895E+02 -0.84972562609E+01  0.15776389824E+03  0.16348887632E+03  0.00000000000E+00 0.  1.
          3    1    6    6  503    0 -0.34326185165E+03 -0.56774599046E+02 -0.90352109458E+02  0.35946565564E+03  0.00000000000E+00 0. -1.
         -3    1    6    6    0  503 -0.20068905948E+03 -0.10236997284E+03 -0.79609733308E+02  0.23894229340E+03  0.00000000000E+00 0.  1.
<mgrwt>
<rscale>  0 0.24019793E+04</rscale>
<asrwt>0</asrwt>
<pdfrwt beam="1">  1        2 0.22226814E+00 0.24019793E+04</pdfrwt>
<pdfrwt beam="2">  1       -1 0.15359413E+00 0.24019793E+04</pdfrwt>
<totfact> 0.45724083E+00</totfact>
</mgrwt>
</event>
<event>
12    7  0.1698542E-007  0.2310766E+04  0.7818608E-02  0.8473688E-01
          2   -1    0    0  501    0  0.00000000000E+00  0.00000000000E+00  0.10316674483E+04  0.10316674483E+04  0.00000000000E+00 0. -1.
         -1   -1    0    0    0  501 -0.00000000000E+00 -0.00000000000E+00 -0.12939340570E+04  0.12939340570E+04  0.00000000000E+00 0.  1.
         24    2    1    2    0    0 -0.80169506820E+03  0.35665322849E+03  0.28677920393E+03  0.92720719992E+03  0.86915890412E+02 0.  0.
        254    2    1    2    0    0  0.80169506820E+03 -0.35665322849E+03 -0.54904581261E+03  0.13983943054E+04  0.94028656345E+03 0.  0.
         23    2    4    4    0    0  0.71938456279E+03 -0.14287805149E+03  0.59438414797E+02  0.74139432031E+03  0.90577736017E+02 0.  0.
         23    2    4    4    0    0  0.82310505406E+02 -0.21377517700E+03 -0.60848422740E+03  0.65699998513E+03  0.94451468286E+02 0.  0.
          2    1    3    3  502    0 -0.54221392296E+02  0.16425956145E+01  0.17968026715E+02  0.57144619055E+02  0.00000000000E+00 0. -1.
         -1    1    3    3    0  502 -0.74747367590E+03  0.35501063288E+03  0.26881117722E+03  0.87006258086E+03  0.00000000000E+00 0.  1.
         13    1    5    5    0    0  0.69037068307E+03 -0.13709125574E+03  0.75227663692E+02  0.70785937433E+03  0.00000000000E+00 0. -1.
        -13    1    5    5    0    0  0.29013879720E+02 -0.57867957517E+01 -0.15789248895E+02  0.33534945984E+02  0.00000000000E+00 0.  1.
          3    1    6    6  503    0  0.94752961324E+02 -0.15842426018E+03 -0.52094885092E+03  0.55268804507E+03  0.00000000000E+00 0. -1.
         -3    1    6    6    0  503 -0.12442455919E+02 -0.55350916824E+02 -0.87535376486E+02  0.10431194006E+03  0.00000000000E+00 0.  1.
<mgrwt>
<rscale>  0 0.23107658E+04</rscale>
<asrwt>0</asrwt>
<pdfrwt beam="1">  1        2 0.15871807E+00 0.23107658E+04</pdfrwt>
<pdfrwt beam="2">  1       -1 0.19906678E+00 0.23107658E+04</pdfrwt>
<totfact> 0.37930893E+00</totfact>
</mgrwt>
</event>
<event>
12    7  0.1698542E-007  0.3161609E+04  0.7818608E-02  0.8199030E-01
          2   -1    0    0  501    0  0.00000000000E+00  0.00000000000E+00  0.42256691287E+04  0.42256691287E+04  0.00000000000E+00 0. -1.
         -1   -1    0    0    0  501 -0.00000000000E+00 -0.00000000000E+00 -0.59137228166E+03  0.59137228166E+03  0.00000000000E+00 0.  1.
         24    2    1    2    0    0  0.15836125817E+03  0.14009209803E+04  0.11640956817E+04  0.18300543484E+04  0.79512772027E+02 0.  0.
        254    2    1    2    0    0 -0.15836125817E+03 -0.14009209803E+04  0.24702011654E+04  0.29869870620E+04  0.91243631567E+03 0.  0.
         23    2    4    4    0    0  0.20430586723E+03 -0.21974368396E+03  0.13037468674E+03  0.33933466404E+03  0.90123699714E+02 0.  0.
         23    2    4    4    0    0 -0.36266712540E+03 -0.11811772963E+04  0.23398264786E+04  0.26476523980E+04  0.92563606309E+02 0.  0.
          2    1    3    3  502    0  0.12039055974E+03  0.10937715042E+04  0.95001128577E+03  0.14537370578E+04  0.00000000000E+00 0. -1.
         -1    1    3    3    0  502  0.37970698423E+02  0.30714947607E+03  0.21408439591E+03  0.37631729054E+03  0.00000000000E+00 0.  1.
         13    1    5    5    0    0  0.19722776072E+03 -0.16581441236E+03  0.95893023668E+02  0.27493395740E+03  0.00000000000E+00 0. -1.
        -13    1    5    5    0    0  0.70781065123E+01 -0.53929271601E+02  0.34481663071E+02  0.64400706637E+02  0.00000000000E+00 0.  1.
          1    1    6    6  503    0 -0.23086355537E+03 -0.88244114883E+03  0.16929763386E+04  0.19230624653E+04  0.00000000000E+00 0. -1.
         -1    1    6    6    0  503 -0.13180357003E+03 -0.29873614746E+03  0.64685014004E+03  0.72458993268E+03  0.00000000000E+00 0.  1.
<mgrwt>
<rscale>  0 0.31616095E+04</rscale>
<asrwt>0</asrwt>
<pdfrwt beam="1">  1        2 0.65010292E+00 0.31616095E+04</pdfrwt>
<pdfrwt beam="2">  1       -1 0.90980354E-01 0.31616095E+04</pdfrwt>
<totfact> 0.24940720E-01</totfact>
</mgrwt>
</event>
<event>
12    7  0.1698542E-007  0.1314513E+04  0.7818608E-02  0.9018135E-01
         -1   -1    0    0    0  501 -0.00000000000E+00  0.00000000000E+00  0.23636004087E+03  0.23636004087E+03  0.00000000000E+00 0.  1.
          2   -1    0    0  501    0  0.00000000000E+00 -0.00000000000E+00 -0.18276610256E+04  0.18276610256E+04  0.00000000000E+00 0. -1.
         24    2    1    2    0    0  0.11697776569E+03  0.21259334608E+02 -0.90353070254E+03  0.91485452790E+03  0.80345004930E+02 0.  0.
        254    2    1    2    0    0 -0.11697776569E+03 -0.21259334608E+02 -0.68777028221E+03  0.11491665386E+04  0.91291840564E+03 0.  0.
         23    2    4    4    0    0  0.23672983500E+03 -0.11471266446E+03  0.83377327728E+02  0.29100901327E+03  0.92382124133E+02 0.  0.
         23    2    4    4    0    0 -0.35370760069E+03  0.93453329849E+02 -0.77114760994E+03  0.85815752533E+03  0.89011854929E+02 0.  0.
          4    1    3    3  502    0  0.80592763772E+02  0.44594612490E+02 -0.73989237678E+03  0.74560351545E+03  0.00000000000E+00 0. -1.
         -3    1    3    3    0  502  0.36385001917E+02 -0.23335277881E+02 -0.16363832576E+03  0.16925101245E+03  0.00000000000E+00 0.  1.
         13    1    5    5    0    0  0.30671473484E+02  0.15104649769E+02  0.20632742876E+01  0.34251231089E+02  0.00000000000E+00 0. -1.
        -13    1    5    5    0    0  0.20605836151E+03 -0.12981731423E+03  0.81314053440E+02  0.25675778218E+03  0.00000000000E+00 0.  1.
          1    1    6    6  503    0 -0.33504715898E+02  0.90250158225E+01 -0.28064037057E+02  0.44627425132E+02  0.00000000000E+00 0. -1.
         -1    1    6    6    0  503 -0.32020288479E+03  0.84428314026E+02 -0.74308357288E+03  0.81353010019E+03  0.00000000000E+00 0.  1.
<mgrwt>
<rscale>  0 0.13145129E+04</rscale>
<asrwt>0</asrwt>
<pdfrwt beam="1">  1        2 0.28117861E+00 0.13145129E+04</pdfrwt>
<pdfrwt beam="2">  1       -1 0.36363084E-01 0.13145129E+04</pdfrwt>
<totfact> 0.67317774E+01</totfact>
</mgrwt>
</event>
<event>
12    7  0.1698542E-007  0.1838884E+04  0.7818608E-02  0.8685890E-01
         -1   -1    0    0    0  501 -0.00000000000E+00  0.00000000000E+00  0.23184286664E+03  0.23184286664E+03  0.00000000000E+00 0.  1.
          2   -1    0    0  501    0  0.00000000000E+00 -0.00000000000E+00 -0.36463211403E+04  0.36463211403E+04  0.00000000000E+00 0. -1.
         24    2    1    2    0    0 -0.70875120504E+02 -0.54218469591E+03 -0.39448174549E+03  0.67870465881E+03  0.77695811845E+02 0.  0.
        254    2    1    2    0    0  0.70875120504E+02  0.54218469591E+03 -0.30199965281E+04  0.31994593481E+04  0.90397652791E+03 0.  0.
         23    2    4    4    0    0  0.47345522790E+02  0.57763167507E+03 -0.88133410174E+03  0.10588501972E+04  0.92271288365E+02 0.  0.
         23    2    4    4    0    0  0.23529597713E+02 -0.35446979164E+02 -0.21386624264E+04  0.21406091509E+04  0.80749195180E+02 0.  0.
          4    1    3    3  502    0  0.16697672979E+01 -0.89044563771E+02 -0.97646208560E+02  0.13216090385E+03  0.00000000000E+00 0. -1.
         -3    1    3    3    0  502 -0.72544887802E+02 -0.45314013214E+03 -0.29683553693E+03  0.54654375496E+03  0.00000000000E+00 0.  1.
         13    1    5    5    0    0  0.34349431286E+02  0.21481698866E+03 -0.25778073844E+03  0.33730865859E+03  0.00000000000E+00 0. -1.
        -13    1    5    5    0    0  0.12996091505E+02  0.36281468641E+03 -0.62355336330E+03  0.72154153862E+03  0.00000000000E+00 0.  1.
          4    1    6    6  503    0 -0.11575438097E+02  0.10469642701E+02 -0.12357992349E+04  0.12358977924E+04  0.00000000000E+00 0. -1.
         -4    1    6    6    0  503  0.35105035810E+02 -0.45916621865E+02 -0.90286319146E+03  0.90471135850E+03  0.00000000000E+00 0.  1.
<mgrwt>
<rscale>  0 0.18388840E+04</rscale>
<asrwt>0</asrwt>
<pdfrwt beam="1">  1        2 0.56097247E+00 0.18388840E+04</pdfrwt>
<pdfrwt beam="2">  1       -1 0.35668134E-01 0.18388840E+04</pdfrwt>
<totfact> 0.51832519E+00</totfact>
</mgrwt>
</event>
<event>
12    7  0.1698542E-007  0.4471737E+04  0.7818608E-02  0.7915603E-01
         -1   -1    0    0    0  501 -0.00000000000E+00  0.00000000000E+00  0.17162563031E+04  0.17162563031E+04  0.00000000000E+00 0.  1.
          2   -1    0    0  501    0  0.00000000000E+00 -0.00000000000E+00 -0.29127983596E+04  0.29127983596E+04  0.00000000000E+00 0. -1.
         24    2    1    2    0    0 -0.16070366787E+03  0.11754813459E+04 -0.24222879578E+04  0.26984663602E+04  0.81606882391E+02 0.  0.
        254    2    1    2    0    0  0.16070366787E+03 -0.11754813459E+04  0.12257459014E+04  0.19305883025E+04  0.90395581495E+03 0.  0.
         23    2    4    4    0    0 -0.31493581649E+03 -0.15722800730E+03  0.29083679086E+03  0.46601645705E+03  0.93166971252E+02 0.  0.
         23    2    4    4    0    0  0.47563948436E+03 -0.10182533386E+04  0.93490911051E+03  0.14645718454E+04  0.88559950108E+02 0.  0.
          4    1    3    3  502    0 -0.15951172969E+03  0.92184581548E+03 -0.18969962137E+04  0.21151449913E+04  0.00000000000E+00 0. -1.
         -3    1    3    3    0  502 -0.11919381839E+01  0.25363553046E+03 -0.52529174407E+03  0.58332136890E+03  0.00000000000E+00 0.  1.
         13    1    5    5    0    0 -0.22439870057E+03 -0.15571723025E+03  0.22813527000E+03  0.35587685235E+03  0.00000000000E+00 0. -1.
        -13    1    5    5    0    0 -0.90537115911E+02 -0.15107770458E+01  0.62701520863E+02  0.11013960470E+03  0.00000000000E+00 0.  1.
          3    1    6    6  503    0  0.32278297621E+03 -0.74389818392E+03  0.71569601229E+03  0.10815702195E+04  0.00000000000E+00 0. -1.
         -3    1    6    6    0  503  0.15285650815E+03 -0.27435515473E+03  0.21921309822E+03  0.38300162589E+03  0.00000000000E+00 0.  1.
<mgrwt>
<rscale>  0 0.44717373E+04</rscale>
<asrwt>0</asrwt>
<pdfrwt beam="1">  1        2 0.44812282E+00 0.44717373E+04</pdfrwt>
<pdfrwt beam="2">  1       -1 0.26403943E+00 0.44717373E+04</pdfrwt>
<totfact> 0.96117956E-02</totfact>
</mgrwt>
</event>
<event>
12    7  0.1698542E-007  0.2202528E+04  0.7818608E-02  0.8517377E-01
         -1   -1    0    0    0  501 -0.00000000000E+00  0.00000000000E+00  0.15056662751E+04  0.15056662751E+04  0.00000000000E+00 0.  1.
          2   -1    0    0  501    0  0.00000000000E+00 -0.00000000000E+00 -0.80547890138E+03  0.80547890138E+03  0.00000000000E+00 0. -1.
         24    2    1    2    0    0 -0.87229373336E+03 -0.10139693807E+01  0.56979977325E+03  0.10450009041E+04  0.80359955719E+02 0.  0.
        254    2    1    2    0    0  0.87229373336E+03  0.10139693807E+01  0.13038760051E+03  0.12661442725E+04  0.90841785922E+03 0.  0.
         23    2    4    4    0    0  0.94245111528E+03  0.23333233368E+03  0.20260257916E+03  0.99641134314E+03  0.95549343359E+02 0.  0.
         23    2    4    4    0    0 -0.70157381928E+02 -0.23231836430E+03 -0.72214978646E+02  0.26973292933E+03  0.92989082135E+02 0.  0.
          4    1    3    3  502    0 -0.19350065500E+02  0.43593168380E+01  0.28698104567E+02  0.34885668747E+02  0.00000000000E+00 0. -1.
         -3    1    3    3    0  502 -0.85294366786E+03 -0.53732862187E+01  0.54110166869E+03  0.10101152353E+04  0.00000000000E+00 0.  1.
         13    1    5    5    0    0  0.10157158293E+03 -0.14190727001E+01  0.34955329506E+02  0.10742753505E+03  0.00000000000E+00 0. -1.
        -13    1    5    5    0    0  0.84087953235E+03  0.23475140638E+03  0.16764724965E+03  0.88898380808E+03  0.00000000000E+00 0.  1.
          3    1    6    6  503    0 -0.75955917081E+01 -0.98837717685E+02 -0.71658441862E+02  0.12231729126E+03  0.00000000000E+00 0. -1.
         -3    1    6    6    0  503 -0.62561790220E+02 -0.13348064661E+03 -0.55653678380E+00  0.14741563807E+03  0.00000000000E+00 0.  1.
<mgrwt>
<rscale>  0 0.22025280E+04</rscale>
<asrwt>0</asrwt>
<pdfrwt beam="1">  1        2 0.12391983E+00 0.22025280E+04</pdfrwt>
<pdfrwt beam="2">  1       -1 0.23164097E+00 0.22025280E+04</pdfrwt>
<totfact> 0.32759818E+00</totfact>
</mgrwt>
</event>
<event>
12    7  0.1698542E-007  0.2478980E+04  0.7818608E-02  0.8410512E-01
          2   -1    0    0  501    0  0.00000000000E+00  0.00000000000E+00  0.21171786238E+04  0.21171786238E+04  0.00000000000E+00 0. -1.
         -1   -1    0    0    0  501 -0.00000000000E+00 -0.00000000000E+00 -0.72565237136E+03  0.72565237136E+03  0.00000000000E+00 0.  1.
         24    2    1    2    0    0  0.79630341913E+02 -0.71093507934E+03 -0.31375992503E+03  0.78544917984E+03  0.81947819779E+02 0.  0.
        254    2    1    2    0    0 -0.79630341913E+02  0.71093507934E+03  0.17052861775E+04  0.20573818153E+04  0.90169246893E+03 0.  0.
         23    2    4    4    0    0 -0.38538169216E+03  0.26524586562E+03  0.12736418328E+04  0.13599893684E+04  0.92375029623E+02 0.  0.
         23    2    4    4    0    0  0.30575135025E+03  0.44568921372E+03  0.43164434469E+03  0.69739244691E+03  0.88975397112E+02 0.  0.
          2    1    3    3  502    0  0.31791141622E+02 -0.28847108540E+03 -0.83770748501E+02  0.30206585722E+03  0.00000000000E+00 0. -1.
         -1    1    3    3    0  502  0.47839200291E+02 -0.42246399394E+03 -0.22998917653E+03  0.48338332262E+03  0.00000000000E+00 0.  1.
         13    1    5    5    0    0 -0.55387266847E+02  0.35317882421E+01  0.13619992116E+03  0.14707359172E+03  0.00000000000E+00 0. -1.
        -13    1    5    5    0    0 -0.32999442531E+03  0.26171407737E+03  0.11374419116E+04  0.12129157767E+04  0.00000000000E+00 0.  1.
          4    1    6    6  503    0  0.31048769578E+03  0.42475457418E+03  0.41134635497E+03  0.66785094239E+03  0.00000000000E+00 0.  1.
         -4    1    6    6    0  503 -0.47363455307E+01  0.20934639547E+02  0.20297989729E+02  0.29541504515E+02  0.00000000000E+00 0. -1.
<mgrwt>
<rscale>  0 0.24789802E+04</rscale>
<asrwt>0</asrwt>
<pdfrwt beam="1">  1        2 0.32571979E+00 0.24789802E+04</pdfrwt>
<pdfrwt beam="2">  1       -1 0.11163883E+00 0.24789802E+04</pdfrwt>
<totfact> 0.43042013E+00</totfact>
</mgrwt>
</event>
<event>
12    7  0.1698542E-007  0.1906014E+04  0.7818608E-02  0.8651868E-01
         -1   -1    0    0    0  501 -0.00000000000E+00  0.00000000000E+00  0.16871460776E+04  0.16871460776E+04  0.00000000000E+00 0.  1.
          2   -1    0    0  501    0  0.00000000000E+00 -0.00000000000E+00 -0.53831897227E+03  0.53831897227E+03  0.00000000000E+00 0. -1.
         24    2    1    2    0    0 -0.18589462400E+03 -0.16909913805E+03 -0.36388674667E+03  0.44904725497E+03  0.77965011839E+02 0.  0.
        254    2    1    2    0    0  0.18589462400E+03  0.16909913805E+03  0.15127138520E+04  0.17764177949E+04  0.89677514144E+03 0.  0.
         23    2    4    4    0    0  0.39891697134E+03  0.26045991794E+01  0.14170478724E+04  0.14754082923E+04  0.98302707289E+02 0.  0.
         23    2    4    4    0    0 -0.21302234733E+03  0.16649453887E+03  0.95665979563E+02  0.30100950260E+03  0.91410005333E+02 0.  0.
          4    1    3    3  502    0 -0.15474786013E+03 -0.14109593745E+03 -0.24128955702E+03  0.31949274500E+03  0.00000000000E+00 0. -1.
         -3    1    3    3    0  502 -0.31146763876E+02 -0.28003200595E+02 -0.12259718965E+03  0.12955450997E+03  0.00000000000E+00 0.  1.
         13    1    5    5    0    0  0.33229667227E+03 -0.28812615730E+02  0.10766252260E+04  0.11271083011E+04  0.00000000000E+00 0.  1.
        -13    1    5    5    0    0  0.66620299070E+02  0.31417214909E+02  0.34042264647E+03  0.34829999120E+03  0.00000000000E+00 0. -1.
          2    1    6    6  503    0 -0.14552241220E+03  0.69897541274E+02  0.24345653548E+02  0.16326404863E+03  0.00000000000E+00 0. -1.
         -2    1    6    6    0  503 -0.67499935135E+02  0.96596997593E+02  0.71320326015E+02  0.13774545397E+03  0.00000000000E+00 0.  1.
<mgrwt>
<rscale>  0 0.19060144E+04</rscale>
<asrwt>0</asrwt>
<pdfrwt beam="1">  1        2 0.82818305E-01 0.19060144E+04</pdfrwt>
<pdfrwt beam="2">  1       -1 0.25956093E+00 0.19060144E+04</pdfrwt>
<totfact> 0.36478529E+00</totfact>
</mgrwt>
</event>
<event>
12    7  0.1698542E-007  0.1956972E+04  0.7818608E-02  0.8627006E-01
         -1   -1    0    0    0  501 -0.00000000000E+00  0.00000000000E+00  0.58600099555E+03  0.58600099555E+03  0.00000000000E+00 0.  1.
          2   -1    0    0  501    0  0.00000000000E+00 -0.00000000000E+00 -0.16338450545E+04  0.16338450545E+04  0.00000000000E+00 0. -1.
         24    2    1    2    0    0  0.71059369476E+03  0.21888594857E+03 -0.64442798791E+03  0.98779203808E+03  0.87127615402E+02 0.  0.
        254    2    1    2    0    0 -0.71059369476E+03 -0.21888594857E+03 -0.40341607108E+03  0.12320540120E+04  0.89574444157E+03 0.  0.
         23    2    4    4    0    0 -0.32366368867E+03  0.11064908079E+03 -0.58566752371E+03  0.68440200491E+03  0.91641985814E+02 0.  0.
         23    2    4    4    0    0 -0.38693000610E+03 -0.32953502936E+03  0.18225145263E+03  0.54765200710E+03  0.91645860267E+02 0.  0.
          2    1    3    3  502    0  0.13289268075E+02  0.27058783689E+01  0.65075138130E+00  0.13577551365E+02  0.00000000000E+00 0. -1.
         -1    1    3    3    0  502  0.69730442669E+03  0.21618007020E+03 -0.64507873929E+03  0.97421448671E+03  0.00000000000E+00 0.  1.
         13    1    5    5    0    0 -0.27816008596E+03  0.88049532740E+02 -0.42207363768E+03  0.51310029162E+03  0.00000000000E+00 0. -1.
        -13    1    5    5    0    0 -0.45503602705E+02  0.22599548049E+02 -0.16359388603E+03  0.17130171329E+03  0.00000000000E+00 0.  1.
          3    1    6    6  503    0 -0.23941040590E+03 -0.21688723962E+03  0.16065881707E+03  0.36078895863E+03  0.00000000000E+00 0. -1.
         -3    1    6    6    0  503 -0.14751960020E+03 -0.11264778974E+03  0.21592635557E+02  0.18686304848E+03  0.00000000000E+00 0.  1.
<mgrwt>
<rscale>  0 0.19569720E+04</rscale>
<asrwt>0</asrwt>
<pdfrwt beam="1">  1        2 0.25136077E+00 0.19569720E+04</pdfrwt>
<pdfrwt beam="2">  1       -1 0.90154001E-01 0.19569720E+04</pdfrwt>
<totfact> 0.13643710E+01</totfact>
</mgrwt>
</event>
<event>
12    7  0.1698542E-007  0.1751980E+04  0.7818608E-02  0.8732261E-01
         -1   -1    0    0    0  501 -0.00000000000E+00  0.00000000000E+00  0.60570757002E+03  0.60570757002E+03  0.00000000000E+00 0.  1.
          2   -1    0    0  501    0  0.00000000000E+00 -0.00000000000E+00 -0.12668799312E+04  0.12668799312E+04  0.00000000000E+00 0. -1.
         24    2    1    2    0    0 -0.57652895798E+03  0.24820381656E+03 -0.39275025814E+03  0.74476043641E+03  0.80153405574E+02 0.  0.
        254    2    1    2    0    0  0.57652895798E+03 -0.24820381656E+03 -0.26842210301E+03  0.11278270648E+04  0.89774867793E+03 0.  0.
         23    2    4    4    0    0  0.43598435946E+03 -0.42028079170E+03  0.16208356191E+03  0.63386814400E+03  0.93805316341E+02 0.  0.
         23    2    4    4    0    0  0.14054459852E+03  0.17207697514E+03 -0.43050566493E+03  0.49395892078E+03  0.96421047188E+02 0.  0.
          4    1    3    3  502    0 -0.11451321399E+03  0.53597917839E+02 -0.43244027688E+02  0.13362656512E+03  0.00000000000E+00 0. -1.
         -3    1    3    3    0  502 -0.46201574400E+03  0.19460589872E+03 -0.34950623045E+03  0.61113387129E+03  0.00000000000E+00 0.  1.
         13    1    5    5    0    0  0.21021160463E+03 -0.19285821572E+03  0.12432711332E+03  0.31119196840E+03  0.00000000000E+00 0.  1.
        -13    1    5    5    0    0  0.22577275483E+03 -0.22742257598E+03  0.37756448590E+02  0.32267617560E+03  0.00000000000E+00 0. -1.
          3    1    6    6  503    0  0.13639926483E+03  0.16827180579E+03 -0.33909303993E+03  0.40237327173E+03  0.00000000000E+00 0. -1.
         -3    1    6    6    0  503  0.41453336932E+01  0.38051693549E+01 -0.91412624991E+02  0.91585649056E+02  0.00000000000E+00 0.  1.
<mgrwt>
<rscale>  0 0.17519803E+04</rscale>
<asrwt>0</asrwt>
<pdfrwt beam="1">  1        2 0.19490460E+00 0.17519803E+04</pdfrwt>
<pdfrwt beam="2">  1       -1 0.93185780E-01 0.17519803E+04</pdfrwt>
<totfact> 0.20884215E+01</totfact>
</mgrwt>
</event>
<event>
12    7  0.1698542E-007  0.1414617E+04  0.7818608E-02  0.8943306E-01
          2   -1    0    0  501    0  0.00000000000E+00  0.00000000000E+00  0.14110666643E+04  0.14110666643E+04  0.00000000000E+00 0. -1.
         -1   -1    0    0    0  501 -0.00000000000E+00 -0.00000000000E+00 -0.35454396987E+03  0.35454396987E+03  0.00000000000E+00 0.  1.
         24    2    1    2    0    0  0.27274249205E+03 -0.17178972876E+03  0.65582508423E+03  0.73501366352E+03  0.78983331026E+02 0.  0.
        254    2    1    2    0    0 -0.27274249205E+03  0.17178972876E+03  0.40069761020E+03  0.10305969706E+04  0.89312449480E+03 0.  0.
         23    2    4    4    0    0  0.15928761039E+03  0.25949012472E+03  0.47703120105E+03  0.57434756232E+03  0.98023914981E+02 0.  0.
         23    2    4    4    0    0 -0.43203010244E+03 -0.87700395961E+02 -0.76333590852E+02  0.45624940833E+03  0.89416646338E+02 0.  0.
          2    1    3    3  502    0  0.13697501037E+03 -0.41380594390E+02  0.30390121863E+03  0.33590245272E+03  0.00000000000E+00 0. -1.
         -1    1    3    3    0  502  0.13576748168E+03 -0.13040913437E+03  0.35192386560E+03  0.39911121080E+03  0.00000000000E+00 0.  1.
         13    1    5    5    0    0  0.96795032007E+02  0.88247214530E+02  0.14378245518E+03  0.19449998332E+03  0.00000000000E+00 0.  1.
        -13    1    5    5    0    0  0.62492578386E+02  0.17124291019E+03  0.33324874588E+03  0.37984757900E+03  0.00000000000E+00 0. -1.
          3    1    6    6  503    0 -0.37763496784E+02  0.14372932402E+02 -0.20069354809E+02  0.45115871682E+02  0.00000000000E+00 0.  1.
         -3    1    6    6    0  503 -0.39426660566E+03 -0.10207332836E+03 -0.56264236043E+02  0.41113353665E+03  0.00000000000E+00 0. -1.
<mgrwt>
<rscale>  0 0.14146168E+04</rscale>
<asrwt>0</asrwt>
<pdfrwt beam="1">  1        2 0.21708718E+00 0.14146168E+04</pdfrwt>
<pdfrwt beam="2">  1       -1 0.54545227E-01 0.14146168E+04</pdfrwt>
<totfact> 0.53649274E+01</totfact>
</mgrwt>
</event>
<event>
12    7  0.1698542E-007  0.1433660E+04  0.7818608E-02  0.8929808E-01
         -1   -1    0    0    0  501 -0.00000000000E+00  0.00000000000E+00  0.47937317899E+03  0.47937317899E+03  0.00000000000E+00 0.  1.
          2   -1    0    0  501    0  0.00000000000E+00 -0.00000000000E+00 -0.10719101765E+04  0.10719101765E+04  0.00000000000E+00 0. -1.
         24    2    1    2    0    0 -0.78223883316E+02  0.38933285640E+03 -0.35692905088E+03  0.54009725822E+03  0.81287465096E+02 0.  0.
        254    2    1    2    0    0  0.78223883316E+02 -0.38933285640E+03 -0.23560794667E+03  0.10111860973E+04  0.89960389610E+03 0.  0.
         23    2    4    4    0    0  0.15775243382E+03 -0.49119695184E+03 -0.48636235638E+03  0.71499011996E+03  0.92207668117E+02 0.  0.
         23    2    4    4    0    0 -0.79528550502E+02  0.10186409545E+03  0.25075440971E+03  0.29619597735E+03  0.90295064778E+02 0.  0.
          2    1    3    3  502    0 -0.42489712265E+02  0.30922907837E+03 -0.23901068172E+03  0.39313369804E+03  0.00000000000E+00 0. -1.
         -1    1    3    3    0  502 -0.35734171051E+02  0.80103778023E+02 -0.11791836916E+03  0.14696356018E+03  0.00000000000E+00 0.  1.
         13    1    5    5    0    0  0.70713681318E+02 -0.12600344051E+03 -0.17728224673E+03  0.22870567713E+03  0.00000000000E+00 0. -1.
        -13    1    5    5    0    0  0.87038752500E+02 -0.36519351133E+03 -0.30908010965E+03  0.48628444283E+03  0.00000000000E+00 0.  1.
          4    1    6    6  503    0 -0.43347773448E+02 -0.61084558138E+01  0.70462935347E+02  0.82954011073E+02  0.00000000000E+00 0.  1.
         -4    1    6    6    0  503 -0.36180777055E+02  0.10797255126E+03  0.18029147436E+03  0.21324196628E+03  0.00000000000E+00 0. -1.
<mgrwt>
<rscale>  0 0.14336596E+04</rscale>
<asrwt>0</asrwt>
<pdfrwt beam="1">  1        2 0.16490926E+00 0.14336596E+04</pdfrwt>
<pdfrwt beam="2">  1       -1 0.73749721E-01 0.14336596E+04</pdfrwt>
<totfact> 0.46520820E+01</totfact>
</mgrwt>
</event>
<event>
12    7  0.1698542E-007  0.1291415E+04  0.7818608E-02  0.9036401E-01
         -1   -1    0    0    0  501 -0.00000000000E+00  0.00000000000E+00  0.41417598625E+03  0.41417598625E+03  0.00000000000E+00 0.  1.
          2   -1    0    0  501    0  0.00000000000E+00 -0.00000000000E+00 -0.10066687911E+04  0.10066687911E+04  0.00000000000E+00 0. -1.
         24    2    1    2    0    0  0.21411697305E+03  0.14776867286E+03  0.57991495583E+02  0.28469359749E+03  0.10002885615E+03 0.  0.
        254    2    1    2    0    0 -0.21411697305E+03 -0.14776867286E+03 -0.65048430047E+03  0.11361511799E+04  0.89444285430E+03 0.  0.
         23    2    4    4    0    0 -0.71202118364E+02  0.26995265589E+03 -0.61739078455E+03  0.68386821021E+03  0.92521186808E+02 0.  0.
         23    2    4    4    0    0 -0.14291485469E+03 -0.41772132875E+03 -0.33093515922E+02  0.45228296969E+03  0.92460476404E+02 0.  0.
          4    1    3    3  502    0  0.51572778136E+02  0.23844159555E+02 -0.27518456974E+02  0.63131298607E+02  0.00000000000E+00 0. -1.
         -3    1    3    3    0  502  0.16254419492E+03  0.12392451331E+03  0.85509952557E+02  0.22156229888E+03  0.00000000000E+00 0.  1.
         13    1    5    5    0    0 -0.43916669459E+02  0.25713059187E+03 -0.57905475686E+03  0.63509780867E+03  0.00000000000E+00 0. -1.
        -13    1    5    5    0    0 -0.27285448904E+02  0.12822064015E+02 -0.38336027692E+02  0.48770401544E+02  0.00000000000E+00 0.  1.
          4    1    6    6  503    0 -0.12770573842E+03 -0.34962923793E+03 -0.60908967047E+02  0.37717272158E+03  0.00000000000E+00 0. -1.
         -4    1    6    6    0  503 -0.15209116270E+02 -0.68092090820E+02  0.27815451125E+02  0.75110248111E+02  0.00000000000E+00 0.  1.
<mgrwt>
<rscale>  0 0.12914148E+04</rscale>
<asrwt>0</asrwt>
<pdfrwt beam="1">  1        2 0.15487212E+00 0.12914148E+04</pdfrwt>
<pdfrwt beam="2">  1       -1 0.63719383E-01 0.12914148E+04</pdfrwt>
<totfact> 0.69707847E+01</totfact>
</mgrwt>
</event>
<event>
12    7  0.1698542E-007  0.1642742E+04  0.7818608E-02  0.8794712E-01
         -1   -1    0    0    0  501 -0.00000000000E+00  0.00000000000E+00  0.98598274497E+03  0.98598274497E+03  0.00000000000E+00 0.  1.
          2   -1    0    0  501    0  0.00000000000E+00 -0.00000000000E+00 -0.68424177503E+03  0.68424177503E+03  0.00000000000E+00 0. -1.
         24    2    1    2    0    0 -0.33006955220E+03 -0.46106311302E+03  0.13393355850E+03  0.58788395062E+03  0.78385188775E+02 0.  0.
        254    2    1    2    0    0  0.33006955220E+03  0.46106311302E+03  0.16780741144E+03  0.10823405694E+04  0.90651898895E+03 0.  0.
         23    2    4    4    0    0  0.54406532728E+03  0.20729749833E+03  0.35888995645E+03  0.68906988378E+03  0.83880693410E+02 0.  0.
         23    2    4    4    0    0 -0.21399577508E+03  0.25376561469E+03 -0.19108254502E+03  0.39327068560E+03  0.89208263013E+02 0.  0.
          4    1    3    3  502    0 -0.43023157849E+02 -0.54102174485E+02  0.43666044043E+02  0.81760386482E+02  0.00000000000E+00 0. -1.
         -3    1    3    3    0  502 -0.28704639435E+03 -0.40696093854E+03  0.90267514459E+02  0.50612356413E+03  0.00000000000E+00 0.  1.
         13    1    5    5    0    0  0.53633924303E+03  0.21050388709E+03  0.34149721526E+03  0.66977012334E+03  0.00000000000E+00 0. -1.
        -13    1    5    5    0    0  0.77260842526E+01 -0.32063887560E+01  0.17392741196E+02  0.19299760440E+02  0.00000000000E+00 0.  1.
          4    1    6    6  503    0 -0.16169677021E+03  0.23947670086E+03 -0.16886203233E+03  0.33467793730E+03  0.00000000000E+00 0. -1.
         -4    1    6    6    0  503 -0.52299004877E+02  0.14288913826E+02 -0.22220512687E+02  0.58592748301E+02  0.00000000000E+00 0.  1.
<mgrwt>
<rscale>  0 0.16427423E+04</rscale>
<asrwt>0</asrwt>
<pdfrwt beam="1">  1        2 0.10526796E+00 0.16427423E+04</pdfrwt>
<pdfrwt beam="2">  1       -1 0.15168965E+00 0.16427423E+04</pdfrwt>
<totfact> 0.15582067E+01</totfact>
</mgrwt>
</event>
<event>
12    7  0.1698542E-007  0.1700496E+04  0.7818608E-02  0.8761082E-01
          2   -1    0    0  501    0  0.00000000000E+00  0.00000000000E+00  0.15063050945E+04  0.15063050945E+04  0.00000000000E+00 0. -1.
         -1   -1    0    0    0  501 -0.00000000000E+00 -0.00000000000E+00 -0.47993017504E+03  0.47993017504E+03  0.00000000000E+00 0.  1.
         24    2    1    2    0    0 -0.19764154337E+03  0.57449425771E+03  0.28170881056E+03  0.67378254219E+03  0.74278047933E+02 0.  0.
        254    2    1    2    0    0  0.19764154337E+03 -0.57449425771E+03  0.74466610892E+03  0.13124527274E+04  0.89381134252E+03 0.  0.
         23    2    4    4    0    0  0.19929600946E+03  0.12756906771E+03 -0.38392986509E+02  0.25668878090E+03  0.91773320749E+02 0.  0.
         23    2    4    4    0    0 -0.16544660872E+01 -0.70206332542E+03  0.78305909543E+03  0.10557639465E+04  0.92521962753E+02 0.  0.
          4    1    3    3  502    0 -0.28144682957E+02  0.27269510753E+02  0.18499446580E+02  0.43335654134E+02  0.00000000000E+00 0. -1.
         -3    1    3    3    0  502 -0.16949686042E+03  0.54722474696E+03  0.26320936398E+03  0.63044688805E+03  0.00000000000E+00 0.  1.
         13    1    5    5    0    0  0.85437418197E+02  0.55203748956E+02 -0.62864145996E+02  0.11957803803E+03  0.00000000000E+00 0. -1.
        -13    1    5    5    0    0  0.11385859126E+03  0.72365318755E+02  0.24471159487E+02  0.13711074287E+03  0.00000000000E+00 0.  1.
          4    1    6    6  503    0  0.13750978190E+02 -0.14934107689E+02  0.29898381260E+02  0.36139039495E+02  0.00000000000E+00 0. -1.
         -4    1    6    6    0  503 -0.15405444278E+02 -0.68712921773E+03  0.75316071417E+03  0.10196249070E+04  0.00000000000E+00 0.  1.
<mgrwt>
<rscale>  0 0.17004955E+04</rscale>
<asrwt>0</asrwt>
<pdfrwt beam="1">  1        2 0.23173924E+00 0.17004955E+04</pdfrwt>
<pdfrwt beam="2">  1       -1 0.73835412E-01 0.17004955E+04</pdfrwt>
<totfact> 0.25217539E+01</totfact>
</mgrwt>
</event>
<event>
12    7  0.1698542E-007  0.2794244E+04  0.7818608E-02  0.8305057E-01
          2   -1    0    0  501    0  0.00000000000E+00  0.00000000000E+00  0.12076560295E+04  0.12076560295E+04  0.00000000000E+00 0. -1.
         -1   -1    0    0    0  501 -0.00000000000E+00 -0.00000000000E+00 -0.16163133231E+04  0.16163133231E+04  0.00000000000E+00 0.  1.
         24    2    1    2    0    0  0.51602925670E+03  0.19167481146E+03 -0.13189159673E+04  0.14313116208E+04  0.78026918766E+02 0.  0.
        254    2    1    2    0    0 -0.51602925670E+03 -0.19167481146E+03  0.91025867369E+03  0.13926577317E+04  0.89883217429E+03 0.  0.
         23    2    4    4    0    0 -0.47795209032E+03  0.14555384446E+03  0.91074887585E+03  0.10432430863E+04  0.96273049597E+02 0.  0.
         23    2    4    4    0    0 -0.38077166381E+02 -0.33722865593E+03 -0.49020215399E+00  0.34941464536E+03  0.83170410104E+02 0.  0.
          2    1    3    3  502    0  0.29084256420E+02 -0.42208771057E+01 -0.99082692960E+02  0.10334935810E+03  0.00000000000E+00 0. -1.
         -1    1    3    3    0  502  0.48694500028E+03  0.19589568857E+03 -0.12198332743E+04  0.13279622627E+04  0.00000000000E+00 0.  1.
         13    1    5    5    0    0 -0.38636798449E+03  0.86935878750E+02  0.76465689424E+03  0.86112614195E+03  0.00000000000E+00 0.  1.
        -13    1    5    5    0    0 -0.91584105829E+02  0.58617965712E+02  0.14609198161E+03  0.18211694440E+03  0.00000000000E+00 0. -1.
          1    1    6    6  503    0 -0.11935242767E+02 -0.98877064192E+02  0.37934250034E+02  0.10657453340E+03  0.00000000000E+00 0. -1.
         -1    1    6    6    0  503 -0.26141923614E+02 -0.23835159173E+03 -0.38424452188E+02  0.24284011196E+03  0.00000000000E+00 0.  1.
<mgrwt>
<rscale>  0 0.27942445E+04</rscale>
<asrwt>0</asrwt>
<pdfrwt beam="1">  1        2 0.18579324E+00 0.27942445E+04</pdfrwt>
<pdfrwt beam="2">  1       -1 0.24866359E+00 0.27942445E+04</pdfrwt>
<totfact> 0.13224414E+00</totfact>
</mgrwt>
</event>
<event>
12    7  0.1698542E-007  0.1425986E+04  0.7818608E-02  0.8935220E-01
          2   -1    0    0  501    0  0.00000000000E+00  0.00000000000E+00  0.28516261293E+04  0.28516261293E+04  0.00000000000E+00 0. -1.
         -1   -1    0    0    0  501 -0.00000000000E+00 -0.00000000000E+00 -0.17826985113E+03  0.17826985113E+03  0.00000000000E+00 0.  1.
         24    2    1    2    0    0 -0.30134107707E+03 -0.26012151812E+03  0.48362136485E+03  0.63187785960E+03  0.83128550990E+02 0.  0.
        254    2    1    2    0    0  0.30134107707E+03  0.26012151812E+03  0.21897349133E+04  0.23980181208E+04  0.89279463948E+03 0.  0.
         23    2    4    4    0    0  0.44106758711E+03  0.49337522691E+03  0.17403871052E+04  0.18642398833E+04  0.92105025147E+02 0.  0.
         23    2    4    4    0    0 -0.13972651004E+03 -0.23325370879E+03  0.44934780807E+03  0.53377823747E+03  0.95262604963E+02 0.  0.
          4    1    3    3  502    0 -0.16389151034E+03 -0.12551330822E+03  0.18824881185E+03  0.27937722324E+03  0.00000000000E+00 0. -1.
         -3    1    3    3    0  502 -0.13744956673E+03 -0.13460820991E+03  0.29537255300E+03  0.35250063636E+03  0.00000000000E+00 0.  1.
         13    1    5    5    0    0  0.38097546339E+03  0.43883063675E+03  0.14337900871E+04  0.15470839167E+04  0.00000000000E+00 0.  1.
        -13    1    5    5    0    0  0.60092123722E+02  0.54544590166E+02  0.30659701808E+03  0.31715596659E+03  0.00000000000E+00 0. -1.
          2    1    6    6  503    0 -0.15027787311E+03 -0.22987213392E+03  0.41463286609E+03  0.49733796431E+03  0.00000000000E+00 0.  1.
         -2    1    6    6    0  503  0.10551363071E+02 -0.33815748686E+01  0.34714941978E+02  0.36440273157E+02  0.00000000000E+00 0. -1.
<mgrwt>
<rscale>  0 0.14259859E+04</rscale>
<asrwt>0</asrwt>
<pdfrwt beam="1">  1        2 0.43871168E+00 0.14259859E+04</pdfrwt>
<pdfrwt beam="2">  1       -1 0.27426133E-01 0.14259859E+04</pdfrwt>
<totfact> 0.28601760E+01</totfact>
</mgrwt>
</event>
<event>
12    7  0.1698542E-007  0.2774903E+04  0.7818608E-02  0.8311103E-01
          2   -1    0    0  501    0  0.00000000000E+00  0.00000000000E+00  0.39065748057E+04  0.39065748057E+04  0.00000000000E+00 0. -1.
         -1   -1    0    0    0  501 -0.00000000000E+00 -0.00000000000E+00 -0.49276455821E+03  0.49276455821E+03  0.00000000000E+00 0.  1.
         24    2    1    2    0    0  0.97782510021E+03 -0.29943412695E+03  0.41454008407E+03  0.11062277465E+04  0.78061660954E+02 0.  0.
        254    2    1    2    0    0 -0.97782510021E+03  0.29943412695E+03  0.29992701634E+04  0.32931116174E+04  0.89619188147E+03 0.  0.
         23    2    4    4    0    0 -0.13941241422E+03  0.39082565270E+03  0.16098892095E+04  0.16650683404E+04  0.92351498905E+02 0.  0.
         23    2    4    4    0    0 -0.83841268599E+03 -0.91391525752E+02  0.13893809539E+04  0.16280432770E+04  0.94112876737E+02 0.  0.
          2    1    3    3  502    0  0.22978055834E+02 -0.10969976222E+02  0.24120714440E+02  0.35073355889E+02  0.00000000000E+00 0. -1.
         -1    1    3    3    0  502  0.95484704437E+03 -0.28846415072E+03  0.39041936963E+03  0.10711543906E+04  0.00000000000E+00 0.  1.
         13    1    5    5    0    0 -0.25725663452E+01  0.33982298535E+01  0.10524857622E+03  0.10533484163E+03  0.00000000000E+00 0. -1.
        -13    1    5    5    0    0 -0.13683984787E+03  0.38742742285E+03  0.15046406332E+04  0.15597334988E+04  0.00000000000E+00 0.  1.
          4    1    6    6  503    0 -0.21560154822E+03 -0.51435329799E+02  0.42525498021E+03  0.47955335359E+03  0.00000000000E+00 0. -1.
         -4    1    6    6    0  503 -0.62281113777E+03 -0.39956195953E+02  0.96412597372E+03  0.11484899234E+04  0.00000000000E+00 0.  1.
<mgrwt>
<rscale>  0 0.27749030E+04</rscale>
<asrwt>0</asrwt>
<pdfrwt beam="1">  1        2 0.60101149E+00 0.27749030E+04</pdfrwt>
<pdfrwt beam="2">  1       -1 0.75809935E-01 0.27749030E+04</pdfrwt>
<totfact> 0.70420574E-01</totfact>
</mgrwt>
</event>
<event>
12    7  0.1698542E-007  0.2004126E+04  0.7818608E-02  0.8604694E-01
          2   -1    0    0  501    0  0.00000000000E+00  0.00000000000E+00  0.72060714826E+03  0.72060714826E+03  0.00000000000E+00 0. -1.
         -1   -1    0    0    0  501 -0.00000000000E+00 -0.00000000000E+00 -0.13934496803E+04  0.13934496803E+04  0.00000000000E+00 0.  1.
         24    2    1    2    0    0 -0.18372420316E+03 -0.19129099079E+03  0.51899606812E+03  0.58848094222E+03  0.81277762254E+02 0.  0.
        254    2    1    2    0    0  0.18372420316E+03  0.19129099079E+03 -0.11918386001E+04  0.15255758863E+04  0.91463419472E+03 0.  0.
         23    2    4    4    0    0  0.32854986597E+03 -0.28415838076E+03 -0.49516545662E+03  0.66445089989E+03  0.87264936537E+02 0.  0.
         23    2    4    4    0    0 -0.14482566281E+03  0.47544937155E+03 -0.69667314352E+03  0.86112498643E+03  0.95688013027E+02 0.  0.
          2    1    3    3  502    0 -0.11792355249E+03 -0.12773906746E+03  0.41519223518E+03  0.45011979044E+03  0.00000000000E+00 0. -1.
         -1    1    3    3    0  502 -0.65800650676E+02 -0.63551923331E+02  0.10380383294E+03  0.13836115178E+03  0.00000000000E+00 0.  1.
         13    1    5    5    0    0  0.46662902307E+02 -0.16967490067E+02 -0.28303481701E+02  0.57152508670E+02  0.00000000000E+00 0. -1.
        -13    1    5    5    0    0  0.28188696367E+03 -0.26719089069E+03 -0.46686197491E+03  0.60729839122E+03  0.00000000000E+00 0.  1.
          2    1    6    6  503    0 -0.10898085092E+03  0.26425024259E+03 -0.33114268188E+03  0.43744770241E+03  0.00000000000E+00 0.  1.
         -2    1    6    6    0  503 -0.35844811882E+02  0.21119912897E+03 -0.36553046164E+03  0.42367728403E+03  0.00000000000E+00 0. -1.
<mgrwt>
<rscale>  0 0.20041255E+04</rscale>
<asrwt>0</asrwt>
<pdfrwt beam="1">  1        2 0.11086264E+00 0.20041255E+04</pdfrwt>
<pdfrwt beam="2">  1       -1 0.21437687E+00 0.20041255E+04</pdfrwt>
<totfact> 0.50256523E+00</totfact>
</mgrwt>
</event>
<event>
12    7  0.1698542E-007  0.3525726E+04  0.7818608E-02  0.8107720E-01
          2   -1    0    0  501    0  0.00000000000E+00  0.00000000000E+00  0.28950572805E+04  0.28950572805E+04  0.00000000000E+00 0. -1.
         -1   -1    0    0    0  501 -0.00000000000E+00 -0.00000000000E+00 -0.10734451866E+04  0.10734451866E+04  0.00000000000E+00 0.  1.
         24    2    1    2    0    0 -0.10063758888E+04  0.12320455480E+04  0.13369511129E+04  0.20795061168E+04  0.78605024052E+02 0.  0.
        254    2    1    2    0    0  0.10063758888E+04 -0.12320455480E+04  0.48466098099E+03  0.18889963504E+04  0.89592537827E+03 0.  0.
         23    2    4    4    0    0  0.81768278169E+03 -0.12132091936E+04  0.66670985305E+03  0.16105210813E+04  0.93778709888E+02 0.  0.
         23    2    4    4    0    0  0.18869310710E+03 -0.18836354392E+02 -0.18204887206E+03  0.27847526904E+03  0.91906402035E+02 0.  0.
          2    1    3    3  502    0 -0.63513655804E+03  0.75837844041E+03  0.78370258346E+03  0.12620325057E+04  0.00000000000E+00 0. -1.
         -1    1    3    3    0  502 -0.37123933075E+03  0.47366710754E+03  0.55324852941E+03  0.81747361104E+03  0.00000000000E+00 0.  1.
         13    1    5    5    0    0  0.52967123402E+03 -0.86197171465E+03  0.45085396346E+03  0.11076173298E+04  0.00000000000E+00 0.  1.
        -13    1    5    5    0    0  0.28801154767E+03 -0.35123747891E+03  0.21585588959E+03  0.50290375148E+03  0.00000000000E+00 0. -1.
          1    1    6    6  503    0  0.10523753214E+02 -0.30312733932E+02 -0.30922463228E+02  0.44562427584E+02  0.00000000000E+00 0. -1.
         -1    1    6    6    0  503  0.17816935388E+03  0.11476379540E+02 -0.15112640883E+03  0.23391284145E+03  0.00000000000E+00 0.  1.
<mgrwt>
<rscale>  0 0.35257256E+04</rscale>
<asrwt>0</asrwt>
<pdfrwt beam="1">  1        2 0.44539343E+00 0.35257256E+04</pdfrwt>
<pdfrwt beam="2">  1       -1 0.16514541E+00 0.35257256E+04</pdfrwt>
<totfact> 0.50340651E-01</totfact>
</mgrwt>
</event>
<event>
12    7  0.1698542E-007  0.1783948E+04  0.7818608E-02  0.8714883E-01
          2   -1    0    0  501    0  0.00000000000E+00  0.00000000000E+00  0.12092829296E+04  0.12092829296E+04  0.00000000000E+00 0. -1.
         -1   -1    0    0    0  501 -0.00000000000E+00 -0.00000000000E+00 -0.65792478909E+03  0.65792478909E+03  0.00000000000E+00 0.  1.
         24    2    1    2    0    0 -0.22458952707E+03  0.61253495182E+03  0.23773283717E+03  0.69950692371E+03  0.84578434489E+02 0.  0.
        254    2    1    2    0    0  0.22458952707E+03 -0.61253495182E+03  0.31362530331E+03  0.11677007949E+04  0.91625585550E+03 0.  0.
         23    2    4    4    0    0  0.35513198722E+03 -0.52768516371E+03 -0.15950717331E+03  0.66211574511E+03  0.91566157716E+02 0.  0.
         23    2    4    4    0    0 -0.13054246015E+03 -0.84849788115E+02  0.47313247662E+03  0.50558504982E+03  0.86724170366E+02 0.  0.
          2    1    3    3  502    0 -0.10307331271E+03  0.26516640381E+03  0.14811774747E+03  0.32074319419E+03  0.00000000000E+00 0. -1.
         -1    1    3    3    0  502 -0.12151621436E+03  0.34736854801E+03  0.89615089692E+02  0.37876372952E+03  0.00000000000E+00 0.  1.
         13    1    5    5    0    0  0.19975494733E+03 -0.22711270751E+03 -0.50603890053E+02  0.30666427014E+03  0.00000000000E+00 0. -1.
        -13    1    5    5    0    0  0.15537703990E+03 -0.30057245620E+03 -0.10890328326E+03  0.35545147497E+03  0.00000000000E+00 0.  1.
          3    1    6    6  503    0 -0.12330392592E+03 -0.85609589724E+02  0.33306764642E+03  0.36533124297E+03  0.00000000000E+00 0. -1.
         -3    1    6    6    0  503 -0.72385342254E+01  0.75980160935E+00  0.14006483021E+03  0.14025380685E+03  0.00000000000E+00 0.  1.
<mgrwt>
<rscale>  0 0.17839476E+04</rscale>
<asrwt>0</asrwt>
<pdfrwt beam="1">  1        2 0.18604353E+00 0.17839476E+04</pdfrwt>
<pdfrwt beam="2">  1       -1 0.10121920E+00 0.17839476E+04</pdfrwt>
<totfact> 0.18685049E+01</totfact>
</mgrwt>
</event>
<event>
12    7  0.1698542E-007  0.1972848E+04  0.7818608E-02  0.8619421E-01
          2   -1    0    0  501    0  0.00000000000E+00  0.00000000000E+00  0.17461425397E+04  0.17461425397E+04  0.00000000000E+00 0. -1.
         -1   -1    0    0    0  501 -0.00000000000E+00 -0.00000000000E+00 -0.55724665808E+03  0.55724665808E+03  0.00000000000E+00 0.  1.
         24    2    1    2    0    0  0.39238475268E+03  0.34452226840E+03 -0.20299088250E+03  0.56578081789E+03  0.79001569305E+02 0.  0.
        254    2    1    2    0    0 -0.39238475268E+03 -0.34452226840E+03  0.13918867641E+04  0.17376083799E+04  0.89959587049E+03 0.  0.
         23    2    4    4    0    0 -0.99539910939E+02 -0.57675163934E+03  0.53540236591E+03  0.79852408668E+03  0.91838860106E+02 0.  0.
         23    2    4    4    0    0 -0.29284484174E+03  0.23222937094E+03  0.85648439823E+03  0.93908429324E+03  0.92871972801E+02 0.  0.
          4    1    3    3  502    0  0.39065618001E+02  0.21112516328E+02 -0.40163690620E+02  0.59874726719E+02  0.00000000000E+00 0. -1.
         -3    1    3    3    0  502  0.35331913468E+03  0.32340975208E+03 -0.16282719188E+03  0.50590609117E+03  0.00000000000E+00 0.  1.
         13    1    5    5    0    0 -0.27752278726E+02 -0.28897943763E+03  0.31935871898E+03  0.43158926740E+03  0.00000000000E+00 0. -1.
        -13    1    5    5    0    0 -0.71787632214E+02 -0.28777220172E+03  0.21604364693E+03  0.36693481928E+03  0.00000000000E+00 0.  1.
          3    1    6    6  503    0 -0.24662869379E+03  0.15959209068E+03  0.59087246437E+03  0.65986787857E+03  0.00000000000E+00 0. -1.
         -3    1    6    6    0  503 -0.46216147952E+02  0.72637280259E+02  0.26561193386E+03  0.27921641467E+03  0.00000000000E+00 0.  1.
<mgrwt>
<rscale>  0 0.19728478E+04</rscale>
<asrwt>0</asrwt>
<pdfrwt beam="1">  1        2 0.26863731E+00 0.19728478E+04</pdfrwt>
<pdfrwt beam="2">  1       -1 0.85730256E-01 0.19728478E+04</pdfrwt>
<totfact> 0.13172873E+01</totfact>
</mgrwt>
</event>
<event>
12    7  0.1698542E-007  0.1924614E+04  0.7818608E-02  0.8642700E-01
          2   -1    0    0  501    0  0.00000000000E+00  0.00000000000E+00  0.20815501042E+04  0.20815501042E+04  0.00000000000E+00 0. -1.
         -1   -1    0    0    0  501 -0.00000000000E+00 -0.00000000000E+00 -0.44487762353E+03  0.44487762353E+03  0.00000000000E+00 0.  1.
         24    2    1    2    0    0 -0.74389919660E+03  0.27503545110E-01  0.54014749950E+03  0.92278653031E+03  0.79935247825E+02 0.  0.
        254    2    1    2    0    0  0.74389919660E+03 -0.27503545110E-01  0.10965249812E+04  0.16036411974E+04  0.90327849539E+03 0.  0.
         23    2    4    4    0    0 -0.10756717858E+03 -0.75481151711E+02 -0.49787277129E+02  0.17073115576E+03  0.96965212379E+02 0.  0.
         23    2    4    4    0    0  0.85146637519E+03  0.75453648166E+02  0.11463122583E+04  0.14329100417E+04  0.92255909518E+02 0.  0.
          4    1    3    3  502    0 -0.39046844269E+03 -0.34197629509E+02  0.25799827534E+03  0.46925280252E+03  0.00000000000E+00 0. -1.
         -3    1    3    3    0  502 -0.35343075392E+03  0.34225133054E+02  0.28214922416E+03  0.45353372779E+03  0.00000000000E+00 0.  1.
         13    1    5    5    0    0 -0.55983434742E+02 -0.18362416674E+01 -0.57766516353E+02  0.80464198005E+02  0.00000000000E+00 0.  1.
        -13    1    5    5    0    0 -0.51583743840E+02 -0.73644910043E+02  0.79792392244E+01  0.90266957756E+02  0.00000000000E+00 0. -1.
          2    1    6    6  503    0  0.47659281247E+03  0.83609580370E+02  0.61256914972E+03  0.78062297815E+03  0.00000000000E+00 0. -1.
         -2    1    6    6    0  503  0.37487356272E+03 -0.81559322042E+01  0.53374310858E+03  0.65228706351E+03  0.00000000000E+00 0.  1.
<mgrwt>
<rscale>  0 0.19246143E+04</rscale>
<asrwt>0</asrwt>
<pdfrwt beam="1">  1        2 0.32023847E+00 0.19246143E+04</pdfrwt>
<pdfrwt beam="2">  1       -1 0.68442713E-01 0.19246143E+04</pdfrwt>
<totfact> 0.13836903E+01</totfact>
</mgrwt>
</event>
<event>
12    7  0.1698542E-007  0.2418199E+04  0.7818608E-02  0.8432721E-01
          2   -1    0    0  501    0  0.00000000000E+00  0.00000000000E+00  0.11305924085E+04  0.11305924085E+04  0.00000000000E+00 0. -1.
         -1   -1    0    0    0  501 -0.00000000000E+00 -0.00000000000E+00 -0.12930578651E+04  0.12930578651E+04  0.00000000000E+00 0.  1.
         24    2    1    2    0    0 -0.19554354347E+03 -0.27730584144E+03 -0.10540624658E+04  0.11114640045E+04  0.95753560698E+02 0.  0.
        254    2    1    2    0    0  0.19554354347E+03  0.27730584144E+03  0.89159700920E+03  0.13121862692E+04  0.90097268060E+03 0.  0.
         23    2    4    4    0    0 -0.28387200274E+03  0.33107243195E+03  0.57663251703E+03  0.72870003770E+03  0.91139541971E+02 0.  0.
         23    2    4    4    0    0  0.47941554621E+03 -0.53766590516E+02  0.31496449217E+03  0.58348623151E+03  0.92322471947E+02 0.  0.
          4    1    3    3  502    0 -0.90449382534E+02 -0.69479935490E+02 -0.44533165546E+03  0.45970516159E+03  0.00000000000E+00 0. -1.
         -3    1    3    3    0  502 -0.10509416094E+03 -0.20782590595E+03 -0.60873081030E+03  0.65175884287E+03  0.00000000000E+00 0.  1.
         13    1    5    5    0    0 -0.29038947721E+02  0.30401920381E+01  0.50786653262E+02  0.58581459541E+02  0.00000000000E+00 0. -1.
        -13    1    5    5    0    0 -0.25483305502E+03  0.32803223992E+03  0.52584586377E+03  0.67011857816E+03  0.00000000000E+00 0.  1.
          1    1    6    6  503    0  0.37699609186E+03 -0.92520939740E+01  0.26636474455E+03  0.46169452202E+03  0.00000000000E+00 0. -1.
         -1    1    6    6    0  503  0.10241945435E+03 -0.44514496543E+02  0.48599747617E+02  0.12179170948E+03  0.00000000000E+00 0.  1.
<mgrwt>
<rscale>  0 0.24181988E+04</rscale>
<asrwt>0</asrwt>
<pdfrwt beam="1">  1        2 0.17393729E+00 0.24181988E+04</pdfrwt>
<pdfrwt beam="2">  1       -1 0.19893198E+00 0.24181988E+04</pdfrwt>
<totfact> 0.32689109E+00</totfact>
</mgrwt>
</event>
<event>
12    7  0.1698542E-007  0.1324455E+04  0.7818608E-02  0.9010394E-01
         -3   -1    0    0    0  501 -0.00000000000E+00  0.00000000000E+00  0.53077526477E+03  0.53077526477E+03  0.00000000000E+00 0.  1.
          2   -1    0    0  501    0  0.00000000000E+00 -0.00000000000E+00 -0.82623513844E+03  0.82623513844E+03  0.00000000000E+00 0. -1.
         24    2    1    2    0    0  0.16007948440E+03  0.31073972491E+03 -0.86605804563E+02  0.36678891705E+03  0.69634232445E+02 0.  0.
        254    2    1    2    0    0 -0.16007948440E+03 -0.31073972491E+03 -0.20885406911E+03  0.99022148617E+03  0.90262614161E+03 0.  0.
         23    2    4    4    0    0 -0.11479691288E+02 -0.45884743691E+03 -0.45674534127E+03  0.65276449982E+03  0.82537456863E+02 0.  0.
         23    2    4    4    0    0 -0.14859979311E+03  0.14810771200E+03  0.24789127216E+03  0.33745698634E+03  0.91702464251E+02 0.  0.
          2    1    3    3  502    0  0.13122299476E+03  0.29543177949E+03 -0.84118433028E+02  0.33402892309E+03  0.00000000000E+00 0. -1.
         -3    1    3    3    0  502  0.28856489638E+02  0.15307945414E+02 -0.24873715348E+01  0.32759993959E+02  0.00000000000E+00 0.  1.
         13    1    5    5    0    0  0.50494984260E+01 -0.44430776020E+03 -0.43564596718E+03  0.62227187943E+03  0.00000000000E+00 0. -1.
        -13    1    5    5    0    0 -0.16529189714E+02 -0.14539676709E+02 -0.21099374096E+02  0.30492620396E+02  0.00000000000E+00 0.  1.
          3    1    6    6  503    0 -0.97608560621E+02  0.90662736838E+02  0.21707677091E+03  0.25469489085E+03  0.00000000000E+00 0. -1.
         -3    1    6    6    0  503 -0.50991232486E+02  0.57444975166E+02  0.30814501253E+02  0.82762095489E+02  0.00000000000E+00 0.  1.
<mgrwt>
<rscale>  0 0.13244549E+04</rscale>
<asrwt>0</asrwt>
<pdfrwt beam="1">  1        2 0.12711310E+00 0.13244549E+04</pdfrwt>
<pdfrwt beam="2">  1       -3 0.81657734E-01 0.13244549E+04</pdfrwt>
<totfact> 0.28417621E+01</totfact>
</mgrwt>
</event>
<event>
12    7  0.1698542E-007  0.2310143E+04  0.7818608E-02  0.8473933E-01
         -1   -1    0    0    0  501 -0.00000000000E+00  0.00000000000E+00  0.59290108728E+03  0.59290108728E+03  0.00000000000E+00 0.  1.
          2   -1    0    0  501    0  0.00000000000E+00 -0.00000000000E+00 -0.22502735418E+04  0.22502735418E+04  0.00000000000E+00 0. -1.
         24    2    1    2    0    0 -0.82655898778E+03 -0.32473775555E+03 -0.33960390793E+03  0.95404597478E+03  0.78857704410E+02 0.  0.
        254    2    1    2    0    0  0.82655898778E+03  0.32473775555E+03 -0.13177685466E+04  0.18891286543E+04  0.10215863938E+04 0.  0.
         23    2    4    4    0    0  0.89357655342E+03  0.19869455629E+03 -0.14193023318E+04  0.16913273694E+04  0.90612239192E+02 0.  0.
         23    2    4    4    0    0 -0.67017565639E+02  0.12604319926E+03  0.10153378526E+03  0.19780128486E+03  0.91858568236E+02 0.  0.
          2    1    3    3  502    0 -0.82236993211E+03 -0.32102085206E+03 -0.32912115654E+03  0.94216104163E+03  0.00000000000E+00 0. -1.
         -1    1    3    3    0  502 -0.41890556723E+01 -0.37169034909E+01 -0.10482751396E+02  0.11884933143E+02  0.00000000000E+00 0.  1.
         13    1    5    5    0    0  0.53111158443E+03  0.90730159984E+02 -0.89884808551E+03  0.10479691588E+04  0.00000000000E+00 0. -1.
        -13    1    5    5    0    0  0.36246496899E+03  0.10796439631E+03 -0.52045424634E+03  0.64335821060E+03  0.00000000000E+00 0.  1.
          2    1    6    6  503    0 -0.14228287000E+02  0.10010344375E+03  0.94796651080E+02  0.13859851607E+03  0.00000000000E+00 0. -1.
         -2    1    6    6    0  503 -0.52789278639E+02  0.25939755509E+02  0.67371341850E+01  0.59202768788E+02  0.00000000000E+00 0.  1.
<mgrwt>
<rscale>  0 0.23101425E+04</rscale>
<asrwt>0</asrwt>
<pdfrwt beam="1">  1        2 0.34619592E+00 0.23101425E+04</pdfrwt>
<pdfrwt beam="2">  1       -1 0.91215554E-01 0.23101425E+04</pdfrwt>
<totfact> 0.58459132E+00</totfact>
</mgrwt>
</event>
<event>
12    7  0.1698542E-007  0.1943977E+04  0.7818608E-02  0.8633271E-01
         -1   -1    0    0    0  501 -0.00000000000E+00  0.00000000000E+00  0.29139892780E+03  0.29139892780E+03  0.00000000000E+00 0.  1.
          2   -1    0    0  501    0  0.00000000000E+00 -0.00000000000E+00 -0.32421592415E+04  0.32421592415E+04  0.00000000000E+00 0. -1.
         24    2    1    2    0    0  0.52403771904E+03 -0.50618394022E+03 -0.77653541173E+03  0.10676564388E+04  0.77751612603E+02 0.  0.
        254    2    1    2    0    0 -0.52403771904E+03  0.50618394022E+03 -0.21742249019E+04  0.24659017305E+04  0.90696180071E+03 0.  0.
         23    2    4    4    0    0 -0.55782309584E+03  0.27787096111E+02 -0.16745159703E+04  0.17676003347E+04  0.92024340905E+02 0.  0.
         23    2    4    4    0    0  0.33785376796E+02  0.47839684411E+03 -0.49970893162E+03  0.69830139583E+03  0.88942852095E+02 0.  0.
          4    1    3    3  502    0  0.24878107446E+03 -0.28378826429E+03 -0.43430395907E+03  0.57536747460E+03  0.00000000000E+00 0. -1.
         -3    1    3    3    0  502  0.27525664458E+03 -0.22239567592E+03 -0.34223145266E+03  0.49228896417E+03  0.00000000000E+00 0.  1.
         13    1    5    5    0    0 -0.15650939934E+03 -0.21481398833E+02 -0.38394021390E+03  0.41517072443E+03  0.00000000000E+00 0.  1.
        -13    1    5    5    0    0 -0.40131369649E+03  0.49268494944E+02 -0.12905757564E+04  0.13524296102E+04  0.00000000000E+00 0. -1.
          2    1    6    6  503    0  0.11900057532E+02  0.45375171561E+03 -0.45438277812E+03  0.64225846809E+03  0.00000000000E+00 0. -1.
         -2    1    6    6    0  503  0.21885319263E+02  0.24645128498E+02 -0.45326153498E+02  0.56042927733E+02  0.00000000000E+00 0.  1.
<mgrwt>
<rscale>  0 0.19439771E+04</rscale>
<asrwt>0</asrwt>
<pdfrwt beam="1">  1        2 0.49879374E+00 0.19439771E+04</pdfrwt>
<pdfrwt beam="2">  1       -1 0.44830604E-01 0.19439771E+04</pdfrwt>
<totfact> 0.64023804E+00</totfact>
</mgrwt>
</event>
<event>
12    7  0.1698542E-007  0.2331056E+04  0.7818608E-02  0.8465776E-01
          2   -1    0    0  501    0  0.00000000000E+00  0.00000000000E+00  0.24478798469E+04  0.24478798469E+04  0.00000000000E+00 0. -1.
         -1   -1    0    0    0  501 -0.00000000000E+00 -0.00000000000E+00 -0.55495210774E+03  0.55495210774E+03  0.00000000000E+00 0.  1.
         24    2    1    2    0    0  0.15344176130E+03  0.69906034070E+03  0.16843219269E+04  0.18317929363E+04  0.79342762333E+02 0.  0.
        254    2    1    2    0    0 -0.15344176130E+03 -0.69906034070E+03  0.20860581226E+03  0.11710390184E+04  0.90309814725E+03 0.  0.
         23    2    4    4    0    0 -0.36566604801E+03 -0.46056405342E+03 -0.21378334887E+03  0.63267895411E+03  0.93533056968E+02 0.  0.
         23    2    4    4    0    0  0.21222428671E+03 -0.23849628728E+03  0.42238916113E+03  0.53836006426E+03  0.97464498288E+02 0.  0.
          4    1    3    3  502    0  0.12694911936E+03  0.61881281873E+03  0.15403836311E+04  0.16648805105E+04  0.00000000000E+00 0. -1.
         -3    1    3    3    0  502  0.26492641939E+02  0.80247521976E+02  0.14393829585E+03  0.16691242576E+03  0.00000000000E+00 0.  1.
         13    1    5    5    0    0 -0.10561783844E+03 -0.20408189682E+03 -0.70991864764E+02  0.24050861371E+03  0.00000000000E+00 0. -1.
        -13    1    5    5    0    0 -0.26004820956E+03 -0.25648215661E+03 -0.14279148411E+03  0.39217034040E+03  0.00000000000E+00 0.  1.
          4    1    6    6  503    0  0.72979708729E+02 -0.10836979016E+03  0.24665732664E+03  0.27912342448E+03  0.00000000000E+00 0. -1.
         -4    1    6    6    0  503  0.13924457798E+03 -0.13012649713E+03  0.17573183449E+03  0.25923663978E+03  0.00000000000E+00 0.  1.
<mgrwt>
<rscale>  0 0.23310565E+04</rscale>
<asrwt>0</asrwt>
<pdfrwt beam="1">  1        2 0.37659689E+00 0.23310565E+04</pdfrwt>
<pdfrwt beam="2">  1       -1 0.85377249E-01 0.23310565E+04</pdfrwt>
<totfact> 0.52051780E+00</totfact>
</mgrwt>
</event>
<event>
12    7  0.1698542E-007  0.1094138E+04  0.7818608E-02  0.9210924E-01
         -1   -1    0    0    0  501 -0.00000000000E+00  0.00000000000E+00  0.48376851101E+03  0.48376851101E+03  0.00000000000E+00 0.  1.
          2   -1    0    0  501    0  0.00000000000E+00 -0.00000000000E+00 -0.61865202908E+03  0.61865202908E+03  0.00000000000E+00 0. -1.
         24    2    1    2    0    0 -0.15943556475E+03 -0.31717947758E+02 -0.46540541844E+01  0.18053253490E+03  0.78387552717E+02 0.  0.
        254    2    1    2    0    0  0.15943556475E+03  0.31717947758E+02 -0.13022946388E+03  0.92188800519E+03  0.89804902613E+03 0.  0.
         23    2    4    4    0    0  0.52621994072E+03  0.33874552640E+02 -0.62306371681E+02  0.53852776182E+03  0.89861866053E+02 0.  0.
         23    2    4    4    0    0 -0.36678437597E+03 -0.21566048818E+01 -0.67923092199E+02  0.38336024337E+03  0.88408711906E+02 0.  0.
          4    1    3    3  502    0 -0.56056919042E+02 -0.43203678147E+02  0.20179266855E+02  0.73594420907E+02  0.00000000000E+00 0. -1.
         -3    1    3    3    0  502 -0.10337864571E+03  0.11485730389E+02 -0.24833321039E+02  0.10693811400E+03  0.00000000000E+00 0.  1.
         13    1    5    5    0    0  0.41252387722E+03  0.39491164224E+01 -0.18153743173E+02  0.41294200947E+03  0.00000000000E+00 0.  1.
        -13    1    5    5    0    0  0.11369606351E+03  0.29925436217E+02 -0.44152628508E+02  0.12558575235E+03  0.00000000000E+00 0. -1.
          2    1    6    6  503    0 -0.23363795994E+03 -0.23723561127E+02 -0.59300799506E+01  0.23491417481E+03  0.00000000000E+00 0. -1.
         -2    1    6    6    0  503 -0.13314641603E+03  0.21566956245E+02 -0.61993012249E+02  0.14844606856E+03  0.00000000000E+00 0.  1.
<mgrwt>
<rscale>  0 0.10941378E+04</rscale>
<asrwt>0</asrwt>
<pdfrwt beam="1">  1        2 0.95177235E-01 0.10941378E+04</pdfrwt>
<pdfrwt beam="2">  1       -1 0.74425925E-01 0.10941378E+04</pdfrwt>
<totfact> 0.98573040E+01</totfact>
</mgrwt>
</event>
<event>
12    7  0.1698542E-007  0.1186965E+04  0.7818608E-02  0.9124343E-01
          2   -1    0    0  501    0  0.00000000000E+00  0.00000000000E+00  0.90481796796E+03  0.90481796796E+03  0.00000000000E+00 0. -1.
         -1   -1    0    0    0  501 -0.00000000000E+00 -0.00000000000E+00 -0.38927344940E+03  0.38927344940E+03  0.00000000000E+00 0.  1.
         24    2    1    2    0    0  0.69262605846E+02 -0.21473657371E+03  0.27263647308E+02  0.24287025239E+03  0.85636139412E+02 0.  0.
        254    2    1    2    0    0 -0.69262605846E+02  0.21473657371E+03  0.48828087126E+03  0.10512211650E+04  0.90318249750E+03 0.  0.
         23    2    4    4    0    0  0.15683887500E+03 -0.18944259050E+03  0.51628136684E+03  0.57821162323E+03  0.85412549950E+02 0.  0.
         23    2    4    4    0    0 -0.22610148084E+03  0.40417916421E+03 -0.28000495579E+02  0.47300954175E+03  0.92039787092E+02 0.  0.
          4    1    3    3  502    0 -0.11657272656E+02 -0.37608619084E+01  0.10764555444E+02  0.16306800483E+02  0.00000000000E+00 0. -1.
         -3    1    3    3    0  502  0.80919878502E+02 -0.21097571180E+03  0.16499091864E+02  0.22656345191E+03  0.00000000000E+00 0.  1.
         13    1    5    5    0    0  0.12381112387E+03 -0.95292831652E+02  0.36449953122E+03  0.39657259918E+03  0.00000000000E+00 0.  1.
        -13    1    5    5    0    0  0.33027751124E+02 -0.94149758845E+02  0.15178183562E+03  0.18163902405E+03  0.00000000000E+00 0. -1.
          1    1    6    6  503    0 -0.93600128683E+02  0.15072011221E+03  0.33282529623E+02  0.18051388614E+03  0.00000000000E+00 0. -1.
         -1    1    6    6    0  503 -0.13250135216E+03  0.25345905201E+03 -0.61283025202E+02  0.29249565560E+03  0.00000000000E+00 0.  1.
<mgrwt>
<rscale>  0 0.11869652E+04</rscale>
<asrwt>0</asrwt>
<pdfrwt beam="1">  1        2 0.13920276E+00 0.11869652E+04</pdfrwt>
<pdfrwt beam="2">  1       -1 0.59888223E-01 0.11869652E+04</pdfrwt>
<totfact> 0.92714733E+01</totfact>
</mgrwt>
</event>
<event>
12    7  0.1698542E-007  0.1386193E+04  0.7818608E-02  0.8963874E-01
          2   -1    0    0  501    0  0.00000000000E+00  0.00000000000E+00  0.19031532376E+04  0.19031532376E+04  0.00000000000E+00 0. -1.
         -1   -1    0    0    0  501 -0.00000000000E+00 -0.00000000000E+00 -0.25241423565E+03  0.25241423565E+03  0.00000000000E+00 0.  1.
         24    2    1    2    0    0 -0.17497853785E+03 -0.14446103631E+03  0.98768761477E+03  0.10163120434E+04  0.76660715915E+02 0.  0.
        254    2    1    2    0    0  0.17497853785E+03  0.14446103631E+03  0.66305138720E+03  0.11392554299E+04  0.89820894719E+03 0.  0.
         23    2    4    4    0    0  0.41595195886E+03  0.11266157510E+02  0.72610827791E+03  0.84185844486E+03  0.91375333371E+02 0.  0.
         23    2    4    4    0    0 -0.24097342101E+03  0.13319487880E+03 -0.63056890712E+02  0.29739698506E+03  0.93057669671E+02 0.  0.
          2    1    3    3  502    0 -0.16082669918E+03 -0.11669957558E+03  0.72341923996E+03  0.75021291302E+03  0.00000000000E+00 0. -1.
         -1    1    3    3    0  502 -0.14151838670E+02 -0.27761460734E+02  0.26426837481E+03  0.26609913033E+03  0.00000000000E+00 0.  1.
         13    1    5    5    0    0  0.30364233500E+03  0.47438952485E+02  0.54578198554E+03  0.62636019794E+03  0.00000000000E+00 0. -1.
        -13    1    5    5    0    0  0.11230962387E+03 -0.36172794975E+02  0.18032629237E+03  0.21549824693E+03  0.00000000000E+00 0.  1.
          3    1    6    6  503    0 -0.22387417414E+03  0.14768375316E+03 -0.59228116760E+02  0.27465998363E+03  0.00000000000E+00 0. -1.
         -3    1    6    6    0  503 -0.17099246870E+02 -0.14488874363E+02 -0.38287739521E+01  0.22737001425E+02  0.00000000000E+00 0.  1.
<mgrwt>
<rscale>  0 0.13861933E+04</rscale>
<asrwt>0</asrwt>
<pdfrwt beam="1">  1        2 0.29279280E+00 0.13861933E+04</pdfrwt>
<pdfrwt beam="2">  1       -1 0.38832960E-01 0.13861933E+04</pdfrwt>
<totfact> 0.53987601E+01</totfact>
</mgrwt>
</event>
<event>
12    7  0.1698542E-007  0.1498491E+04  0.7818608E-02  0.8885457E-01
         -1   -1    0    0    0  501 -0.00000000000E+00  0.00000000000E+00  0.90644305548E+03  0.90644305548E+03  0.00000000000E+00 0.  1.
          2   -1    0    0  501    0  0.00000000000E+00 -0.00000000000E+00 -0.61930942692E+03  0.61930942692E+03  0.00000000000E+00 0. -1.
         24    2    1    2    0    0  0.31270386580E+03 -0.26959700833E+03 -0.14824775910E+03  0.44572199430E+03  0.78895142682E+02 0.  0.
        254    2    1    2    0    0 -0.31270386580E+03  0.26959700833E+03  0.43538138766E+03  0.10800304881E+04  0.89802151862E+03 0.  0.
         23    2    4    4    0    0  0.28395863331E+03  0.21610547400E+03  0.77641080637E+02  0.37672647071E+03  0.92523591631E+02 0.  0.
         23    2    4    4    0    0 -0.59666249911E+03  0.53491534332E+02  0.35774030703E+03  0.70330401739E+03  0.88266253528E+02 0.  0.
          4    1    3    3  502    0  0.30442017643E+02 -0.37576409498E+02 -0.44932659185E+02  0.66012474961E+02  0.00000000000E+00 0. -1.
         -3    1    3    3    0  502  0.28226184816E+03 -0.23202059884E+03 -0.10331509991E+03  0.37970951934E+03  0.00000000000E+00 0.  1.
         13    1    5    5    0    0  0.14247461413E+03  0.75580227528E+02 -0.37998659455E+01  0.16132521640E+03  0.00000000000E+00 0. -1.
        -13    1    5    5    0    0  0.14148401918E+03  0.14052524647E+03  0.81440946582E+02  0.21540125431E+03  0.00000000000E+00 0.  1.
          4    1    6    6  503    0 -0.28804539799E+03 -0.51106659855E+01  0.20785313599E+03  0.35524526225E+03  0.00000000000E+00 0. -1.
         -4    1    6    6    0  503 -0.30861710112E+03  0.58602200318E+02  0.14988717103E+03  0.34805875513E+03  0.00000000000E+00 0.  1.
<mgrwt>
<rscale>  0 0.14984909E+04</rscale>
<asrwt>0</asrwt>
<pdfrwt beam="1">  1        2 0.95278373E-01 0.14984909E+04</pdfrwt>
<pdfrwt beam="2">  1       -1 0.13945278E+00 0.14984909E+04</pdfrwt>
<totfact> 0.22315265E+01</totfact>
</mgrwt>
</event>
<event>
12    7  0.1698542E-007  0.1827237E+04  0.7818608E-02  0.8691948E-01
          2   -1    0    0  501    0  0.00000000000E+00  0.00000000000E+00  0.40746896469E+04  0.40746896469E+04  0.00000000000E+00 0. -1.
         -1   -1    0    0    0  501 -0.00000000000E+00 -0.00000000000E+00 -0.20484956622E+03  0.20484956622E+03  0.00000000000E+00 0.  1.
         24    2    1    2    0    0 -0.70560316740E+02 -0.73635897477E+02 -0.12712505651E+03  0.18222322089E+03  0.81507782106E+02 0.  0.
        254    2    1    2    0    0  0.70560316740E+02  0.73635897477E+02  0.39969651372E+04  0.40973159922E+04  0.89547028346E+03 0.  0.
         23    2    4    4    0    0 -0.24420369324E+03 -0.22258076064E+03  0.28091487908E+04  0.28300291564E+04  0.92576768139E+02 0.  0.
         23    2    4    4    0    0  0.31476400998E+03  0.29621665812E+03  0.11878163464E+04  0.12672868359E+04  0.91036043276E+02 0.  0.
          2    1    3    3  502    0 -0.47909995943E+01 -0.62940446154E+02 -0.71923833109E+02  0.95694781510E+02  0.00000000000E+00 0. -1.
         -1    1    3    3    0  502 -0.65769317146E+02 -0.10695451323E+02 -0.55201223400E+02  0.86528439381E+02  0.00000000000E+00 0.  1.
         13    1    5    5    0    0 -0.25184810311E+03 -0.20787739129E+03  0.26678836934E+04  0.26877953565E+04  0.00000000000E+00 0. -1.
        -13    1    5    5    0    0  0.76444098736E+01 -0.14703369353E+02  0.14126509746E+03  0.14223379990E+03  0.00000000000E+00 0.  1.
          2    1    6    6  503    0  0.16192724597E+03  0.10646379350E+03  0.61484626964E+03  0.64466340644E+03  0.00000000000E+00 0.  1.
         -2    1    6    6    0  503  0.15283676401E+03  0.18975286461E+03  0.57297007673E+03  0.62262342944E+03  0.00000000000E+00 0. -1.
<mgrwt>
<rscale>  0 0.18272366E+04</rscale>
<asrwt>0</asrwt>
<pdfrwt beam="1">  1        2 0.62687527E+00 0.18272366E+04</pdfrwt>
<pdfrwt beam="2">  1       -1 0.31515321E-01 0.18272366E+04</pdfrwt>
<totfact> 0.30255876E+00</totfact>
</mgrwt>
</event>
<event>
12    7  0.1698542E-007  0.1920522E+04  0.7818608E-02  0.8644708E-01
         -1   -1    0    0    0  501 -0.00000000000E+00  0.00000000000E+00  0.22179574667E+03  0.22179574667E+03  0.00000000000E+00 0.  1.
          2   -1    0    0  501    0  0.00000000000E+00 -0.00000000000E+00 -0.41574348711E+04  0.41574348711E+04  0.00000000000E+00 0. -1.
         24    2    1    2    0    0  0.58675232049E+03 -0.51654967404E+01 -0.25656550416E+04  0.26331012899E+04  0.79571619260E+02 0.  0.
        254    2    1    2    0    0 -0.58675232049E+03  0.51654967404E+01 -0.13699840828E+04  0.17461293278E+04  0.90983859797E+03 0.  0.
         23    2    4    4    0    0  0.21452588241E+03  0.11410408029E+03 -0.43087756608E+03  0.50354711495E+03  0.94144169536E+02 0.  0.
         23    2    4    4    0    0 -0.80127820290E+03 -0.10893858355E+03 -0.93910651675E+03  0.12425822129E+04  0.90416439611E+02 0.  0.
          2    1    3    3  502    0  0.53367390509E+03  0.92779828477E+00 -0.24146897435E+04  0.24729608276E+04  0.00000000000E+00 0. -1.
         -1    1    3    3    0  502  0.53078415398E+02 -0.60932950252E+01 -0.15096529811E+03  0.16014046228E+03  0.00000000000E+00 0.  1.
         13    1    5    5    0    0  0.16146339368E+02 -0.16053381761E+02 -0.47752207158E+02  0.52902633483E+02  0.00000000000E+00 0. -1.
        -13    1    5    5    0    0  0.19837954304E+03  0.13015746205E+03 -0.38312535892E+03  0.45064448146E+03  0.00000000000E+00 0.  1.
          3    1    6    6  503    0 -0.15975636432E+03 -0.47739683662E+01 -0.23683606184E+03  0.28572050487E+03  0.00000000000E+00 0. -1.
         -3    1    6    6    0  503 -0.64152183858E+03 -0.10416461518E+03 -0.70227045491E+03  0.95686170801E+03  0.00000000000E+00 0.  1.
<mgrwt>
<rscale>  0 0.19205222E+04</rscale>
<asrwt>0</asrwt>
<pdfrwt beam="1">  1        2 0.63960531E+00 0.19205222E+04</pdfrwt>
<pdfrwt beam="2">  1       -1 0.34122425E-01 0.19205222E+04</pdfrwt>
<totfact> 0.22179503E+00</totfact>
</mgrwt>
</event>
<event>
12    7  0.1698542E-007  0.1665968E+04  0.7818608E-02  0.8781015E-01
          2   -1    0    0  501    0  0.00000000000E+00  0.00000000000E+00  0.47710716612E+03  0.47710716612E+03  0.00000000000E+00 0. -1.
         -1   -1    0    0    0  501 -0.00000000000E+00 -0.00000000000E+00 -0.14543117882E+04  0.14543117882E+04  0.00000000000E+00 0.  1.
         24    2    1    2    0    0  0.10633125313E+03 -0.46722419173E+03  0.99543500506E+02  0.49588966891E+03  0.79955453258E+02 0.  0.
        254    2    1    2    0    0 -0.10633125313E+03  0.46722419173E+03 -0.10767481226E+04  0.14355292854E+04  0.81960541058E+03 0.  0.
         23    2    4    4    0    0  0.30974004725E+03  0.22221026250E+03 -0.74771600185E+03  0.84440978131E+03  0.92910503759E+02 0.  0.
         23    2    4    4    0    0 -0.41607130038E+03  0.24501392924E+03 -0.32903212074E+03  0.59111950411E+03  0.89515245294E+02 0.  0.
          4    1    3    3  502    0  0.41302671670E+01 -0.89335466997E+02  0.46651659027E+02  0.10086754711E+03  0.00000000000E+00 0. -1.
         -1    1    3    3    0  502  0.10220098596E+03 -0.37788872474E+03  0.52891841479E+02  0.39502212180E+03  0.00000000000E+00 0.  1.
         13    1    5    5    0    0  0.25056803471E+02  0.34696457514E+02 -0.15351338067E+03  0.15936764291E+03  0.00000000000E+00 0. -1.
        -13    1    5    5    0    0  0.28468324378E+03  0.18751380499E+03 -0.59420262118E+03  0.68504213839E+03  0.00000000000E+00 0.  1.
          4    1    6    6  503    0 -0.69989506078E+01  0.25827785102E+02 -0.13978862606E+02  0.30190534819E+02  0.00000000000E+00 0. -1.
         -4    1    6    6    0  503 -0.40907234978E+03  0.21918614413E+03 -0.31505325813E+03  0.56092896929E+03  0.00000000000E+00 0.  1.
<mgrwt>
<rscale>  0 0.16659683E+04</rscale>
<asrwt>0</asrwt>
<pdfrwt beam="1">  1        2 0.73401104E-01 0.16659683E+04</pdfrwt>
<pdfrwt beam="2">  1       -1 0.22374027E+00 0.16659683E+04</pdfrwt>
<totfact> 0.73668498E+00</totfact>
</mgrwt>
</event>
<event>
12    7  0.1698542E-007  0.1689288E+04  0.7818608E-02  0.8767497E-01
         -1   -1    0    0    0  501 -0.00000000000E+00  0.00000000000E+00  0.28600328739E+03  0.28600328739E+03  0.00000000000E+00 0.  1.
          2   -1    0    0  501    0  0.00000000000E+00 -0.00000000000E+00 -0.24944593406E+04  0.24944593406E+04  0.00000000000E+00 0. -1.
         24    2    1    2    0    0  0.28560210690E+03  0.63429717616E+02 -0.14873395593E+04  0.15179934985E+04  0.80829475829E+02 0.  0.
        254    2    1    2    0    0 -0.28560210690E+03 -0.63429717616E+02 -0.72111649391E+03  0.12624691295E+04  0.99409627939E+03 0.  0.
         23    2    4    4    0    0 -0.22463065974E+03  0.14656415735E+03  0.17667141563E+03  0.33382031250E+03  0.91012232251E+02 0.  0.
         23    2    4    4    0    0 -0.60971447163E+02 -0.20999387497E+03 -0.89778790954E+03  0.92864881704E+03  0.92469183962E+02 0.  0.
          4    1    3    3  502    0  0.14085183815E+03  0.64586582960E+02 -0.88820365305E+03  0.90161876439E+03  0.00000000000E+00 0. -1.
         -3    1    3    3    0  502  0.14475026876E+03 -0.11568653431E+01 -0.59913590628E+03  0.61637473410E+03  0.00000000000E+00 0.  1.
         13    1    5    5    0    0 -0.21130465969E+03  0.13253859223E+03  0.12572852463E+03  0.27932740564E+03  0.00000000000E+00 0.  1.
        -13    1    5    5    0    0 -0.13326000054E+02  0.14025565119E+02  0.50942890999E+02  0.54492906856E+02  0.00000000000E+00 0. -1.
          4    1    6    6  503    0  0.23439988639E+02 -0.67261131497E+02 -0.24683809423E+03  0.25690959041E+03  0.00000000000E+00 0. -1.
         -4    1    6    6    0  503 -0.84411435802E+02 -0.14273274347E+03 -0.65094981530E+03  0.67173922663E+03  0.00000000000E+00 0.  1.
<mgrwt>
<rscale>  0 0.16892881E+04</rscale>
<asrwt>0</asrwt>
<pdfrwt beam="1">  1        2 0.38376296E+00 0.16892881E+04</pdfrwt>
<pdfrwt beam="2">  1       -1 0.44000507E-01 0.16892881E+04</pdfrwt>
<totfact> 0.19455492E+01</totfact>
</mgrwt>
</event>
<event>
12    7  0.1698542E-007  0.1965195E+04  0.7818608E-02  0.8623068E-01
         -1   -1    0    0    0  501 -0.00000000000E+00  0.00000000000E+00  0.53923886659E+03  0.53923886659E+03  0.00000000000E+00 0.  1.
          2   -1    0    0  501    0  0.00000000000E+00 -0.00000000000E+00 -0.17904818414E+04  0.17904818414E+04  0.00000000000E+00 0. -1.
         24    2    1    2    0    0 -0.31263164534E+02  0.41089142552E+02 -0.14073769444E+04  0.14105587240E+04  0.79374726526E+02 0.  0.
        254    2    1    2    0    0  0.31263164534E+02 -0.41089142552E+02  0.15613396951E+03  0.91916198404E+03  0.90433137366E+03 0.  0.
         23    2    4    4    0    0  0.22057732705E+03 -0.27889171826E+02  0.47737160889E+03  0.53519903894E+03  0.95510183723E+02 0.  0.
         23    2    4    4    0    0 -0.18931416252E+03 -0.13199970727E+02 -0.32123763938E+03  0.38396294510E+03  0.90663283074E+02 0.  0.
          2    1    3    3  502    0 -0.13305071204E+02  0.18247747393E+02 -0.12672462480E+04  0.12674474578E+04  0.00000000000E+00 0. -1.
         -1    1    3    3    0  502 -0.17958093330E+02  0.22841395160E+02 -0.14013069639E+03  0.14311126622E+03  0.00000000000E+00 0.  1.
         13    1    5    5    0    0  0.19175262207E+03 -0.44620370538E+02  0.45293235744E+03  0.49387019140E+03  0.00000000000E+00 0.  1.
        -13    1    5    5    0    0  0.28824704981E+02  0.16731198713E+02  0.24439251451E+02  0.41328847541E+02  0.00000000000E+00 0. -1.
          1    1    6    6  503    0 -0.42363296404E+02  0.16956726964E+01 -0.16834034825E+02  0.45616980573E+02  0.00000000000E+00 0. -1.
         -1    1    6    6    0  503 -0.14695086611E+03 -0.14895643423E+02 -0.30440360456E+03  0.33834596453E+03  0.00000000000E+00 0.  1.
<mgrwt>
<rscale>  0 0.19651945E+04</rscale>
<asrwt>0</asrwt>
<pdfrwt beam="1">  1        2 0.27545874E+00 0.19651945E+04</pdfrwt>
<pdfrwt beam="2">  1       -1 0.82959826E-01 0.19651945E+04</pdfrwt>
<totfact> 0.13372190E+01</totfact>
</mgrwt>
</event>
<event>
12    7  0.1698542E-007  0.2371948E+04  0.7818608E-02  0.8450081E-01
         -1   -1    0    0    0  501 -0.00000000000E+00  0.00000000000E+00  0.91070632942E+03  0.91070632942E+03  0.00000000000E+00 0.  1.
          2   -1    0    0  501    0  0.00000000000E+00 -0.00000000000E+00 -0.15444432743E+04  0.15444432743E+04  0.00000000000E+00 0. -1.
         24    2    1    2    0    0  0.64896399964E+03 -0.76781212712E+03 -0.40501103010E+03  0.10867998619E+04  0.80064160986E+02 0.  0.
        254    2    1    2    0    0 -0.64896399964E+03  0.76781212712E+03 -0.22872591478E+03  0.13683497419E+04  0.89965312013E+03 0.  0.
         23    2    4    4    0    0 -0.23477844053E+03  0.78983567571E+03 -0.38566197739E+03  0.91437891721E+03  0.91609675623E+02 0.  0.
         23    2    4    4    0    0 -0.41418555911E+03 -0.22023548588E+02  0.15693606260E+03  0.45397082465E+03  0.97086908587E+02 0.  0.
          4    1    3    3  502    0  0.43105949897E+03 -0.56063373586E+03 -0.30187323145E+03  0.76892777639E+03  0.00000000000E+00 0. -1.
         -3    1    3    3    0  502  0.21790450067E+03 -0.20717839126E+03 -0.10313779865E+03  0.31787208548E+03  0.00000000000E+00 0.  1.
         13    1    5    5    0    0 -0.14336762057E+03  0.32331831331E+03 -0.16463287359E+03  0.39011919898E+03  0.00000000000E+00 0.  1.
        -13    1    5    5    0    0 -0.91410819968E+02  0.46651736240E+03 -0.22102910380E+03  0.52425971823E+03  0.00000000000E+00 0. -1.
          1    1    6    6  503    0 -0.33496982741E+03 -0.28660775420E+02  0.16419397672E+03  0.37414687933E+03  0.00000000000E+00 0. -1.
         -1    1    6    6    0  503 -0.79215731700E+02  0.66372268320E+01 -0.72579141139E+01  0.79823945317E+02  0.00000000000E+00 0.  1.
<mgrwt>
<rscale>  0 0.23719479E+04</rscale>
<asrwt>0</asrwt>
<pdfrwt beam="1">  1        2 0.23760666E+00 0.23719479E+04</pdfrwt>
<pdfrwt beam="2">  1       -1 0.14010867E+00 0.23719479E+04</pdfrwt>
<totfact> 0.51455301E+00</totfact>
</mgrwt>
</event>
<event>
12    7  0.1698542E-007  0.1737127E+04  0.7818608E-02  0.8740468E-01
          2   -1    0    0  501    0  0.00000000000E+00  0.00000000000E+00  0.16054785553E+04  0.16054785553E+04  0.00000000000E+00 0. -1.
         -1   -1    0    0    0  501 -0.00000000000E+00 -0.00000000000E+00 -0.46989280011E+03  0.46989280011E+03  0.00000000000E+00 0.  1.
         24    2    1    2    0    0 -0.35483391861E+03 -0.44548506532E+03  0.74008043308E+03  0.93732601422E+03  0.80603698893E+02 0.  0.
        254    2    1    2    0    0  0.35483391861E+03  0.44548506532E+03  0.39550532214E+03  0.11380453412E+04  0.90241824318E+03 0.  0.
         23    2    4    4    0    0  0.38976983932E+03  0.52893578855E+03 -0.59725579626E+02  0.66522435783E+03  0.85221507444E+02 0.  0.
         23    2    4    4    0    0 -0.34935920708E+02 -0.83450723235E+02  0.45523090177E+03  0.47282098340E+03  0.90221763737E+02 0.  0.
          2    1    3    3  502    0 -0.34645029824E+03 -0.44484083725E+03  0.71317206498E+03  0.90913451915E+03  0.00000000000E+00 0. -1.
         -1    1    3    3    0  502 -0.83836203753E+01 -0.64422806845E+00  0.26908368101E+02  0.28191495070E+02  0.00000000000E+00 0.  1.
         13    1    5    5    0    0  0.35688215627E+03  0.46164561979E+03 -0.28873862590E+02  0.58422191988E+03  0.00000000000E+00 0.  1.
        -13    1    5    5    0    0  0.32887683053E+02  0.67290168768E+02 -0.30851717035E+02  0.81002437947E+02  0.00000000000E+00 0. -1.
          1    1    6    6  503    0  0.22583756694E+02 -0.52425345607E+01  0.16880009230E+03  0.17038480389E+03  0.00000000000E+00 0. -1.
         -1    1    6    6    0  503 -0.57519677402E+02 -0.78208188675E+02  0.28643080947E+03  0.30243617951E+03  0.00000000000E+00 0.  1.
<mgrwt>
<rscale>  0 0.17371273E+04</rscale>
<asrwt>0</asrwt>
<pdfrwt beam="1">  1        2 0.24699670E+00 0.17371273E+04</pdfrwt>
<pdfrwt beam="2">  1       -1 0.72291201E-01 0.17371273E+04</pdfrwt>
<totfact> 0.23105656E+01</totfact>
</mgrwt>
</event>
<event>
12    7  0.1698542E-007  0.1138821E+04  0.7818608E-02  0.9168159E-01
         -1   -1    0    0    0  501 -0.00000000000E+00  0.00000000000E+00  0.95020655432E+02  0.95020655432E+02  0.00000000000E+00 0.  1.
          2   -1    0    0  501    0  0.00000000000E+00 -0.00000000000E+00 -0.34121876826E+04  0.34121876826E+04  0.00000000000E+00 0. -1.
         24    2    1    2    0    0  0.16549546603E+03 -0.13042048070E+03 -0.81042145083E+03  0.84125861581E+03  0.80838602465E+02 0.  0.
        254    2    1    2    0    0 -0.16549546603E+03  0.13042048070E+03 -0.25067455763E+04  0.26659497222E+04  0.88267564022E+03 0.  0.
         23    2    4    4    0    0  0.30156626893E+03  0.21618072049E+03 -0.72075891424E+03  0.81570150862E+03  0.90549545780E+02 0.  0.
         23    2    4    4    0    0 -0.46706173495E+03 -0.85760239785E+02 -0.17859866621E+04  0.18502482136E+04  0.90380372619E+02 0.  0.
          2    1    3    3  502    0  0.13975026589E+03 -0.11658842836E+03 -0.77097594767E+03  0.79216596135E+03  0.00000000000E+00 0. -1.
         -1    1    3    3    0  502  0.25745200134E+02 -0.13832052344E+02 -0.39445503163E+02  0.49092654458E+02  0.00000000000E+00 0.  1.
         13    1    5    5    0    0 -0.55876520436E+01  0.37519540361E+01 -0.50418502359E+01  0.84094749093E+01  0.00000000000E+00 0. -1.
        -13    1    5    5    0    0  0.30715392097E+03  0.21242876645E+03 -0.71571706401E+03  0.80729203371E+03  0.00000000000E+00 0.  1.
          4    1    6    6  503    0 -0.59731701829E+02 -0.38205386069E+02 -0.20399247380E+03  0.21596401805E+03  0.00000000000E+00 0. -1.
         -4    1    6    6    0  503 -0.40733003313E+03 -0.47554853717E+02 -0.15819941883E+04  0.16342841955E+04  0.00000000000E+00 0.  1.
<mgrwt>
<rscale>  0 0.11388210E+04</rscale>
<asrwt>0</asrwt>
<pdfrwt beam="1">  1        2 0.52495191E+00 0.11388210E+04</pdfrwt>
<pdfrwt beam="2">  1       -1 0.14618563E-01 0.11388210E+04</pdfrwt>
<totfact> 0.37195190E+01</totfact>
</mgrwt>
</event>
<event>
12    7  0.1698542E-007  0.2885934E+04  0.7818608E-02  0.8277075E-01
          2   -1    0    0  501    0  0.00000000000E+00  0.00000000000E+00  0.14991889501E+04  0.14991889501E+04  0.00000000000E+00 0. -1.
         -1   -1    0    0    0  501 -0.00000000000E+00 -0.00000000000E+00 -0.13888531802E+04  0.13888531802E+04  0.00000000000E+00 0.  1.
         24    2    1    2    0    0 -0.10713314656E+03  0.10758752329E+04  0.77390573370E+03  0.13323617566E+04  0.85280349794E+02 0.  0.
        254    2    1    2    0    0  0.10713314656E+03 -0.10758752329E+04 -0.66356996382E+03  0.15556803737E+04  0.90046171509E+03 0.  0.
         23    2    4    4    0    0  0.18805489722E+03 -0.57663675354E+03 -0.81501552619E+03  0.10200192463E+04  0.91183139845E+02 0.  0.
         23    2    4    4    0    0 -0.80921750661E+02 -0.49923847931E+03  0.15144556237E+03  0.53566112736E+03  0.90607373007E+02 0.  0.
          2    1    3    3  502    0 -0.39441969273E+02  0.24217249817E+03  0.13688590159E+03  0.28096429998E+03  0.00000000000E+00 0. -1.
         -1    1    3    3    0  502 -0.67691177284E+02  0.83370273469E+03  0.63701983211E+03  0.10513974566E+04  0.00000000000E+00 0.  1.
         13    1    5    5    0    0  0.40952060204E+02 -0.26467604440E+03 -0.33373138021E+03  0.42791017031E+03  0.00000000000E+00 0. -1.
        -13    1    5    5    0    0  0.14710283701E+03 -0.31196070915E+03 -0.48128414598E+03  0.59210907600E+03  0.00000000000E+00 0.  1.
          2    1    6    6  503    0 -0.75916861293E+01 -0.19720745716E+03  0.20562936398E+02  0.19842189700E+03  0.00000000000E+00 0.  1.
         -2    1    6    6    0  503 -0.73330064531E+02 -0.30203102216E+03  0.13088262598E+03  0.33723923036E+03  0.00000000000E+00 0. -1.
<mgrwt>
<rscale>  0 0.28859337E+04</rscale>
<asrwt>0</asrwt>
<pdfrwt beam="1">  1        2 0.23064445E+00 0.28859337E+04</pdfrwt>
<pdfrwt beam="2">  1       -1 0.21366972E+00 0.28859337E+04</pdfrwt>
<totfact> 0.15178900E+00</totfact>
</mgrwt>
</event>
<event>
12    7  0.1698542E-007  0.1439710E+04  0.7818608E-02  0.8925565E-01
          2   -1    0    0  501    0  0.00000000000E+00  0.00000000000E+00  0.15082860981E+04  0.15082860981E+04  0.00000000000E+00 0. -1.
         -1   -1    0    0    0  501 -0.00000000000E+00 -0.00000000000E+00 -0.34356316375E+03  0.34356316375E+03  0.00000000000E+00 0.  1.
         24    2    1    2    0    0  0.28763217150E+03 -0.14625979687E+03  0.73425297411E+03  0.80605443223E+03  0.80449508748E+02 0.  0.
        254    2    1    2    0    0 -0.28763217150E+03  0.14625979687E+03  0.43046996020E+03  0.10457948296E+04  0.89680446291E+03 0.  0.
         23    2    4    4    0    0  0.31251586590E+03  0.29101979192E+01  0.19126682112E+03  0.37757029561E+03  0.91113640958E+02 0.  0.
         23    2    4    4    0    0 -0.60014803740E+03  0.14334959895E+03  0.23920313907E+03  0.66822453398E+03  0.92623494611E+02 0.  0.
          4    1    3    3  502    0  0.26713889244E+03 -0.15127760602E+03  0.64489245881E+03  0.71423692524E+03  0.00000000000E+00 0. -1.
         -1    1    3    3    0  502  0.20493279064E+02  0.50178091555E+01  0.89360515298E+02  0.91817506990E+02  0.00000000000E+00 0.  1.
         13    1    5    5    0    0  0.56224035145E+02  0.31486763395E+02  0.18066386426E+02  0.66924978263E+02  0.00000000000E+00 0. -1.
        -13    1    5    5    0    0  0.25629183076E+03 -0.28576565476E+02  0.17320043470E+03  0.31064531734E+03  0.00000000000E+00 0.  1.
          3    1    6    6  503    0 -0.61509987189E+02  0.38455625340E+02  0.48563095037E+02  0.87296551157E+02  0.00000000000E+00 0. -1.
         -3    1    6    6    0  503 -0.53863805022E+03  0.10489397361E+03  0.19064004403E+03  0.58092798282E+03  0.00000000000E+00 0.  1.
<mgrwt>
<rscale>  0 0.14397104E+04</rscale>
<asrwt>0</asrwt>
<pdfrwt beam="1">  1        2 0.23204401E+00 0.14397104E+04</pdfrwt>
<pdfrwt beam="2">  1       -1 0.52855872E-01 0.14397104E+04</pdfrwt>
<totfact> 0.50106038E+01</totfact>
</mgrwt>
</event>
<event>
12    7  0.1698542E-007  0.1582772E+04  0.7818608E-02  0.8831202E-01
         -1   -1    0    0    0  501 -0.00000000000E+00  0.00000000000E+00  0.38206294542E+03  0.38206294542E+03  0.00000000000E+00 0.  1.
          2   -1    0    0  501    0  0.00000000000E+00 -0.00000000000E+00 -0.16392367094E+04  0.16392367094E+04  0.00000000000E+00 0. -1.
         24    2    1    2    0    0  0.40434205131E+03 -0.70062326119E+02 -0.85645294516E+03  0.95291984650E+03  0.78379605744E+02 0.  0.
        254    2    1    2    0    0 -0.40434205131E+03  0.70062326119E+02 -0.40072081880E+03  0.10683798083E+04  0.90136397540E+03 0.  0.
         23    2    4    4    0    0 -0.61042572761E+03  0.27187455923E+03 -0.35399324069E+03  0.76180157100E+03  0.92168726999E+02 0.  0.
         23    2    4    4    0    0  0.20608367630E+03 -0.20181223311E+03 -0.46727578112E+02  0.30657823729E+03  0.92779792808E+02 0.  0.
          4    1    3    3  502    0  0.34667783232E+03 -0.63033210627E+02 -0.66146966206E+03  0.74946702322E+03  0.00000000000E+00 0. -1.
         -3    1    3    3    0  502  0.57664218984E+02 -0.70291154919E+01 -0.19498328309E+03  0.20345282328E+03  0.00000000000E+00 0.  1.
         13    1    5    5    0    0 -0.59141988191E+03  0.27704691931E+03 -0.33327803835E+03  0.73321669584E+03  0.00000000000E+00 0.  1.
        -13    1    5    5    0    0 -0.19005845701E+02 -0.51723600816E+01 -0.20715202340E+02  0.28584875154E+02  0.00000000000E+00 0. -1.
          4    1    6    6  503    0  0.18055161646E+02 -0.54227890488E+02  0.16193441003E+02  0.59404381155E+02  0.00000000000E+00 0. -1.
         -4    1    6    6    0  503  0.18802851466E+03 -0.14758434262E+03 -0.62921019116E+02  0.24717385614E+03  0.00000000000E+00 0.  1.
<mgrwt>
<rscale>  0 0.15827718E+04</rscale>
<asrwt>0</asrwt>
<pdfrwt beam="1">  1        2 0.25219026E+00 0.15827718E+04</pdfrwt>
<pdfrwt beam="2">  1       -1 0.58778914E-01 0.15827718E+04</pdfrwt>
<totfact> 0.34021834E+01</totfact>
</mgrwt>
</event>
<event>
12    7  0.1698542E-007  0.2336622E+04  0.7818608E-02  0.8463620E-01
          2   -1    0    0  501    0  0.00000000000E+00  0.00000000000E+00  0.18709928317E+04  0.18709928317E+04  0.00000000000E+00 0. -1.
         -1   -1    0    0    0  501 -0.00000000000E+00 -0.00000000000E+00 -0.72953261234E+03  0.72953261234E+03  0.00000000000E+00 0.  1.
         24    2    1    2    0    0  0.42660052297E+03  0.87589744437E+03  0.25676009474E+03  0.10107831841E+04  0.81071325467E+02 0.  0.
        254    2    1    2    0    0 -0.42660052297E+03 -0.87589744437E+03  0.88470012460E+03  0.15897422599E+04  0.89185301658E+03 0.  0.
         23    2    4    4    0    0  0.68518130607E+02  0.34337901460E+02 -0.10272308898E+03  0.15550063131E+03  0.88060136436E+02 0.  0.
         23    2    4    4    0    0 -0.49511865358E+03 -0.91023534583E+03  0.98742321358E+03  0.14342416286E+04  0.91507270418E+02 0.  0.
          2    1    3    3  502    0  0.40631437916E+03  0.83031022050E+03  0.26147403182E+03  0.96066388830E+03  0.00000000000E+00 0. -1.
         -1    1    3    3    0  502  0.20286143810E+02  0.45587223873E+02 -0.47139370812E+01  0.50119295825E+02  0.00000000000E+00 0.  1.
         13    1    5    5    0    0  0.21594085554E+02  0.41068718046E+02 -0.97287225946E+02  0.10778565983E+03  0.00000000000E+00 0. -1.
        -13    1    5    5    0    0  0.46924045053E+02 -0.67308165858E+01 -0.54358630323E+01  0.47714971476E+02  0.00000000000E+00 0.  1.
          3    1    6    6  503    0 -0.24945745288E+03 -0.42718177579E+03  0.53088627266E+03  0.72564007942E+03  0.00000000000E+00 0. -1.
         -3    1    6    6    0  503 -0.24566120070E+03 -0.48305357004E+03  0.45653694093E+03  0.70860154917E+03  0.00000000000E+00 0.  1.
<mgrwt>
<rscale>  0 0.23366217E+04</rscale>
<asrwt>0</asrwt>
<pdfrwt beam="1">  1        2 0.28784505E+00 0.23366217E+04</pdfrwt>
<pdfrwt beam="2">  1       -1 0.11223579E+00 0.23366217E+04</pdfrwt>
<totfact> 0.58988369E+00</totfact>
</mgrwt>
</event>
<event>
12    7  0.1698542E-007  0.1883322E+04  0.7818608E-02  0.8663203E-01
         -1   -1    0    0    0  501 -0.00000000000E+00  0.00000000000E+00  0.64436882680E+03  0.64436882680E+03  0.00000000000E+00 0.  1.
          2   -1    0    0  501    0  0.00000000000E+00 -0.00000000000E+00 -0.13761144102E+04  0.13761144102E+04  0.00000000000E+00 0. -1.
         24    2    1    2    0    0 -0.18471461620E+03 -0.53898299300E+03 -0.75895223982E+03  0.95341892553E+03  0.91525892782E+02 0.  0.
        254    2    1    2    0    0  0.18471461620E+03  0.53898299300E+03  0.27206656445E+02  0.10670643115E+04  0.90181144727E+03 0.  0.
         23    2    4    4    0    0  0.99787261814E+02  0.57914372790E+03  0.37049760262E+03  0.70145316392E+03  0.96969646999E+02 0.  0.
         23    2    4    4    0    0  0.84927354390E+02 -0.40160734896E+02 -0.34329094618E+03  0.36561114753E+03  0.83649849496E+02 0.  0.
          4    1    3    3  502    0 -0.57724687276E+02 -0.15256788683E+03 -0.28927377623E+03  0.33209699972E+03  0.00000000000E+00 0. -1.
         -3    1    3    3    0  502 -0.12698992893E+03 -0.38641510617E+03 -0.46967846359E+03  0.62132192581E+03  0.00000000000E+00 0.  1.
         13    1    5    5    0    0  0.62348895672E+02  0.17691415671E+03  0.15657417257E+03  0.24433885313E+03  0.00000000000E+00 0. -1.
        -13    1    5    5    0    0  0.37438366142E+02  0.40222957119E+03  0.21392343006E+03  0.45711431079E+03  0.00000000000E+00 0.  1.
          4    1    6    6  503    0  0.49248664740E+01  0.20339896537E+02 -0.29428434418E+02  0.36110918754E+02  0.00000000000E+00 0. -1.
         -4    1    6    6    0  503  0.80002487916E+02 -0.60500631433E+02 -0.31386251176E+03  0.32950022878E+03  0.00000000000E+00 0.  1.
<mgrwt>
<rscale>  0 0.18833218E+04</rscale>
<asrwt>0</asrwt>
<pdfrwt beam="1">  1        2 0.21170991E+00 0.18833218E+04</pdfrwt>
<pdfrwt beam="2">  1       -1 0.99133666E-01 0.18833218E+04</pdfrwt>
<totfact> 0.15521452E+01</totfact>
</mgrwt>
</event>
<event>
12    7  0.1698542E-007  0.1853335E+04  0.7818608E-02  0.8678440E-01
          2   -1    0    0  501    0  0.00000000000E+00  0.00000000000E+00  0.29771629415E+04  0.29771629415E+04  0.00000000000E+00 0. -1.
         -1   -1    0    0    0  501 -0.00000000000E+00 -0.00000000000E+00 -0.28843314929E+03  0.28843314929E+03  0.00000000000E+00 0.  1.
         24    2    1    2    0    0 -0.63568103564E+03  0.22359521620E+03  0.64530559870E+03  0.93639998904E+03  0.79626779265E+02 0.  0.
        254    2    1    2    0    0  0.63568103564E+03 -0.22359521620E+03  0.20434241936E+04  0.23291961018E+04  0.89190069291E+03 0.  0.
         23    2    4    4    0    0 -0.35376281269E+02 -0.37095172488E+03  0.10501670668E+04  0.11181460817E+04  0.92429045719E+02 0.  0.
         23    2    4    4    0    0  0.67105731691E+03  0.14735650868E+03  0.99325712680E+03  0.12110500201E+04  0.89724957256E+02 0.  0.
          4    1    3    3  502    0 -0.26698004507E+03  0.12362395345E+03  0.31940284687E+03  0.43425730267E+03  0.00000000000E+00 0. -1.
         -3    1    3    3    0  502 -0.36870099058E+03  0.99971262749E+02  0.32590275183E+03  0.50214268637E+03  0.00000000000E+00 0.  1.
         13    1    5    5    0    0 -0.56612063458E+02 -0.20612865572E+03  0.50980459174E+03  0.55280617779E+03  0.00000000000E+00 0.  1.
        -13    1    5    5    0    0  0.21235782189E+02 -0.16482306915E+03  0.54036247501E+03  0.56533990392E+03  0.00000000000E+00 0. -1.
          3    1    6    6  503    0  0.67403621864E+02  0.14625480375E+02  0.15418979061E+03  0.16891312692E+03  0.00000000000E+00 0. -1.
         -3    1    6    6    0  503  0.60365369505E+03  0.13273102830E+03  0.83906733619E+03  0.10421368932E+04  0.00000000000E+00 0.  1.
<mgrwt>
<rscale>  0 0.18533348E+04</rscale>
<asrwt>0</asrwt>
<pdfrwt beam="1">  1        2 0.45802505E+00 0.18533348E+04</pdfrwt>
<pdfrwt beam="2">  1       -1 0.44374333E-01 0.18533348E+04</pdfrwt>
<totfact> 0.97125089E+00</totfact>
</mgrwt>
</event>
<event>
12    7  0.1698542E-007  0.2983055E+04  0.7818608E-02  0.8248586E-01
         -1   -1    0    0    0  501 -0.00000000000E+00  0.00000000000E+00  0.15435879224E+04  0.15435879224E+04  0.00000000000E+00 0.  1.
          2   -1    0    0  501    0  0.00000000000E+00 -0.00000000000E+00 -0.14412231952E+04  0.14412231952E+04  0.00000000000E+00 0. -1.
         24    2    1    2    0    0 -0.10373642745E+04 -0.83124591006E+03 -0.21533576344E+03  0.13488909247E+04  0.77735672096E+02 0.  0.
        254    2    1    2    0    0  0.10373642745E+04  0.83124591006E+03  0.31770049062E+03  0.16359201930E+04  0.89900326753E+03 0.  0.
         23    2    4    4    0    0  0.19199402315E+03  0.65015585477E+03 -0.62813822998E+02  0.68687418050E+03  0.91028693640E+02 0.  0.
         23    2    4    4    0    0  0.84537025135E+03  0.18109005530E+03  0.38051431361E+03  0.94904601247E+03  0.91938680278E+02 0.  0.
          4    1    3    3  502    0 -0.10386122185E+03 -0.95748409695E+02 -0.91492913000E+00  0.14126481678E+03  0.00000000000E+00 0. -1.
         -3    1    3    3    0  502 -0.93350305265E+03 -0.73549750037E+03 -0.21442083431E+03  0.12076261079E+04  0.00000000000E+00 0.  1.
         13    1    5    5    0    0  0.49581935160E+02  0.13047003417E+03  0.22312871579E+02  0.14134589612E+03  0.00000000000E+00 0. -1.
        -13    1    5    5    0    0  0.14241208799E+03  0.51968582060E+03 -0.85126694576E+02  0.54552828439E+03  0.00000000000E+00 0.  1.
          4    1    6    6  503    0  0.51908913396E+03  0.11737056691E+03  0.28211768833E+03  0.60234522413E+03  0.00000000000E+00 0.  1.
         -4    1    6    6    0  503  0.32628111739E+03  0.63719488382E+02  0.98396625284E+02  0.34670078834E+03  0.00000000000E+00 0. -1.
<mgrwt>
<rscale>  0 0.29830553E+04</rscale>
<asrwt>0</asrwt>
<pdfrwt beam="1">  1        2 0.22172664E+00 0.29830553E+04</pdfrwt>
<pdfrwt beam="2">  1       -1 0.23747507E+00 0.29830553E+04</pdfrwt>
<totfact> 0.11271079E+00</totfact>
</mgrwt>
</event>
<event>
12    7  0.1698542E-007  0.1770749E+04  0.7818608E-02  0.8722011E-01
         -1   -1    0    0    0  501 -0.00000000000E+00  0.00000000000E+00  0.29550870412E+03  0.29550870412E+03  0.00000000000E+00 0.  1.
          2   -1    0    0  501    0  0.00000000000E+00 -0.00000000000E+00 -0.26526745371E+04  0.26526745371E+04  0.00000000000E+00 0. -1.
         24    2    1    2    0    0 -0.42270833947E+03  0.31171633860E+03 -0.14684969910E+04  0.15615774441E+04  0.78684720430E+02 0.  0.
        254    2    1    2    0    0  0.42270833947E+03 -0.31171633860E+03 -0.88866884201E+03  0.13866057972E+04  0.92579366493E+03 0.  0.
         23    2    4    4    0    0  0.66976561465E+03 -0.26377667986E+02 -0.54295193651E+03  0.86748057697E+03  0.91891164516E+02 0.  0.
         23    2    4    4    0    0 -0.24705727518E+03 -0.28533867061E+03 -0.34571690550E+03  0.51912522022E+03  0.86691183833E+02 0.  0.
          2    1    3    3  502    0 -0.34894308682E+03  0.27973482188E+03 -0.11738962313E+04  0.12562026948E+04  0.00000000000E+00 0. -1.
         -1    1    3    3    0  502 -0.73765252651E+02  0.31981516719E+02 -0.29460075966E+03  0.30537474929E+03  0.00000000000E+00 0.  1.
         13    1    5    5    0    0  0.34163634481E+03  0.25432329729E+02 -0.24420925874E+03  0.42071410428E+03  0.00000000000E+00 0.  1.
        -13    1    5    5    0    0  0.32812926984E+03 -0.51809997715E+02 -0.29874267777E+03  0.44676647268E+03  0.00000000000E+00 0. -1.
          2    1    6    6  503    0 -0.14463273259E+03 -0.10309812525E+03 -0.14454588716E+03  0.22900079533E+03  0.00000000000E+00 0. -1.
         -2    1    6    6    0  503 -0.10242454259E+03 -0.18224054535E+03 -0.20117101834E+03  0.29012442489E+03  0.00000000000E+00 0.  1.
<mgrwt>
<rscale>  0 0.17707495E+04</rscale>
<asrwt>0</asrwt>
<pdfrwt beam="1">  1        2 0.40810377E+00 0.17707495E+04</pdfrwt>
<pdfrwt beam="2">  1       -1 0.45462878E-01 0.17707495E+04</pdfrwt>
<totfact> 0.14694747E+01</totfact>
</mgrwt>
</event>
<event>
12    7  0.1698542E-007  0.1618623E+04  0.7818608E-02  0.8809188E-01
         -3   -1    0    0    0  501 -0.00000000000E+00  0.00000000000E+00  0.66878660622E+03  0.66878660622E+03  0.00000000000E+00 0.  1.
          4   -1    0    0  501    0  0.00000000000E+00 -0.00000000000E+00 -0.97936365193E+03  0.97936365193E+03  0.00000000000E+00 0. -1.
         24    2    1    2    0    0  0.24964019281E+03  0.45116793778E+03 -0.30373768044E+03  0.60431034047E+03  0.84033773687E+02 0.  0.
        254    2    1    2    0    0 -0.24964019281E+03 -0.45116793778E+03 -0.68393652666E+01  0.10438399177E+04  0.90756942592E+03 0.  0.
         23    2    4    4    0    0 -0.36560978952E+03 -0.52492431994E+03  0.28872576547E+03  0.70843374171E+03  0.96435153842E+02 0.  0.
         23    2    4    4    0    0  0.11596959671E+03  0.73756382156E+02 -0.29556513073E+03  0.33540617596E+03  0.79054443894E+02 0.  0.
          2    1    3    3  502    0  0.25320814942E+03  0.41733072698E+03 -0.28859328435E+03  0.56706735613E+03  0.00000000000E+00 0. -1.
         -1    1    3    3    0  502 -0.35679566059E+01  0.33837210805E+02 -0.15144396096E+02  0.37242984339E+02  0.00000000000E+00 0.  1.
         13    1    5    5    0    0 -0.98633267051E+02 -0.13151751644E+03  0.12157472710E+03  0.20446464919E+03  0.00000000000E+00 0.  1.
        -13    1    5    5    0    0 -0.26697652247E+03 -0.39340680350E+03  0.16715103837E+03  0.50396909252E+03  0.00000000000E+00 0. -1.
          2    1    6    6  503    0  0.78072801783E+01 -0.12864615887E+02 -0.10212761650E+02  0.18186601283E+02  0.00000000000E+00 0. -1.
         -2    1    6    6    0  503  0.10816231653E+03  0.86620998042E+02 -0.28535236908E+03  0.31721957468E+03  0.00000000000E+00 0.  1.
<mgrwt>
<rscale>  0 0.16186232E+04</rscale>
<asrwt>0</asrwt>
<pdfrwt beam="1">  1        4 0.15067133E+00 0.16186232E+04</pdfrwt>
<pdfrwt beam="2">  1       -3 0.10289025E+00 0.16186232E+04</pdfrwt>
<totfact> 0.52661215E-01</totfact>
</mgrwt>
</event>
<event>
12    7  0.1698542E-007  0.2620763E+04  0.7818608E-02  0.8361183E-01
          2   -1    0    0  501    0  0.00000000000E+00  0.00000000000E+00  0.93420570224E+03  0.93420570224E+03  0.00000000000E+00 0. -1.
         -1   -1    0    0    0  501 -0.00000000000E+00 -0.00000000000E+00 -0.18380310804E+04  0.18380310804E+04  0.00000000000E+00 0.  1.
         24    2    1    2    0    0  0.57957184562E+03  0.66703814771E+03 -0.11757159848E+04  0.14725080152E+04  0.71612590776E+02 0.  0.
        254    2    1    2    0    0 -0.57957184562E+03 -0.66703814771E+03  0.27189060665E+03  0.12997287674E+04  0.91352446720E+03 0.  0.
         23    2    4    4    0    0 -0.47158678580E+02 -0.57344518289E+03 -0.15767711020E+03  0.60332569019E+03  0.89869341931E+02 0.  0.
         23    2    4    4    0    0 -0.53241316704E+03 -0.93592964818E+02  0.42956771685E+03  0.69640307724E+03  0.90693986196E+02 0.  0.
          4    1    3    3  502    0  0.29302697047E+03  0.29680663017E+03 -0.51423525264E+03  0.66211545534E+03  0.00000000000E+00 0. -1.
         -3    1    3    3    0  502  0.28654487514E+03  0.37023151753E+03 -0.66148073213E+03  0.81039255982E+03  0.00000000000E+00 0.  1.
         13    1    5    5    0    0 -0.11838831967E+02 -0.18116199492E+03 -0.72046672995E+01  0.18169131398E+03  0.00000000000E+00 0. -1.
        -13    1    5    5    0    0 -0.35319846613E+02 -0.39228318797E+03 -0.15047244290E+03  0.42163437621E+03  0.00000000000E+00 0.  1.
          2    1    6    6  503    0 -0.32112656516E+03 -0.13585290322E+02  0.27055702796E+03  0.42012847600E+03  0.00000000000E+00 0. -1.
         -2    1    6    6    0  503 -0.21128660187E+03 -0.80007674496E+02  0.15901068889E+03  0.27627460124E+03  0.00000000000E+00 0.  1.
<mgrwt>
<rscale>  0 0.26207626E+04</rscale>
<asrwt>0</asrwt>
<pdfrwt beam="1">  1        2 0.14372395E+00 0.26207626E+04</pdfrwt>
<pdfrwt beam="2">  1       -1 0.28277401E+00 0.26207626E+04</pdfrwt>
<totfact> 0.11956928E+00</totfact>
</mgrwt>
</event>
<event>
12    7  0.1698542E-007  0.1585352E+04  0.7818608E-02  0.8829598E-01
         -1   -1    0    0    0  501 -0.00000000000E+00  0.00000000000E+00  0.40549270891E+03  0.40549270891E+03  0.00000000000E+00 0.  1.
          2   -1    0    0  501    0  0.00000000000E+00 -0.00000000000E+00 -0.15495591881E+04  0.15495591881E+04  0.00000000000E+00 0. -1.
         24    2    1    2    0    0  0.42852764560E+03 -0.12270304463E+03 -0.71382106689E+03  0.84551134883E+03  0.81590105205E+02 0.  0.
        254    2    1    2    0    0 -0.42852764560E+03  0.12270304463E+03 -0.43024541230E+03  0.11095405482E+04  0.92047657930E+03 0.  0.
         23    2    4    4    0    0 -0.47061834916E+02  0.33118372896E+03 -0.54902221159E+03  0.64949291783E+03  0.92294002319E+02 0.  0.
         23    2    4    4    0    0 -0.38146581069E+03 -0.20848068432E+03  0.11877679928E+03  0.46004763035E+03  0.92496127921E+02 0.  0.
          2    1    3    3  502    0  0.39793505213E+03 -0.10608448248E+03 -0.68919435904E+03  0.80286679323E+03  0.00000000000E+00 0. -1.
         -1    1    3    3    0  502  0.30592593468E+02 -0.16618562157E+02 -0.24626707847E+02  0.42644555604E+02  0.00000000000E+00 0.  1.
         13    1    5    5    0    0 -0.65699018275E+02  0.25138158517E+03 -0.36485012821E+03  0.44791146270E+03  0.00000000000E+00 0. -1.
        -13    1    5    5    0    0  0.18637183360E+02  0.79802143790E+02 -0.18417208337E+03  0.20158145513E+03  0.00000000000E+00 0.  1.
          3    1    6    6  503    0 -0.64189704610E+02 -0.71572931812E+02  0.47434114982E+02  0.10720540103E+03  0.00000000000E+00 0. -1.
         -3    1    6    6    0  503 -0.31727610608E+03 -0.13690775251E+03  0.71342684303E+02  0.35284222932E+03  0.00000000000E+00 0.  1.
<mgrwt>
<rscale>  0 0.15853516E+04</rscale>
<asrwt>0</asrwt>
<pdfrwt beam="1">  1        2 0.23839372E+00 0.15853516E+04</pdfrwt>
<pdfrwt beam="2">  1       -1 0.62383494E-01 0.15853516E+04</pdfrwt>
<totfact> 0.33932328E+01</totfact>
</mgrwt>
</event>
<event>
12    7  0.1698542E-007  0.2221785E+04  0.7818608E-02  0.8509415E-01
          2   -1    0    0  501    0  0.00000000000E+00  0.00000000000E+00  0.68820314787E+03  0.68820314787E+03  0.00000000000E+00 0. -1.
         -1   -1    0    0    0  501 -0.00000000000E+00 -0.00000000000E+00 -0.17931945918E+04  0.17931945918E+04  0.00000000000E+00 0.  1.
         24    2    1    2    0    0 -0.64951171147E+03  0.53362061163E+03 -0.21240355318E+02  0.84454541990E+03  0.78672695986E+02 0.  0.
        254    2    1    2    0    0  0.64951171147E+03 -0.53362061163E+03 -0.10837510886E+04  0.16368523197E+04  0.89339390761E+03 0.  0.
         23    2    4    4    0    0  0.45353394761E+03 -0.72001117885E+03 -0.51017916974E+03  0.99627705559E+03  0.90421496042E+02 0.  0.
         23    2    4    4    0    0  0.19597776386E+03  0.18639056722E+03 -0.57357191884E+03  0.64057526415E+03  0.90571493804E+02 0.  0.
          2    1    3    3  502    0 -0.14930567645E+03  0.12169569677E+03  0.28209167792E+02  0.19467353384E+03  0.00000000000E+00 0. -1.
         -1    1    3    3    0  502 -0.50020603502E+03  0.41192491486E+03 -0.49449523110E+02  0.64987188606E+03  0.00000000000E+00 0.  1.
         13    1    5    5    0    0  0.41064091735E+03 -0.67611910840E+03 -0.49464217526E+03  0.93297046753E+03  0.00000000000E+00 0. -1.
        -13    1    5    5    0    0  0.42893030261E+02 -0.43892070451E+02 -0.15536994482E+02  0.63306588053E+02  0.00000000000E+00 0.  1.
          1    1    6    6  503    0  0.15058572350E+03  0.13579720534E+03 -0.32666094030E+03  0.38447927255E+03  0.00000000000E+00 0. -1.
         -1    1    6    6    0  503  0.45392040355E+02  0.50593361881E+02 -0.24691097853E+03  0.25609599160E+03  0.00000000000E+00 0.  1.
<mgrwt>
<rscale>  0 0.22217850E+04</rscale>
<asrwt>0</asrwt>
<pdfrwt beam="1">  1        2 0.10587741E+00 0.22217850E+04</pdfrwt>
<pdfrwt beam="2">  1       -1 0.27587609E+00 0.22217850E+04</pdfrwt>
<totfact> 0.20634163E+00</totfact>
</mgrwt>
</event>
<event>
12    7  0.1698542E-007  0.1170530E+04  0.7818608E-02  0.9139050E-01
         -1   -1    0    0    0  501 -0.00000000000E+00  0.00000000000E+00  0.19629934103E+03  0.19629934103E+03  0.00000000000E+00 0.  1.
          2   -1    0    0  501    0  0.00000000000E+00 -0.00000000000E+00 -0.17449627777E+04  0.17449627777E+04  0.00000000000E+00 0. -1.
         24    2    1    2    0    0  0.31560866310E+02  0.16823012010E+03 -0.64439333477E+02  0.19783721591E+03  0.75429932443E+02 0.  0.
        254    2    1    2    0    0 -0.31560866310E+02 -0.16823012010E+03 -0.14842241032E+04  0.17434249029E+04  0.89850528196E+03 0.  0.
         23    2    4    4    0    0 -0.17365697117E+03  0.26767695157E+03 -0.23184432582E+03  0.40674850071E+03  0.99422620068E+02 0.  0.
         23    2    4    4    0    0  0.14209610486E+03 -0.43590707167E+03 -0.12523797774E+04  0.13366764022E+04  0.89679535210E+02 0.  0.
          2    1    3    3  502    0  0.14166009906E+02  0.58131427652E+02 -0.62262845441E+02  0.86351610523E+02  0.00000000000E+00 0. -1.
         -1    1    3    3    0  502  0.17394856404E+02  0.11009869245E+03 -0.21764880364E+01  0.11148560538E+03  0.00000000000E+00 0.  1.
         13    1    5    5    0    0 -0.12948330432E+03  0.12218790981E+03 -0.93070406860E+02  0.20089278741E+03  0.00000000000E+00 0. -1.
        -13    1    5    5    0    0 -0.44173666848E+02  0.14548904176E+03 -0.13877391896E+03  0.20585571330E+03  0.00000000000E+00 0.  1.
          2    1    6    6  503    0  0.11981313350E+03 -0.28103313294E+03 -0.72954108767E+03  0.79092667635E+03  0.00000000000E+00 0. -1.
         -2    1    6    6    0  503  0.22282971354E+02 -0.15487393873E+03 -0.52283868975E+03  0.54574972580E+03  0.00000000000E+00 0.  1.
<mgrwt>
<rscale>  0 0.11705299E+04</rscale>
<asrwt>0</asrwt>
<pdfrwt beam="1">  1        2 0.26845581E+00 0.11705299E+04</pdfrwt>
<pdfrwt beam="2">  1       -1 0.30199899E-01 0.11705299E+04</pdfrwt>
<totfact> 0.10516878E+02</totfact>
</mgrwt>
</event>
<event>
12    7  0.1698542E-007  0.2555481E+04  0.7818608E-02  0.8383482E-01
          2   -1    0    0  501    0  0.00000000000E+00  0.00000000000E+00  0.10208257062E+04  0.10208257062E+04  0.00000000000E+00 0. -1.
         -1   -1    0    0    0  501 -0.00000000000E+00 -0.00000000000E+00 -0.15993141702E+04  0.15993141702E+04  0.00000000000E+00 0.  1.
         24    2    1    2    0    0 -0.41986502811E+03 -0.27468012489E+03 -0.12785606872E+04  0.13756723097E+04  0.77595490142E+02 0.  0.
        254    2    1    2    0    0  0.41986502811E+03  0.27468012489E+03  0.70007222321E+03  0.12444675667E+04  0.89825530553E+03 0.  0.
         23    2    4    4    0    0  0.59332400876E+03  0.45934308983E+03  0.57479272285E+03  0.94962036420E+03  0.91447844800E+02 0.  0.
         23    2    4    4    0    0 -0.17345898065E+03 -0.18466296495E+03  0.12527950036E+03  0.29484720245E+03  0.83973156397E+02 0.  0.
          4    1    3    3  502    0 -0.16322335769E+01  0.27581520838E+01 -0.27632183438E+02  0.27817425311E+02  0.00000000000E+00 0. -1.
         -3    1    3    3    0  502 -0.41823279454E+03 -0.27743827697E+03 -0.12509285037E+04  0.13478548844E+04  0.00000000000E+00 0.  1.
         13    1    5    5    0    0  0.29515488937E+03  0.26988289459E+03  0.34504445482E+03  0.52821289393E+03  0.00000000000E+00 0.  1.
        -13    1    5    5    0    0  0.29816911939E+03  0.18946019524E+03  0.22974826803E+03  0.42140747027E+03  0.00000000000E+00 0. -1.
          3    1    6    6  503    0 -0.71467786568E+02 -0.79154938247E+02  0.99501546990E+02  0.14585508774E+03  0.00000000000E+00 0. -1.
         -3    1    6    6    0  503 -0.10199119408E+03 -0.10550802670E+03  0.25777953368E+02  0.14899211471E+03  0.00000000000E+00 0.  1.
<mgrwt>
<rscale>  0 0.25554812E+04</rscale>
<asrwt>0</asrwt>
<pdfrwt beam="1">  1        2 0.15705011E+00 0.25554812E+04</pdfrwt>
<pdfrwt beam="2">  1       -1 0.24604833E+00 0.25554812E+04</pdfrwt>
<totfact> 0.18292648E+00</totfact>
</mgrwt>
</event>
<event>
12    7  0.1698542E-007  0.2437265E+04  0.7818608E-02  0.8425682E-01
         -1   -1    0    0    0  501 -0.00000000000E+00  0.00000000000E+00  0.55726040661E+03  0.55726040661E+03  0.00000000000E+00 0.  1.
          2   -1    0    0  501    0  0.00000000000E+00 -0.00000000000E+00 -0.26649392200E+04  0.26649392200E+04  0.00000000000E+00 0. -1.
         24    2    1    2    0    0 -0.54587950042E+02 -0.96495911225E+03 -0.14033981290E+04  0.17056440005E+04  0.74627174335E+02 0.  0.
        254    2    1    2    0    0  0.54587950042E+02  0.96495911225E+03 -0.70428068430E+03  0.15165556261E+04  0.93263269949E+03 0.  0.
         23    2    4    4    0    0  0.39138013071E+03  0.84498466729E+03 -0.33386235646E+03  0.99349396264E+03  0.91589770515E+02 0.  0.
         23    2    4    4    0    0 -0.33679218067E+03  0.11997444496E+03 -0.37041832784E+03  0.52306166346E+03  0.92525270992E+02 0.  0.
          4    1    3    3  502    0 -0.15706096406E+01 -0.45063841433E+03 -0.60347392763E+03  0.75316547227E+03  0.00000000000E+00 0. -1.
         -3    1    3    3    0  502 -0.53017340402E+02 -0.51432069792E+03 -0.79992420141E+03  0.95247852821E+03  0.00000000000E+00 0.  1.
         13    1    5    5    0    0  0.17102825306E+03  0.47766112567E+03 -0.18361464606E+03  0.53956014731E+03  0.00000000000E+00 0.  1.
        -13    1    5    5    0    0  0.22035187766E+03  0.36732354162E+03 -0.15024771039E+03  0.45393381532E+03  0.00000000000E+00 0. -1.
          1    1    6    6  503    0 -0.30936011100E+03  0.85479195493E+02 -0.29619875525E+03  0.43674257149E+03  0.00000000000E+00 0.  1.
         -1    1    6    6    0  503 -0.27432069670E+02  0.34495249466E+02 -0.74219572589E+02  0.86319091964E+02  0.00000000000E+00 0. -1.
<mgrwt>
<rscale>  0 0.24372650E+04</rscale>
<asrwt>0</asrwt>
<pdfrwt beam="1">  1        2 0.40999064E+00 0.24372650E+04</pdfrwt>
<pdfrwt beam="2">  1       -1 0.85732372E-01 0.24372650E+04</pdfrwt>
<totfact> 0.38174415E+00</totfact>
</mgrwt>
</event>
<event>
12    7  0.1698542E-007  0.2359002E+04  0.7818608E-02  0.8455014E-01
         -1   -1    0    0    0  501 -0.00000000000E+00  0.00000000000E+00  0.63046412827E+03  0.63046412827E+03  0.00000000000E+00 0.  1.
          2   -1    0    0  501    0  0.00000000000E+00 -0.00000000000E+00 -0.22066648408E+04  0.22066648408E+04  0.00000000000E+00 0. -1.
         24    2    1    2    0    0 -0.20271746526E+03  0.28469353104E+03 -0.18041909259E+04  0.18397747409E+04  0.86726137100E+02 0.  0.
        254    2    1    2    0    0  0.20271746526E+03 -0.28469353104E+03  0.22799021338E+03  0.99735422814E+03  0.90586485839E+03 0.  0.
         23    2    4    4    0    0 -0.15313761431E+03  0.77066663761E+00 -0.26480153520E+03  0.31985049482E+03  0.93449254404E+02 0.  0.
         23    2    4    4    0    0  0.35585507957E+03 -0.28546419768E+03  0.49279174858E+03  0.67750373332E+03  0.89693675288E+02 0.  0.
          2    1    3    3  502    0 -0.13414746460E+03  0.24834523927E+03 -0.13878155640E+04  0.14162284208E+04  0.00000000000E+00 0. -1.
         -1    1    3    3    0  502 -0.68570000655E+02  0.36348291777E+02 -0.41637536191E+03  0.42354632015E+03  0.00000000000E+00 0.  1.
         13    1    5    5    0    0 -0.64242210503E+01  0.27319357792E+02 -0.62787348885E+02  0.68774043841E+02  0.00000000000E+00 0.  1.
        -13    1    5    5    0    0 -0.14671339326E+03 -0.26548691154E+02 -0.20201418632E+03  0.25107645098E+03  0.00000000000E+00 0. -1.
          2    1    6    6  503    0  0.16633118036E+03 -0.91042893809E+02  0.16075914549E+03  0.24859278536E+03  0.00000000000E+00 0.  1.
         -2    1    6    6    0  503  0.18952389921E+03 -0.19442130387E+03  0.33203260309E+03  0.42891094796E+03  0.00000000000E+00 0. -1.
<mgrwt>
<rscale>  0 0.23590024E+04</rscale>
<asrwt>0</asrwt>
<pdfrwt beam="1">  1        2 0.33948689E+00 0.23590024E+04</pdfrwt>
<pdfrwt beam="2">  1       -1 0.96994484E-01 0.23590024E+04</pdfrwt>
<totfact> 0.53689285E+00</totfact>
</mgrwt>
</event>
<event>
12    7  0.1698542E-007  0.1633475E+04  0.7818608E-02  0.8800243E-01
         -1   -1    0    0    0  501 -0.00000000000E+00  0.00000000000E+00  0.32104615430E+03  0.32104615430E+03  0.00000000000E+00 0.  1.
          2   -1    0    0  501    0  0.00000000000E+00 -0.00000000000E+00 -0.20777707700E+04  0.20777707700E+04  0.00000000000E+00 0. -1.
         24    2    1    2    0    0 -0.19413902707E+03  0.33053925345E+03  0.18106725981E+01  0.39128519443E+03  0.78451672638E+02 0.  0.
        254    2    1    2    0    0  0.19413902707E+03 -0.33053925345E+03 -0.17585352883E+04  0.20075317299E+04  0.88926437374E+03 0.  0.
         23    2    4    4    0    0  0.18510315892E+03  0.15732106296E+03 -0.10355161566E+03  0.27982776707E+03  0.92561038360E+02 0.  0.
         23    2    4    4    0    0  0.90358681477E+01 -0.48786031642E+03 -0.16549836727E+04  0.17277039628E+04  0.88885832202E+02 0.  0.
          4    1    3    3  502    0 -0.62353522456E+02  0.17848222677E+03  0.14865163520E+02  0.18964398256E+03  0.00000000000E+00 0. -1.
         -3    1    3    3    0  502 -0.13178550462E+03  0.15205702668E+03 -0.13054490922E+02  0.20164121187E+03  0.00000000000E+00 0.  1.
         13    1    5    5    0    0  0.28722686141E+02  0.70821143340E+02 -0.56460489014E+02  0.95017966000E+02  0.00000000000E+00 0.  1.
        -13    1    5    5    0    0  0.15638047278E+03  0.86499919622E+02 -0.47091126644E+02  0.18480980107E+03  0.00000000000E+00 0. -1.
          1    1    6    6  503    0  0.15597940634E+01 -0.18897053119E+03 -0.79772814367E+03  0.81980637093E+03  0.00000000000E+00 0. -1.
         -1    1    6    6    0  503  0.74760740843E+01 -0.29888978522E+03 -0.85725552901E+03  0.90789759192E+03  0.00000000000E+00 0.  1.
<mgrwt>
<rscale>  0 0.16334752E+04</rscale>
<asrwt>0</asrwt>
<pdfrwt beam="1">  1        2 0.31965704E+00 0.16334752E+04</pdfrwt>
<pdfrwt beam="2">  1       -1 0.49391717E-01 0.16334752E+04</pdfrwt>
<totfact> 0.27071781E+01</totfact>
</mgrwt>
</event>
<event>
12    7  0.1698542E-007  0.4864579E+04  0.7818608E-02  0.7849744E-01
         -1   -1    0    0    0  501 -0.00000000000E+00  0.00000000000E+00  0.12835571915E+04  0.12835571915E+04  0.00000000000E+00 0.  1.
          2   -1    0    0  501    0  0.00000000000E+00 -0.00000000000E+00 -0.46090906950E+04  0.46090906950E+04  0.00000000000E+00 0. -1.
         24    2    1    2    0    0 -0.60956072685E+03 -0.11016092593E+04 -0.40034350784E+04  0.41975086063E+04  0.80491197245E+02 0.  0.
        254    2    1    2    0    0  0.60956072685E+03  0.11016092593E+04  0.67790157492E+03  0.16951392802E+04  0.91040616978E+03 0.  0.
         23    2    4    4    0    0  0.34795471481E+03  0.50528615381E+03 -0.14913009285E+03  0.63845141775E+03  0.94835897430E+02 0.  0.
         23    2    4    4    0    0  0.26160601204E+03  0.59632310548E+03  0.82703166776E+03  0.10566878624E+04  0.92568393104E+02 0.  0.
          4    1    3    3  502    0 -0.46678003616E+03 -0.90313475287E+03 -0.32709596670E+04  0.34253048226E+04  0.00000000000E+00 0. -1.
         -3    1    3    3    0  502 -0.14278069069E+03 -0.19847450642E+03 -0.73247541136E+03  0.77220378371E+03  0.00000000000E+00 0.  1.
         13    1    5    5    0    0  0.30031533448E+03  0.40996039419E+03 -0.15619137188E+03  0.53165079665E+03  0.00000000000E+00 0. -1.
        -13    1    5    5    0    0  0.47639380328E+02  0.95325759621E+02  0.70612790334E+01  0.10680062110E+03  0.00000000000E+00 0.  1.
          1    1    6    6  503    0  0.24250789549E+03  0.54061386350E+03  0.70305449241E+03  0.91943409121E+03  0.00000000000E+00 0. -1.
         -1    1    6    6    0  503  0.19098116553E+02  0.55709241980E+02  0.12397717536E+03  0.13725377120E+03  0.00000000000E+00 0.  1.
<mgrwt>
<rscale>  0 0.48645787E+04</rscale>
<asrwt>0</asrwt>
<pdfrwt beam="1">  1        2 0.70909086E+00 0.48645787E+04</pdfrwt>
<pdfrwt beam="2">  1       -1 0.19747034E+00 0.48645787E+04</pdfrwt>
<totfact> 0.12369279E-02</totfact>
</mgrwt>
</event>
<event>
12    7  0.1698542E-007  0.1263801E+04  0.7818608E-02  0.9058774E-01
          2   -1    0    0  501    0  0.00000000000E+00  0.00000000000E+00  0.25237304373E+03  0.25237304373E+03  0.00000000000E+00 0. -1.
         -1   -1    0    0    0  501 -0.00000000000E+00 -0.00000000000E+00 -0.15821751942E+04  0.15821751942E+04  0.00000000000E+00 0.  1.
         24    2    1    2    0    0  0.22608742085E+03  0.21337535048E+03 -0.36150895325E+03  0.48235512629E+03  0.73028641815E+02 0.  0.
        254    2    1    2    0    0 -0.22608742085E+03 -0.21337535048E+03 -0.96829319723E+03  0.13521931117E+04  0.89117334640E+03 0.  0.
         23    2    4    4    0    0 -0.13661663529E+03  0.27753691034E+03 -0.71675617259E+03  0.78600464078E+03  0.91504331841E+02 0.  0.
         23    2    4    4    0    0 -0.89470785559E+02 -0.49091226081E+03 -0.25153702465E+03  0.56618847087E+03  0.91096874250E+02 0.  0.
          4    1    3    3  502    0  0.17684398814E+03  0.17343375269E+03 -0.23792514580E+03  0.34345514659E+03  0.00000000000E+00 0. -1.
         -3    1    3    3    0  502  0.49243432704E+02  0.39941597790E+02 -0.12358380745E+03  0.13889997971E+03  0.00000000000E+00 0.  1.
         13    1    5    5    0    0 -0.44955885223E+01  0.66643365536E+02 -0.22735866859E+03  0.23696732405E+03  0.00000000000E+00 0.  1.
        -13    1    5    5    0    0 -0.13212104677E+03  0.21089354480E+03 -0.48939750400E+03  0.54903731673E+03  0.00000000000E+00 0. -1.
          4    1    6    6  503    0  0.84590488355E+01 -0.36637356029E+02 -0.42148522297E+02  0.56483177104E+02  0.00000000000E+00 0.  1.
         -4    1    6    6    0  503 -0.97929834394E+02 -0.45427490478E+03 -0.20938850235E+03  0.50970529377E+03  0.00000000000E+00 0. -1.
<mgrwt>
<rscale>  0 0.12638012E+04</rscale>
<asrwt>0</asrwt>
<pdfrwt beam="1">  1        2 0.38826622E-01 0.12638012E+04</pdfrwt>
<pdfrwt beam="2">  1       -1 0.24341157E+00 0.12638012E+04</pdfrwt>
<totfact> 0.11567579E+01</totfact>
</mgrwt>
</event>
<event>
12    7  0.1698542E-007  0.2051560E+04  0.7818608E-02  0.8582887E-01
         -1   -1    0    0    0  501 -0.00000000000E+00  0.00000000000E+00  0.54977997741E+03  0.54977997741E+03  0.00000000000E+00 0.  1.
          2   -1    0    0  501    0  0.00000000000E+00 -0.00000000000E+00 -0.19139013323E+04  0.19139013323E+04  0.00000000000E+00 0. -1.
         24    2    1    2    0    0 -0.15049638484E+03  0.64130015698E+03  0.42604371071E+02  0.66485616590E+03  0.79394809070E+02 0.  0.
        254    2    1    2    0    0  0.15049638484E+03 -0.64130015698E+03 -0.14067257259E+04  0.17988251438E+04  0.90718221801E+03 0.  0.
         23    2    4    4    0    0  0.40228400610E+03 -0.63334954419E+03 -0.65278577972E+03  0.99865182908E+03  0.90620829944E+02 0.  0.
         23    2    4    4    0    0 -0.25178762126E+03 -0.79506127914E+01 -0.75393994622E+03  0.80017331470E+03  0.91606072924E+02 0.  0.
          2    1    3    3  502    0 -0.21533170159E+02  0.31994854461E+02 -0.99799427956E+01  0.39836508222E+02  0.00000000000E+00 0. -1.
         -1    1    3    3    0  502 -0.12896321468E+03  0.60930530252E+03  0.52584313866E+02  0.62501965768E+03  0.00000000000E+00 0.  1.
         13    1    5    5    0    0  0.32470313449E+03 -0.52090102254E+03 -0.48511735843E+03  0.78237385710E+03  0.00000000000E+00 0. -1.
        -13    1    5    5    0    0  0.77580871608E+02 -0.11244852165E+03 -0.16766842130E+03  0.21627797197E+03  0.00000000000E+00 0.  1.
          1    1    6    6  503    0 -0.23881758099E+03 -0.16715947127E+02 -0.60860819922E+03  0.65400091746E+03  0.00000000000E+00 0. -1.
         -1    1    6    6    0  503 -0.12970040266E+02  0.87653343352E+01 -0.14533174700E+03  0.14617239724E+03  0.00000000000E+00 0.  1.
<mgrwt>
<rscale>  0 0.20515600E+04</rscale>
<asrwt>0</asrwt>
<pdfrwt beam="1">  1        2 0.29444636E+00 0.20515600E+04</pdfrwt>
<pdfrwt beam="2">  1       -1 0.84581535E-01 0.20515600E+04</pdfrwt>
<totfact> 0.10873483E+01</totfact>
</mgrwt>
</event>
<event>
12    7  0.1698542E-007  0.1524393E+04  0.7818608E-02  0.8868392E-01
          2   -1    0    0  501    0  0.00000000000E+00  0.00000000000E+00  0.15170023277E+04  0.15170023277E+04  0.00000000000E+00 0. -1.
         -1   -1    0    0    0  501 -0.00000000000E+00 -0.00000000000E+00 -0.38295469853E+03  0.38295469853E+03  0.00000000000E+00 0.  1.
         24    2    1    2    0    0  0.79288024557E+02 -0.41725630806E+03  0.62090460651E+03  0.75646166830E+03  0.79512940887E+02 0.  0.
        254    2    1    2    0    0 -0.79288024557E+02  0.41725630806E+03  0.51314302266E+03  0.11434953579E+04  0.92944954378E+03 0.  0.
         23    2    4    4    0    0 -0.25086574625E+03  0.24437213084E+02  0.63455097778E+03  0.68898846319E+03  0.92300373656E+02 0.  0.
         23    2    4    4    0    0  0.17157772169E+03  0.39281909498E+03 -0.12140795513E+03  0.45450689473E+03  0.89949262547E+02 0.  0.
          4    1    3    3  502    0  0.12177937233E+02 -0.10823292996E+03  0.10458540922E+03  0.15099926194E+03  0.00000000000E+00 0. -1.
         -3    1    3    3    0  502  0.67110087324E+02 -0.30902337810E+03  0.51631919729E+03  0.60546240636E+03  0.00000000000E+00 0.  1.
         13    1    5    5    0    0 -0.85538133207E+02  0.55227556969E+01  0.11494262374E+03  0.14338437786E+03  0.00000000000E+00 0. -1.
        -13    1    5    5    0    0 -0.16532761304E+03  0.18914457387E+02  0.51960835404E+03  0.54560408533E+03  0.00000000000E+00 0.  1.
          4    1    6    6  503    0  0.14327110685E+03  0.22184922444E+03 -0.61599166276E+02  0.27117917642E+03  0.00000000000E+00 0. -1.
         -4    1    6    6    0  503  0.28306614845E+02  0.17096987054E+03 -0.59808788853E+02  0.18332771831E+03  0.00000000000E+00 0.  1.
<mgrwt>
<rscale>  0 0.15243926E+04</rscale>
<asrwt>0</asrwt>
<pdfrwt beam="1">  1        2 0.23338497E+00 0.15243926E+04</pdfrwt>
<pdfrwt beam="2">  1       -1 0.58916108E-01 0.15243926E+04</pdfrwt>
<totfact> 0.39839813E+01</totfact>
</mgrwt>
</event>
<event>
12    7  0.1698542E-007  0.2230625E+04  0.7818608E-02  0.8505789E-01
          2   -1    0    0  501    0  0.00000000000E+00  0.00000000000E+00  0.28646853043E+04  0.28646853043E+04  0.00000000000E+00 0. -1.
         -1   -1    0    0    0  501 -0.00000000000E+00 -0.00000000000E+00 -0.43422624756E+03  0.43422624756E+03  0.00000000000E+00 0.  1.
         24    2    1    2    0    0  0.28198626487E+03 -0.69548928853E+03  0.18337337501E+04  0.19830215303E+04  0.81076010940E+02 0.  0.
        254    2    1    2    0    0 -0.28198626487E+03  0.69548928853E+03  0.59672530664E+03  0.13158900215E+04  0.90125681863E+03 0.  0.
         23    2    4    4    0    0 -0.11639504449E+03  0.78368052563E+03  0.13372207781E+03  0.80877167311E+03  0.92342040800E+02 0.  0.
         23    2    4    4    0    0 -0.16559122038E+03 -0.88191237100E+02  0.46300322883E+03  0.50711834841E+03  0.87171571169E+02 0.  0.
          2    1    3    3  502    0  0.27396732751E+03 -0.60708909284E+03  0.16245918682E+04  0.17558228844E+04  0.00000000000E+00 0. -1.
         -1    1    3    3    0  502  0.80189373566E+01 -0.88400195684E+02  0.20914188192E+03  0.22719864596E+03  0.00000000000E+00 0.  1.
         13    1    5    5    0    0 -0.14131109936E+01  0.11164720556E+02  0.15033303862E+02  0.18778926827E+02  0.00000000000E+00 0. -1.
        -13    1    5    5    0    0 -0.11498193349E+03  0.77251580507E+03  0.11868877395E+03  0.78999274628E+03  0.00000000000E+00 0.  1.
          2    1    6    6  503    0 -0.28121719466E+02  0.14272869704E+02  0.41848544852E+02  0.52400826535E+02  0.00000000000E+00 0. -1.
         -2    1    6    6    0  503 -0.13746950091E+03 -0.10246410680E+03  0.42115468398E+03  0.45471752188E+03  0.00000000000E+00 0.  1.
<mgrwt>
<rscale>  0 0.22306246E+04</rscale>
<asrwt>0</asrwt>
<pdfrwt beam="1">  1        2 0.44072081E+00 0.22306246E+04</pdfrwt>
<pdfrwt beam="2">  1       -1 0.66804040E-01 0.22306246E+04</pdfrwt>
<totfact> 0.49773137E+00</totfact>
</mgrwt>
</event>
<event>
12    7  0.1698542E-007  0.1668581E+04  0.7818608E-02  0.8779490E-01
         -1   -1    0    0    0  501 -0.00000000000E+00  0.00000000000E+00  0.39569598005E+03  0.39569598005E+03  0.00000000000E+00 0.  1.
          2   -1    0    0  501    0  0.00000000000E+00 -0.00000000000E+00 -0.17590282412E+04  0.17590282412E+04  0.00000000000E+00 0. -1.
         24    2    1    2    0    0  0.16005183299E+03  0.43020566600E+03 -0.12304895755E+02  0.46436437030E+03  0.69205156176E+02 0.  0.
        254    2    1    2    0    0 -0.16005183299E+03 -0.43020566600E+03 -0.13510273654E+04  0.16903598510E+04  0.90628250527E+03 0.  0.
         23    2    4    4    0    0 -0.42660383576E+02 -0.19115235779E+03 -0.13885396525E+04  0.14054487418E+04  0.94258512260E+02 0.  0.
         23    2    4    4    0    0 -0.11739144942E+03 -0.23905330821E+03  0.37512287056E+02  0.28491110917E+03  0.94020911949E+02 0.  0.
          2    1    3    3  502    0  0.41433623270E+02  0.16022670560E+03 -0.32984276671E+02  0.16875219949E+03  0.00000000000E+00 0. -1.
         -1    1    3    3    0  502  0.11861820972E+03  0.26997896040E+03  0.20679380916E+02  0.29561217081E+03  0.00000000000E+00 0.  1.
         13    1    5    5    0    0 -0.44161947768E+02 -0.71868041280E+02 -0.83213585847E+03  0.83640025104E+03  0.00000000000E+00 0.  1.
        -13    1    5    5    0    0  0.15015641920E+01 -0.11928431651E+03 -0.55640379399E+03  0.56904849075E+03  0.00000000000E+00 0. -1.
          4    1    6    6  503    0 -0.12073755023E+03 -0.14844404464E+03  0.18227652119E+02  0.19221196041E+03  0.00000000000E+00 0. -1.
         -4    1    6    6    0  503  0.33461008079E+01 -0.90609263568E+02  0.19284634936E+02  0.92699148753E+02  0.00000000000E+00 0.  1.
<mgrwt>
<rscale>  0 0.16685807E+04</rscale>
<asrwt>0</asrwt>
<pdfrwt beam="1">  1        2 0.27061972E+00 0.16685807E+04</pdfrwt>
<pdfrwt beam="2">  1       -1 0.60876307E-01 0.16685807E+04</pdfrwt>
<totfact> 0.27037538E+01</totfact>
</mgrwt>
</event>
<event>
12    7  0.1698542E-007  0.1114845E+04  0.7818608E-02  0.9190843E-01
         -1   -1    0    0    0  501 -0.00000000000E+00  0.00000000000E+00  0.12793789025E+03  0.12793789025E+03  0.00000000000E+00 0.  1.
          2   -1    0    0  501    0  0.00000000000E+00 -0.00000000000E+00 -0.24286753545E+04  0.24286753545E+04  0.00000000000E+00 0. -1.
         24    2    1    2    0    0  0.15524218653E+03 -0.30856693394E+02 -0.39455292298E+03  0.43222720463E+03  0.78077367907E+02 0.  0.
        254    2    1    2    0    0 -0.15524218653E+03  0.30856693394E+02 -0.19061845413E+04  0.21243860401E+04  0.92435072894E+03 0.  0.
         23    2    4    4    0    0 -0.28909046200E+03  0.35456631349E+03 -0.15407717478E+04  0.16098794561E+04  0.91889708981E+02 0.  0.
         23    2    4    4    0    0  0.13384827546E+03 -0.32370962009E+03 -0.36541279350E+03  0.51450658400E+03  0.92126197948E+02 0.  0.
          4    1    3    3  502    0  0.11678816156E+03 -0.40490534768E+02 -0.35632382282E+03  0.37715464307E+03  0.00000000000E+00 0. -1.
         -1    1    3    3    0  502  0.38454024978E+02  0.96338413743E+01 -0.38229100166E+02  0.55072561555E+02  0.00000000000E+00 0.  1.
         13    1    5    5    0    0 -0.98726245050E+02  0.19329896949E+03 -0.70218637775E+03  0.73496739531E+03  0.00000000000E+00 0. -1.
        -13    1    5    5    0    0 -0.19036421695E+03  0.16126734399E+03 -0.83858537003E+03  0.87491206081E+03  0.00000000000E+00 0.  1.
          2    1    6    6  503    0  0.19611869439E+02 -0.12509596611E+03 -0.17829996245E+03  0.21868814044E+03  0.00000000000E+00 0. -1.
         -2    1    6    6    0  503  0.11423640603E+03 -0.19861365399E+03 -0.18711283104E+03  0.29581844356E+03  0.00000000000E+00 0.  1.
<mgrwt>
<rscale>  0 0.11148446E+04</rscale>
<asrwt>0</asrwt>
<pdfrwt beam="1">  1        2 0.37364238E+00 0.11148446E+04</pdfrwt>
<pdfrwt beam="2">  1       -1 0.19682752E-01 0.11148446E+04</pdfrwt>
<totfact> 0.91529310E+01</totfact>
</mgrwt>
</event>
<event>
12    7  0.1698542E-007  0.2497670E+04  0.7818608E-02  0.8403816E-01
         -1   -1    0    0    0  501 -0.00000000000E+00  0.00000000000E+00  0.13801073864E+04  0.13801073864E+04  0.00000000000E+00 0.  1.
          2   -1    0    0  501    0  0.00000000000E+00 -0.00000000000E+00 -0.11300490519E+04  0.11300490519E+04  0.00000000000E+00 0. -1.
         24    2    1    2    0    0  0.85003751033E+03 -0.36008503844E+03  0.68301225933E+03  0.11512743513E+04  0.81865020782E+02 0.  0.
        254    2    1    2    0    0 -0.85003751033E+03  0.36008503844E+03 -0.43295392485E+03  0.13588820871E+04  0.89826856883E+03 0.  0.
         23    2    4    4    0    0 -0.80907402216E+03  0.31856707135E+03  0.38463454698E+02  0.87514803075E+03  0.91207927811E+02 0.  0.
         23    2    4    4    0    0 -0.40963488169E+02  0.41517967088E+02 -0.47141737955E+03  0.48373405636E+03  0.91446938628E+02 0.  0.
          4    1    3    3  502    0  0.19189337772E+02  0.91782894044E+00  0.52778081980E+01  0.19923060846E+02  0.00000000000E+00 0. -1.
         -3    1    3    3    0  502  0.83084817256E+03 -0.36100286738E+03  0.67773445114E+03  0.11313512904E+04  0.00000000000E+00 0.  1.
         13    1    5    5    0    0 -0.81314897993E+02  0.26080244177E+02  0.30786947454E+02  0.90775150264E+02  0.00000000000E+00 0. -1.
        -13    1    5    5    0    0 -0.72775912417E+03  0.29248682717E+03  0.76765072440E+01  0.78437288049E+03  0.00000000000E+00 0.  1.
          2    1    6    6  503    0 -0.33103806895E+02  0.58548136365E+02 -0.18751028524E+03  0.19920806554E+03  0.00000000000E+00 0. -1.
         -2    1    6    6    0  503 -0.78596812749E+01 -0.17030169276E+02 -0.28390709431E+03  0.28452599082E+03  0.00000000000E+00 0.  1.
<mgrwt>
<rscale>  0 0.24976701E+04</rscale>
<asrwt>0</asrwt>
<pdfrwt beam="1">  1        2 0.17385370E+00 0.24976701E+04</pdfrwt>
<pdfrwt beam="2">  1       -1 0.21232421E+00 0.24976701E+04</pdfrwt>
<totfact> 0.26318681E+00</totfact>
</mgrwt>
</event>
<event>
12    7  0.1698542E-007  0.1922671E+04  0.7818608E-02  0.8643653E-01
         -1   -1    0    0    0  501 -0.00000000000E+00  0.00000000000E+00  0.79683178396E+03  0.79683178396E+03  0.00000000000E+00 0.  1.
          2   -1    0    0  501    0  0.00000000000E+00 -0.00000000000E+00 -0.11598008324E+04  0.11598008324E+04  0.00000000000E+00 0. -1.
         24    2    1    2    0    0 -0.50131742931E+03  0.34775766099E+03 -0.58337456730E+03  0.84788791261E+03  0.79583106716E+02 0.  0.
        254    2    1    2    0    0  0.50131742931E+03 -0.34775766099E+03  0.22040551889E+03  0.11087447037E+04  0.89915608744E+03 0.  0.
         23    2    4    4    0    0  0.18854953103E+03  0.42931172722E+02  0.48884045540E+03  0.53378321846E+03  0.92550106631E+02 0.  0.
         23    2    4    4    0    0  0.31276789828E+03 -0.39068883371E+03 -0.26843493651E+03  0.57496148527E+03  0.89787924680E+02 0.  0.
          2    1    3    3  502    0 -0.26190907174E+03  0.16074916820E+03 -0.24389745405E+03  0.39232974018E+03  0.00000000000E+00 0. -1.
         -1    1    3    3    0  502 -0.23940835756E+03  0.18700849280E+03 -0.33947711325E+03  0.45555817243E+03  0.00000000000E+00 0.  1.
         13    1    5    5    0    0  0.12732483983E+03  0.41893610262E+02  0.21642985307E+03  0.25457527515E+03  0.00000000000E+00 0. -1.
        -13    1    5    5    0    0  0.61224691201E+02  0.10375624599E+01  0.27241060233E+03  0.27920794331E+03  0.00000000000E+00 0.  1.
          2    1    6    6  503    0  0.30141231080E+03 -0.37400665555E+03 -0.27530311954E+03  0.55364444107E+03  0.00000000000E+00 0. -1.
         -2    1    6    6    0  503  0.11355587476E+02 -0.16682178164E+02  0.68681830278E+01  0.21317044198E+02  0.00000000000E+00 0.  1.
<mgrwt>
<rscale>  0 0.19226712E+04</rscale>
<asrwt>0</asrwt>
<pdfrwt beam="1">  1        2 0.17843090E+00 0.19226712E+04</pdfrwt>
<pdfrwt beam="2">  1       -1 0.12258951E+00 0.19226712E+04</pdfrwt>
<totfact> 0.12540655E+01</totfact>
</mgrwt>
</event>
<event>
12    7  0.1698542E-007  0.1260795E+04  0.7818608E-02  0.9061246E-01
         -1   -1    0    0    0  501 -0.00000000000E+00  0.00000000000E+00  0.18797715442E+03  0.18797715442E+03  0.00000000000E+00 0.  1.
          2   -1    0    0  501    0  0.00000000000E+00 -0.00000000000E+00 -0.21140925321E+04  0.21140925321E+04  0.00000000000E+00 0. -1.
         24    2    1    2    0    0  0.28446597213E+03 -0.91125858203E+01 -0.64361397092E+03  0.70816877502E+03  0.79121058075E+02 0.  0.
        254    2    1    2    0    0 -0.28446597213E+03  0.91125858203E+01 -0.12825014067E+04  0.15939009115E+04  0.90261084018E+03 0.  0.
         23    2    4    4    0    0  0.31595389394E+03 -0.12514292854E+02 -0.56030107293E+03  0.64997858468E+03  0.92473767035E+02 0.  0.
         23    2    4    4    0    0 -0.60041986607E+03  0.21626878674E+02 -0.72220033378E+03  0.94392232678E+03  0.91892869341E+02 0.  0.
          4    1    3    3  502    0  0.28106884738E+03 -0.18217061442E+02 -0.59125030596E+03  0.65491104938E+03  0.00000000000E+00 0. -1.
         -3    1    3    3    0  502  0.33971247482E+01  0.91044756222E+01 -0.52363664958E+02  0.53257725643E+02  0.00000000000E+00 0.  1.
         13    1    5    5    0    0  0.27393215229E+03  0.12581141763E+01 -0.40833442580E+03  0.49170866395E+03  0.00000000000E+00 0. -1.
        -13    1    5    5    0    0  0.42021741647E+02 -0.13772407030E+02 -0.15196664713E+03  0.15826992073E+03  0.00000000000E+00 0.  1.
          1    1    6    6  503    0 -0.36467831282E+03 -0.10971069543E+02 -0.49474712178E+03  0.61472380035E+03  0.00000000000E+00 0. -1.
         -1    1    6    6    0  503 -0.23574155325E+03  0.32597948218E+02 -0.22745321200E+03  0.32919852643E+03  0.00000000000E+00 0.  1.
<mgrwt>
<rscale>  0 0.12607951E+04</rscale>
<asrwt>0</asrwt>
<pdfrwt beam="1">  1        2 0.32524500E+00 0.12607951E+04</pdfrwt>
<pdfrwt beam="2">  1       -1 0.28919563E-01 0.12607951E+04</pdfrwt>
<totfact> 0.70415164E+01</totfact>
</mgrwt>
</event>
<event>
12    7  0.1698542E-007  0.1599829E+04  0.7818608E-02  0.8820653E-01
          2   -1    0    0  501    0  0.00000000000E+00  0.00000000000E+00  0.92359976020E+03  0.92359976020E+03  0.00000000000E+00 0. -1.
         -1   -1    0    0    0  501 -0.00000000000E+00 -0.00000000000E+00 -0.69279293697E+03  0.69279293697E+03  0.00000000000E+00 0.  1.
         24    2    1    2    0    0 -0.38144978021E+03  0.38620180098E+03  0.98567498661E+02  0.55754453016E+03  0.80526923510E+02 0.  0.
        254    2    1    2    0    0  0.38144978021E+03 -0.38620180098E+03  0.13223932458E+03  0.10588481670E+04  0.89945340953E+03 0.  0.
         23    2    4    4    0    0  0.18896805020E+03 -0.57777442103E+03  0.34109411648E+03  0.70412194053E+03  0.99550516081E+02 0.  0.
         23    2    4    4    0    0  0.19248173002E+03  0.19157262005E+03 -0.20885479190E+03  0.35472622648E+03  0.91984164477E+02 0.  0.
          2    1    3    3  502    0 -0.23681666447E+03  0.24210376025E+03  0.21608087524E+02  0.33935714630E+03  0.00000000000E+00 0. -1.
         -1    1    3    3    0  502 -0.14463311574E+03  0.14409804073E+03  0.76959411138E+02  0.21818738386E+03  0.00000000000E+00 0.  1.
         13    1    5    5    0    0  0.11521195379E+03 -0.44407874710E+03  0.29160514142E+03  0.54361133765E+03  0.00000000000E+00 0. -1.
        -13    1    5    5    0    0  0.73756096406E+02 -0.13369567393E+03  0.49488975058E+02  0.16051060288E+03  0.00000000000E+00 0.  1.
          1    1    6    6  503    0  0.17954420516E+03  0.17821542651E+03 -0.21805128690E+03  0.33398087306E+03  0.00000000000E+00 0. -1.
         -1    1    6    6    0  503  0.12937524858E+02  0.13357193533E+02  0.91964949944E+01  0.20745353425E+02  0.00000000000E+00 0.  1.
<mgrwt>
<rscale>  0 0.15998292E+04</rscale>
<asrwt>0</asrwt>
<pdfrwt beam="1">  1        2 0.14209227E+00 0.15998292E+04</pdfrwt>
<pdfrwt beam="2">  1       -1 0.10658353E+00 0.15998292E+04</pdfrwt>
<totfact> 0.25437549E+01</totfact>
</mgrwt>
</event>
<event>
12    7  0.1698542E-007  0.1849435E+04  0.7818608E-02  0.8680443E-01
          2   -1    0    0  501    0  0.00000000000E+00  0.00000000000E+00  0.63879699379E+03  0.63879699379E+03  0.00000000000E+00 0. -1.
         -1   -1    0    0    0  501 -0.00000000000E+00 -0.00000000000E+00 -0.13386142839E+04  0.13386142839E+04  0.00000000000E+00 0.  1.
         24    2    1    2    0    0  0.27388980299E+02 -0.12540209335E+03 -0.87363192332E+03  0.88680232945E+03  0.81913325058E+02 0.  0.
        254    2    1    2    0    0 -0.27388980299E+02  0.12540209335E+03  0.17381463316E+03  0.10906089483E+04  0.10689904163E+04 0.  0.
         23    2    4    4    0    0  0.24402345484E+02 -0.46304685316E+03  0.16117220609E+02  0.47240474237E+03  0.88874142057E+02 0.  0.
         23    2    4    4    0    0 -0.51791325782E+02  0.58844894651E+03  0.15769741255E+03  0.61820420592E+03  0.91397276841E+02 0.  0.
          2    1    3    3  502    0  0.88808900274E+01 -0.60901690943E+01 -0.31894943131E+03  0.31913116441E+03  0.00000000000E+00 0. -1.
         -1    1    3    3    0  502  0.18508090271E+02 -0.11931192425E+03 -0.55468249201E+03  0.56767116504E+03  0.00000000000E+00 0.  1.
         13    1    5    5    0    0  0.81894354709E+01 -0.38335434319E+03 -0.18796129811E+02  0.38390221905E+03  0.00000000000E+00 0. -1.
        -13    1    5    5    0    0  0.16212910013E+02 -0.79692509978E+02  0.34913350420E+02  0.88502523327E+02  0.00000000000E+00 0.  1.
          4    1    6    6  503    0 -0.49878155691E+01  0.21327793711E+03  0.10049902664E+03  0.23582283842E+03  0.00000000000E+00 0. -1.
         -4    1    6    6    0  503 -0.46803510213E+02  0.37517100940E+03  0.57198385909E+02  0.38238136750E+03  0.00000000000E+00 0.  1.
<mgrwt>
<rscale>  0 0.18494354E+04</rscale>
<asrwt>0</asrwt>
<pdfrwt beam="1">  1        2 0.98276461E-01 0.18494354E+04</pdfrwt>
<pdfrwt beam="2">  1       -1 0.20594066E+00 0.18494354E+04</pdfrwt>
<totfact> 0.67580595E+00</totfact>
</mgrwt>
</event>
<event>
12    7  0.1698542E-007  0.2112935E+04  0.7818608E-02  0.8555567E-01
         -1   -1    0    0    0  501 -0.00000000000E+00  0.00000000000E+00  0.47898598520E+03  0.47898598520E+03  0.00000000000E+00 0.  1.
          2   -1    0    0  501    0  0.00000000000E+00 -0.00000000000E+00 -0.23301804664E+04  0.23301804664E+04  0.00000000000E+00 0. -1.
         24    2    1    2    0    0 -0.52643536421E+03  0.52028362220E+03 -0.17948051511E+03  0.76582085006E+03  0.80243871216E+02 0.  0.
        254    2    1    2    0    0  0.52643536421E+03 -0.52028362220E+03 -0.16717139661E+04  0.20433456015E+04  0.91258118688E+03 0.  0.
         23    2    4    4    0    0  0.55882963781E+03 -0.67800074632E+03 -0.16295167114E+04  0.18538514757E+04  0.97288256437E+02 0.  0.
         23    2    4    4    0    0 -0.32394273603E+02  0.15771712412E+03 -0.42197254615E+02  0.18949412584E+03  0.90572265237E+02 0.  0.
          2    1    3    3  502    0 -0.50648930440E+03  0.51485620607E+03 -0.18251105176E+03  0.74492859552E+03  0.00000000000E+00 0. -1.
         -1    1    3    3    0  502 -0.19946059803E+02  0.54274161310E+01  0.30305366542E+01  0.20892254544E+02  0.00000000000E+00 0.  1.
         13    1    5    5    0    0  0.15984161845E+03 -0.20471341694E+03 -0.57764831842E+03  0.63335180259E+03  0.00000000000E+00 0. -1.
        -13    1    5    5    0    0  0.39898801936E+03 -0.47328732937E+03 -0.10518683930E+04  0.12204996731E+04  0.00000000000E+00 0.  1.
          1    1    6    6  503    0 -0.57704048626E+01  0.22292472669E+02  0.26681734399E+02  0.35244387646E+02  0.00000000000E+00 0. -1.
         -1    1    6    6    0  503 -0.26623868740E+02  0.13542465145E+03 -0.68878989014E+02  0.15424973820E+03  0.00000000000E+00 0.  1.
<mgrwt>
<rscale>  0 0.21129352E+04</rscale>
<asrwt>0</asrwt>
<pdfrwt beam="1">  1        2 0.35848931E+00 0.21129352E+04</pdfrwt>
<pdfrwt beam="2">  1       -1 0.73690151E-01 0.21129352E+04</pdfrwt>
<totfact> 0.84706699E+00</totfact>
</mgrwt>
</event>
<event>
12    7  0.1698542E-007  0.1263012E+04  0.7818608E-02  0.9059422E-01
         -1   -1    0    0    0  501 -0.00000000000E+00  0.00000000000E+00  0.15185588586E+03  0.15185588586E+03  0.00000000000E+00 0.  1.
          2   -1    0    0  501    0  0.00000000000E+00 -0.00000000000E+00 -0.26261733161E+04  0.26261733161E+04  0.00000000000E+00 0. -1.
         24    2    1    2    0    0 -0.13387341653E+03  0.17463345451E+03 -0.15334957887E+03  0.27994541607E+03  0.80214758934E+02 0.  0.
        254    2    1    2    0    0  0.13387341653E+03 -0.17463345451E+03 -0.23209678513E+04  0.24980837859E+04  0.89728027903E+03 0.  0.
         23    2    4    4    0    0  0.32295192683E+03 -0.45721411882E+03 -0.12952920814E+04  0.14138840916E+04  0.89128844368E+02 0.  0.
         23    2    4    4    0    0 -0.18907851029E+03  0.28258066431E+03 -0.10256757699E+04  0.10841996942E+04  0.88745011498E+02 0.  0.
          4    1    3    3  502    0 -0.90082928630E+01  0.63585815823E+01  0.95069438976E+01  0.14558945096E+02  0.00000000000E+00 0. -1.
         -3    1    3    3    0  502 -0.12486512367E+03  0.16827487293E+03 -0.16285652277E+03  0.26538647098E+03  0.00000000000E+00 0.  1.
         13    1    5    5    0    0  0.72561848305E+02 -0.60713853126E+02 -0.27931233596E+03  0.29490129673E+03  0.00000000000E+00 0. -1.
        -13    1    5    5    0    0  0.25039007852E+03 -0.39650026569E+03 -0.10159797455E+04  0.11189827949E+04  0.00000000000E+00 0.  1.
          1    1    6    6  503    0 -0.26940783797E+02  0.11288568971E+03 -0.30929247048E+03  0.33034953771E+03  0.00000000000E+00 0. -1.
         -1    1    6    6    0  503 -0.16213772650E+03  0.16969497460E+03 -0.71638329945E+03  0.75385015652E+03  0.00000000000E+00 0.  1.
<mgrwt>
<rscale>  0 0.12630121E+04</rscale>
<asrwt>0</asrwt>
<pdfrwt beam="1">  1        2 0.40402663E+00 0.12630121E+04</pdfrwt>
<pdfrwt beam="2">  1       -1 0.23362446E-01 0.12630121E+04</pdfrwt>
<totfact> 0.52058867E+01</totfact>
</mgrwt>
</event>
<event>
12    7  0.1698542E-007  0.3075934E+04  0.7818608E-02  0.8222374E-01
         -1   -1    0    0    0  501 -0.00000000000E+00  0.00000000000E+00  0.10921756237E+04  0.10921756237E+04  0.00000000000E+00 0.  1.
          2   -1    0    0  501    0  0.00000000000E+00 -0.00000000000E+00 -0.21657165147E+04  0.21657165147E+04  0.00000000000E+00 0. -1.
         24    2    1    2    0    0 -0.29923188808E+02 -0.11312055995E+04  0.38683296199E+03  0.11982024208E+04  0.74349144185E+02 0.  0.
        254    2    1    2    0    0  0.29923188808E+02  0.11312055995E+04 -0.14603738530E+04  0.20596897176E+04  0.91055391767E+03 0.  0.
         23    2    4    4    0    0  0.27101841069E+02 -0.14444192748E+03 -0.14564586887E+03  0.22533483259E+03  0.89247338663E+02 0.  0.
         23    2    4    4    0    0  0.28213477380E+01  0.12756475270E+04 -0.13147279841E+04  0.18343548850E+04  0.95202936278E+02 0.  0.
          2    1    3    3  502    0  0.16180828544E+02 -0.30831603911E+03  0.81873801069E+02  0.31941183210E+03  0.00000000000E+00 0. -1.
         -1    1    3    3    0  502 -0.46104017351E+02 -0.82288956038E+03  0.30495916092E+03  0.87879058872E+03  0.00000000000E+00 0.  1.
         13    1    5    5    0    0 -0.54894221047E+01 -0.13859064353E+03 -0.11408660675E+03  0.17959190981E+03  0.00000000000E+00 0. -1.
        -13    1    5    5    0    0  0.32591263174E+02 -0.58512839437E+01 -0.31559262123E+02  0.45742922784E+02  0.00000000000E+00 0.  1.
          1    1    6    6  503    0  0.14223437653E+02  0.10533762690E+04 -0.11323064962E+04  0.15465839361E+04  0.00000000000E+00 0. -1.
         -1    1    6    6    0  503 -0.11402089915E+02  0.22227125799E+03 -0.18242148789E+03  0.28777094889E+03  0.00000000000E+00 0.  1.
<mgrwt>
<rscale>  0 0.30759342E+04</rscale>
<asrwt>0</asrwt>
<pdfrwt beam="1">  1        2 0.33318715E+00 0.30759342E+04</pdfrwt>
<pdfrwt beam="2">  1       -1 0.16802702E+00 0.30759342E+04</pdfrwt>
<totfact> 0.13286976E+00</totfact>
</mgrwt>
</event>
<event>
12    7  0.1698542E-007  0.1385320E+04  0.7818608E-02  0.8964514E-01
         -1   -1    0    0    0  501 -0.00000000000E+00  0.00000000000E+00  0.33892948593E+03  0.33892948593E+03  0.00000000000E+00 0.  1.
          2   -1    0    0  501    0  0.00000000000E+00 -0.00000000000E+00 -0.14155683076E+04  0.14155683076E+04  0.00000000000E+00 0. -1.
         24    2    1    2    0    0 -0.14151419442E+03  0.36153136791E+03 -0.27650392065E+03  0.48329140849E+03  0.79906008404E+02 0.  0.
        254    2    1    2    0    0  0.14151419442E+03 -0.36153136791E+03 -0.80013490100E+03  0.12712063850E+04  0.90830535412E+03 0.  0.
         23    2    4    4    0    0 -0.22652441697E+03  0.13718250056E+03 -0.50853698201E+03  0.58016868336E+03  0.88619913832E+02 0.  0.
         23    2    4    4    0    0  0.36803861140E+03 -0.49871386847E+03 -0.29159791899E+03  0.69103770166E+03  0.91300693743E+02 0.  0.
          4    1    3    3  502    0 -0.10369653186E+02  0.68889745862E+01 -0.28501818077E+02  0.31102111050E+02  0.00000000000E+00 0. -1.
         -1    1    3    3    0  502 -0.13114454124E+03  0.35464239332E+03 -0.24800210257E+03  0.45218929744E+03  0.00000000000E+00 0.  1.
         13    1    5    5    0    0 -0.23146498114E+03  0.11943127357E+03 -0.48182238144E+03  0.54771586964E+03  0.00000000000E+00 0.  1.
        -13    1    5    5    0    0  0.49405641703E+01  0.17751226998E+02 -0.26714600574E+02  0.32452813716E+02  0.00000000000E+00 0. -1.
          4    1    6    6  503    0  0.12101787953E+03 -0.19305882450E+03 -0.15239193321E+03  0.27411738032E+03  0.00000000000E+00 0. -1.
         -4    1    6    6    0  503  0.24702073187E+03 -0.30565504397E+03 -0.13920598578E+03  0.41692032135E+03  0.00000000000E+00 0.  1.
<mgrwt>
<rscale>  0 0.13853199E+04</rscale>
<asrwt>0</asrwt>
<pdfrwt beam="1">  1        2 0.21777975E+00 0.13853199E+04</pdfrwt>
<pdfrwt beam="2">  1       -1 0.52142996E-01 0.13853199E+04</pdfrwt>
<totfact> 0.58298762E+01</totfact>
</mgrwt>
</event>
<event>
12    7  0.1698542E-007  0.1723368E+04  0.7818608E-02  0.8748148E-01
         -1   -1    0    0    0  501 -0.00000000000E+00  0.00000000000E+00  0.78278690571E+03  0.78278690571E+03  0.00000000000E+00 0.  1.
          2   -1    0    0  501    0  0.00000000000E+00 -0.00000000000E+00 -0.94853295266E+03  0.94853295266E+03  0.00000000000E+00 0. -1.
         24    2    1    2    0    0 -0.40467825047E+03 -0.40626323031E+03 -0.32116702485E+03  0.66207003793E+03  0.79838452976E+02 0.  0.
        254    2    1    2    0    0  0.40467825047E+03  0.40626323031E+03  0.15542097790E+03  0.10692498204E+04  0.88900236188E+03 0.  0.
         23    2    4    4    0    0  0.24699090941E+03  0.64200246202E+03 -0.68235566276E+02  0.69710031229E+03  0.90117047854E+02 0.  0.
         23    2    4    4    0    0  0.15768734105E+03 -0.23573923170E+03  0.22365654418E+03  0.37214950815E+03  0.89636620706E+02 0.  0.
          4    1    3    3  502    0 -0.30137092227E+03 -0.30067778649E+03 -0.19694026060E+03  0.46905973001E+03  0.00000000000E+00 0. -1.
         -1    1    3    3    0  502 -0.10330732820E+03 -0.10558544383E+03 -0.12422676425E+03  0.19301030792E+03  0.00000000000E+00 0.  1.
         13    1    5    5    0    0  0.23355799105E+03  0.53940418421E+03 -0.36764594628E+02  0.58894638512E+03  0.00000000000E+00 0. -1.
        -13    1    5    5    0    0  0.13432918359E+02  0.10259827781E+03 -0.31470971647E+02  0.10815392717E+03  0.00000000000E+00 0.  1.
          2    1    6    6  503    0  0.50446061800E+02 -0.12333076036E+03  0.58869143587E+02  0.14567380570E+03  0.00000000000E+00 0. -1.
         -2    1    6    6    0  503  0.10724127926E+03 -0.11240847135E+03  0.16478740059E+03  0.22647570245E+03  0.00000000000E+00 0.  1.
<mgrwt>
<rscale>  0 0.17233678E+04</rscale>
<asrwt>0</asrwt>
<pdfrwt beam="1">  1        2 0.14592815E+00 0.17233678E+04</pdfrwt>
<pdfrwt beam="2">  1       -1 0.12042876E+00 0.17233678E+04</pdfrwt>
<totfact> 0.18100985E+01</totfact>
</mgrwt>
</event>
<event>
12    7  0.1698542E-007  0.2344745E+04  0.7818608E-02  0.8460485E-01
          2   -1    0    0  501    0  0.00000000000E+00  0.00000000000E+00  0.14444827487E+04  0.14444827487E+04  0.00000000000E+00 0. -1.
         -1   -1    0    0    0  501 -0.00000000000E+00 -0.00000000000E+00 -0.95152244282E+03  0.95152244282E+03  0.00000000000E+00 0.  1.
         24    2    1    2    0    0  0.73164138031E+03  0.25883849320E+01  0.90399816560E+03  0.11656550396E+04  0.78950483626E+02 0.  0.
        254    2    1    2    0    0 -0.73164138031E+03 -0.25883849320E+01 -0.41103785968E+03  0.12303501519E+04  0.89972416061E+03 0.  0.
         23    2    4    4    0    0 -0.44588426906E+03 -0.17438519851E+03  0.20120126148E+03  0.52732834308E+03  0.91489097411E+02 0.  0.
         23    2    4    4    0    0 -0.28575711126E+03  0.17179681358E+03 -0.61223912116E+03  0.70302180886E+03  0.90728443547E+02 0.  0.
          4    1    3    3  502    0  0.51443610750E+03  0.17310326406E+02  0.58191104727E+03  0.77689421612E+03  0.00000000000E+00 0. -1.
         -3    1    3    3    0  502  0.21720527281E+03 -0.14721941474E+02  0.32208711833E+03  0.38876082351E+03  0.00000000000E+00 0.  1.
         13    1    5    5    0    0 -0.33644116683E+03 -0.11614552053E+03  0.10711170403E+03  0.37169255819E+03  0.00000000000E+00 0. -1.
        -13    1    5    5    0    0 -0.10944310223E+03 -0.58239677982E+02  0.94089557454E+02  0.15563578489E+03  0.00000000000E+00 0.  1.
          2    1    6    6  503    0 -0.11240797794E+03  0.19033016240E+02 -0.18507870210E+03  0.21737510249E+03  0.00000000000E+00 0.  1.
         -2    1    6    6    0  503 -0.17334913332E+03  0.15276379734E+03 -0.42716041906E+03  0.48564670638E+03  0.00000000000E+00 0. -1.
<mgrwt>
<rscale>  0 0.23447454E+04</rscale>
<asrwt>0</asrwt>
<pdfrwt beam="1">  1        2 0.22222812E+00 0.23447454E+04</pdfrwt>
<pdfrwt beam="2">  1       -1 0.14638807E+00 0.23447454E+04</pdfrwt>
<totfact> 0.52322058E+00</totfact>
</mgrwt>
</event>
<event>
12    7  0.1698542E-007  0.2003180E+04  0.7818608E-02  0.8605135E-01
          2   -1    0    0  501    0  0.00000000000E+00  0.00000000000E+00  0.22592997330E+04  0.22592997330E+04  0.00000000000E+00 0. -1.
         -1   -1    0    0    0  501 -0.00000000000E+00 -0.00000000000E+00 -0.44402360982E+03  0.44402360982E+03  0.00000000000E+00 0.  1.
         24    2    1    2    0    0 -0.44139929897E+03 -0.65245990671E+03  0.58729423400E+03  0.98568649487E+03  0.78269265368E+02 0.  0.
        254    2    1    2    0    0  0.44139929897E+03  0.65245990671E+03  0.12279818892E+04  0.17176368479E+04  0.90653160465E+03 0.  0.
         23    2    4    4    0    0  0.36231552909E+03 -0.59267415108E+02  0.78144940913E+03  0.86831376038E+03  0.92306220371E+02 0.  0.
         23    2    4    4    0    0  0.79083769880E+02  0.71172732182E+03  0.44653248002E+03  0.84932308753E+03  0.95647415172E+02 0.  0.
          4    1    3    3  502    0 -0.18991549681E+03 -0.29842856808E+03  0.21703727099E+03  0.41500925674E+03  0.00000000000E+00 0. -1.
         -3    1    3    3    0  502 -0.25148380216E+03 -0.35403133862E+03  0.37025696300E+03  0.57067723814E+03  0.00000000000E+00 0.  1.
         13    1    5    5    0    0  0.24570902497E+03 -0.78980230325E+02  0.49071999569E+03  0.55445190585E+03  0.00000000000E+00 0. -1.
        -13    1    5    5    0    0  0.11660650412E+03  0.19712815217E+02  0.29072941345E+03  0.31386185453E+03  0.00000000000E+00 0.  1.
          3    1    6    6  503    0  0.84143318485E+02  0.33133327293E+03  0.20165839002E+03  0.39689789878E+03  0.00000000000E+00 0. -1.
         -3    1    6    6    0  503 -0.50595486052E+01  0.38039404889E+03  0.24487409000E+03  0.45242518875E+03  0.00000000000E+00 0.  1.
<mgrwt>
<rscale>  0 0.20031799E+04</rscale>
<asrwt>0</asrwt>
<pdfrwt beam="1">  1        2 0.34758457E+00 0.20031799E+04</pdfrwt>
<pdfrwt beam="2">  1       -1 0.68311326E-01 0.20031799E+04</pdfrwt>
<totfact> 0.10966937E+01</totfact>
</mgrwt>
</event>
<event>
12    7  0.1698542E-007  0.2051176E+04  0.7818608E-02  0.8583061E-01
         -1   -1    0    0    0  501 -0.00000000000E+00  0.00000000000E+00  0.74402548181E+03  0.74402548181E+03  0.00000000000E+00 0.  1.
          2   -1    0    0  501    0  0.00000000000E+00 -0.00000000000E+00 -0.14137025996E+04  0.14137025996E+04  0.00000000000E+00 0. -1.
         24    2    1    2    0    0 -0.91800527442E+02  0.18723259506E+03 -0.11107813000E+04  0.11329043972E+04  0.78446767580E+02 0.  0.
        254    2    1    2    0    0  0.91800527442E+02 -0.18723259506E+03  0.44110418220E+03  0.10248236842E+04  0.90122544495E+03 0.  0.
         23    2    4    4    0    0  0.45378749735E+03 -0.27863288948E+03  0.26891688403E+03  0.60359038912E+03  0.91900421488E+02 0.  0.
         23    2    4    4    0    0 -0.36198696991E+03  0.91400294419E+02  0.17218729817E+03  0.42123329507E+03  0.91653930714E+02 0.  0.
          4    1    3    3  502    0 -0.28525861412E+02  0.14042268778E+03 -0.67002353185E+03  0.68517427655E+03  0.00000000000E+00 0. -1.
         -3    1    3    3    0  502 -0.63274666030E+02  0.46809907283E+02 -0.44075776815E+03  0.44773012068E+03  0.00000000000E+00 0.  1.
         13    1    5    5    0    0  0.38464824033E+03 -0.21187316954E+03  0.18696517193E+03  0.47728448988E+03  0.00000000000E+00 0. -1.
        -13    1    5    5    0    0  0.69139257019E+02 -0.66759719941E+02  0.81951712102E+02  0.12630589925E+03  0.00000000000E+00 0.  1.
          3    1    6    6  503    0 -0.20212688588E+03  0.95744543926E+02  0.11420183608E+03  0.25112617357E+03  0.00000000000E+00 0. -1.
         -3    1    6    6    0  503 -0.15986008403E+03 -0.43442495061E+01  0.57985462088E+02  0.17010712150E+03  0.00000000000E+00 0.  1.
<mgrwt>
<rscale>  0 0.20511760E+04</rscale>
<asrwt>0</asrwt>
<pdfrwt beam="1">  1        2 0.21749271E+00 0.20511760E+04</pdfrwt>
<pdfrwt beam="2">  1       -1 0.11446546E+00 0.20511760E+04</pdfrwt>
<totfact> 0.10401102E+01</totfact>
</mgrwt>
</event>
<event>
12    7  0.1698542E-007  0.1640693E+04  0.7818608E-02  0.8795932E-01
          2   -1    0    0  501    0  0.00000000000E+00  0.00000000000E+00  0.58278853228E+03  0.58278853228E+03  0.00000000000E+00 0. -1.
         -1   -1    0    0    0  501 -0.00000000000E+00 -0.00000000000E+00 -0.11547381748E+04  0.11547381748E+04  0.00000000000E+00 0.  1.
         24    2    1    2    0    0 -0.17917153476E+03 -0.43543873397E+03  0.13279522638E+03  0.49581457460E+03  0.80549303686E+02 0.  0.
        254    2    1    2    0    0  0.17917153476E+03  0.43543873397E+03 -0.70474486890E+03  0.12417121325E+04  0.90745488031E+03 0.  0.
         23    2    4    4    0    0  0.11617025043E+03  0.70170721358E+03 -0.59825072388E+03  0.93400867201E+03  0.92626832503E+02 0.  0.
         23    2    4    4    0    0  0.63001284336E+02 -0.26626847961E+03 -0.10649414503E+03  0.30770346047E+03  0.92045377921E+02 0.  0.
          4    1    3    3  502    0 -0.12880250451E+03 -0.37151298348E+03  0.13084498791E+03  0.41440607250E+03  0.00000000000E+00 0. -1.
         -3    1    3    3    0  502 -0.50369030249E+02 -0.63925750483E+02  0.19502384726E+01  0.81408502094E+02  0.00000000000E+00 0.  1.
         13    1    5    5    0    0  0.61264956153E+02  0.44361388482E+03 -0.31909529869E+03  0.54988042636E+03  0.00000000000E+00 0.  1.
        -13    1    5    5    0    0  0.54905294273E+02  0.25809332877E+03 -0.27915542519E+03  0.38412824565E+03  0.00000000000E+00 0. -1.
          3    1    6    6  503    0  0.13796786269E+01 -0.13682803687E+03 -0.15045578467E+02  0.13765966954E+03  0.00000000000E+00 0. -1.
         -3    1    6    6    0  503  0.61621605709E+02 -0.12944044275E+03 -0.91448566562E+02  0.17004379093E+03  0.00000000000E+00 0.  1.
<mgrwt>
<rscale>  0 0.16406927E+04</rscale>
<asrwt>0</asrwt>
<pdfrwt beam="1">  1        2 0.89659774E-01 0.16406927E+04</pdfrwt>
<pdfrwt beam="2">  1       -1 0.17765203E+00 0.16406927E+04</pdfrwt>
<totfact> 0.12139787E+01</totfact>
</mgrwt>
</event>
<event>
12    7  0.1698542E-007  0.1572460E+04  0.7818608E-02  0.8837648E-01
          2   -1    0    0  501    0  0.00000000000E+00  0.00000000000E+00  0.94044308172E+03  0.94044308172E+03  0.00000000000E+00 0. -1.
         -1   -1    0    0    0  501 -0.00000000000E+00 -0.00000000000E+00 -0.65730500191E+03  0.65730500191E+03  0.00000000000E+00 0.  1.
         24    2    1    2    0    0  0.16604549983E+03 -0.42490462052E+03  0.36219702552E+03  0.58803830303E+03  0.80543876159E+02 0.  0.
        254    2    1    2    0    0 -0.16604549983E+03  0.42490462052E+03 -0.79058945705E+02  0.10097097806E+04  0.89730066288E+03 0.  0.
         23    2    4    4    0    0 -0.35600206159E+02  0.64429505004E+03  0.13434012407E+03  0.66494723081E+03  0.87886657981E+02 0.  0.
         23    2    4    4    0    0 -0.13044529367E+03 -0.21939042952E+03 -0.21339906978E+03  0.34476254979E+03  0.90409720443E+02 0.  0.
          2    1    3    3  502    0  0.11423321146E+03 -0.31508723911E+03  0.30755499771E+03  0.45488379996E+03  0.00000000000E+00 0. -1.
         -1    1    3    3    0  502  0.51812288365E+02 -0.10981738140E+03  0.54642027810E+02  0.13315450307E+03  0.00000000000E+00 0.  1.
         13    1    5    5    0    0 -0.20682024295E+02  0.53656760975E+03  0.78435433470E+02  0.54266441120E+03  0.00000000000E+00 0.  1.
        -13    1    5    5    0    0 -0.14918181864E+02  0.10772744029E+03  0.55904690603E+02  0.12228281961E+03  0.00000000000E+00 0. -1.
          2    1    6    6  503    0 -0.10333327768E+03 -0.10148744128E+03 -0.14865684927E+03  0.20754836990E+03  0.00000000000E+00 0. -1.
         -2    1    6    6    0  503 -0.27112015989E+02 -0.11790298824E+03 -0.64742220512E+02  0.13721417989E+03  0.00000000000E+00 0.  1.
<mgrwt>
<rscale>  0 0.15724604E+04</rscale>
<asrwt>0</asrwt>
<pdfrwt beam="1">  1        2 0.14468355E+00 0.15724604E+04</pdfrwt>
<pdfrwt beam="2">  1       -1 0.10112385E+00 0.15724604E+04</pdfrwt>
<totfact> 0.28068909E+01</totfact>
</mgrwt>
</event>
<event>
12    7  0.1698542E-007  0.1710785E+04  0.7818608E-02  0.8755237E-01
         -1   -1    0    0    0  501 -0.00000000000E+00  0.00000000000E+00  0.26767696187E+03  0.26767696187E+03  0.00000000000E+00 0.  1.
          2   -1    0    0  501    0  0.00000000000E+00 -0.00000000000E+00 -0.27335059190E+04  0.27335059190E+04  0.00000000000E+00 0. -1.
         24    2    1    2    0    0 -0.31847980684E+03 -0.30011645284E+03 -0.14539450329E+03  0.46798459045E+03  0.79816932261E+02 0.  0.
        254    2    1    2    0    0  0.31847980684E+03  0.30011645284E+03 -0.23204344539E+04  0.25331982904E+04  0.91715770261E+03 0.  0.
         23    2    4    4    0    0  0.22647944114E+03 -0.29471925499E+03 -0.11677403542E+04  0.12287899471E+04  0.90304057210E+02 0.  0.
         23    2    4    4    0    0  0.92000365709E+02  0.59483570783E+03 -0.11526940997E+04  0.13044083434E+04  0.10239068422E+03 0.  0.
          4    1    3    3  502    0 -0.77089264644E+02 -0.35672662066E+02 -0.11498556867E+02  0.85717619846E+02  0.00000000000E+00 0. -1.
         -3    1    3    3    0  502 -0.24139054220E+03 -0.26444379077E+03 -0.13389594642E+03  0.38226697060E+03  0.00000000000E+00 0.  1.
         13    1    5    5    0    0  0.78581156052E+02 -0.16921844555E+03 -0.63470037455E+03  0.66155456756E+03  0.00000000000E+00 0.  1.
        -13    1    5    5    0    0  0.14789828508E+03 -0.12550080944E+03 -0.53303997963E+03  0.56723537952E+03  0.00000000000E+00 0. -1.
          4    1    6    6  503    0 -0.11975721456E+02  0.14562052042E+02 -0.19983752216E+02  0.27474017120E+02  0.00000000000E+00 0. -1.
         -4    1    6    6    0  503  0.10397608717E+03  0.58027365579E+03 -0.11327103475E+04  0.12769343262E+04  0.00000000000E+00 0.  1.
<mgrwt>
<rscale>  0 0.17107853E+04</rscale>
<asrwt>0</asrwt>
<pdfrwt beam="1">  1        2 0.42053935E+00 0.17107853E+04</pdfrwt>
<pdfrwt beam="2">  1       -1 0.41181073E-01 0.17107853E+04</pdfrwt>
<totfact> 0.15895001E+01</totfact>
</mgrwt>
</event>
<event>
12    7  0.1698542E-007  0.1178344E+04  0.7818608E-02  0.9132026E-01
          2   -1    0    0  501    0  0.00000000000E+00  0.00000000000E+00  0.27406521135E+04  0.27406521135E+04  0.00000000000E+00 0. -1.
         -1   -1    0    0    0  501 -0.00000000000E+00 -0.00000000000E+00 -0.12665740551E+03  0.12665740551E+03  0.00000000000E+00 0.  1.
         24    2    1    2    0    0  0.21555217706E+02 -0.15401007388E+03  0.14024355917E+03  0.22340545362E+03  0.77833222678E+02 0.  0.
        254    2    1    2    0    0 -0.21555217706E+02  0.15401007388E+03  0.24737511488E+04  0.26439040654E+04  0.92010881447E+03 0.  0.
         23    2    4    4    0    0  0.37854002576E+03 -0.15085358094E+03  0.10309062556E+04  0.11132436375E+04  0.10244185949E+03 0.  0.
         23    2    4    4    0    0 -0.40009524347E+03  0.30486365482E+03  0.14428448931E+04  0.15306604278E+04  0.90010598347E+02 0.  0.
          4    1    3    3  502    0  0.39743659368E+01 -0.97518232270E+02  0.13125094221E+03  0.16356164294E+03  0.00000000000E+00 0. -1.
         -3    1    3    3    0  502  0.17580851769E+02 -0.56491841606E+02  0.89926169589E+01  0.59843810681E+02  0.00000000000E+00 0.  1.
         13    1    5    5    0    0  0.18852186398E+03 -0.77454457955E+02  0.65117467010E+03  0.68232553611E+03  0.00000000000E+00 0. -1.
        -13    1    5    5    0    0  0.19001816178E+03 -0.73399122990E+02  0.37973158554E+03  0.43091810141E+03  0.00000000000E+00 0.  1.
          1    1    6    6  503    0 -0.29569930114E+03  0.20751787566E+03  0.91149139777E+03  0.98046841542E+03  0.00000000000E+00 0. -1.
         -1    1    6    6    0  503 -0.10439594232E+03  0.97345779161E+02  0.53135349537E+03  0.55019201242E+03  0.00000000000E+00 0.  1.
<mgrwt>
<rscale>  0 0.11783444E+04</rscale>
<asrwt>0</asrwt>
<pdfrwt beam="1">  1        2 0.42163874E+00 0.11783444E+04</pdfrwt>
<pdfrwt beam="2">  1       -1 0.19485757E-01 0.11783444E+04</pdfrwt>
<totfact> 0.61022783E+01</totfact>
</mgrwt>
</event>
<event>
12    7  0.1698542E-007  0.1236750E+04  0.7818608E-02  0.9081284E-01
         -1   -1    0    0    0  501 -0.00000000000E+00  0.00000000000E+00  0.11941007951E+03  0.11941007951E+03  0.00000000000E+00 0.  1.
          2   -1    0    0  501    0  0.00000000000E+00 -0.00000000000E+00 -0.32023054695E+04  0.32023054695E+04  0.00000000000E+00 0. -1.
         24    2    1    2    0    0 -0.24000063796E+03  0.12080252627E+03 -0.76564974692E+03  0.81569379142E+03  0.83326285387E+02 0.  0.
        254    2    1    2    0    0  0.24000063796E+03 -0.12080252627E+03 -0.23172456431E+04  0.25060217576E+04  0.91560041646E+03 0.  0.
         23    2    4    4    0    0 -0.31533727266E+03  0.68410283132E+02 -0.11348725061E+04  0.11832825614E+04  0.90024733027E+02 0.  0.
         23    2    4    4    0    0  0.55533791063E+03 -0.18921280940E+03 -0.11823731370E+04  0.13227391962E+04  0.86203619376E+02 0.  0.
          2    1    3    3  502    0 -0.23265458985E+03  0.12767978217E+03 -0.75781447130E+03  0.80294025797E+03  0.00000000000E+00 0. -1.
         -1    1    3    3    0  502 -0.73460481087E+01 -0.68772559022E+01 -0.78352756159E+01  0.12753533453E+02  0.00000000000E+00 0.  1.
         13    1    5    5    0    0 -0.19859932145E+03  0.23422606966E+02 -0.82975271040E+03  0.85351032179E+03  0.00000000000E+00 0.  1.
        -13    1    5    5    0    0 -0.11673795122E+03  0.44987676166E+02 -0.30511979569E+03  0.32977223956E+03  0.00000000000E+00 0. -1.
          1    1    6    6  503    0  0.31532906910E+02 -0.42733128315E+00 -0.11006926370E+03  0.11449781500E+03  0.00000000000E+00 0. -1.
         -1    1    6    6    0  503  0.52380500372E+03 -0.18878547812E+03 -0.10723038733E+04  0.12082413812E+04  0.00000000000E+00 0.  1.
<mgrwt>
<rscale>  0 0.12367499E+04</rscale>
<asrwt>0</asrwt>
<pdfrwt beam="1">  1        2 0.49266233E+00 0.12367499E+04</pdfrwt>
<pdfrwt beam="2">  1       -1 0.18370783E-01 0.12367499E+04</pdfrwt>
<totfact> 0.34741785E+01</totfact>
</mgrwt>
</event>
<event>
12    7  0.1698542E-007  0.1306592E+04  0.7818608E-02  0.9024354E-01
         -1   -1    0    0    0  501 -0.00000000000E+00  0.00000000000E+00  0.66306415296E+03  0.66306415296E+03  0.00000000000E+00 0.  1.
          2   -1    0    0  501    0  0.00000000000E+00 -0.00000000000E+00 -0.64367146027E+03  0.64367146027E+03  0.00000000000E+00 0. -1.
         24    2    1    2    0    0  0.14228748932E+03 -0.28954679226E+03 -0.77173283856E+02  0.34044897521E+03  0.76594480591E+02 0.  0.
        254    2    1    2    0    0 -0.14228748932E+03  0.28954679226E+03  0.96565976545E+02  0.96628663802E+03  0.90570514212E+03 0.  0.
         23    2    4    4    0    0 -0.21413816658E+03  0.59179057585E+03  0.46690432487E+02  0.63817737408E+03  0.94969069936E+02 0.  0.
         23    2    4    4    0    0  0.71850677262E+02 -0.30224378360E+03  0.49875544058E+02  0.32810926394E+03  0.93028461467E+02 0.  0.
          2    1    3    3  502    0  0.14619649878E+03 -0.29136279736E+03 -0.79517573162E+02  0.33554245690E+03  0.00000000000E+00 0. -1.
         -1    1    3    3    0  502 -0.39090094615E+01  0.18160051084E+01  0.23442893057E+01  0.49065183046E+01  0.00000000000E+00 0.  1.
         13    1    5    5    0    0 -0.17283992968E+03  0.50781860725E+03  0.72000600945E+02  0.54123697740E+03  0.00000000000E+00 0.  1.
        -13    1    5    5    0    0 -0.41298236897E+02  0.83971968600E+02 -0.25310168457E+02  0.96940396681E+02  0.00000000000E+00 0. -1.
          2    1    6    6  503    0 -0.98571420414E+01 -0.15509258626E+03  0.14175087897E+02  0.15605065421E+03  0.00000000000E+00 0. -1.
         -2    1    6    6    0  503  0.81707819303E+02 -0.14715119734E+03  0.35700456161E+02  0.17205860973E+03  0.00000000000E+00 0.  1.
<mgrwt>
<rscale>  0 0.13065917E+04</rscale>
<asrwt>0</asrwt>
<pdfrwt beam="1">  1        2 0.99026378E-01 0.13065917E+04</pdfrwt>
<pdfrwt beam="2">  1       -1 0.10200987E+00 0.13065917E+04</pdfrwt>
<totfact> 0.46404035E+01</totfact>
</mgrwt>
</event>
<event>
12    7  0.1698542E-007  0.3232549E+04  0.7818608E-02  0.8180274E-01
          2   -1    0    0  501    0  0.00000000000E+00  0.00000000000E+00  0.30023389766E+04  0.30023389766E+04  0.00000000000E+00 0. -1.
         -1   -1    0    0    0  501 -0.00000000000E+00 -0.00000000000E+00 -0.87010276741E+03  0.87010276741E+03  0.00000000000E+00 0.  1.
         24    2    1    2    0    0 -0.11492652680E+04  0.94520855094E+03  0.95870509704E+03  0.17719616849E+04  0.80640490676E+02 0.  0.
        254    2    1    2    0    0  0.11492652680E+04 -0.94520855094E+03  0.11735311121E+04  0.21004800590E+04  0.90587601047E+03 0.  0.
         23    2    4    4    0    0  0.38607051930E+03 -0.84450520648E+03  0.43392273648E+03  0.10290074755E+04  0.91257623376E+02 0.  0.
         23    2    4    4    0    0  0.76319474870E+03 -0.10070334446E+03  0.73960837564E+03  0.10714725835E+04  0.91790848598E+02 0.  0.
          4    1    3    3  502    0  0.10812454111E+01  0.54147577716E+00 -0.31810479765E+00  0.12503912662E+01  0.00000000000E+00 0. -1.
         -3    1    3    3    0  502 -0.11503465134E+04  0.94466707517E+03  0.95902320184E+03  0.17707112937E+04  0.00000000000E+00 0.  1.
         13    1    5    5    0    0  0.11401105855E+02 -0.10222676232E+02  0.19888671311E+02  0.25100748407E+02  0.00000000000E+00 0. -1.
        -13    1    5    5    0    0  0.37466941345E+03 -0.83428253025E+03  0.41403406516E+03  0.10039067271E+04  0.00000000000E+00 0.  1.
          4    1    6    6  503    0  0.94649065838E+02 -0.26570682417E+02  0.59466592010E+02  0.11489439670E+03  0.00000000000E+00 0. -1.
         -4    1    6    6    0  503  0.66854568286E+03 -0.74132662046E+02  0.68014178363E+03  0.95657818681E+03  0.00000000000E+00 0.  1.
<mgrwt>
<rscale>  0 0.32325491E+04</rscale>
<asrwt>0</asrwt>
<pdfrwt beam="1">  1        2 0.46189830E+00 0.32325491E+04</pdfrwt>
<pdfrwt beam="2">  1       -1 0.13386197E+00 0.32325491E+04</pdfrwt>
<totfact> 0.77863337E-01</totfact>
</mgrwt>
</event>
<event>
12    7  0.1698542E-007  0.1168066E+04  0.7818608E-02  0.9141277E-01
         -1   -1    0    0    0  501 -0.00000000000E+00  0.00000000000E+00  0.15968944864E+03  0.15968944864E+03  0.00000000000E+00 0.  1.
          2   -1    0    0  501    0  0.00000000000E+00 -0.00000000000E+00 -0.21359852612E+04  0.21359852612E+04  0.00000000000E+00 0. -1.
         24    2    1    2    0    0 -0.63000376535E+02  0.19493628784E+03 -0.54438347760E+03  0.58724144300E+03  0.80808031333E+02 0.  0.
        254    2    1    2    0    0  0.63000376535E+02 -0.19493628784E+03 -0.14319123350E+04  0.17084332669E+04  0.90906660290E+03 0.  0.
         23    2    4    4    0    0 -0.22118426883E+03 -0.13513695936E+03 -0.33535489294E+02  0.27729956578E+03  0.92660356011E+02 0.  0.
         23    2    4    4    0    0  0.28418464536E+03 -0.59799328471E+02 -0.13983768457E+04  0.14311337011E+04  0.91372837817E+02 0.  0.
          2    1    3    3  502    0 -0.20065297291E+02  0.29962836587E+02 -0.19714152243E+03  0.20041249362E+03  0.00000000000E+00 0. -1.
         -1    1    3    3    0  502 -0.42935079244E+02  0.16497345125E+03 -0.34724195517E+03  0.38682894938E+03  0.00000000000E+00 0.  1.
         13    1    5    5    0    0 -0.16179880290E+03 -0.11860636612E+03 -0.61187200342E+02  0.20973839942E+03  0.00000000000E+00 0. -1.
        -13    1    5    5    0    0 -0.59385465925E+02 -0.16530593244E+02  0.27651711048E+02  0.67561166361E+02  0.00000000000E+00 0.  1.
          3    1    6    6  503    0  0.83098169822E+02  0.30217057093E+01 -0.24642535681E+03  0.26007670601E+03  0.00000000000E+00 0. -1.
         -3    1    6    6    0  503  0.20108647554E+03 -0.62821034181E+02 -0.11519514889E+04  0.11710569951E+04  0.00000000000E+00 0.  1.
<mgrwt>
<rscale>  0 0.11680656E+04</rscale>
<asrwt>0</asrwt>
<pdfrwt beam="1">  1        2 0.32861311E+00 0.11680656E+04</pdfrwt>
<pdfrwt beam="2">  1       -1 0.24567608E-01 0.11680656E+04</pdfrwt>
<totfact> 0.91437824E+01</totfact>
</mgrwt>
</event>
<event>
12    7  0.1698542E-007  0.1678964E+04  0.7818608E-02  0.8773454E-01
         -1   -1    0    0    0  501 -0.00000000000E+00  0.00000000000E+00  0.30471328566E+03  0.30471328566E+03  0.00000000000E+00 0.  1.
          2   -1    0    0  501    0  0.00000000000E+00 -0.00000000000E+00 -0.23127653158E+04  0.23127653158E+04  0.00000000000E+00 0. -1.
         24    2    1    2    0    0  0.19541404348E+03 -0.55527739281E+03 -0.58983746436E+03  0.83715657816E+03  0.80020438802E+02 0.  0.
        254    2    1    2    0    0 -0.19541404348E+03  0.55527739281E+03 -0.14182145658E+04  0.17803220233E+04  0.90094079756E+03 0.  0.
         23    2    4    4    0    0 -0.19647785863E+03  0.41829497354E+03 -0.14069994566E+03  0.49217595966E+03  0.94161917685E+02 0.  0.
         23    2    4    4    0    0  0.10638151509E+01  0.13698241928E+03 -0.12775146202E+04  0.12881460637E+04  0.92257041695E+02 0.  0.
          2    1    3    3  502    0  0.15018856443E+03 -0.42201091664E+03 -0.39783475546E+03  0.59910125296E+03  0.00000000000E+00 0. -1.
         -1    1    3    3    0  502  0.45225479052E+02 -0.13326647617E+03 -0.19200270891E+03  0.23805532519E+03  0.00000000000E+00 0.  1.
         13    1    5    5    0    0 -0.86683198279E+02  0.23176125352E+03 -0.30573532960E+02  0.24932307638E+03  0.00000000000E+00 0.  1.
        -13    1    5    5    0    0 -0.10979466035E+03  0.18653372001E+03 -0.11012641270E+03  0.24285288328E+03  0.00000000000E+00 0. -1.
          4    1    6    6  503    0  0.45799798508E+02  0.65741203059E+02 -0.69093976558E+03  0.69556975710E+03  0.00000000000E+00 0. -1.
         -4    1    6    6    0  503 -0.44735983357E+02  0.71241216218E+02 -0.58657485457E+03  0.59257630657E+03  0.00000000000E+00 0.  1.
<mgrwt>
<rscale>  0 0.16789643E+04</rscale>
<asrwt>0</asrwt>
<pdfrwt beam="1">  1        2 0.35581006E+00 0.16789643E+04</pdfrwt>
<pdfrwt beam="2">  1       -1 0.46878965E-01 0.16789643E+04</pdfrwt>
<totfact> 0.21968896E+01</totfact>
</mgrwt>
</event>
<event>
12    7  0.1698542E-007  0.1774695E+04  0.7818608E-02  0.8719873E-01
         -1   -1    0    0    0  501 -0.00000000000E+00  0.00000000000E+00  0.35779716112E+03  0.35779716112E+03  0.00000000000E+00 0.  1.
          2   -1    0    0  501    0  0.00000000000E+00 -0.00000000000E+00 -0.22006478479E+04  0.22006478479E+04  0.00000000000E+00 0. -1.
         24    2    1    2    0    0  0.20535095234E+03  0.35395871357E+02  0.21165546512E+03  0.30768245516E+03  0.80303025839E+02 0.  0.
        254    2    1    2    0    0 -0.20535095234E+03 -0.35395871357E+02 -0.20545061519E+04  0.22507625539E+04  0.89527351372E+03 0.  0.
         23    2    4    4    0    0  0.68762182111E+02  0.27377220998E+03 -0.16108786874E+04  0.16379296464E+04  0.90575495055E+02 0.  0.
         23    2    4    4    0    0 -0.27411313445E+03 -0.30916808133E+03 -0.44362746452E+03  0.61283290751E+03  0.89643361499E+02 0.  0.
          2    1    3    3  502    0  0.10978455480E+03  0.58077352511E+00  0.60096841424E+02  0.12515836416E+03  0.00000000000E+00 0. -1.
         -1    1    3    3    0  502  0.95566397539E+02  0.34815097832E+02  0.15155862370E+03  0.18252409099E+03  0.00000000000E+00 0.  1.
         13    1    5    5    0    0  0.46887842583E+02  0.25497878197E+03 -0.12923135391E+04  0.13180618090E+04  0.00000000000E+00 0. -1.
        -13    1    5    5    0    0  0.21874339527E+02  0.18793428010E+02 -0.31856514835E+03  0.31986783741E+03  0.00000000000E+00 0.  1.
          2    1    6    6  503    0 -0.35257129595E+02 -0.49176514855E+02 -0.25704076758E+02  0.65742637326E+02  0.00000000000E+00 0.  1.
         -2    1    6    6    0  503 -0.23885600486E+03 -0.25999156648E+03 -0.41792338776E+03  0.54709027019E+03  0.00000000000E+00 0. -1.
<mgrwt>
<rscale>  0 0.17746950E+04</rscale>
<asrwt>0</asrwt>
<pdfrwt beam="1">  1        2 0.33856122E+00 0.17746950E+04</pdfrwt>
<pdfrwt beam="2">  1       -1 0.55045716E-01 0.17746950E+04</pdfrwt>
<totfact> 0.18546037E+01</totfact>
</mgrwt>
</event>
<event>
12    7  0.1698542E-007  0.2101061E+04  0.7818608E-02  0.8560776E-01
         -1   -1    0    0    0  501 -0.00000000000E+00  0.00000000000E+00  0.28716978528E+03  0.28716978528E+03  0.00000000000E+00 0.  1.
          2   -1    0    0  501    0  0.00000000000E+00 -0.00000000000E+00 -0.38430729568E+04  0.38430729568E+04  0.00000000000E+00 0. -1.
         24    2    1    2    0    0 -0.19945301248E+03 -0.79670059206E+03 -0.99104911210E+03  0.12896293141E+04  0.80324888260E+02 0.  0.
        254    2    1    2    0    0  0.19945301248E+03  0.79670059206E+03 -0.25648540594E+04  0.28406134279E+04  0.90337974488E+03 0.  0.
         23    2    4    4    0    0 -0.17499713784E+03  0.41476318172E+03 -0.40360672102E+03  0.61234348909E+03  0.97024060017E+02 0.  0.
         23    2    4    4    0    0  0.37445015032E+03  0.38193741034E+03 -0.21612473384E+04  0.22282699389E+04  0.90043113365E+02 0.  0.
          4    1    3    3  502    0 -0.19641566429E+01 -0.96130126455E+01 -0.31275661819E+02  0.32778574491E+02  0.00000000000E+00 0. -1.
         -3    1    3    3    0  502 -0.19748885584E+03 -0.78708757941E+03 -0.95977345028E+03  0.12568507396E+04  0.00000000000E+00 0.  1.
         13    1    5    5    0    0 -0.15366754103E+03  0.25061409859E+03 -0.27735967275E+03  0.40416522320E+03  0.00000000000E+00 0.  1.
        -13    1    5    5    0    0 -0.21329596805E+02  0.16414908313E+03 -0.12624704827E+03  0.20817826589E+03  0.00000000000E+00 0. -1.
          1    1    6    6  503    0  0.74580302540E+02  0.31180255667E+02 -0.33732300996E+03  0.34687352583E+03  0.00000000000E+00 0. -1.
         -1    1    6    6    0  503  0.29986984778E+03  0.35075715467E+03 -0.18239243284E+04  0.18813964130E+04  0.00000000000E+00 0.  1.
<mgrwt>
<rscale>  0 0.21010611E+04</rscale>
<asrwt>0</asrwt>
<pdfrwt beam="1">  1        2 0.59124202E+00 0.21010611E+04</pdfrwt>
<pdfrwt beam="2">  1       -1 0.44179965E-01 0.21010611E+04</pdfrwt>
<totfact> 0.24371125E+00</totfact>
</mgrwt>
</event>
<event>
12    7  0.1698542E-007  0.2080589E+04  0.7818608E-02  0.8569842E-01
          2   -1    0    0  501    0  0.00000000000E+00  0.00000000000E+00  0.22997217631E+04  0.22997217631E+04  0.00000000000E+00 0. -1.
         -1   -1    0    0    0  501 -0.00000000000E+00 -0.00000000000E+00 -0.47058426122E+03  0.47058426122E+03  0.00000000000E+00 0.  1.
         24    2    1    2    0    0  0.46445159312E+03  0.43636283339E+03 -0.83378909802E+01  0.64227850593E+03  0.79525807322E+02 0.  0.
        254    2    1    2    0    0 -0.46445159312E+03 -0.43636283339E+03  0.18374753929E+04  0.21280275184E+04  0.86374619823E+03 0.  0.
         23    2    4    4    0    0 -0.51445797843E+03 -0.11629242066E+03  0.44719490123E+03  0.69757412007E+03  0.91844622163E+02 0.  0.
         23    2    4    4    0    0  0.50006385312E+02 -0.32007041274E+03  0.13902804916E+04  0.14304533983E+04  0.91495200462E+02 0.  0.
          2    1    3    3  502    0  0.27042724578E+03  0.22097021615E+03 -0.35947543419E+02  0.35107115741E+03  0.00000000000E+00 0. -1.
         -1    1    3    3    0  502  0.19402434734E+03  0.21539261724E+03  0.27609652439E+02  0.29120734852E+03  0.00000000000E+00 0.  1.
         13    1    5    5    0    0 -0.50529297677E+03 -0.11453493925E+03  0.45155777591E+03  0.68727263125E+03  0.00000000000E+00 0. -1.
        -13    1    5    5    0    0 -0.91650016647E+01 -0.17574814025E+01 -0.43628746750E+01  0.10301488816E+02  0.00000000000E+00 0.  1.
          4    1    6    6  503    0  0.73432707803E+02 -0.20362249028E+03  0.95806665364E+03  0.98221494285E+03  0.00000000000E+00 0.  1.
         -4    1    6    6    0  503 -0.23426322490E+02 -0.11644792246E+03  0.43221383799E+03  0.44823845549E+03  0.00000000000E+00 0. -1.
<mgrwt>
<rscale>  0 0.20805892E+04</rscale>
<asrwt>0</asrwt>
<pdfrwt beam="1">  1        2 0.35380334E+00 0.20805892E+04</pdfrwt>
<pdfrwt beam="2">  1       -1 0.72397580E-01 0.20805892E+04</pdfrwt>
<totfact> 0.91706182E+00</totfact>
</mgrwt>
</event>
<event>
12    7  0.1698542E-007  0.2057126E+04  0.7818608E-02  0.8580368E-01
          2   -1    0    0  501    0  0.00000000000E+00  0.00000000000E+00  0.14888186849E+04  0.14888186849E+04  0.00000000000E+00 0. -1.
         -1   -1    0    0    0  501 -0.00000000000E+00 -0.00000000000E+00 -0.71059178157E+03  0.71059178157E+03  0.00000000000E+00 0.  1.
         24    2    1    2    0    0  0.80317295545E+03  0.40831771655E+02  0.11830755700E+03  0.82008395690E+03  0.10856789754E+03 0.  0.
        254    2    1    2    0    0 -0.80317295545E+03 -0.40831771655E+02  0.65991934635E+03  0.13793265096E+04  0.90570085926E+03 0.  0.
         23    2    4    4    0    0 -0.55605379972E+03 -0.41838875325E+03  0.20251688434E+03  0.73035952927E+03  0.90371325838E+02 0.  0.
         23    2    4    4    0    0 -0.24711915573E+03  0.37755698160E+03  0.45740246202E+03  0.64896698033E+03  0.91235836269E+02 0.  0.
          2    1    3    3  502    0  0.32696451405E+03  0.16758725229E+02  0.10227933554E+03  0.34299812069E+03  0.00000000000E+00 0. -1.
         -1    1    3    3    0  502  0.47620844140E+03  0.24073046427E+02  0.16028221456E+02  0.47708583620E+03  0.00000000000E+00 0.  1.
         13    1    5    5    0    0 -0.49525310806E+03 -0.37843646408E+03  0.15130911572E+03  0.64139242815E+03  0.00000000000E+00 0. -1.
        -13    1    5    5    0    0 -0.60800691652E+02 -0.39952289173E+02  0.51207768612E+02  0.88967101121E+02  0.00000000000E+00 0.  1.
          2    1    6    6  503    0 -0.25002528568E+03  0.37965262759E+03  0.45803872247E+03  0.64532800373E+03  0.00000000000E+00 0. -1.
         -2    1    6    6    0  503  0.29061299490E+01 -0.20956459890E+01 -0.63626044869E+00  0.36389766076E+01  0.00000000000E+00 0.  1.
<mgrwt>
<rscale>  0 0.20571265E+04</rscale>
<asrwt>0</asrwt>
<pdfrwt beam="1">  1        2 0.22904903E+00 0.20571265E+04</pdfrwt>
<pdfrwt beam="2">  1       -1 0.10932181E+00 0.20571265E+04</pdfrwt>
<totfact> 0.10510018E+01</totfact>
</mgrwt>
</event>
<event>
12    7  0.1698542E-007  0.2245475E+04  0.7818608E-02  0.8499735E-01
          2   -1    0    0  501    0  0.00000000000E+00  0.00000000000E+00  0.61085860345E+03  0.61085860345E+03  0.00000000000E+00 0. -1.
         -1   -1    0    0    0  501 -0.00000000000E+00 -0.00000000000E+00 -0.20635535085E+04  0.20635535085E+04  0.00000000000E+00 0.  1.
         24    2    1    2    0    0 -0.18128679237E+03 -0.48018924005E+03  0.32976765961E+03  0.61352824112E+03  0.64989121931E+02 0.  0.
        254    2    1    2    0    0  0.18128679237E+03  0.48018924005E+03 -0.17824625646E+04  0.20608838708E+04  0.89812188887E+03 0.  0.
         23    2    4    4    0    0 -0.31995151799E+03  0.30106593097E+03 -0.11183794460E+04  0.12049367397E+04  0.89946053887E+02 0.  0.
         23    2    4    4    0    0  0.50123831037E+03  0.17912330908E+03 -0.66408311861E+03  0.85594713116E+03  0.91181682787E+02 0.  0.
          4    1    3    3  502    0 -0.14618773719E+03 -0.41054829803E+03  0.25209448636E+03  0.50346041510E+03  0.00000000000E+00 0. -1.
         -3    1    3    3    0  502 -0.35099055180E+02 -0.69640942024E+02  0.77673173257E+02  0.11006782602E+03  0.00000000000E+00 0.  1.
         13    1    5    5    0    0 -0.65237977016E+02  0.18297639202E+02 -0.17885461341E+03  0.19125838539E+03  0.00000000000E+00 0. -1.
        -13    1    5    5    0    0 -0.25471354098E+03  0.28276829177E+03 -0.93952483262E+03  0.10136783543E+04  0.00000000000E+00 0.  1.
          1    1    6    6  503    0  0.10225547066E+02 -0.53437754559E+00 -0.42450177605E+02  0.43667664820E+02  0.00000000000E+00 0. -1.
         -1    1    6    6    0  503  0.49101276330E+03  0.17965768663E+03 -0.62163294101E+03  0.81227946634E+03  0.00000000000E+00 0.  1.
<mgrwt>
<rscale>  0 0.22454749E+04</rscale>
<asrwt>0</asrwt>
<pdfrwt beam="1">  1        2 0.93978248E-01 0.22454749E+04</pdfrwt>
<pdfrwt beam="2">  1       -1 0.31746977E+00 0.22454749E+04</pdfrwt>
<totfact> 0.12830375E+00</totfact>
</mgrwt>
</event>
<event>
12    7  0.1698542E-007  0.2022210E+04  0.7818608E-02  0.8596307E-01
         -1   -1    0    0    0  501 -0.00000000000E+00  0.00000000000E+00  0.23223509223E+03  0.23223509223E+03  0.00000000000E+00 0.  1.
          2   -1    0    0  501    0  0.00000000000E+00 -0.00000000000E+00 -0.44021492051E+04  0.44021492051E+04  0.00000000000E+00 0. -1.
         24    2    1    2    0    0 -0.54347699070E+03 -0.73188934823E+02 -0.30694088288E+04  0.31190213862E+04  0.79372472207E+02 0.  0.
        254    2    1    2    0    0  0.54347699070E+03  0.73188934823E+02 -0.11005052840E+04  0.15153629112E+04  0.88571384357E+03 0.  0.
         23    2    4    4    0    0  0.61429339629E+02 -0.36611402283E+03 -0.37206674223E+03  0.53383120360E+03  0.93429394689E+02 0.  0.
         23    2    4    4    0    0  0.48204765107E+03  0.43930295765E+03 -0.72843854182E+03  0.98153170755E+03  0.86167030959E+02 0.  0.
          4    1    3    3  502    0 -0.51322052099E+03 -0.53460922761E+02 -0.29249435150E+04  0.29701090787E+04  0.00000000000E+00 0. -1.
         -3    1    3    3    0  502 -0.30256469710E+02 -0.19728012063E+02 -0.14446531383E+03  0.14891230748E+03  0.00000000000E+00 0.  1.
         13    1    5    5    0    0  0.13140169821E+02 -0.22346191951E+03 -0.27529244053E+03  0.35481519323E+03  0.00000000000E+00 0. -1.
        -13    1    5    5    0    0  0.48289169808E+02 -0.14265210331E+03 -0.96774301697E+02  0.17901601037E+03  0.00000000000E+00 0.  1.
          3    1    6    6  503    0  0.39211974912E+03  0.38287006802E+03 -0.56923306225E+03  0.79017318721E+03  0.00000000000E+00 0. -1.
         -3    1    6    6    0  503  0.89927901946E+02  0.56432889628E+02 -0.15920547957E+03  0.19135852034E+03  0.00000000000E+00 0.  1.
<mgrwt>
<rscale>  0 0.20222102E+04</rscale>
<asrwt>0</asrwt>
<pdfrwt beam="1">  1        2 0.67725367E+00 0.20222102E+04</pdfrwt>
<pdfrwt beam="2">  1       -1 0.35728478E-01 0.20222102E+04</pdfrwt>
<totfact> 0.12236934E+00</totfact>
</mgrwt>
</event>
<event>
12    7  0.1698542E-007  0.2116687E+04  0.7818608E-02  0.8553928E-01
          2   -1    0    0  501    0  0.00000000000E+00  0.00000000000E+00  0.23148323707E+04  0.23148323707E+04  0.00000000000E+00 0. -1.
         -1   -1    0    0    0  501 -0.00000000000E+00 -0.00000000000E+00 -0.48387545290E+03  0.48387545290E+03  0.00000000000E+00 0.  1.
         24    2    1    2    0    0 -0.25016786064E+03 -0.44552365054E+03 -0.17061656224E+03  0.54483733611E+03  0.81623708690E+02 0.  0.
        254    2    1    2    0    0  0.25016786064E+03  0.44552365054E+03  0.20015734801E+04  0.22538704875E+04  0.90142137577E+03 0.  0.
         23    2    4    4    0    0  0.27349502970E+03  0.64178816004E+03  0.96310002650E+03  0.11926203204E+04  0.89944393282E+02 0.  0.
         23    2    4    4    0    0 -0.23327169066E+02 -0.19626450950E+03  0.10384734536E+04  0.10612501671E+04  0.93599620648E+02 0.  0.
          4    1    3    3  502    0 -0.88570986906E+02 -0.23973273284E+03 -0.76593273806E+02  0.26680167261E+03  0.00000000000E+00 0. -1.
         -3    1    3    3    0  502 -0.16159687373E+03 -0.20579091770E+03 -0.94023288439E+02  0.27803566350E+03  0.00000000000E+00 0.  1.
         13    1    5    5    0    0  0.15137945618E+02  0.13481790684E+02  0.54359655734E+02  0.58016275725E+02  0.00000000000E+00 0. -1.
        -13    1    5    5    0    0  0.25835708409E+03  0.62830636936E+03  0.90874037076E+03  0.11346040446E+04  0.00000000000E+00 0.  1.
          1    1    6    6  503    0 -0.32039989558E+02 -0.72665270197E+02  0.61233846134E+03  0.61746675510E+03  0.00000000000E+00 0. -1.
         -1    1    6    6    0  503  0.87128204919E+01 -0.12359923930E+03  0.42613499224E+03  0.44378341205E+03  0.00000000000E+00 0.  1.
<mgrwt>
<rscale>  0 0.21166866E+04</rscale>
<asrwt>0</asrwt>
<pdfrwt beam="1">  1        2 0.35612805E+00 0.21166866E+04</pdfrwt>
<pdfrwt beam="2">  1       -1 0.74442379E-01 0.21166866E+04</pdfrwt>
<totfact> 0.84586026E+00</totfact>
</mgrwt>
</event>
<event>
12    7  0.1698542E-007  0.2235641E+04  0.7818608E-02  0.8503738E-01
          2   -1    0    0  501    0  0.00000000000E+00  0.00000000000E+00  0.83413962279E+03  0.83413962279E+03  0.00000000000E+00 0. -1.
         -1   -1    0    0    0  501 -0.00000000000E+00 -0.00000000000E+00 -0.14979784309E+04  0.14979784309E+04  0.00000000000E+00 0.  1.
         24    2    1    2    0    0  0.34761159257E+03  0.81786201823E+03 -0.58042337221E+03  0.10644385508E+04  0.80037724030E+02 0.  0.
        254    2    1    2    0    0 -0.34761159257E+03 -0.81786201823E+03 -0.83415435854E+02  0.12676795028E+04  0.90017836391E+03 0.  0.
         23    2    4    4    0    0 -0.28686525448E+03 -0.22800177394E+03  0.35981605770E+03  0.52168510315E+03  0.91712967028E+02 0.  0.
         23    2    4    4    0    0 -0.60746338085E+02 -0.58986024429E+03 -0.44323149355E+03  0.74599439970E+03  0.91805566907E+02 0.  0.
          4    1    3    3  502    0  0.81517314699E+02  0.13555601295E+03 -0.78468653529E+02  0.17657246340E+03  0.00000000000E+00 0. -1.
         -3    1    3    3    0  502  0.26609427787E+03  0.68230600528E+03 -0.50195471868E+03  0.88786608740E+03  0.00000000000E+00 0.  1.
         13    1    5    5    0    0 -0.92972499153E+02 -0.29099863915E+02  0.12117674805E+03  0.15548148426E+03  0.00000000000E+00 0. -1.
        -13    1    5    5    0    0 -0.19389275533E+03 -0.19890191002E+03  0.23863930965E+03  0.36620361889E+03  0.00000000000E+00 0.  1.
          1    1    6    6  503    0 -0.59177279124E+02 -0.54415132808E+03 -0.37367498176E+03  0.66274852712E+03  0.00000000000E+00 0. -1.
         -1    1    6    6    0  503 -0.15690589613E+01 -0.45708916216E+02 -0.69556511793E+02  0.83245872574E+02  0.00000000000E+00 0.  1.
<mgrwt>
<rscale>  0 0.22356414E+04</rscale>
<asrwt>0</asrwt>
<pdfrwt beam="1">  1        2 0.12832917E+00 0.22356414E+04</pdfrwt>
<pdfrwt beam="2">  1       -1 0.23045822E+00 0.22356414E+04</pdfrwt>
<totfact> 0.31733028E+00</totfact>
</mgrwt>
</event>
<event>
12    7  0.1698542E-007  0.1652137E+04  0.7818608E-02  0.8789143E-01
         -1   -1    0    0    0  501 -0.00000000000E+00  0.00000000000E+00  0.80230058911E+03  0.80230058911E+03  0.00000000000E+00 0.  1.
          2   -1    0    0  501    0  0.00000000000E+00 -0.00000000000E+00 -0.85054063709E+03  0.85054063709E+03  0.00000000000E+00 0. -1.
         24    2    1    2    0    0  0.45285900906E+02 -0.27809959810E+03  0.48618877580E+03  0.56751477073E+03  0.79393261723E+02 0.  0.
        254    2    1    2    0    0 -0.45285900906E+02  0.27809959810E+03 -0.53442882378E+03  0.10853264555E+04  0.90162583591E+03 0.  0.
         23    2    4    4    0    0  0.14497667373E+03  0.52790081375E+03 -0.13928391712E+03  0.57229458187E+03  0.91780029309E+02 0.  0.
         23    2    4    4    0    0 -0.19026257464E+03 -0.24980121565E+03 -0.39514490666E+03  0.51303187361E+03  0.91987561281E+02 0.  0.
          4    1    3    3  502    0 -0.18271574869E+02 -0.26027538406E+02  0.39774101974E+02  0.50924084592E+02  0.00000000000E+00 0. -1.
         -3    1    3    3    0  502  0.63557475775E+02 -0.25207205969E+03  0.44641467382E+03  0.51659068614E+03  0.00000000000E+00 0.  1.
         13    1    5    5    0    0  0.97337091136E+02  0.27893933796E+03 -0.11728286150E+03  0.31786307299E+03  0.00000000000E+00 0.  1.
        -13    1    5    5    0    0  0.47639582597E+02  0.24896147579E+03 -0.22001055618E+02  0.25443150887E+03  0.00000000000E+00 0. -1.
          3    1    6    6  503    0 -0.10421627788E+03 -0.92807930362E+02 -0.23244677667E+03  0.27111962027E+03  0.00000000000E+00 0. -1.
         -3    1    6    6    0  503 -0.86046296761E+02 -0.15699328529E+03 -0.16269812999E+03  0.24191225334E+03  0.00000000000E+00 0.  1.
<mgrwt>
<rscale>  0 0.16521371E+04</rscale>
<asrwt>0</asrwt>
<pdfrwt beam="1">  1        2 0.13085241E+00 0.16521371E+04</pdfrwt>
<pdfrwt beam="2">  1       -1 0.12343086E+00 0.16521371E+04</pdfrwt>
<totfact> 0.19968495E+01</totfact>
</mgrwt>
</event>
<event>
12    7  0.1698542E-007  0.1503405E+04  0.7818608E-02  0.8882192E-01
         -1   -1    0    0    0  501 -0.00000000000E+00  0.00000000000E+00  0.10030242624E+04  0.10030242624E+04  0.00000000000E+00 0.  1.
          2   -1    0    0  501    0  0.00000000000E+00 -0.00000000000E+00 -0.56335292095E+03  0.56335292095E+03  0.00000000000E+00 0. -1.
         24    2    1    2    0    0 -0.34705061199E+02 -0.40266770170E+02  0.64087579818E+03  0.64792602174E+03  0.79123238685E+02 0.  0.
        254    2    1    2    0    0  0.34705061199E+02  0.40266770170E+02 -0.20120445674E+03  0.91845116160E+03  0.89456327266E+03 0.  0.
         23    2    4    4    0    0 -0.24907584524E+03 -0.25497214235E+03  0.12367933712E+03  0.38805343749E+03  0.90770710363E+02 0.  0.
         23    2    4    4    0    0  0.28378090644E+03  0.29523891252E+03 -0.32488379386E+03  0.53039772412E+03  0.89859044707E+02 0.  0.
          4    1    3    3  502    0  0.40099771920E+01 -0.29219257393E+02  0.74565203158E+02  0.80186123748E+02  0.00000000000E+00 0. -1.
         -3    1    3    3    0  502 -0.38715038391E+02 -0.11047512776E+02  0.56631059502E+03  0.56773989799E+03  0.00000000000E+00 0.  1.
         13    1    5    5    0    0 -0.18218939645E+03 -0.22740783179E+03  0.12142158097E+03  0.31567467188E+03  0.00000000000E+00 0.  1.
        -13    1    5    5    0    0 -0.66886448789E+02 -0.27564310552E+02  0.22577561447E+01  0.72378765606E+02  0.00000000000E+00 0. -1.
          4    1    6    6  503    0  0.50258540976E+02  0.39269709975E+02 -0.14928178388E+02  0.65504820987E+02  0.00000000000E+00 0. -1.
         -4    1    6    6    0  503  0.23352236546E+03  0.25596920254E+03 -0.30995561547E+03  0.46489290313E+03  0.00000000000E+00 0.  1.
<mgrwt>
<rscale>  0 0.15034050E+04</rscale>
<asrwt>0</asrwt>
<pdfrwt beam="1">  1        2 0.86669680E-01 0.15034050E+04</pdfrwt>
<pdfrwt beam="2">  1       -1 0.15431142E+00 0.15034050E+04</pdfrwt>
<totfact> 0.19080662E+01</totfact>
</mgrwt>
</event>
<event>
12    7  0.1698542E-007  0.2447207E+04  0.7818608E-02  0.8422038E-01
         -1   -1    0    0    0  501 -0.00000000000E+00  0.00000000000E+00  0.55335796133E+03  0.55335796133E+03  0.00000000000E+00 0.  1.
          2   -1    0    0  501    0  0.00000000000E+00 -0.00000000000E+00 -0.27056727656E+04  0.27056727656E+04  0.00000000000E+00 0. -1.
         24    2    1    2    0    0 -0.31575886138E+03 -0.60359284437E+03  0.14095706444E+03  0.69988426133E+03  0.77078563354E+02 0.  0.
        254    2    1    2    0    0  0.31575886138E+03  0.60359284437E+03 -0.22932718687E+04  0.25591464656E+04  0.90890416888E+03 0.  0.
         23    2    4    4    0    0 -0.10216983624E+03  0.62896079313E+03 -0.93767900928E+03  0.11373227346E+04  0.90723334905E+02 0.  0.
         23    2    4    4    0    0  0.41792869762E+03 -0.25367948753E+02 -0.13555928594E+04  0.14218237309E+04  0.92966619357E+02 0.  0.
          2    1    3    3  502    0 -0.58988701599E+02 -0.99035122264E+02  0.53317686890E+02  0.12700550419E+03  0.00000000000E+00 0. -1.
         -1    1    3    3    0  502 -0.25677015978E+03 -0.50455772211E+03  0.87639377551E+02  0.57287875715E+03  0.00000000000E+00 0.  1.
         13    1    5    5    0    0 -0.48674425075E+02  0.46234223269E+03 -0.62414615907E+03  0.77825957602E+03  0.00000000000E+00 0.  1.
        -13    1    5    5    0    0 -0.53495411169E+02  0.16661856044E+03 -0.31353285022E+03  0.35906315860E+03  0.00000000000E+00 0. -1.
          1    1    6    6  503    0  0.42150026186E+03 -0.29151371616E+02 -0.13232615346E+04  0.13890764422E+04  0.00000000000E+00 0. -1.
         -1    1    6    6    0  503 -0.35715642371E+01  0.37834228634E+01 -0.32331324806E+02  0.32747288794E+02  0.00000000000E+00 0.  1.
<mgrwt>
<rscale>  0 0.24472070E+04</rscale>
<asrwt>0</asrwt>
<pdfrwt beam="1">  1        2 0.41625735E+00 0.24472070E+04</pdfrwt>
<pdfrwt beam="2">  1       -1 0.85131993E-01 0.24472070E+04</pdfrwt>
<totfact> 0.36628516E+00</totfact>
</mgrwt>
</event>
<event>
12    7  0.1698542E-007  0.1162046E+04  0.7818608E-02  0.9146742E-01
         -1   -1    0    0    0  501 -0.00000000000E+00  0.00000000000E+00  0.12429128328E+04  0.12429128328E+04  0.00000000000E+00 0.  1.
          2   -1    0    0  501    0  0.00000000000E+00 -0.00000000000E+00 -0.27160995786E+03  0.27160995786E+03  0.00000000000E+00 0. -1.
         24    2    1    2    0    0 -0.68821862770E+02  0.11970819266E+03 -0.26201048526E+02  0.16194788741E+03  0.80461935783E+02 0.  0.
        254    2    1    2    0    0  0.68821862770E+02 -0.11970819266E+03  0.99750392348E+03  0.13525749033E+04  0.90298299619E+03 0.  0.
         23    2    4    4    0    0  0.11592753366E+02  0.37381181374E+03  0.28479234087E+03  0.47905318443E+03  0.92280074086E+02 0.  0.
         23    2    4    4    0    0  0.57229109404E+02 -0.49352000640E+03  0.71271158261E+03  0.87352171883E+03  0.90803224658E+02 0.  0.
          2    1    3    3  502    0 -0.66063523810E+02  0.10683638585E+03  0.74305927057E+01  0.12583169802E+03  0.00000000000E+00 0. -1.
         -1    1    3    3    0  502 -0.27583389599E+01  0.12871806811E+02 -0.33631641232E+02  0.36116189394E+02  0.00000000000E+00 0.  1.
         13    1    5    5    0    0 -0.12369205526E+01  0.36203294425E+03  0.28631688032E+03  0.46156986324E+03  0.00000000000E+00 0. -1.
        -13    1    5    5    0    0  0.12829673918E+02  0.11778869489E+02 -0.15245394516E+01  0.17483321190E+02  0.00000000000E+00 0.  1.
          1    1    6    6  503    0  0.75432433595E+02 -0.46489725954E+03  0.65914670006E+03  0.81011967397E+03  0.00000000000E+00 0. -1.
         -1    1    6    6    0  503 -0.18203324190E+02 -0.28622746861E+02  0.53564882548E+02  0.63402044855E+02  0.00000000000E+00 0.  1.
<mgrwt>
<rscale>  0 0.11620456E+04</rscale>
<asrwt>0</asrwt>
<pdfrwt beam="1">  1        2 0.41786148E-01 0.11620456E+04</pdfrwt>
<pdfrwt beam="2">  1       -1 0.19121736E+00 0.11620456E+04</pdfrwt>
<totfact> 0.24106027E+01</totfact>
</mgrwt>
</event>
<event>
12    7  0.1698542E-007  0.2372938E+04  0.7818608E-02  0.8449705E-01
         -3   -1    0    0    0  501 -0.00000000000E+00  0.00000000000E+00  0.18978135372E+04  0.18978135372E+04  0.00000000000E+00 0.  1.
          2   -1    0    0  501    0  0.00000000000E+00 -0.00000000000E+00 -0.74175308323E+03  0.74175308323E+03  0.00000000000E+00 0. -1.
         24    2    1    2    0    0 -0.34240097618E+03  0.73344987931E+03 -0.17774754325E+03  0.83239289481E+03  0.78080652250E+02 0.  0.
        254    2    1    2    0    0  0.34240097618E+03 -0.73344987931E+03  0.13338079972E+04  0.18071737256E+04  0.91194624140E+03 0.  0.
         23    2    4    4    0    0  0.20137382244E+03 -0.90618559187E+03  0.12329198831E+04  0.15460440935E+04  0.91854002874E+02 0.  0.
         23    2    4    4    0    0  0.14102715374E+03  0.17273571257E+03  0.10088811414E+03  0.26112963207E+03  0.91016419848E+02 0.  0.
          4    1    3    3  502    0 -0.34666959316E+03  0.72551082100E+03 -0.17711936351E+03  0.82335716863E+03  0.00000000000E+00 0. -1.
         -3    1    3    3    0  502  0.42686169826E+01  0.79390583085E+01 -0.62817973839E+00  0.90357261774E+01  0.00000000000E+00 0.  1.
         13    1    5    5    0    0  0.78433430060E+02 -0.54609655031E+03  0.70168537139E+03  0.89260047369E+03  0.00000000000E+00 0. -1.
        -13    1    5    5    0    0  0.12294039238E+03 -0.36008904156E+03  0.53123451166E+03  0.65344361984E+03  0.00000000000E+00 0.  1.
          3    1    6    6  503    0  0.79915946152E+02  0.12158579800E+03  0.10788275948E+03  0.18113076635E+03  0.00000000000E+00 0. -1.
         -3    1    6    6    0  503  0.61111207591E+02  0.51149914572E+02 -0.69946453422E+01  0.79998865726E+02  0.00000000000E+00 0.  1.
<mgrwt>
<rscale>  0 0.23729383E+04</rscale>
<asrwt>0</asrwt>
<pdfrwt beam="1">  1        2 0.11411586E+00 0.23729383E+04</pdfrwt>
<pdfrwt beam="2">  1       -3 0.29197131E+00 0.23729383E+04</pdfrwt>
<totfact> 0.90342335E-01</totfact>
</mgrwt>
</event>
<event>
12    7  0.1698542E-007  0.1767037E+04  0.7818608E-02  0.8724028E-01
          2   -1    0    0  501    0  0.00000000000E+00  0.00000000000E+00  0.90997256396E+03  0.90997256396E+03  0.00000000000E+00 0. -1.
         -1   -1    0    0    0  501 -0.00000000000E+00 -0.00000000000E+00 -0.85783305348E+03  0.85783305348E+03  0.00000000000E+00 0.  1.
         24    2    1    2    0    0 -0.11638348062E+03  0.31929914783E+03  0.57163259628E+03  0.67026621255E+03  0.83641557760E+02 0.  0.
        254    2    1    2    0    0  0.11638348062E+03 -0.31929914783E+03 -0.51949308580E+03  0.10975394049E+04  0.90510917503E+03 0.  0.
         23    2    4    4    0    0  0.13390004616E+03  0.29718512965E+03 -0.12753412917E+03  0.36099802211E+03  0.88353801393E+02 0.  0.
         23    2    4    4    0    0 -0.17516565548E+02 -0.61648427748E+03 -0.39195895663E+03  0.73654138277E+03  0.92204611640E+02 0.  0.
          4    1    3    3  502    0 -0.60566232750E+02  0.26341753125E+03  0.45967084921E+03  0.53324886679E+03  0.00000000000E+00 0. -1.
         -3    1    3    3    0  502 -0.55817247866E+02  0.55881616581E+02  0.11196174707E+03  0.13701734576E+03  0.00000000000E+00 0.  1.
         13    1    5    5    0    0  0.75703024034E+02  0.24913529009E+03 -0.82629300455E+02  0.27317932190E+03  0.00000000000E+00 0. -1.
        -13    1    5    5    0    0  0.58197022130E+02  0.48049839552E+02 -0.44904828713E+02  0.87818700215E+02  0.00000000000E+00 0.  1.
          1    1    6    6  503    0 -0.22707860417E+02 -0.48625734305E+03 -0.35025847659E+03  0.59970230199E+03  0.00000000000E+00 0. -1.
         -1    1    6    6    0  503  0.51912948697E+01 -0.13022693443E+03 -0.41700480049E+02  0.13683908079E+03  0.00000000000E+00 0.  1.
<mgrwt>
<rscale>  0 0.17670366E+04</rscale>
<asrwt>0</asrwt>
<pdfrwt beam="1">  1        2 0.13999578E+00 0.17670366E+04</pdfrwt>
<pdfrwt beam="2">  1       -1 0.13197432E+00 0.17670366E+04</pdfrwt>
<totfact> 0.15223651E+01</totfact>
</mgrwt>
</event>
<event>
12    7  0.1698542E-007  0.2308989E+04  0.7818608E-02  0.8474385E-01
         -1   -1    0    0    0  501 -0.00000000000E+00  0.00000000000E+00  0.11012327750E+04  0.11012327750E+04  0.00000000000E+00 0.  1.
          2   -1    0    0  501    0  0.00000000000E+00 -0.00000000000E+00 -0.12103326015E+04  0.12103326015E+04  0.00000000000E+00 0. -1.
         24    2    1    2    0    0 -0.34378995194E+03 -0.76521803888E+03  0.45417348245E+03  0.95726578080E+03  0.79586712724E+02 0.  0.
        254    2    1    2    0    0  0.34378995194E+03  0.76521803888E+03 -0.56327330897E+03  0.13542995956E+04  0.90172079717E+03 0.  0.
         23    2    4    4    0    0  0.35478853727E+03  0.82074536877E+03 -0.12996613002E+03  0.90748957261E+03  0.84547400309E+02 0.  0.
         23    2    4    4    0    0 -0.10998585335E+02 -0.55527329892E+02 -0.43330717894E+03  0.44681002302E+03  0.93165616522E+02 0.  0.
          4    1    3    3  502    0 -0.21014294545E+03 -0.44082028402E+03  0.30678940975E+03  0.57671684756E+03  0.00000000000E+00 0. -1.
         -3    1    3    3    0  502 -0.13364700649E+03 -0.32439775486E+03  0.14738407270E+03  0.38054893324E+03  0.00000000000E+00 0.  1.
         13    1    5    5    0    0  0.20952979373E+03  0.55823113139E+03 -0.11387282326E+03  0.60703521347E+03  0.00000000000E+00 0. -1.
        -13    1    5    5    0    0  0.14525874354E+03  0.26251423738E+03 -0.16093306762E+02  0.30045435914E+03  0.00000000000E+00 0.  1.
          2    1    6    6  503    0 -0.51434788227E+02 -0.23490263745E+02 -0.25472038306E+03  0.26092106752E+03  0.00000000000E+00 0.  1.
         -2    1    6    6    0  503  0.40436202892E+02 -0.32037066147E+02 -0.17858679588E+03  0.18588895549E+03  0.00000000000E+00 0. -1.
<mgrwt>
<rscale>  0 0.23089893E+04</rscale>
<asrwt>0</asrwt>
<pdfrwt beam="1">  1        2 0.18620502E+00 0.23089893E+04</pdfrwt>
<pdfrwt beam="2">  1       -1 0.16942043E+00 0.23089893E+04</pdfrwt>
<totfact> 0.47919289E+00</totfact>
</mgrwt>
</event>
<event>
12    7  0.1698542E-007  0.1163709E+04  0.7818608E-02  0.9145229E-01
          2   -1    0    0  501    0  0.00000000000E+00  0.00000000000E+00  0.14262980346E+04  0.14262980346E+04  0.00000000000E+00 0. -1.
         -1   -1    0    0    0  501 -0.00000000000E+00 -0.00000000000E+00 -0.23736611268E+03  0.23736611268E+03  0.00000000000E+00 0.  1.
         24    2    1    2    0    0  0.34889053749E+02 -0.33108945850E+02  0.53677870363E+03  0.54501139347E+03  0.81194790335E+02 0.  0.
        254    2    1    2    0    0 -0.34889053749E+02  0.33108945850E+02  0.65215321829E+03  0.11186527538E+04  0.90761595134E+03 0.  0.
         23    2    4    4    0    0  0.29958864832E+03 -0.18427235843E+03  0.60804080158E+03  0.70765487470E+03  0.85744650028E+02 0.  0.
         23    2    4    4    0    0 -0.33447770207E+03  0.21738130428E+03  0.44112416707E+02  0.41099787912E+03  0.88562896832E+02 0.  0.
          2    1    3    3  502    0 -0.15492463100E+02 -0.38495896179E+02  0.30122205230E+03  0.30406689268E+03  0.00000000000E+00 0. -1.
         -1    1    3    3    0  502  0.50381516848E+02  0.53869503296E+01  0.23555665133E+03  0.24094450079E+03  0.00000000000E+00 0.  1.
         13    1    5    5    0    0  0.24018159055E+03 -0.13382539536E+03  0.53157122989E+03  0.59846838290E+03  0.00000000000E+00 0.  1.
        -13    1    5    5    0    0  0.59407057774E+02 -0.50446963073E+02  0.76469571691E+02  0.10918649180E+03  0.00000000000E+00 0. -1.
          3    1    6    6  503    0 -0.18491030668E+03  0.14982583173E+03  0.61932078968E+02  0.24591702620E+03  0.00000000000E+00 0. -1.
         -3    1    6    6    0  503 -0.14956739539E+03  0.67555472553E+02 -0.17819662261E+02  0.16508085291E+03  0.00000000000E+00 0.  1.
<mgrwt>
<rscale>  0 0.11637093E+04</rscale>
<asrwt>0</asrwt>
<pdfrwt beam="1">  1        2 0.21943046E+00 0.11637093E+04</pdfrwt>
<pdfrwt beam="2">  1       -1 0.36517864E-01 0.11637093E+04</pdfrwt>
<totfact> 0.11317173E+02</totfact>
</mgrwt>
</event>
<event>
12    7  0.1698542E-007  0.1925136E+04  0.7818608E-02  0.8642445E-01
          2   -1    0    0  501    0  0.00000000000E+00  0.00000000000E+00  0.76287639134E+03  0.76287639134E+03  0.00000000000E+00 0. -1.
         -1   -1    0    0    0  501 -0.00000000000E+00 -0.00000000000E+00 -0.12145308590E+04  0.12145308590E+04  0.00000000000E+00 0.  1.
         24    2    1    2    0    0 -0.99779670004E+02  0.44228060620E+03  0.43143880078E+03  0.63086705110E+03  0.79282281606E+02 0.  0.
        254    2    1    2    0    0  0.99779670004E+02 -0.44228060620E+03 -0.88309326843E+03  0.13465401992E+04  0.90980694118E+03 0.  0.
         23    2    4    4    0    0  0.28969747001E+02 -0.30440557944E+03 -0.10522462554E+04  0.10995209835E+04  0.90676392146E+02 0.  0.
         23    2    4    4    0    0  0.70809923003E+02 -0.13787502676E+03  0.16915298694E+03  0.24701921577E+03  0.91554310497E+02 0.  0.
          2    1    3    3  502    0 -0.94108375060E+02  0.42885090225E+03  0.43243571112E+03  0.61625492036E+03  0.00000000000E+00 0. -1.
         -1    1    3    3    0  502 -0.56712949443E+01  0.13429703951E+02 -0.99691033727E+00  0.14612130740E+02  0.00000000000E+00 0.  1.
         13    1    5    5    0    0  0.46119041397E+02 -0.19635648672E+03 -0.79060196703E+03  0.81592542927E+03  0.00000000000E+00 0. -1.
        -13    1    5    5    0    0 -0.17149294396E+02 -0.10804909271E+03 -0.26164428833E+03  0.28359555418E+03  0.00000000000E+00 0.  1.
          3    1    6    6  503    0  0.52893878312E+01 -0.10716206410E+03  0.93278117509E+02  0.14217064680E+03  0.00000000000E+00 0. -1.
         -3    1    6    6    0  503  0.65520535172E+02 -0.30712962664E+02  0.75874869426E+02  0.10484856897E+03  0.00000000000E+00 0.  1.
<mgrwt>
<rscale>  0 0.19251358E+04</rscale>
<asrwt>0</asrwt>
<pdfrwt beam="1">  1        2 0.11736560E+00 0.19251358E+04</pdfrwt>
<pdfrwt beam="2">  1       -1 0.18685090E+00 0.19251358E+04</pdfrwt>
<totfact> 0.72763833E+00</totfact>
</mgrwt>
</event>
<event>
12    7  0.1757351E-007  0.1761886E+04  0.7818608E-02  0.8726835E-01
         -1   -1    0    0    0  501 -0.00000000000E+00  0.00000000000E+00  0.34881351694E+03  0.34881351694E+03  0.00000000000E+00 0.  1.
          2   -1    0    0  501    0  0.00000000000E+00 -0.00000000000E+00 -0.22248571226E+04  0.22248571226E+04  0.00000000000E+00 0. -1.
         24    2    1    2    0    0  0.41898397537E+03  0.28207968870E+03 -0.99019102994E+02  0.52110471580E+03  0.81417563687E+02 0.  0.
        254    2    1    2    0    0 -0.41898397537E+03 -0.28207968870E+03 -0.17770245026E+04  0.20525659237E+04  0.89447988567E+03 0.  0.
         23    2    4    4    0    0 -0.47798731521E+02  0.23039742823E+03 -0.10681247540E+04  0.10973963522E+04  0.89557635777E+02 0.  0.
         23    2    4    4    0    0 -0.37118524385E+03 -0.51247711693E+03 -0.70889974869E+03  0.95516957153E+03  0.96947284992E+02 0.  0.
          2    1    3    3  502    0  0.12188187715E+02  0.28873311560E+02  0.20208191694E+01  0.31405473254E+02  0.00000000000E+00 0. -1.
         -1    1    3    3    0  502  0.40679578766E+03  0.25320637714E+03 -0.10103992216E+03  0.48969924254E+03  0.00000000000E+00 0.  1.
         13    1    5    5    0    0 -0.28564374590E+02  0.30755924227E+02 -0.32431769344E+03  0.32702265464E+03  0.00000000000E+00 0. -1.
        -13    1    5    5    0    0 -0.19234356932E+02  0.19964150401E+03 -0.74380706052E+03  0.77037369755E+03  0.00000000000E+00 0.  1.
          4    1    6    6  503    0 -0.21440747174E+03 -0.27152956516E+03 -0.31774831970E+03  0.46974765924E+03  0.00000000000E+00 0. -1.
         -4    1    6    6    0  503 -0.15677777211E+03 -0.24094755177E+03 -0.39115142899E+03  0.48542191229E+03  0.00000000000E+00 0.  1.
<mgrwt>
<rscale>  0 0.17618856E+04</rscale>
<asrwt>0</asrwt>
<pdfrwt beam="1">  1        2 0.34228572E+00 0.17618856E+04</pdfrwt>
<pdfrwt beam="2">  1       -1 0.53663617E-01 0.17618856E+04</pdfrwt>
<totfact> 0.18901601E+01</totfact>
</mgrwt>
</event>
<event>
12    7  0.1698542E-007  0.2747230E+04  0.7818608E-02  0.8319841E-01
         -1   -1    0    0    0  501 -0.00000000000E+00  0.00000000000E+00  0.66916810119E+03  0.66916810119E+03  0.00000000000E+00 0.  1.
          2   -1    0    0  501    0  0.00000000000E+00 -0.00000000000E+00 -0.28196474169E+04  0.28196474169E+04  0.00000000000E+00 0. -1.
         24    2    1    2    0    0 -0.48159939244E+03 -0.25008969639E+03 -0.23525277938E+04  0.24156738311E+04  0.81303176712E+02 0.  0.
        254    2    1    2    0    0  0.48159939244E+03  0.25008969639E+03  0.20204847804E+03  0.10731416871E+04  0.90350797560E+03 0.  0.
         23    2    4    4    0    0  0.52856331763E+03  0.19004063561E+03 -0.23849639383E+03  0.61696265303E+03  0.90927231552E+02 0.  0.
         23    2    4    4    0    0 -0.46963925189E+02  0.60049060771E+02  0.44054487187E+03  0.45617903402E+03  0.90598162132E+02 0.  0.
          4    1    3    3  502    0 -0.43204930654E+03 -0.24983002053E+03 -0.21273492839E+04  0.21851079191E+04  0.00000000000E+00 0. -1.
         -3    1    3    3    0  502 -0.49550085903E+02 -0.25967585622E+00 -0.22517850988E+03  0.23056591196E+03  0.00000000000E+00 0.  1.
         13    1    5    5    0    0  0.32132621158E+03  0.94678588915E+02 -0.18490001891E+03  0.38262590927E+03  0.00000000000E+00 0. -1.
        -13    1    5    5    0    0  0.20723710605E+03  0.95362046700E+02 -0.53596374915E+02  0.23433674377E+03  0.00000000000E+00 0.  1.
          2    1    6    6  503    0 -0.29052972879E+02  0.83290503052E+02  0.30533868658E+03  0.31782557583E+03  0.00000000000E+00 0. -1.
         -2    1    6    6    0  503 -0.17910952310E+02 -0.23241442281E+02  0.13520618529E+03  0.13835345819E+03  0.00000000000E+00 0.  1.
<mgrwt>
<rscale>  0 0.27472300E+04</rscale>
<asrwt>0</asrwt>
<pdfrwt beam="1">  1        2 0.43379190E+00 0.27472300E+04</pdfrwt>
<pdfrwt beam="2">  1       -1 0.10294894E+00 0.27472300E+04</pdfrwt>
<totfact> 0.19913978E+00</totfact>
</mgrwt>
</event>
<event>
12    7  0.1698542E-007  0.2688930E+04  0.7818608E-02  0.8338606E-01
         -1   -1    0    0    0  501 -0.00000000000E+00  0.00000000000E+00  0.10935466392E+04  0.10935466392E+04  0.00000000000E+00 0.  1.
          2   -1    0    0  501    0  0.00000000000E+00 -0.00000000000E+00 -0.16529574145E+04  0.16529574145E+04  0.00000000000E+00 0. -1.
         24    2    1    2    0    0  0.10945335164E+04  0.47530427386E+03 -0.23394245927E+03  0.12186065693E+04  0.79719039193E+02 0.  0.
        254    2    1    2    0    0 -0.10945335164E+04 -0.47530427386E+03 -0.32546831600E+03  0.15278974844E+04  0.89700798599E+03 0.  0.
         23    2    4    4    0    0 -0.10147718610E+04 -0.70039819551E+03 -0.28997020311E+03  0.12699199381E+04  0.91073423125E+02 0.  0.
         23    2    4    4    0    0 -0.79761655373E+02  0.22509392164E+03 -0.35498112895E+02  0.25797754629E+03  0.90901612434E+02 0.  0.
          4    1    3    3  502    0  0.10855900651E+04  0.46465432034E+03 -0.22506619552E+03  0.12021082394E+04  0.00000000000E+00 0. -1.
         -3    1    3    3    0  502  0.89434512701E+01  0.10649953520E+02 -0.88762637410E+01  0.16498329873E+02  0.00000000000E+00 0.  1.
         13    1    5    5    0    0 -0.96387133926E+01  0.17893328906E+01 -0.54845844084E+01  0.11233306467E+02  0.00000000000E+00 0. -1.
        -13    1    5    5    0    0 -0.10051331476E+04 -0.70218752840E+03 -0.28448561870E+03  0.12586866317E+04  0.00000000000E+00 0.  1.
          1    1    6    6  503    0 -0.55603320076E+01  0.12253890586E+03 -0.45890813652E+02  0.13096819277E+03  0.00000000000E+00 0. -1.
         -1    1    6    6    0  503 -0.74201323366E+02  0.10255501578E+03  0.10392700757E+02  0.12700935352E+03  0.00000000000E+00 0.  1.
<mgrwt>
<rscale>  0 0.26889299E+04</rscale>
<asrwt>0</asrwt>
<pdfrwt beam="1">  1        2 0.25430114E+00 0.26889299E+04</pdfrwt>
<pdfrwt beam="2">  1       -1 0.16823795E+00 0.26889299E+04</pdfrwt>
<totfact> 0.26404835E+00</totfact>
</mgrwt>
</event>
<event>
12    7  0.1698542E-007  0.1403370E+04  0.7818608E-02  0.8951383E-01
          2   -1    0    0  501    0  0.00000000000E+00  0.00000000000E+00  0.91552059855E+03  0.91552059855E+03  0.00000000000E+00 0. -1.
         -1   -1    0    0    0  501 -0.00000000000E+00 -0.00000000000E+00 -0.53779454656E+03  0.53779454656E+03  0.00000000000E+00 0.  1.
         24    2    1    2    0    0  0.29734596571E+02 -0.29218982899E+03 -0.20548662054E+03  0.36721505948E+03  0.79769081024E+02 0.  0.
        254    2    1    2    0    0 -0.29734596571E+02  0.29218982899E+03  0.58321267253E+03  0.10861000856E+04  0.86788094357E+03 0.  0.
         23    2    4    4    0    0 -0.21339235940E+03 -0.12050279253E+02  0.66919465588E+03  0.70804165554E+03  0.88430708698E+02 0.  0.
         23    2    4    4    0    0  0.18365776283E+03  0.30424010825E+03 -0.85981983352E+02  0.37805843009E+03  0.96140822691E+02 0.  0.
          4    1    3    3  502    0 -0.79638125801E+01 -0.53856297825E+00  0.76656021342E+00  0.80187265481E+01  0.00000000000E+00 0. -1.
         -3    1    3    3    0  502  0.37698409151E+02 -0.29165126601E+03 -0.20625318075E+03  0.35919633293E+03  0.00000000000E+00 0.  1.
         13    1    5    5    0    0 -0.21343514928E+03 -0.27905544315E+02  0.63019459368E+03  0.66594182047E+03  0.00000000000E+00 0.  1.
        -13    1    5    5    0    0  0.42789875572E-01  0.15855265062E+02  0.39000062205E+02  0.42099835073E+02  0.00000000000E+00 0. -1.
          2    1    6    6  503    0  0.48831967966E+01  0.30133568645E+02 -0.35688115145E+02  0.46962954899E+02  0.00000000000E+00 0. -1.
         -2    1    6    6    0  503  0.17877456604E+03  0.27410653960E+03 -0.50293868206E+02  0.33109547519E+03  0.00000000000E+00 0.  1.
<mgrwt>
<rscale>  0 0.14033702E+04</rscale>
<asrwt>0</asrwt>
<pdfrwt beam="1">  1        2 0.14084932E+00 0.14033702E+04</pdfrwt>
<pdfrwt beam="2">  1       -1 0.82737622E-01 0.14033702E+04</pdfrwt>
<totfact> 0.46146721E+01</totfact>
</mgrwt>
</event>
<event>
12    7  0.1698542E-007  0.1877417E+04  0.7818608E-02  0.8666180E-01
         -1   -1    0    0    0  501 -0.00000000000E+00  0.00000000000E+00  0.24396611030E+03  0.24396611030E+03  0.00000000000E+00 0.  1.
          2   -1    0    0  501    0  0.00000000000E+00 -0.00000000000E+00 -0.36118695885E+04  0.36118695885E+04  0.00000000000E+00 0. -1.
         24    2    1    2    0    0 -0.22253438925E+03  0.68494812594E+03 -0.12636250527E+04  0.14566241541E+04  0.79562321348E+02 0.  0.
        254    2    1    2    0    0  0.22253438925E+03 -0.68494812594E+03 -0.21042784255E+04  0.23992115447E+04  0.89975155149E+03 0.  0.
         23    2    4    4    0    0  0.85458313194E+02  0.20724829033E+03 -0.36506173793E+03  0.43761741293E+03  0.89352954416E+02 0.  0.
         23    2    4    4    0    0  0.13707607606E+03 -0.89219641627E+03 -0.17392166876E+04  0.19615941317E+04  0.90402187561E+02 0.  0.
          2    1    3    3  502    0 -0.16282050920E+03  0.57635686887E+03 -0.10830099519E+04  0.12375816395E+04  0.00000000000E+00 0. -1.
         -1    1    3    3    0  502 -0.59713880048E+02  0.10859125707E+03 -0.18061510081E+03  0.21904251465E+03  0.00000000000E+00 0.  1.
         13    1    5    5    0    0  0.10400273570E+03  0.17917819221E+03 -0.30362602421E+03  0.36757333442E+03  0.00000000000E+00 0. -1.
        -13    1    5    5    0    0 -0.18544422511E+02  0.28070098120E+02 -0.61435713719E+02  0.70044078514E+02  0.00000000000E+00 0.  1.
          2    1    6    6  503    0  0.11257110972E+03 -0.85213717589E+03 -0.16310669728E+04  0.18436890982E+04  0.00000000000E+00 0. -1.
         -2    1    6    6    0  503  0.24504966331E+02 -0.40059240378E+02 -0.10814971480E+03  0.11790503350E+03  0.00000000000E+00 0.  1.
<mgrwt>
<rscale>  0 0.18774171E+04</rscale>
<asrwt>0</asrwt>
<pdfrwt beam="1">  1        2 0.55567215E+00 0.18774171E+04</pdfrwt>
<pdfrwt beam="2">  1       -1 0.37533254E-01 0.18774171E+04</pdfrwt>
<totfact> 0.49866810E+00</totfact>
</mgrwt>
</event>
<event>
12    7  0.1698542E-007  0.1209792E+04  0.7818608E-02  0.9104328E-01
         -1   -1    0    0    0  501 -0.00000000000E+00  0.00000000000E+00  0.47076525903E+03  0.47076525903E+03  0.00000000000E+00 0.  1.
          2   -1    0    0  501    0  0.00000000000E+00 -0.00000000000E+00 -0.77724365879E+03  0.77724365879E+03  0.00000000000E+00 0. -1.
         24    2    1    2    0    0 -0.17475005485E+03 -0.25658786832E+02  0.13412510098E+03  0.23474086370E+03  0.76927078226E+02 0.  0.
        254    2    1    2    0    0  0.17475005485E+03  0.25658786832E+02 -0.44060350075E+03  0.10132680541E+04  0.89520095488E+03 0.  0.
         23    2    4    4    0    0  0.59377147963E+02  0.28102878965E+03 -0.60471931809E+03  0.67564367951E+03  0.91137816934E+02 0.  0.
         23    2    4    4    0    0  0.11537290689E+03 -0.25537000282E+03  0.16411581734E+03  0.33762437461E+03  0.92365961521E+02 0.  0.
          4    1    3    3  502    0 -0.13587688025E+01  0.10446846035E+02  0.23933635781E+02  0.26149603562E+02  0.00000000000E+00 0. -1.
         -3    1    3    3    0  502 -0.17339128605E+03 -0.36105632867E+02  0.11019146520E+03  0.20859126014E+03  0.00000000000E+00 0.  1.
         13    1    5    5    0    0  0.48664503383E+02  0.28213522994E+03 -0.59785662830E+03  0.66287334376E+03  0.00000000000E+00 0.  1.
        -13    1    5    5    0    0  0.10712644580E+02 -0.11064402926E+01 -0.68626897933E+01  0.12770335752E+02  0.00000000000E+00 0. -1.
          1    1    6    6  503    0  0.22802953472E+02 -0.51122766978E+02  0.81021506700E+02  0.98478406457E+02  0.00000000000E+00 0. -1.
         -1    1    6    6    0  503  0.92569953413E+02 -0.20424723584E+03  0.83094310641E+02  0.23914596815E+03  0.00000000000E+00 0.  1.
<mgrwt>
<rscale>  0 0.12097922E+04</rscale>
<asrwt>0</asrwt>
<pdfrwt beam="1">  1        2 0.11957595E+00 0.12097922E+04</pdfrwt>
<pdfrwt beam="2">  1       -1 0.72425425E-01 0.12097922E+04</pdfrwt>
<totfact> 0.77515560E+01</totfact>
</mgrwt>
</event>
<event>
12    7  0.1698542E-007  0.2295567E+04  0.7818608E-02  0.8479671E-01
          2   -1    0    0  501    0  0.00000000000E+00  0.00000000000E+00  0.32801453651E+04  0.32801453651E+04  0.00000000000E+00 0. -1.
         -1   -1    0    0    0  501 -0.00000000000E+00 -0.00000000000E+00 -0.40163062154E+03  0.40163062154E+03  0.00000000000E+00 0.  1.
         24    2    1    2    0    0 -0.40780090488E+03  0.56328869528E+03  0.13325104888E+03  0.71236428290E+03  0.78174786723E+02 0.  0.
        254    2    1    2    0    0  0.40780090488E+03 -0.56328869528E+03  0.27452636946E+04  0.29694117037E+04  0.89293750101E+03 0.  0.
         23    2    4    4    0    0 -0.11433174980E+03  0.17031112973E+03  0.49125860984E+03  0.54034008416E+03  0.92491917978E+02 0.  0.
         23    2    4    4    0    0  0.52213265467E+03 -0.73359982501E+03  0.22540050848E+04  0.24290716195E+04  0.95177719077E+02 0.  0.
          4    1    3    3  502    0 -0.23298264636E+03  0.36599028615E+03  0.54610462689E+02  0.43727806450E+03  0.00000000000E+00 0. -1.
         -3    1    3    3    0  502 -0.17481825852E+03  0.19729840913E+03  0.78640586191E+02  0.27508621840E+03  0.00000000000E+00 0.  1.
         13    1    5    5    0    0 -0.69325204129E+02  0.28495534993E+02  0.13833621106E+03  0.15733685751E+03  0.00000000000E+00 0. -1.
        -13    1    5    5    0    0 -0.45006545666E+02  0.14181559474E+03  0.35292239878E+03  0.38300322665E+03  0.00000000000E+00 0.  1.
          1    1    6    6  503    0  0.10317429997E+03 -0.16322210806E+03  0.59086492483E+03  0.62161704620E+03  0.00000000000E+00 0. -1.
         -1    1    6    6    0  503  0.41895835471E+03 -0.57037771695E+03  0.16631401600E+04  0.18074545733E+04  0.00000000000E+00 0.  1.
<mgrwt>
<rscale>  0 0.22955669E+04</rscale>
<asrwt>0</asrwt>
<pdfrwt beam="1">  1        2 0.50463773E+00 0.22955669E+04</pdfrwt>
<pdfrwt beam="2">  1       -1 0.61789329E-01 0.22955669E+04</pdfrwt>
<totfact> 0.31530852E+00</totfact>
</mgrwt>
</event>
<event>
12    7  0.1698542E-007  0.1575110E+04  0.7818608E-02  0.8835986E-01
         -1   -1    0    0    0  501 -0.00000000000E+00  0.00000000000E+00  0.69204211714E+03  0.69204211714E+03  0.00000000000E+00 0.  1.
          2   -1    0    0  501    0  0.00000000000E+00 -0.00000000000E+00 -0.89625065290E+03  0.89625065290E+03  0.00000000000E+00 0. -1.
         24    2    1    2    0    0 -0.19729344652E+03  0.92932497970E+02 -0.55098657158E+03  0.59819396488E+03  0.81784254827E+02 0.  0.
        254    2    1    2    0    0  0.19729344652E+03 -0.92932497970E+02  0.34677803581E+03  0.99009880516E+03  0.90137643892E+03 0.  0.
         23    2    4    4    0    0 -0.32754304999E+03  0.89133782650E+02  0.21451104234E+03  0.41182953618E+03  0.91429200904E+02 0.  0.
         23    2    4    4    0    0  0.52483649651E+03 -0.18206628062E+03  0.13226699347E+03  0.57826926899E+03  0.91100555911E+02 0.  0.
          4    1    3    3  502    0 -0.16308078088E+03  0.48371120301E+02 -0.46821674287E+03  0.49815863405E+03  0.00000000000E+00 0. -1.
         -3    1    3    3    0  502 -0.34212665643E+02  0.44561377669E+02 -0.82769828706E+02  0.10003533083E+03  0.00000000000E+00 0.  1.
         13    1    5    5    0    0 -0.22236431954E+02  0.23778584738E+01 -0.84971896454E+01  0.23923113277E+02  0.00000000000E+00 0. -1.
        -13    1    5    5    0    0 -0.30530661803E+03  0.86755924176E+02  0.22300823199E+03  0.38790642290E+03  0.00000000000E+00 0.  1.
          3    1    6    6  503    0  0.12333565862E+02 -0.16518905254E+02 -0.73558618828E+01  0.21888348081E+02  0.00000000000E+00 0. -1.
         -3    1    6    6    0  503  0.51250293064E+03 -0.16554737537E+03  0.13962285536E+03  0.55638092090E+03  0.00000000000E+00 0.  1.
<mgrwt>
<rscale>  0 0.15751104E+04</rscale>
<asrwt>0</asrwt>
<pdfrwt beam="1">  1        2 0.13788472E+00 0.15751104E+04</pdfrwt>
<pdfrwt beam="2">  1       -1 0.10646802E+00 0.15751104E+04</pdfrwt>
<totfact> 0.26661028E+01</totfact>
</mgrwt>
</event>
<event>
12    7  0.1698542E-007  0.3105197E+04  0.7818608E-02  0.8214313E-01
         -1   -1    0    0    0  501 -0.00000000000E+00  0.00000000000E+00  0.77441189581E+03  0.77441189581E+03  0.00000000000E+00 0.  1.
          2   -1    0    0  501    0  0.00000000000E+00 -0.00000000000E+00 -0.31127642767E+04  0.31127642767E+04  0.00000000000E+00 0. -1.
         24    2    1    2    0    0 -0.98919350882E+03  0.89602643341E+02 -0.23638713422E+04  0.25653878598E+04  0.82430073937E+02 0.  0.
        254    2    1    2    0    0  0.98919350882E+03 -0.89602643341E+02  0.25518961305E+02  0.13217883127E+04  0.87174577412E+03 0.  0.
         23    2    4    4    0    0  0.28787242414E+03  0.94228873095E+02  0.39205517585E+03  0.50341248820E+03  0.89259505163E+02 0.  0.
         23    2    4    4    0    0  0.70132108468E+03 -0.18383151644E+03 -0.36653621454E+03  0.81837582453E+03  0.98716277018E+02 0.  0.
          2    1    3    3  502    0 -0.88057464057E+03  0.54423074984E+02 -0.21101273435E+04  0.22871403487E+04  0.00000000000E+00 0. -1.
         -1    1    3    3    0  502 -0.10861886824E+03  0.35179568357E+02 -0.25374399865E+03  0.27824751107E+03  0.00000000000E+00 0.  1.
         13    1    5    5    0    0  0.28815142214E+02 -0.11803932886E+02  0.70616381727E+02  0.77177189769E+02  0.00000000000E+00 0.  1.
        -13    1    5    5    0    0  0.25905728192E+03  0.10603280598E+03  0.32143879412E+03  0.42623529843E+03  0.00000000000E+00 0. -1.
          2    1    6    6  503    0  0.51870694838E+03 -0.16436910808E+03 -0.23622272997E+03  0.59319076201E+03  0.00000000000E+00 0. -1.
         -2    1    6    6    0  503  0.18261413630E+03 -0.19462408353E+02 -0.13031348458E+03  0.22518506251E+03  0.00000000000E+00 0.  1.
<mgrwt>
<rscale>  0 0.31051967E+04</rscale>
<asrwt>0</asrwt>
<pdfrwt beam="1">  1        2 0.47888681E+00 0.31051967E+04</pdfrwt>
<pdfrwt beam="2">  1       -1 0.11914029E+00 0.31051967E+04</pdfrwt>
<totfact> 0.89634158E-01</totfact>
</mgrwt>
</event>
<event>
12    7  0.1698542E-007  0.1106900E+04  0.7818608E-02  0.9198492E-01
         -1   -1    0    0    0  501 -0.00000000000E+00  0.00000000000E+00  0.16440321052E+03  0.16440321052E+03  0.00000000000E+00 0.  1.
          2   -1    0    0  501    0  0.00000000000E+00 -0.00000000000E+00 -0.18631455272E+04  0.18631455272E+04  0.00000000000E+00 0. -1.
         24    2    1    2    0    0 -0.31234811436E+02 -0.81284883588E+02 -0.12489209473E+02  0.11901807845E+03  0.80165309831E+02 0.  0.
        254    2    1    2    0    0  0.31234811436E+02  0.81284883588E+02 -0.16862531072E+04  0.19085306593E+04  0.88963862891E+03 0.  0.
         23    2    4    4    0    0 -0.34478199539E+03 -0.19202266666E+03 -0.94516938084E+03  0.10282879467E+04  0.91014361724E+02 0.  0.
         23    2    4    4    0    0  0.37601680683E+03  0.27330755025E+03 -0.74108372641E+03  0.88024271258E+03  0.97654940794E+02 0.  0.
          2    1    3    3  502    0 -0.31379952771E+02 -0.19953083659E+02 -0.37473144898E+02  0.52792646950E+02  0.00000000000E+00 0. -1.
         -1    1    3    3    0  502  0.14514133562E+00 -0.61331799929E+02  0.24983935425E+02  0.66225431504E+02  0.00000000000E+00 0.  1.
         13    1    5    5    0    0 -0.20172920293E+02  0.27808954124E+01 -0.10223952640E+03  0.10424778583E+03  0.00000000000E+00 0. -1.
        -13    1    5    5    0    0 -0.32460907510E+03 -0.19480356207E+03 -0.84292985444E+03  0.92404016089E+03  0.00000000000E+00 0.  1.
          4    1    6    6  503    0  0.24802524398E+03  0.15118865587E+03 -0.38147178026E+03  0.47947393094E+03  0.00000000000E+00 0. -1.
         -4    1    6    6    0  503  0.12799156284E+03  0.12211889438E+03 -0.35961194614E+03  0.40076878164E+03  0.00000000000E+00 0.  1.
<mgrwt>
<rscale>  0 0.11069004E+04</rscale>
<asrwt>0</asrwt>
<pdfrwt beam="1">  1        2 0.28663776E+00 0.11069004E+04</pdfrwt>
<pdfrwt beam="2">  1       -1 0.25292802E-01 0.11069004E+04</pdfrwt>
<totfact> 0.12367808E+02</totfact>
</mgrwt>
</event>
<event>
12    7  0.1698542E-007  0.1242732E+04  0.7818608E-02  0.9076254E-01
          2   -1    0    0  501    0  0.00000000000E+00  0.00000000000E+00  0.17395890651E+04  0.17395890651E+04  0.00000000000E+00 0. -1.
         -1   -1    0    0    0  501 -0.00000000000E+00 -0.00000000000E+00 -0.22194661812E+03  0.22194661812E+03  0.00000000000E+00 0.  1.
         24    2    1    2    0    0  0.50652947939E+02 -0.32874087765E+02  0.80737342392E+03  0.81373392865E+03  0.81637210908E+02 0.  0.
        254    2    1    2    0    0 -0.50652947939E+02  0.32874087765E+02  0.71026902305E+03  0.11478017546E+04  0.89962234071E+03 0.  0.
         23    2    4    4    0    0  0.70321943061E+02  0.44411553939E+03  0.31600174495E+03  0.55792289899E+03  0.96109679005E+02 0.  0.
         23    2    4    4    0    0 -0.12097489100E+03 -0.41124145162E+03  0.39426727810E+03  0.58987885558E+03  0.93573083171E+02 0.  0.
          2    1    3    3  502    0 -0.10839248862E+02 -0.27017347186E+02  0.45932853815E+03  0.46025007586E+03  0.00000000000E+00 0. -1.
         -1    1    3    3    0  502  0.61492196800E+02 -0.58567405792E+01  0.34804488576E+03  0.35348385279E+03  0.00000000000E+00 0.  1.
         13    1    5    5    0    0  0.27935574878E+02  0.34378544842E+03  0.19958815055E+03  0.39850252286E+03  0.00000000000E+00 0. -1.
        -13    1    5    5    0    0  0.42386368183E+02  0.10033009097E+03  0.11641359440E+03  0.15942037613E+03  0.00000000000E+00 0.  1.
          3    1    6    6  503    0 -0.87679640623E+02 -0.27383559167E+03  0.31991194178E+03  0.43013637505E+03  0.00000000000E+00 0. -1.
         -3    1    6    6    0  503 -0.33295250377E+02 -0.13740585995E+03  0.74355336316E+02  0.15974248053E+03  0.00000000000E+00 0.  1.
<mgrwt>
<rscale>  0 0.12427323E+04</rscale>
<asrwt>0</asrwt>
<pdfrwt beam="1">  1        2 0.26762908E+00 0.12427323E+04</pdfrwt>
<pdfrwt beam="2">  1       -1 0.34145635E-01 0.12427323E+04</pdfrwt>
<totfact> 0.84760486E+01</totfact>
</mgrwt>
</event>
<event>
12    7  0.1698542E-007  0.1893810E+04  0.7818608E-02  0.8657943E-01
          2   -1    0    0  501    0  0.00000000000E+00  0.00000000000E+00  0.82359480900E+03  0.82359480900E+03  0.00000000000E+00 0. -1.
         -1   -1    0    0    0  501 -0.00000000000E+00 -0.00000000000E+00 -0.10886778790E+04  0.10886778790E+04  0.00000000000E+00 0.  1.
         24    2    1    2    0    0  0.33363873110E+03  0.47875392131E+03  0.26488292583E+03  0.64572681455E+03  0.79246669153E+02 0.  0.
        254    2    1    2    0    0 -0.33363873110E+03 -0.47875392131E+03 -0.52996599581E+03  0.12665458734E+04  0.99133968584E+03 0.  0.
         23    2    4    4    0    0 -0.22643254710E+03 -0.44890920348E+03  0.18045893636E+03  0.54196700337E+03  0.91496632047E+02 0.  0.
         23    2    4    4    0    0 -0.10720618400E+03 -0.29844717835E+02 -0.71042493217E+03  0.72457887005E+03  0.89034159817E+02 0.  0.
          4    1    3    3  502    0  0.29998260066E+02  0.36107592033E+02 -0.45828836434E+00  0.46945328177E+02  0.00000000000E+00 0. -1.
         -3    1    3    3    0  502  0.30364047103E+03  0.44264632928E+03  0.26534121419E+03  0.59878148637E+03  0.00000000000E+00 0.  1.
         13    1    5    5    0    0 -0.29055444497E+02 -0.35174494622E+02 -0.80289739930E+01  0.46324165942E+02  0.00000000000E+00 0. -1.
        -13    1    5    5    0    0 -0.19737710260E+03 -0.41373470885E+03  0.18848791035E+03  0.49564283743E+03  0.00000000000E+00 0.  1.
          3    1    6    6  503    0 -0.14788592471E+02  0.48961800613E+01 -0.13259482636E+02  0.20457001888E+02  0.00000000000E+00 0. -1.
         -3    1    6    6    0  503 -0.92417591527E+02 -0.34740897896E+02 -0.69716544953E+03  0.70412186817E+03  0.00000000000E+00 0.  1.
<mgrwt>
<rscale>  0 0.18938104E+04</rscale>
<asrwt>0</asrwt>
<pdfrwt beam="1">  1        2 0.12670689E+00 0.18938104E+04</pdfrwt>
<pdfrwt beam="2">  1       -1 0.16748890E+00 0.18938104E+04</pdfrwt>
<totfact> 0.90982216E+00</totfact>
</mgrwt>
</event>
<event>
12    7  0.1698542E-007  0.1521269E+04  0.7818608E-02  0.8870431E-01
         -1   -1    0    0    0  501 -0.00000000000E+00  0.00000000000E+00  0.22101260741E+03  0.22101260741E+03  0.00000000000E+00 0.  1.
          2   -1    0    0  501    0  0.00000000000E+00 -0.00000000000E+00 -0.26177912100E+04  0.26177912100E+04  0.00000000000E+00 0. -1.
         24    2    1    2    0    0 -0.19809452377E+03 -0.19493050584E+03 -0.15012320644E+04  0.15288140511E+04  0.79594906448E+02 0.  0.
        254    2    1    2    0    0  0.19809452377E+03  0.19493050584E+03 -0.89554653812E+03  0.13099897663E+04  0.91478426054E+03 0.  0.
         23    2    4    4    0    0  0.33492729839E+03  0.33359738444E+03 -0.96932175672E+03  0.10823451487E+04  0.91776046158E+02 0.  0.
         23    2    4    4    0    0 -0.13683277463E+03 -0.13866687860E+03  0.73775218601E+02  0.22764461761E+03  0.91801838852E+02 0.  0.
          4    1    3    3  502    0 -0.95088226947E+02 -0.54616480452E+02 -0.72947667631E+03  0.73767265920E+03  0.00000000000E+00 0. -1.
         -3    1    3    3    0  502 -0.10300629682E+03 -0.14031402539E+03 -0.77175538813E+03  0.79114139193E+03  0.00000000000E+00 0.  1.
         13    1    5    5    0    0  0.22618499001E+03  0.21129299766E+03 -0.72464543211E+03  0.78798184170E+03  0.00000000000E+00 0. -1.
        -13    1    5    5    0    0  0.10874230838E+03  0.12230438678E+03 -0.24467632461E+03  0.29436330696E+03  0.00000000000E+00 0.  1.
          2    1    6    6  503    0 -0.98755278174E+02 -0.10969820296E+03  0.10030524745E+02  0.14794225944E+03  0.00000000000E+00 0. -1.
         -2    1    6    6    0  503 -0.38077496453E+02 -0.28968675635E+02  0.63744693856E+02  0.79702358176E+02  0.00000000000E+00 0.  1.
<mgrwt>
<rscale>  0 0.15212690E+04</rscale>
<asrwt>0</asrwt>
<pdfrwt beam="1">  1        2 0.40273714E+00 0.15212690E+04</pdfrwt>
<pdfrwt beam="2">  1       -1 0.34001937E-01 0.15212690E+04</pdfrwt>
<totfact> 0.26764362E+01</totfact>
</mgrwt>
</event>
<event>
12    7  0.1698542E-007  0.1678509E+04  0.7818608E-02  0.8773717E-01
         -1   -1    0    0    0  501 -0.00000000000E+00  0.00000000000E+00  0.44333136175E+03  0.44333136175E+03  0.00000000000E+00 0.  1.
          2   -1    0    0  501    0  0.00000000000E+00 -0.00000000000E+00 -0.15887618293E+04  0.15887618293E+04  0.00000000000E+00 0. -1.
         24    2    1    2    0    0  0.11318128645E+03 -0.12579964925E+03 -0.10936461947E+04  0.11093403059E+04  0.77060753348E+02 0.  0.
        254    2    1    2    0    0 -0.11318128645E+03  0.12579964925E+03 -0.51784272879E+02  0.92275288521E+03  0.90562449221E+03 0.  0.
         23    2    4    4    0    0 -0.66338512667E+01  0.50081638432E+03  0.37963998665E+02  0.51257697645E+03  0.10214123951E+03 0.  0.
         23    2    4    4    0    0 -0.10654743518E+03 -0.37501673507E+03 -0.89748271544E+02  0.41017590876E+03  0.90551733027E+02 0.  0.
          2    1    3    3  502    0  0.11891062780E+03 -0.90604803019E+02 -0.92048794882E+03  0.93254867522E+03  0.00000000000E+00 0. -1.
         -1    1    3    3    0  502 -0.57293413507E+01 -0.35194846231E+02 -0.17315824589E+03  0.17679163067E+03  0.00000000000E+00 0.  1.
         13    1    5    5    0    0  0.24946978029E+02  0.42429624382E+03  0.53396024454E+02  0.42836992152E+03  0.00000000000E+00 0.  1.
        -13    1    5    5    0    0 -0.31580829296E+02  0.76520140498E+02 -0.15432025789E+02  0.84207054935E+02  0.00000000000E+00 0. -1.
          4    1    6    6  503    0  0.53363948041E+01 -0.92388691307E+02  0.23161479399E+01  0.92571658364E+02  0.00000000000E+00 0. -1.
         -4    1    6    6    0  503 -0.11188382999E+03 -0.28262804376E+03 -0.92064419484E+02  0.31760425039E+03  0.00000000000E+00 0.  1.
<mgrwt>
<rscale>  0 0.16785088E+04</rscale>
<asrwt>0</asrwt>
<pdfrwt beam="1">  1        2 0.24442490E+00 0.16785088E+04</pdfrwt>
<pdfrwt beam="2">  1       -1 0.68204824E-01 0.16785088E+04</pdfrwt>
<totfact> 0.26737980E+01</totfact>
</mgrwt>
</event>
<event>
12    7  0.1698542E-007  0.2567997E+04  0.7818608E-02  0.8379154E-01
          2   -1    0    0  501    0  0.00000000000E+00  0.00000000000E+00  0.25559260223E+04  0.25559260223E+04  0.00000000000E+00 0. -1.
         -1   -1    0    0    0  501 -0.00000000000E+00 -0.00000000000E+00 -0.64503123262E+03  0.64503123262E+03  0.00000000000E+00 0.  1.
         24    2    1    2    0    0  0.64991053358E+03 -0.46146009343E+03  0.18227154097E+04  0.19909735561E+04  0.79718986749E+02 0.  0.
        254    2    1    2    0    0 -0.64991053358E+03  0.46146009343E+03  0.88179379982E+02  0.12099836988E+04  0.90606612829E+03 0.  0.
         23    2    4    4    0    0 -0.22465745799E+03 -0.21560057821E+03  0.22328941607E+03  0.39392691140E+03  0.91464011735E+02 0.  0.
         23    2    4    4    0    0 -0.42525307559E+03  0.67706067165E+03 -0.13511003609E+03  0.81605678740E+03  0.91883769118E+02 0.  0.
          2    1    3    3  502    0  0.61250504468E+03 -0.43504091712E+03  0.16630805480E+04  0.18248999804E+04  0.00000000000E+00 0. -1.
         -1    1    3    3    0  502  0.37405488897E+02 -0.26419176315E+02  0.15963486166E+03  0.16607357567E+03  0.00000000000E+00 0.  1.
         13    1    5    5    0    0 -0.35521789950E+01 -0.43962383722E+02  0.23001286852E+02  0.49743023179E+02  0.00000000000E+00 0. -1.
        -13    1    5    5    0    0 -0.22110527899E+03 -0.17163819449E+03  0.20028812922E+03  0.34418388823E+03  0.00000000000E+00 0.  1.
          1    1    6    6  503    0 -0.34115829243E+03  0.47441763931E+03 -0.11670350998E+03  0.59588655483E+03  0.00000000000E+00 0. -1.
         -1    1    6    6    0  503 -0.84094783156E+02  0.20264303234E+03 -0.18406526108E+02  0.22017023257E+03  0.00000000000E+00 0.  1.
<mgrwt>
<rscale>  0 0.25679970E+04</rscale>
<asrwt>0</asrwt>
<pdfrwt beam="1">  1        2 0.39321938E+00 0.25679970E+04</pdfrwt>
<pdfrwt beam="2">  1       -1 0.99235576E-01 0.25679970E+04</pdfrwt>
<totfact> 0.31590177E+00</totfact>
</mgrwt>
</event>
<event>
12    7  0.1698542E-007  0.1170976E+04  0.7818608E-02  0.9138648E-01
         -1   -1    0    0    0  501 -0.00000000000E+00  0.00000000000E+00  0.13514798481E+03  0.13514798481E+03  0.00000000000E+00 0.  1.
          2   -1    0    0  501    0  0.00000000000E+00 -0.00000000000E+00 -0.25364497639E+04  0.25364497639E+04  0.00000000000E+00 0. -1.
         24    2    1    2    0    0 -0.13416256453E+03  0.13614343008E+03 -0.73300271140E+03  0.76180247395E+03  0.80718071801E+02 0.  0.
        254    2    1    2    0    0  0.13416256453E+03 -0.13614343008E+03 -0.16682990677E+04  0.19097952747E+04  0.90970411945E+03 0.  0.
         23    2    4    4    0    0 -0.28695237338E+03 -0.78196307709E+02 -0.13112864285E+04  0.13478215538E+04  0.93244389503E+02 0.  0.
         23    2    4    4    0    0  0.42111493791E+03 -0.57947122369E+02 -0.35701263917E+03  0.56197372095E+03  0.87525873779E+02 0.  0.
          2    1    3    3  502    0 -0.10907385304E+03  0.79907208316E+02 -0.60271488431E+03  0.61769531254E+03  0.00000000000E+00 0. -1.
         -1    1    3    3    0  502 -0.25088711493E+02  0.56236221762E+02 -0.13028782709E+03  0.14410716141E+03  0.00000000000E+00 0.  1.
         13    1    5    5    0    0 -0.16895935584E+02  0.39388337353E+01 -0.21781242621E+03  0.21850226557E+03  0.00000000000E+00 0. -1.
        -13    1    5    5    0    0 -0.27005643780E+03 -0.82135141444E+02 -0.10934740023E+04  0.11293192882E+04  0.00000000000E+00 0.  1.
          1    1    6    6  503    0  0.50740114028E+02 -0.35313076101E+02 -0.37510610498E+02  0.72309186244E+02  0.00000000000E+00 0. -1.
         -1    1    6    6    0  503  0.37037482388E+03 -0.22634046268E+02 -0.31950202868E+03  0.48966453470E+03  0.00000000000E+00 0.  1.
<mgrwt>
<rscale>  0 0.11709758E+04</rscale>
<asrwt>0</asrwt>
<pdfrwt beam="1">  1        2 0.39022300E+00 0.11709758E+04</pdfrwt>
<pdfrwt beam="2">  1       -1 0.20792000E-01 0.11709758E+04</pdfrwt>
<totfact> 0.72077950E+01</totfact>
</mgrwt>
</event>
<event>
12    7  0.1698542E-007  0.1530296E+04  0.7818608E-02  0.8864553E-01
          2   -1    0    0  501    0  0.00000000000E+00  0.00000000000E+00  0.90372675877E+03  0.90372675877E+03  0.00000000000E+00 0. -1.
         -1   -1    0    0    0  501 -0.00000000000E+00 -0.00000000000E+00 -0.64781889455E+03  0.64781889455E+03  0.00000000000E+00 0.  1.
         24    2    1    2    0    0  0.19521101025E+03  0.44652197223E+03 -0.26640238459E+02  0.49418313487E+03  0.77576145068E+02 0.  0.
        254    2    1    2    0    0 -0.19521101025E+03 -0.44652197223E+03  0.28254810269E+03  0.10573625184E+04  0.89481442483E+03 0.  0.
         23    2    4    4    0    0  0.35003244294E+03 -0.19133821177E+03  0.13653731545E+03  0.43132312268E+03  0.90907509320E+02 0.  0.
         23    2    4    4    0    0 -0.54524345319E+03 -0.25518376045E+03  0.14601078724E+03  0.62603939577E+03  0.90537286322E+02 0.  0.
          2    1    3    3  502    0  0.49533101849E+02  0.56913420979E+02  0.12164215331E+02  0.76424039418E+02  0.00000000000E+00 0. -1.
         -1    1    3    3    0  502  0.14567790840E+03  0.38960855125E+03 -0.38804453790E+02  0.41775909546E+03  0.00000000000E+00 0.  1.
         13    1    5    5    0    0  0.29189839989E+03 -0.11789448533E+03  0.94748986453E+02  0.32875698618E+03  0.00000000000E+00 0. -1.
        -13    1    5    5    0    0  0.58134043049E+02 -0.73443726443E+02  0.41788328993E+02  0.10256613649E+03  0.00000000000E+00 0.  1.
          3    1    6    6  503    0 -0.41429597511E+03 -0.23491256899E+03  0.11533144260E+03  0.49002694999E+03  0.00000000000E+00 0. -1.
         -3    1    6    6    0  503 -0.13094747808E+03 -0.20271191463E+02  0.30679344639E+02  0.13601244578E+03  0.00000000000E+00 0.  1.
<mgrwt>
<rscale>  0 0.15302957E+04</rscale>
<asrwt>0</asrwt>
<pdfrwt beam="1">  1        2 0.13903489E+00 0.15302957E+04</pdfrwt>
<pdfrwt beam="2">  1       -1 0.99664446E-01 0.15302957E+04</pdfrwt>
<totfact> 0.30814330E+01</totfact>
</mgrwt>
</event>
<event>
12    7  0.1698542E-007  0.1590076E+04  0.7818608E-02  0.8826668E-01
          2   -1    0    0  501    0  0.00000000000E+00  0.00000000000E+00  0.14838455897E+04  0.14838455897E+04  0.00000000000E+00 0. -1.
         -1   -1    0    0    0  501 -0.00000000000E+00 -0.00000000000E+00 -0.42597792089E+03  0.42597792089E+03  0.00000000000E+00 0.  1.
         24    2    1    2    0    0  0.50293684854E+03  0.14486298012E+03  0.52683133427E+03  0.74625957485E+03  0.73629760647E+02 0.  0.
        254    2    1    2    0    0 -0.50293684854E+03 -0.14486298012E+03  0.53103633457E+03  0.11635639358E+04  0.89328085581E+03 0.  0.
         23    2    4    4    0    0 -0.40993176620E+03 -0.33215738620E+03  0.69888012011E+03  0.88078124177E+03  0.94707926968E+02 0.  0.
         23    2    4    4    0    0 -0.93005082339E+02  0.18729440608E+03 -0.16784378554E+03  0.28278269400E+03  0.89807437277E+02 0.  0.
          4    1    3    3  502    0  0.39351949402E+03  0.11854103923E+03  0.45305879650E+03  0.61169587479E+03  0.00000000000E+00 0. -1.
         -3    1    3    3    0  502  0.10941735453E+03  0.26321940888E+02  0.73772537772E+02  0.13456370006E+03  0.00000000000E+00 0.  1.
         13    1    5    5    0    0 -0.30881101893E+03 -0.22977022276E+03  0.44006755030E+03  0.58465207560E+03  0.00000000000E+00 0. -1.
        -13    1    5    5    0    0 -0.10112074727E+03 -0.10238716344E+03  0.25881256981E+03  0.29612916617E+03  0.00000000000E+00 0.  1.
          4    1    6    6  503    0 -0.55444392998E+01  0.11137660963E+03 -0.89036102280E+02  0.14269869477E+03  0.00000000000E+00 0. -1.
         -4    1    6    6    0  503 -0.87460643039E+02  0.75917796449E+02 -0.78807683258E+02  0.14008399923E+03  0.00000000000E+00 0.  1.
<mgrwt>
<rscale>  0 0.15900760E+04</rscale>
<asrwt>0</asrwt>
<pdfrwt beam="1">  1        2 0.22828393E+00 0.15900760E+04</pdfrwt>
<pdfrwt beam="2">  1       -1 0.65535066E-01 0.15900760E+04</pdfrwt>
<totfact> 0.33459850E+01</totfact>
</mgrwt>
</event>
<event>
12    7  0.1698542E-007  0.2766941E+04  0.7818608E-02  0.8313606E-01
         -1   -1    0    0    0  501 -0.00000000000E+00  0.00000000000E+00  0.19706798977E+04  0.19706798977E+04  0.00000000000E+00 0.  1.
          2   -1    0    0  501    0  0.00000000000E+00 -0.00000000000E+00 -0.97123367219E+03  0.97123367219E+03  0.00000000000E+00 0. -1.
         24    2    1    2    0    0  0.63915914494E+03 -0.84031482147E+03 -0.26672402066E+03  0.10919158432E+04  0.80530079751E+02 0.  0.
        254    2    1    2    0    0 -0.63915914494E+03  0.84031482147E+03  0.12661702461E+04  0.18499977266E+04  0.83943497941E+03 0.  0.
         23    2    4    4    0    0 -0.63077975866E+03  0.81312390165E+03  0.63678987829E+03  0.12134842544E+04  0.89381783078E+02 0.  0.
         23    2    4    4    0    0 -0.83793862816E+01  0.27190919816E+02  0.62938036783E+03  0.63651347226E+03  0.90665278511E+02 0.  0.
          4    1    3    3  502    0  0.24934668637E+03 -0.30610308220E+03 -0.13771010263E+03  0.41813507304E+03  0.00000000000E+00 0. -1.
         -3    1    3    3    0  502  0.38981245857E+03 -0.53421173927E+03 -0.12901391802E+03  0.67378077018E+03  0.00000000000E+00 0.  1.
         13    1    5    5    0    0 -0.24226551444E+03  0.27570191624E+03  0.18453197723E+03  0.41079943613E+03  0.00000000000E+00 0. -1.
        -13    1    5    5    0    0 -0.38851424422E+03  0.53742198541E+03  0.45225790106E+03  0.80268481824E+03  0.00000000000E+00 0.  1.
          2    1    6    6  503    0 -0.24415224471E+01  0.13438190902E+02  0.61680150294E+03  0.61695270486E+03  0.00000000000E+00 0. -1.
         -2    1    6    6    0  503 -0.59378638345E+01  0.13752728914E+02  0.12578864895E+02  0.19560767406E+02  0.00000000000E+00 0.  1.
<mgrwt>
<rscale>  0 0.27669410E+04</rscale>
<asrwt>0</asrwt>
<pdfrwt beam="1">  1        2 0.14942057E+00 0.27669410E+04</pdfrwt>
<pdfrwt beam="2">  1       -1 0.30318152E+00 0.27669410E+04</pdfrwt>
<totfact> 0.82348044E-01</totfact>
</mgrwt>
</event>
<event>
12    7  0.1698542E-007  0.3637901E+04  0.7818608E-02  0.8081865E-01
         -1   -1    0    0    0  501 -0.00000000000E+00  0.00000000000E+00  0.14362216444E+04  0.14362216444E+04  0.00000000000E+00 0.  1.
          2   -1    0    0  501    0  0.00000000000E+00 -0.00000000000E+00 -0.23036704229E+04  0.23036704229E+04  0.00000000000E+00 0. -1.
         24    2    1    2    0    0 -0.90847152242E+02  0.69023402338E+03  0.11925964638E+04  0.13831768689E+04  0.78839793404E+02 0.  0.
        254    2    1    2    0    0  0.90847152242E+02 -0.69023402338E+03 -0.20600452423E+04  0.23567151985E+04  0.90864950028E+03 0.  0.
         23    2    4    4    0    0  0.48061892720E+03 -0.26346703137E+03 -0.10960679922E+04  0.12290504815E+04  0.93758267983E+02 0.  0.
         23    2    4    4    0    0 -0.38977177496E+03 -0.42676699202E+03 -0.96397725010E+03  0.11276647170E+04  0.91233070483E+02 0.  0.
          2    1    3    3  502    0 -0.47704993214E+02  0.12625294069E+03  0.22375091492E+03  0.26130450309E+03  0.00000000000E+00 0. -1.
         -1    1    3    3    0  502 -0.43142159028E+02  0.56398108270E+03  0.96884554886E+03  0.11218723658E+04  0.00000000000E+00 0.  1.
         13    1    5    5    0    0  0.21600436166E+02 -0.23864916852E+02 -0.11881685522E+03  0.12309978953E+03  0.00000000000E+00 0. -1.
        -13    1    5    5    0    0  0.45901849103E+03 -0.23960211451E+03 -0.97725113697E+03  0.11059506920E+04  0.00000000000E+00 0.  1.
          1    1    6    6  503    0 -0.32884782799E+01  0.47890363323E+01 -0.93894379888E+01  0.11041308987E+02  0.00000000000E+00 0. -1.
         -1    1    6    6    0  503 -0.38648329668E+03 -0.43155602835E+03 -0.95458781211E+03  0.11166234080E+04  0.00000000000E+00 0.  1.
<mgrwt>
<rscale>  0 0.36379012E+04</rscale>
<asrwt>0</asrwt>
<pdfrwt beam="1">  1        2 0.35441083E+00 0.36379012E+04</pdfrwt>
<pdfrwt beam="2">  1       -1 0.22095718E+00 0.36379012E+04</pdfrwt>
<totfact> 0.45192822E-01</totfact>
</mgrwt>
</event>
<event>
12    7  0.1698542E-007  0.1893209E+04  0.7818608E-02  0.8658244E-01
         -1   -1    0    0    0  501 -0.00000000000E+00  0.00000000000E+00  0.28413945969E+03  0.28413945969E+03  0.00000000000E+00 0.  1.
          2   -1    0    0  501    0  0.00000000000E+00 -0.00000000000E+00 -0.31535930258E+04  0.31535930258E+04  0.00000000000E+00 0. -1.
         24    2    1    2    0    0 -0.26468774918E+03  0.12248813771E+02  0.11861613936E+03  0.30130784905E+03  0.80665936887E+02 0.  0.
        254    2    1    2    0    0  0.26468774918E+03 -0.12248813771E+02 -0.29880697055E+04  0.31364246364E+04  0.91563600697E+03 0.  0.
         23    2    4    4    0    0  0.31905628791E+03 -0.17084121892E+03 -0.42306887203E+03  0.56436531164E+03  0.92397497606E+02 0.  0.
         23    2    4    4    0    0 -0.54368538728E+02  0.15859240515E+03 -0.25650008334E+04  0.25720593248E+04  0.90290673483E+02 0.  0.
          4    1    3    3  502    0 -0.55797443467E+02  0.20126527908E+00 -0.85630580751E+01  0.56451051086E+02  0.00000000000E+00 0. -1.
         -3    1    3    3    0  502 -0.20889030572E+03  0.12047548492E+02  0.12717919744E+03  0.24485679796E+03  0.00000000000E+00 0.  1.
         13    1    5    5    0    0  0.10375260361E+03 -0.10598690379E+03 -0.18016302672E+03  0.23335925678E+03  0.00000000000E+00 0. -1.
        -13    1    5    5    0    0  0.21530368430E+03 -0.64854315133E+02 -0.24290584531E+03  0.33100605486E+03  0.00000000000E+00 0.  1.
          4    1    6    6  503    0 -0.44648655950E+02  0.18575026162E+02 -0.51799962500E+03  0.52025200199E+03  0.00000000000E+00 0. -1.
         -4    1    6    6    0  503 -0.97198827787E+01  0.14001737899E+03 -0.20470012084E+04  0.20518073228E+04  0.00000000000E+00 0.  1.
<mgrwt>
<rscale>  0 0.18932091E+04</rscale>
<asrwt>0</asrwt>
<pdfrwt beam="1">  1        2 0.48516815E+00 0.18932091E+04</pdfrwt>
<pdfrwt beam="2">  1       -1 0.43713764E-01 0.18932091E+04</pdfrwt>
<totfact> 0.76969773E+00</totfact>
</mgrwt>
</event>
<event>
12    7  0.1698542E-007  0.2032004E+04  0.7818608E-02  0.8591802E-01
          2   -1    0    0  501    0  0.00000000000E+00  0.00000000000E+00  0.36570557755E+04  0.36570557755E+04  0.00000000000E+00 0. -1.
         -3   -1    0    0    0  501 -0.00000000000E+00 -0.00000000000E+00 -0.28226526380E+03  0.28226526380E+03  0.00000000000E+00 0.  1.
         24    2    1    2    0    0 -0.38386274320E+03 -0.27350969397E+03  0.71769588083E+02  0.48313388048E+03  0.78162103262E+02 0.  0.
        254    2    1    2    0    0  0.38386274320E+03  0.27350969397E+03  0.33030209236E+04  0.34561871588E+04  0.90173404985E+03 0.  0.
         23    2    4    4    0    0  0.54763417120E+03 -0.66174743041E+02  0.12821689542E+04  0.13985041900E+04  0.87031375099E+02 0.  0.
         23    2    4    4    0    0 -0.16377142800E+03  0.33968443701E+03  0.20208519695E+04  0.20576829689E+04  0.89498159217E+02 0.  0.
          2    1    3    3  502    0 -0.17677057880E+03 -0.83214201426E+02  0.45924076540E+02  0.20070242065E+03  0.00000000000E+00 0. -1.
         -1    1    3    3    0  502 -0.20709216440E+03 -0.19029549254E+03  0.25845511543E+02  0.28243145984E+03  0.00000000000E+00 0.  1.
         13    1    5    5    0    0  0.46282003708E+02  0.18661857000E+02  0.10888854550E+03  0.11977898027E+03  0.00000000000E+00 0.  1.
        -13    1    5    5    0    0  0.50135216749E+03 -0.84836600041E+02  0.11732804087E+04  0.12787252097E+04  0.00000000000E+00 0. -1.
          3    1    6    6  503    0 -0.62332502595E+02  0.16265767153E+03  0.11585365157E+04  0.11715586700E+04  0.00000000000E+00 0. -1.
         -3    1    6    6    0  503 -0.10143892540E+03  0.17702676548E+03  0.86231545378E+03  0.88612429890E+03  0.00000000000E+00 0.  1.
<mgrwt>
<rscale>  0 0.20320038E+04</rscale>
<asrwt>0</asrwt>
<pdfrwt beam="1">  1        2 0.56262393E+00 0.20320038E+04</pdfrwt>
<pdfrwt beam="2">  1       -3 0.43425428E-01 0.20320038E+04</pdfrwt>
<totfact> 0.20020775E+00</totfact>
</mgrwt>
</event>
<event>
12    7  0.1698542E-007  0.1208603E+04  0.7818608E-02  0.9105359E-01
          2   -1    0    0  501    0  0.00000000000E+00  0.00000000000E+00  0.18870682378E+04  0.18870682378E+04  0.00000000000E+00 0. -1.
         -1   -1    0    0    0  501 -0.00000000000E+00 -0.00000000000E+00 -0.19351730863E+03  0.19351730863E+03  0.00000000000E+00 0.  1.
         24    2    1    2    0    0  0.88540656307E+02  0.24870037232E+03  0.37349275199E+03  0.46529889292E+03  0.85527194234E+02 0.  0.
        254    2    1    2    0    0 -0.88540656307E+02 -0.24870037232E+03  0.13200581772E+04  0.16152866535E+04  0.89269594983E+03 0.  0.
         23    2    4    4    0    0  0.12117846024E+03 -0.49622305519E+03  0.10961564072E+04  0.12127567573E+04  0.91096342945E+02 0.  0.
         23    2    4    4    0    0 -0.20971911655E+03  0.24752268286E+03  0.22390177007E+03  0.40252989625E+03  0.81539734832E+02 0.  0.
          2    1    3    3  502    0  0.65632124715E+02  0.73907903362E+02  0.16420756144E+03  0.19166136076E+03  0.00000000000E+00 0. -1.
         -1    1    3    3    0  502  0.22908531591E+02  0.17479246896E+03  0.20928519055E+03  0.27363753216E+03  0.00000000000E+00 0.  1.
         13    1    5    5    0    0  0.33992437222E+02 -0.29835352198E+03  0.69340311485E+03  0.75563098768E+03  0.00000000000E+00 0.  1.
        -13    1    5    5    0    0  0.87186023017E+02 -0.19786953320E+03  0.40275329231E+03  0.45712576961E+03  0.00000000000E+00 0. -1.
          3    1    6    6  503    0 -0.13907553198E+03  0.10271299547E+03  0.12684399901E+03  0.21443265404E+03  0.00000000000E+00 0. -1.
         -3    1    6    6    0  503 -0.70643584564E+02  0.14480968739E+03  0.97057771059E+02  0.18809724220E+03  0.00000000000E+00 0.  1.
<mgrwt>
<rscale>  0 0.12086031E+04</rscale>
<asrwt>0</asrwt>
<pdfrwt beam="1">  1        2 0.29031818E+00 0.12086031E+04</pdfrwt>
<pdfrwt beam="2">  1       -1 0.29771895E-01 0.12086031E+04</pdfrwt>
<totfact> 0.89751808E+01</totfact>
</mgrwt>
</event>
<event>
12    7  0.1698542E-007  0.2209421E+04  0.7818608E-02  0.8514517E-01
          2   -1    0    0  501    0  0.00000000000E+00  0.00000000000E+00  0.23011113099E+04  0.23011113099E+04  0.00000000000E+00 0. -1.
         -1   -1    0    0    0  501 -0.00000000000E+00 -0.00000000000E+00 -0.53034619908E+03  0.53034619908E+03  0.00000000000E+00 0.  1.
         24    2    1    2    0    0 -0.10788436589E+03 -0.74150103803E+03  0.14210408766E+04  0.16086057399E+04  0.82416185501E+02 0.  0.
        254    2    1    2    0    0  0.10788436589E+03  0.74150103803E+03  0.34972423428E+03  0.12228517691E+04  0.90088655414E+03 0.  0.
         23    2    4    4    0    0  0.31297945712E+03  0.24873267222E+03  0.51465897992E+03  0.65701637467E+03  0.83501905133E+02 0.  0.
         23    2    4    4    0    0 -0.20509509123E+03  0.49276836581E+03 -0.16493474564E+03  0.56583539447E+03  0.89897522341E+02 0.  0.
          2    1    3    3  502    0 -0.66464218506E+02 -0.64987801815E+03  0.12341016525E+04  0.13963401518E+04  0.00000000000E+00 0. -1.
         -1    1    3    3    0  502 -0.41420147383E+02 -0.91623019885E+02  0.18693922412E+03  0.21226558811E+03  0.00000000000E+00 0.  1.
         13    1    5    5    0    0  0.29568381508E+03  0.21225434672E+03  0.48738168863E+03  0.60829412015E+03  0.00000000000E+00 0. -1.
        -13    1    5    5    0    0  0.17295642041E+02  0.36478325501E+02  0.27277291292E+02  0.48722254517E+02  0.00000000000E+00 0.  1.
          3    1    6    6  503    0 -0.17413500687E+03  0.43949646981E+03 -0.17362030412E+03  0.50361111743E+03  0.00000000000E+00 0. -1.
         -3    1    6    6    0  503 -0.30960084361E+02  0.53271895997E+02  0.86855584814E+01  0.62224277038E+02  0.00000000000E+00 0.  1.
<mgrwt>
<rscale>  0 0.22094213E+04</rscale>
<asrwt>0</asrwt>
<pdfrwt beam="1">  1        2 0.35401712E+00 0.22094213E+04</pdfrwt>
<pdfrwt beam="2">  1       -1 0.81591724E-01 0.22094213E+04</pdfrwt>
<totfact> 0.70364433E+00</totfact>
</mgrwt>
</event>
<event>
12    7  0.1698542E-007  0.1767449E+04  0.7818608E-02  0.8723804E-01
          2   -1    0    0  501    0  0.00000000000E+00  0.00000000000E+00  0.74934338952E+03  0.74934338952E+03  0.00000000000E+00 0. -1.
         -1   -1    0    0    0  501 -0.00000000000E+00 -0.00000000000E+00 -0.10422040928E+04  0.10422040928E+04  0.00000000000E+00 0.  1.
         24    2    1    2    0    0  0.45259399483E+03 -0.30653779066E+03 -0.46919191547E+03  0.72486656200E+03  0.80521661074E+02 0.  0.
        254    2    1    2    0    0 -0.45259399483E+03  0.30653779066E+03  0.17633121219E+03  0.10666809203E+04  0.89883744253E+03 0.  0.
         23    2    4    4    0    0  0.17638153068E+02 -0.18100716078E+03  0.30885855403E+03  0.37050696863E+03  0.93846207754E+02 0.  0.
         23    2    4    4    0    0 -0.47023214790E+03  0.48754495145E+03 -0.13252734183E+03  0.69617395168E+03  0.90974293425E+02 0.  0.
          2    1    3    3  502    0  0.29305080072E+03 -0.22436905575E+03 -0.35536736376E+03  0.51235359686E+03  0.00000000000E+00 0. -1.
         -1    1    3    3    0  502  0.15954319411E+03 -0.82168734914E+02 -0.11382455171E+03  0.21251296514E+03  0.00000000000E+00 0.  1.
         13    1    5    5    0    0  0.39433269032E+02 -0.90274998990E+02  0.22263591259E+03  0.24345699358E+03  0.00000000000E+00 0.  1.
        -13    1    5    5    0    0 -0.21795115963E+02 -0.90732161794E+02  0.86222641437E+02  0.12704997505E+03  0.00000000000E+00 0. -1.
          1    1    6    6  503    0 -0.24633717244E+03  0.31428121196E+03 -0.58789997029E+02  0.40362228192E+03  0.00000000000E+00 0. -1.
         -1    1    6    6    0  503 -0.22389497546E+03  0.17326373949E+03 -0.73737344803E+02  0.29255166976E+03  0.00000000000E+00 0.  1.
<mgrwt>
<rscale>  0 0.17674487E+04</rscale>
<asrwt>0</asrwt>
<pdfrwt beam="1">  1        2 0.11528360E+00 0.17674487E+04</pdfrwt>
<pdfrwt beam="2">  1       -1 0.16033909E+00 0.17674487E+04</pdfrwt>
<totfact> 0.11786357E+01</totfact>
</mgrwt>
</event>
<event>
12    7  0.1698542E-007  0.1564044E+04  0.7818608E-02  0.8842947E-01
          2   -1    0    0  501    0  0.00000000000E+00  0.00000000000E+00  0.72441205521E+03  0.72441205521E+03  0.00000000000E+00 0. -1.
         -1   -1    0    0    0  501 -0.00000000000E+00 -0.00000000000E+00 -0.84421377093E+03  0.84421377093E+03  0.00000000000E+00 0.  1.
         24    2    1    2    0    0  0.33142403630E+03  0.39398054966E+03 -0.11191460600E+03  0.53283876688E+03  0.79559456440E+02 0.  0.
        254    2    1    2    0    0 -0.33142403630E+03 -0.39398054966E+03 -0.78871097168E+01  0.10357870593E+04  0.89873803763E+03 0.  0.
         23    2    4    4    0    0 -0.24665264664E+03  0.22611685986E+03 -0.16553801909E+03  0.38397171718E+03  0.89805798373E+02 0.  0.
         23    2    4    4    0    0 -0.84771389658E+02 -0.62009740952E+03  0.15765090937E+03  0.65181534208E+03  0.91117754250E+02 0.  0.
          2    1    3    3  502    0  0.11709973304E+03  0.11973317576E+03 -0.72701570059E+02  0.18257573536E+03  0.00000000000E+00 0. -1.
         -1    1    3    3    0  502  0.21432430326E+03  0.27424737390E+03 -0.39213035944E+02  0.35026303152E+03  0.00000000000E+00 0.  1.
         13    1    5    5    0    0 -0.24216757443E-02  0.22534219881E+02 -0.27722207909E+02  0.35725507454E+02  0.00000000000E+00 0. -1.
        -13    1    5    5    0    0 -0.24665022497E+03  0.20358263998E+03 -0.13781581118E+03  0.34824620973E+03  0.00000000000E+00 0.  1.
          4    1    6    6  503    0 -0.10308700144E+03 -0.54254301528E+03  0.14650012743E+03  0.57135115352E+03  0.00000000000E+00 0. -1.
         -4    1    6    6    0  503  0.18315611787E+02 -0.77554394243E+02  0.11150781938E+02  0.80464188552E+02  0.00000000000E+00 0.  1.
<mgrwt>
<rscale>  0 0.15640443E+04</rscale>
<asrwt>0</asrwt>
<pdfrwt beam="1">  1        2 0.11144801E+00 0.15640443E+04</pdfrwt>
<pdfrwt beam="2">  1       -1 0.12987904E+00 0.15640443E+04</pdfrwt>
<totfact> 0.21897406E+01</totfact>
</mgrwt>
</event>
<event>
12    7  0.1698542E-007  0.2910722E+04  0.7818608E-02  0.8269694E-01
         -3   -1    0    0    0  501 -0.00000000000E+00  0.00000000000E+00  0.23864568370E+04  0.23864568370E+04  0.00000000000E+00 0.  1.
          4   -1    0    0  501    0  0.00000000000E+00 -0.00000000000E+00 -0.88754006682E+03  0.88754006682E+03  0.00000000000E+00 0. -1.
         24    2    1    2    0    0  0.10203348076E+04 -0.76008170371E+03  0.10620396450E+04  0.16593079287E+04  0.81038747997E+02 0.  0.
        254    2    1    2    0    0 -0.10203348076E+04  0.76008170371E+03  0.43687712513E+03  0.16146889751E+04  0.89305741584E+03 0.  0.
         23    2    4    4    0    0 -0.40311323399E+03  0.82890164758E+03  0.24302300152E+03  0.95767174150E+03  0.92177895514E+02 0.  0.
         23    2    4    4    0    0 -0.61722157362E+03 -0.68819943866E+02  0.19385412362E+03  0.65701723363E+03  0.91616420064E+02 0.  0.
          4    1    3    3  502    0  0.70281919612E+02 -0.80143711119E+02  0.86967305796E+02  0.13757134489E+03  0.00000000000E+00 0. -1.
         -3    1    3    3    0  502  0.95005288799E+03 -0.67993799260E+03  0.97507233925E+03  0.15217365838E+04  0.00000000000E+00 0.  1.
         13    1    5    5    0    0 -0.33244903064E+03  0.74656262223E+03  0.20350223516E+03  0.84219431642E+03  0.00000000000E+00 0. -1.
        -13    1    5    5    0    0 -0.70664203353E+02  0.82339025346E+02  0.39520766357E+02  0.11547742508E+03  0.00000000000E+00 0.  1.
          1    1    6    6  503    0 -0.39540159913E+03 -0.79046834725E+02  0.15275575082E+03  0.43119038264E+03  0.00000000000E+00 0. -1.
         -1    1    6    6    0  503 -0.22181997449E+03  0.10226890860E+02  0.41098372794E+02  0.22582685098E+03  0.00000000000E+00 0.  1.
<mgrwt>
<rscale>  0 0.29107223E+04</rscale>
<asrwt>0</asrwt>
<pdfrwt beam="1">  1        4 0.13654463E+00 0.29107223E+04</pdfrwt>
<pdfrwt beam="2">  1       -3 0.36714720E+00 0.29107223E+04</pdfrwt>
<totfact> 0.12041142E-02</totfact>
</mgrwt>
</event>
<event>
12    7  0.1698542E-007  0.1734936E+04  0.7818608E-02  0.8741686E-01
          2   -1    0    0  501    0  0.00000000000E+00  0.00000000000E+00  0.86300686657E+03  0.86300686657E+03  0.00000000000E+00 0. -1.
         -1   -1    0    0    0  501 -0.00000000000E+00 -0.00000000000E+00 -0.87195217511E+03  0.87195217511E+03  0.00000000000E+00 0.  1.
         24    2    1    2    0    0 -0.12674385728E+03 -0.50638448423E+03 -0.33841978613E+03  0.62722290685E+03  0.79946056881E+02 0.  0.
        254    2    1    2    0    0  0.12674385728E+03  0.50638448423E+03  0.32947447759E+03  0.11077361348E+04  0.91980251239E+03 0.  0.
         23    2    4    4    0    0  0.33792612401E+03  0.48150003087E+03 -0.11608850608E+03  0.60571021324E+03  0.85860212905E+02 0.  0.
         23    2    4    4    0    0 -0.21118226673E+03  0.24884453356E+02  0.44556298367E+03  0.50202592159E+03  0.91030037537E+02 0.  0.
          2    1    3    3  502    0  0.33873082534E+01 -0.10587750524E+03 -0.52616364090E+02  0.11827933777E+03  0.00000000000E+00 0. -1.
         -1    1    3    3    0  502 -0.13013116554E+03 -0.40050697899E+03 -0.28580342204E+03  0.50894356908E+03  0.00000000000E+00 0.  1.
         13    1    5    5    0    0  0.10233643538E+03  0.20099885538E+03 -0.71955583197E+02  0.23675069551E+03  0.00000000000E+00 0. -1.
        -13    1    5    5    0    0  0.23558968864E+03  0.28050117549E+03 -0.44132922881E+02  0.36895951773E+03  0.00000000000E+00 0.  1.
          3    1    6    6  503    0 -0.14559224969E+02  0.26776535008E+02  0.98775898216E+02  0.10337133030E+03  0.00000000000E+00 0. -1.
         -3    1    6    6    0  503 -0.19662304176E+03 -0.18920816523E+01  0.34678708545E+03  0.39865459129E+03  0.00000000000E+00 0.  1.
<mgrwt>
<rscale>  0 0.17349360E+04</rscale>
<asrwt>0</asrwt>
<pdfrwt beam="1">  1        2 0.13277029E+00 0.17349360E+04</pdfrwt>
<pdfrwt beam="2">  1       -1 0.13414649E+00 0.17349360E+04</pdfrwt>
<totfact> 0.15764535E+01</totfact>
</mgrwt>
</event>
<event>
12    7  0.1698542E-007  0.2250715E+04  0.7818608E-02  0.8497611E-01
         -3   -1    0    0    0  501 -0.00000000000E+00  0.00000000000E+00  0.10910523314E+04  0.10910523314E+04  0.00000000000E+00 0.  1.
          2   -1    0    0  501    0  0.00000000000E+00 -0.00000000000E+00 -0.11607408408E+04  0.11607408408E+04  0.00000000000E+00 0. -1.
         24    2    1    2    0    0  0.34702359726E+03  0.42134065227E+03  0.73932232208E+03  0.92250023601E+03  0.80348411343E+02 0.  0.
        254    2    1    2    0    0 -0.34702359726E+03 -0.42134065227E+03 -0.80901083152E+03  0.13292929362E+04  0.90253413363E+03 0.  0.
         23    2    4    4    0    0  0.16042046198E+03 -0.86390829716E+02 -0.66807609630E+03  0.69848552799E+03  0.91423532478E+02 0.  0.
         23    2    4    4    0    0 -0.50744405924E+03 -0.33494982255E+03 -0.14093473522E+03  0.63080740819E+03  0.91457803110E+02 0.  0.
          2    1    3    3  502    0  0.16374281027E+03  0.14352654858E+03  0.32202846777E+03  0.38873372907E+03  0.00000000000E+00 0. -1.
         -1    1    3    3    0  502  0.18328078699E+03  0.27781410368E+03  0.41729385432E+03  0.53376650694E+03  0.00000000000E+00 0.  1.
         13    1    5    5    0    0  0.98641273650E+02 -0.84351602202E+02 -0.32630793923E+03  0.35117255711E+03  0.00000000000E+00 0. -1.
        -13    1    5    5    0    0  0.61779188329E+02 -0.20392275143E+01 -0.34176815707E+03  0.34731297089E+03  0.00000000000E+00 0.  1.
          1    1    6    6  503    0 -0.43163644479E+02 -0.24621958945E+01 -0.17013283988E+02  0.46460891569E+02  0.00000000000E+00 0. -1.
         -1    1    6    6    0  503 -0.46428041476E+03 -0.33248762666E+03 -0.12392145123E+03  0.58434651662E+03  0.00000000000E+00 0.  1.
<mgrwt>
<rscale>  0 0.22507146E+04</rscale>
<asrwt>0</asrwt>
<pdfrwt beam="1">  1        2 0.17857551E+00 0.22507146E+04</pdfrwt>
<pdfrwt beam="2">  1       -3 0.16785421E+00 0.22507146E+04</pdfrwt>
<totfact> 0.27523994E+00</totfact>
</mgrwt>
</event>
<event>
12    7  0.1698542E-007  0.1613608E+04  0.7818608E-02  0.8812232E-01
         -1   -1    0    0    0  501 -0.00000000000E+00  0.00000000000E+00  0.71652276790E+03  0.71652276790E+03  0.00000000000E+00 0.  1.
          2   -1    0    0  501    0  0.00000000000E+00 -0.00000000000E+00 -0.90846048007E+03  0.90846048007E+03  0.00000000000E+00 0. -1.
         24    2    1    2    0    0  0.63521520301E+02  0.57635541128E+03 -0.56696979709E+02  0.58804619392E+03  0.79769887984E+02 0.  0.
        254    2    1    2    0    0 -0.63521520301E+02 -0.57635541128E+03 -0.13524073246E+03  0.10369370540E+04  0.84895692157E+03 0.  0.
         23    2    4    4    0    0 -0.23780904716E+03 -0.58306054397E+02  0.25115399418E+03  0.36166043264E+03  0.88131724443E+02 0.  0.
         23    2    4    4    0    0  0.17428752686E+03 -0.51804935688E+03 -0.38639472664E+03  0.67527662140E+03  0.89142315740E+02 0.  0.
          2    1    3    3  502    0  0.32702912031E+02  0.49658659015E+03 -0.30446910891E+02  0.49859275602E+03  0.00000000000E+00 0. -1.
         -1    1    3    3    0  502  0.30818608270E+02  0.79768821122E+02 -0.26250068818E+02  0.89453437898E+02  0.00000000000E+00 0.  1.
         13    1    5    5    0    0 -0.47018583320E+02 -0.27537149198E+02  0.15010383824E+02  0.56518610970E+02  0.00000000000E+00 0.  1.
        -13    1    5    5    0    0 -0.19079046384E+03 -0.30768905199E+02  0.23614361036E+03  0.30514182167E+03  0.00000000000E+00 0. -1.
          2    1    6    6  503    0  0.18368571728E+03 -0.48203357957E+03 -0.36869656738E+03  0.63406149020E+03  0.00000000000E+00 0. -1.
         -2    1    6    6    0  503 -0.93981904172E+01 -0.36015777312E+02 -0.17698159260E+02  0.41215131199E+02  0.00000000000E+00 0.  1.
<mgrwt>
<rscale>  0 0.16136079E+04</rscale>
<asrwt>0</asrwt>
<pdfrwt beam="1">  1        2 0.13976315E+00 0.16136079E+04</pdfrwt>
<pdfrwt beam="2">  1       -1 0.11023427E+00 0.16136079E+04</pdfrwt>
<totfact> 0.24028628E+01</totfact>
</mgrwt>
</event>
<event>
12    7  0.1698542E-007  0.1367366E+04  0.7818608E-02  0.8977785E-01
          2   -1    0    0  501    0  0.00000000000E+00  0.00000000000E+00  0.39100812264E+03  0.39100812264E+03  0.00000000000E+00 0. -1.
         -1   -1    0    0    0  501 -0.00000000000E+00 -0.00000000000E+00 -0.11954294342E+04  0.11954294342E+04  0.00000000000E+00 0.  1.
         24    2    1    2    0    0  0.13434604108E+03  0.29979534365E+03 -0.44598248466E+03  0.56042313079E+03  0.85132849539E+02 0.  0.
        254    2    1    2    0    0 -0.13434604108E+03 -0.29979534365E+03 -0.35843882685E+03  0.10260144260E+04  0.90349383117E+03 0.  0.
         23    2    4    4    0    0  0.31558822890E+03 -0.79737080323E+02 -0.38917765210E+03  0.51543124023E+03  0.90863558765E+02 0.  0.
         23    2    4    4    0    0 -0.44993426998E+03 -0.22005826333E+03  0.30738825246E+02  0.51058318578E+03  0.94254059156E+02 0.  0.
          4    1    3    3  502    0  0.44726176287E+02  0.31869722843E+02 -0.52124483898E+02  0.75717051587E+02  0.00000000000E+00 0. -1.
         -3    1    3    3    0  502  0.89619864792E+02  0.26792562081E+03 -0.39385800076E+03  0.48470607920E+03  0.00000000000E+00 0.  1.
         13    1    5    5    0    0  0.21234084175E+03 -0.87091796123E+02 -0.22536689006E+03  0.32165796922E+03  0.00000000000E+00 0. -1.
        -13    1    5    5    0    0  0.10324738715E+03  0.73547157997E+01 -0.16381076204E+03  0.19377327100E+03  0.00000000000E+00 0.  1.
          1    1    6    6  503    0 -0.26325830063E+03 -0.80484922594E+02  0.34696170089E+02  0.27746455599E+03  0.00000000000E+00 0. -1.
         -1    1    6    6    0  503 -0.18667596935E+03 -0.13957334073E+03 -0.39573448428E+01  0.23311862979E+03  0.00000000000E+00 0.  1.
<mgrwt>
<rscale>  0 0.13673663E+04</rscale>
<asrwt>0</asrwt>
<pdfrwt beam="1">  1        2 0.60155097E-01 0.13673663E+04</pdfrwt>
<pdfrwt beam="2">  1       -1 0.18391222E+00 0.13673663E+04</pdfrwt>
<totfact> 0.17770859E+01</totfact>
</mgrwt>
</event>
<event>
12    7  0.1698542E-007  0.1663098E+04  0.7818608E-02  0.8782695E-01
         -3   -1    0    0    0  501 -0.00000000000E+00  0.00000000000E+00  0.16759649695E+04  0.16759649695E+04  0.00000000000E+00 0.  1.
          4   -1    0    0  501    0  0.00000000000E+00 -0.00000000000E+00 -0.41258260304E+03  0.41258260304E+03  0.00000000000E+00 0. -1.
         24    2    1    2    0    0 -0.11746274705E+02 -0.56730800803E+03  0.26992753971E+03  0.63306157547E+03  0.77004744668E+02 0.  0.
        254    2    1    2    0    0  0.11746274705E+02  0.56730800803E+03  0.99345482677E+03  0.14554859971E+04  0.89972809444E+03 0.  0.
         23    2    4    4    0    0 -0.16792330697E+03 -0.85950108194E+01  0.78932230307E+03  0.81220567999E+03  0.91521894919E+02 0.  0.
         23    2    4    4    0    0  0.17966958168E+03  0.57590301885E+03  0.20413252370E+03  0.64328031709E+03  0.90520900463E+02 0.  0.
          2    1    3    3  502    0 -0.24089718652E+02 -0.34720460237E+03  0.12776954671E+03  0.37075113960E+03  0.00000000000E+00 0. -1.
         -3    1    3    3    0  502  0.12343443948E+02 -0.22010340566E+03  0.14215799300E+03  0.26231043587E+03  0.00000000000E+00 0.  1.
         13    1    5    5    0    0 -0.17712209084E+03 -0.18172443603E+02  0.72727399224E+03  0.74875225046E+03  0.00000000000E+00 0. -1.
        -13    1    5    5    0    0  0.91987838641E+01  0.95774327832E+01  0.62048310826E+02  0.63453429534E+02  0.00000000000E+00 0.  1.
          2    1    6    6  503    0  0.61314796520E+02  0.93871476990E+02  0.55807362006E+02  0.12524304419E+03  0.00000000000E+00 0. -1.
         -2    1    6    6    0  503  0.11835478516E+03  0.48203154186E+03  0.14832516169E+03  0.51803727289E+03  0.00000000000E+00 0.  1.
<mgrwt>
<rscale>  0 0.16630983E+04</rscale>
<asrwt>0</asrwt>
<pdfrwt beam="1">  1        4 0.63474247E-01 0.16630983E+04</pdfrwt>
<pdfrwt beam="2">  1       -3 0.25784076E+00 0.16630983E+04</pdfrwt>
<totfact> 0.33475881E-01</totfact>
</mgrwt>
</event>
<event>
12    7  0.1698542E-007  0.2277481E+04  0.7818608E-02  0.8486853E-01
         -1   -1    0    0    0  501 -0.00000000000E+00  0.00000000000E+00  0.70516729596E+03  0.70516729596E+03  0.00000000000E+00 0.  1.
          2   -1    0    0  501    0  0.00000000000E+00 -0.00000000000E+00 -0.18388974380E+04  0.18388974380E+04  0.00000000000E+00 0. -1.
         24    2    1    2    0    0 -0.42239001433E+02  0.67911684571E+03  0.26093598991E+03  0.73325732656E+03  0.81208945101E+02 0.  0.
        254    2    1    2    0    0  0.42239001433E+02 -0.67911684571E+03 -0.13946661320E+04  0.18108074074E+04  0.93324488950E+03 0.  0.
         23    2    4    4    0    0 -0.35358384279E+03 -0.65116056224E+02 -0.24110092557E+03  0.44220176929E+03  0.90283518919E+02 0.  0.
         23    2    4    4    0    0  0.39582284423E+03 -0.61400078948E+03 -0.11535652064E+04  0.13686056382E+04  0.93252420015E+02 0.  0.
          2    1    3    3  502    0  0.24208177737E+02  0.18040592906E+03  0.63355400939E+02  0.19273360355E+03  0.00000000000E+00 0. -1.
         -1    1    3    3    0  502 -0.66447179170E+02  0.49871091664E+03  0.19758058897E+03  0.54052372301E+03  0.00000000000E+00 0.  1.
         13    1    5    5    0    0 -0.32201127121E+02  0.17281951105E+02 -0.40246280339E+02  0.54363052738E+02  0.00000000000E+00 0. -1.
        -13    1    5    5    0    0 -0.32138271567E+03 -0.82398007329E+02 -0.20085464523E+03  0.38783871655E+03  0.00000000000E+00 0.  1.
          1    1    6    6  503    0  0.27700992034E+03 -0.46735190765E+03 -0.78702794064E+03  0.95632906518E+03  0.00000000000E+00 0. -1.
         -1    1    6    6    0  503  0.11881292388E+03 -0.14664888183E+03 -0.36653726577E+03  0.41227657298E+03  0.00000000000E+00 0.  1.
<mgrwt>
<rscale>  0 0.22774814E+04</rscale>
<asrwt>0</asrwt>
<pdfrwt beam="1">  1        2 0.28290730E+00 0.22774814E+04</pdfrwt>
<pdfrwt beam="2">  1       -1 0.10848728E+00 0.22774814E+04</pdfrwt>
<totfact> 0.66940992E+00</totfact>
</mgrwt>
</event>
<event>
12    7  0.1698542E-007  0.1290536E+04  0.7818608E-02  0.9037104E-01
          2   -1    0    0  501    0  0.00000000000E+00  0.00000000000E+00  0.10709277013E+04  0.10709277013E+04  0.00000000000E+00 0. -1.
         -1   -1    0    0    0  501 -0.00000000000E+00 -0.00000000000E+00 -0.38879421874E+03  0.38879421874E+03  0.00000000000E+00 0.  1.
         24    2    1    2    0    0  0.21532337951E+03 -0.20900631800E+03  0.39330402417E+02  0.31279984504E+03  0.79051020071E+02 0.  0.
        254    2    1    2    0    0 -0.21532337951E+03  0.20900631800E+03  0.64280308012E+03  0.11469220750E+04  0.90121398544E+03 0.  0.
         23    2    4    4    0    0  0.79082884581E+02  0.31950634131E+03  0.73164868526E+03  0.80723875332E+03  0.89365549557E+02 0.  0.
         23    2    4    4    0    0 -0.29440626409E+03 -0.11050002331E+03 -0.88845605132E+02  0.33968332167E+03  0.92768065522E+02 0.  0.
          2    1    3    3  502    0  0.23992392032E+01 -0.35624055327E+02  0.58068797843E+01  0.36173878967E+02  0.00000000000E+00 0. -1.
         -1    1    3    3    0  502  0.21292414031E+03 -0.17338226267E+03  0.33523522633E+02  0.27662596607E+03  0.00000000000E+00 0.  1.
         13    1    5    5    0    0  0.13255966087E+02  0.22431403270E+03  0.45938818657E+03  0.51140005071E+03  0.00000000000E+00 0. -1.
        -13    1    5    5    0    0  0.65826918494E+02  0.95192308612E+02  0.27226049868E+03  0.29583870261E+03  0.00000000000E+00 0.  1.
          2    1    6    6  503    0 -0.79762868250E+02 -0.45566012475E+02 -0.68347990220E+02  0.11449814152E+03  0.00000000000E+00 0. -1.
         -2    1    6    6    0  503 -0.21464339584E+03 -0.64934010835E+02 -0.20497614912E+02  0.22518518015E+03  0.00000000000E+00 0.  1.
<mgrwt>
<rscale>  0 0.12905355E+04</rscale>
<asrwt>0</asrwt>
<pdfrwt beam="1">  1        2 0.16475811E+00 0.12905355E+04</pdfrwt>
<pdfrwt beam="2">  1       -1 0.59814496E-01 0.12905355E+04</pdfrwt>
<totfact> 0.71996498E+01</totfact>
</mgrwt>
</event>
<event>
12    7  0.1698542E-007  0.1831999E+04  0.7818608E-02  0.8689465E-01
         -1   -1    0    0    0  501 -0.00000000000E+00  0.00000000000E+00  0.28726687234E+03  0.28726687234E+03  0.00000000000E+00 0.  1.
          2   -1    0    0  501    0  0.00000000000E+00 -0.00000000000E+00 -0.29208215949E+04  0.29208215949E+04  0.00000000000E+00 0. -1.
         24    2    1    2    0    0 -0.41855860038E+03 -0.38043267368E+03 -0.35858057240E+03  0.67446981370E+03  0.80057363973E+02 0.  0.
        254    2    1    2    0    0  0.41855860038E+03  0.38043267368E+03 -0.22749741502E+04  0.25336186536E+04  0.96114295322E+03 0.  0.
         23    2    4    4    0    0  0.11394176624E+03  0.65383219425E+03 -0.11230824970E+04  0.13077142856E+04  0.91230989306E+02 0.  0.
         23    2    4    4    0    0  0.30461683414E+03 -0.27339952057E+03 -0.11518916532E+04  0.12259043680E+04  0.91915315285E+02 0.  0.
          2    1    3    3  502    0 -0.21466256816E+03 -0.21717142740E+03 -0.15003801444E+03  0.34022764853E+03  0.00000000000E+00 0. -1.
         -1    1    3    3    0  502 -0.20389603223E+03 -0.16326124628E+03 -0.20854255797E+03  0.33424216517E+03  0.00000000000E+00 0.  1.
         13    1    5    5    0    0  0.98075134446E+02  0.44281004431E+03 -0.69026214880E+03  0.82593056694E+03  0.00000000000E+00 0.  1.
        -13    1    5    5    0    0  0.15866631798E+02  0.21102214994E+03 -0.43282034815E+03  0.48178371864E+03  0.00000000000E+00 0. -1.
          2    1    6    6  503    0  0.98306230080E+02 -0.90143758968E+02 -0.51120133758E+03  0.52831507616E+03  0.00000000000E+00 0.  1.
         -2    1    6    6    0  503  0.20631060406E+03 -0.18325576160E+03 -0.64069031564E+03  0.69758929182E+03  0.00000000000E+00 0. -1.
<mgrwt>
<rscale>  0 0.18319992E+04</rscale>
<asrwt>0</asrwt>
<pdfrwt beam="1">  1        2 0.44935718E+00 0.18319992E+04</pdfrwt>
<pdfrwt beam="2">  1       -1 0.44194902E-01 0.18319992E+04</pdfrwt>
<totfact> 0.10624217E+01</totfact>
</mgrwt>
</event>
<event>
12    7  0.1698542E-007  0.1498969E+04  0.7818608E-02  0.8885139E-01
          2   -1    0    0  501    0  0.00000000000E+00  0.00000000000E+00  0.16980215443E+04  0.16980215443E+04  0.00000000000E+00 0. -1.
         -1   -1    0    0    0  501 -0.00000000000E+00 -0.00000000000E+00 -0.33081275458E+03  0.33081275458E+03  0.00000000000E+00 0.  1.
         24    2    1    2    0    0  0.17413944324E+03 -0.38926537593E+03  0.63898330255E+03  0.77238484428E+03  0.80166128350E+02 0.  0.
        254    2    1    2    0    0 -0.17413944324E+03  0.38926537593E+03  0.72822548713E+03  0.12564494546E+04  0.93086024362E+03 0.  0.
         23    2    4    4    0    0  0.12739713982E+02 -0.28270357992E+03  0.34481867211E+03  0.45538632759E+03  0.91614280038E+02 0.  0.
         23    2    4    4    0    0 -0.18687915722E+03  0.67196895586E+03  0.38340681502E+03  0.80106312697E+03  0.90748281235E+02 0.  0.
          4    1    3    3  502    0  0.11921547183E+03 -0.26761717325E+03  0.36855931953E+03  0.47081551817E+03  0.00000000000E+00 0. -1.
         -3    1    3    3    0  502  0.54923971415E+02 -0.12164820268E+03  0.27042398303E+03  0.30156932611E+03  0.00000000000E+00 0.  1.
         13    1    5    5    0    0  0.47456756310E+02 -0.21263382596E+03  0.23359872099E+03  0.31942706540E+03  0.00000000000E+00 0.  1.
        -13    1    5    5    0    0 -0.34717042328E+02 -0.70069753965E+02  0.11121995112E+03  0.13595926219E+03  0.00000000000E+00 0. -1.
          1    1    6    6  503    0 -0.55328910182E+02  0.10084598555E+03  0.39976045754E+02  0.12177555312E+03  0.00000000000E+00 0. -1.
         -1    1    6    6    0  503 -0.13155024704E+03  0.57112297031E+03  0.34343076927E+03  0.67928757385E+03  0.00000000000E+00 0.  1.
<mgrwt>
<rscale>  0 0.14989692E+04</rscale>
<asrwt>0</asrwt>
<pdfrwt beam="1">  1        2 0.26123408E+00 0.14989692E+04</pdfrwt>
<pdfrwt beam="2">  1       -1 0.50894271E-01 0.14989692E+04</pdfrwt>
<totfact> 0.41994167E+01</totfact>
</mgrwt>
</event>
<event>
12    7  0.1698542E-007  0.1077393E+04  0.7818608E-02  0.9227511E-01
          2   -1    0    0  501    0  0.00000000000E+00  0.00000000000E+00  0.21319873181E+03  0.21319873181E+03  0.00000000000E+00 0. -1.
         -1   -1    0    0    0  501 -0.00000000000E+00 -0.00000000000E+00 -0.13611419516E+04  0.13611419516E+04  0.00000000000E+00 0.  1.
         24    2    1    2    0    0  0.16246415090E+02  0.42721666149E+02 -0.40701747082E+03  0.41833398403E+03  0.85152885333E+02 0.  0.
        254    2    1    2    0    0 -0.16246415090E+02 -0.42721666149E+02 -0.74092574896E+03  0.11560066994E+04  0.88616670935E+03 0.  0.
         23    2    4    4    0    0 -0.85612700336E+02 -0.42513988051E+03 -0.20701389325E+03  0.48937774057E+03  0.92533067096E+02 0.  0.
         23    2    4    4    0    0  0.69366285246E+02  0.38241821436E+03 -0.53391185571E+03  0.66662895880E+03  0.90977617269E+02 0.  0.
          2    1    3    3  502    0 -0.15761349442E+02  0.32622031740E+02 -0.62934752009E+02  0.72618180241E+02  0.00000000000E+00 0. -1.
         -1    1    3    3    0  502  0.32007764532E+02  0.10099634409E+02 -0.34408271881E+03  0.34571580379E+03  0.00000000000E+00 0.  1.
         13    1    5    5    0    0 -0.65531652262E+02 -0.41445626115E+03 -0.18828253736E+03  0.45991162599E+03  0.00000000000E+00 0.  1.
        -13    1    5    5    0    0 -0.20081048074E+02 -0.10683619364E+02 -0.18731355893E+02  0.29466114573E+02  0.00000000000E+00 0. -1.
          2    1    6    6  503    0  0.40739445345E+01 -0.43899156172E+01 -0.14810363802E+02  0.15975458026E+02  0.00000000000E+00 0. -1.
         -2    1    6    6    0  503  0.65292340712E+02  0.38680812998E+03 -0.51910149191E+03  0.65065350078E+03  0.00000000000E+00 0.  1.
<mgrwt>
<rscale>  0 0.10773927E+04</rscale>
<asrwt>0</asrwt>
<pdfrwt beam="1">  1        2 0.32799805E-01 0.10773927E+04</pdfrwt>
<pdfrwt beam="2">  1       -1 0.20940646E+00 0.10773927E+04</pdfrwt>
<totfact> 0.23864855E+01</totfact>
</mgrwt>
</event>
<event>
12    7  0.1698542E-007  0.1719646E+04  0.7818608E-02  0.8750238E-01
         -1   -1    0    0    0  501 -0.00000000000E+00  0.00000000000E+00  0.12655031054E+04  0.12655031054E+04  0.00000000000E+00 0.  1.
          2   -1    0    0  501    0  0.00000000000E+00 -0.00000000000E+00 -0.58419131722E+03  0.58419131722E+03  0.00000000000E+00 0. -1.
         24    2    1    2    0    0 -0.89717053254E+02 -0.35479884748E+03 -0.28690891876E+03  0.47181263412E+03  0.79743728493E+02 0.  0.
        254    2    1    2    0    0  0.89717053254E+02  0.35479884748E+03  0.96822070689E+03  0.13778817885E+04  0.90949189875E+03 0.  0.
         23    2    4    4    0    0  0.48845886663E+03  0.24891281356E+03  0.52120645033E+03  0.76260002772E+03  0.96710833257E+02 0.  0.
         23    2    4    4    0    0 -0.39874181338E+03  0.10588603392E+03  0.44701425657E+03  0.61528176074E+03  0.92428424270E+02 0.  0.
          4    1    3    3  502    0 -0.57116957123E+02 -0.25338595689E+03 -0.15581086739E+03  0.30289241710E+03  0.00000000000E+00 0. -1.
         -3    1    3    3    0  502 -0.32600096131E+02 -0.10141289059E+03 -0.13109805136E+03  0.16892021701E+03  0.00000000000E+00 0.  1.
         13    1    5    5    0    0  0.10063103246E+03  0.50144557760E+02  0.57624469334E+02  0.12633946665E+03  0.00000000000E+00 0. -1.
        -13    1    5    5    0    0  0.38782783417E+03  0.19876825580E+03  0.46358198099E+03  0.63626056106E+03  0.00000000000E+00 0.  1.
          4    1    6    6  503    0 -0.10894519643E+03  0.68736469512E+02  0.11133930562E+03  0.17026508463E+03  0.00000000000E+00 0. -1.
         -4    1    6    6    0  503 -0.28979661695E+03  0.37149564409E+02  0.33567495095E+03  0.44501667612E+03  0.00000000000E+00 0.  1.
<mgrwt>
<rscale>  0 0.17196464E+04</rscale>
<asrwt>0</asrwt>
<pdfrwt beam="1">  1        2 0.89875588E-01 0.17196464E+04</pdfrwt>
<pdfrwt beam="2">  1       -1 0.19469278E+00 0.17196464E+04</pdfrwt>
<totfact> 0.91068350E+00</totfact>
</mgrwt>
</event>
<event>
12    7  0.1698542E-007  0.1136704E+04  0.7818608E-02  0.9170138E-01
          2   -1    0    0  501    0  0.00000000000E+00  0.00000000000E+00  0.23610234800E+04  0.23610234800E+04  0.00000000000E+00 0. -1.
         -1   -1    0    0    0  501 -0.00000000000E+00 -0.00000000000E+00 -0.13681534067E+03  0.13681534067E+03  0.00000000000E+00 0.  1.
         24    2    1    2    0    0 -0.12806456662E+03  0.12898995702E+03  0.60955877037E+03  0.64113104141E+03  0.80300532248E+02 0.  0.
        254    2    1    2    0    0  0.12806456662E+03 -0.12898995702E+03  0.16146493689E+04  0.18567077792E+04  0.89846104571E+03 0.  0.
         23    2    4    4    0    0 -0.64017566819E+02 -0.41529834862E+03  0.13380195699E+04  0.14053085107E+04  0.89580542527E+02 0.  0.
         23    2    4    4    0    0  0.19208213344E+03  0.28630839160E+03  0.27662979906E+03  0.45139926856E+03  0.91483402005E+02 0.  0.
          4    1    3    3  502    0 -0.33400108002E+02  0.67559219017E+02  0.14934831198E+03  0.16728638193E+03  0.00000000000E+00 0. -1.
         -3    1    3    3    0  502 -0.94664458619E+02  0.61430738008E+02  0.46021045840E+03  0.47384465948E+03  0.00000000000E+00 0.  1.
         13    1    5    5    0    0  0.56176386183E+01 -0.98603014596E+02  0.42790128170E+03  0.43915102098E+03  0.00000000000E+00 0. -1.
        -13    1    5    5    0    0 -0.69635205437E+02 -0.31669533402E+03  0.91011828818E+03  0.96615748970E+03  0.00000000000E+00 0.  1.
          1    1    6    6  503    0  0.13806717919E+03  0.12679546186E+03  0.16111719433E+03  0.24718087593E+03  0.00000000000E+00 0.  1.
         -1    1    6    6    0  503  0.54014954252E+02  0.15951292974E+03  0.11551260474E+03  0.20421839263E+03  0.00000000000E+00 0. -1.
<mgrwt>
<rscale>  0 0.11367044E+04</rscale>
<asrwt>0</asrwt>
<pdfrwt beam="1">  1        2 0.36323435E+00 0.11367044E+04</pdfrwt>
<pdfrwt beam="2">  1       -1 0.21048516E-01 0.11367044E+04</pdfrwt>
<totfact> 0.89164455E+01</totfact>
</mgrwt>
</event>
<event>
12    7  0.1698542E-007  0.1271471E+04  0.7818608E-02  0.9052500E-01
          2   -1    0    0  501    0  0.00000000000E+00  0.00000000000E+00  0.17029032063E+04  0.17029032063E+04  0.00000000000E+00 0. -1.
         -1   -1    0    0    0  501 -0.00000000000E+00 -0.00000000000E+00 -0.23733547199E+03  0.23733547199E+03  0.00000000000E+00 0.  1.
         24    2    1    2    0    0 -0.98145475268E+02 -0.49025150789E+02 -0.64557940576E+02  0.15083507889E+03  0.80916584258E+02 0.  0.
        254    2    1    2    0    0  0.98145475268E+02  0.49025150789E+02  0.15301256748E+04  0.17894035993E+04  0.92121911662E+03 0.  0.
         23    2    4    4    0    0  0.46082400334E+03 -0.15023475743E+03  0.95532491463E+03  0.10752434408E+04  0.92593305139E+02 0.  0.
         23    2    4    4    0    0 -0.36267852807E+03  0.19925990822E+03  0.57480076021E+03  0.71416015851E+03  0.91589258751E+02 0.  0.
          4    1    3    3  502    0 -0.67439490034E+02 -0.26122722110E+02  0.38582552287E+01  0.72424909803E+02  0.00000000000E+00 0. -1.
         -3    1    3    3    0  502 -0.30705985234E+02 -0.22902428678E+02 -0.68416195804E+02  0.78410169091E+02  0.00000000000E+00 0.  1.
         13    1    5    5    0    0  0.19608876669E+03 -0.68250561382E+02  0.31208970257E+03  0.37484520272E+03  0.00000000000E+00 0.  1.
        -13    1    5    5    0    0  0.26473523664E+03 -0.81984196052E+02  0.64323521206E+03  0.70039823811E+03  0.00000000000E+00 0. -1.
          1    1    6    6  503    0 -0.25811453896E+03  0.14533370736E+03  0.33585695281E+03  0.44782239165E+03  0.00000000000E+00 0. -1.
         -1    1    6    6    0  503 -0.10456398911E+03  0.53926200864E+02  0.23894380741E+03  0.26633776686E+03  0.00000000000E+00 0.  1.
<mgrwt>
<rscale>  0 0.12714705E+04</rscale>
<asrwt>0</asrwt>
<pdfrwt beam="1">  1        2 0.26198510E+00 0.12714705E+04</pdfrwt>
<pdfrwt beam="2">  1       -1 0.36513151E-01 0.12714705E+04</pdfrwt>
<totfact> 0.78594349E+01</totfact>
</mgrwt>
</event>
<event>
12    7  0.1698542E-007  0.1701605E+04  0.7818608E-02  0.8760450E-01
         -1   -1    0    0    0  501 -0.00000000000E+00  0.00000000000E+00  0.33048761466E+03  0.33048761466E+03  0.00000000000E+00 0.  1.
          2   -1    0    0  501    0  0.00000000000E+00 -0.00000000000E+00 -0.21902927142E+04  0.21902927142E+04  0.00000000000E+00 0. -1.
         24    2    1    2    0    0 -0.59572270647E+03 -0.45014534379E+02 -0.47255050112E+03  0.76588310953E+03  0.79756567384E+02 0.  0.
        254    2    1    2    0    0  0.59572270647E+03  0.45014534379E+02 -0.13872545984E+04  0.17548972193E+04  0.89346352934E+03 0.  0.
         23    2    4    4    0    0  0.63137784623E+02  0.80103546728E+02  0.10155539339E+03  0.17065149785E+03  0.91681392583E+02 0.  0.
         23    2    4    4    0    0  0.53258492185E+03 -0.35089012349E+02 -0.14888099918E+04  0.15842457215E+04  0.91659023380E+02 0.  0.
          2    1    3    3  502    0 -0.13700844938E+03  0.11270814881E+02 -0.76992215877E+02  0.15756315488E+03  0.00000000000E+00 0. -1.
         -1    1    3    3    0  502 -0.45871425709E+03 -0.56285349260E+02 -0.39555828525E+03  0.60831995465E+03  0.00000000000E+00 0.  1.
         13    1    5    5    0    0  0.53583440836E+02  0.94001385582E+02  0.55498802147E+02  0.12160412272E+03  0.00000000000E+00 0. -1.
        -13    1    5    5    0    0  0.95543437870E+01 -0.13897838854E+02  0.46056591239E+02  0.49047375124E+02  0.00000000000E+00 0.  1.
          2    1    6    6  503    0  0.40409904169E+03 -0.45943234568E+02 -0.12222004350E+04  0.12880918910E+04  0.00000000000E+00 0. -1.
         -2    1    6    6    0  503  0.12848588016E+03  0.10854222218E+02 -0.26660955678E+03  0.29615383048E+03  0.00000000000E+00 0.  1.
<mgrwt>
<rscale>  0 0.17016047E+04</rscale>
<asrwt>0</asrwt>
<pdfrwt beam="1">  1        2 0.33696810E+00 0.17016047E+04</pdfrwt>
<pdfrwt beam="2">  1       -1 0.50844249E-01 0.17016047E+04</pdfrwt>
<totfact> 0.22037378E+01</totfact>
</mgrwt>
</event>
<event>
12    7  0.1698542E-007  0.1471451E+04  0.7818608E-02  0.8903663E-01
         -1   -1    0    0    0  501 -0.00000000000E+00  0.00000000000E+00  0.70230498557E+03  0.70230498557E+03  0.00000000000E+00 0.  1.
          2   -1    0    0  501    0  0.00000000000E+00 -0.00000000000E+00 -0.77073619796E+03  0.77073619796E+03  0.00000000000E+00 0. -1.
         24    2    1    2    0    0 -0.41104250484E+03  0.11281891235E+03 -0.83412562348E+02  0.44156537323E+03  0.79613287252E+02 0.  0.
        254    2    1    2    0    0  0.41104250484E+03 -0.11281891235E+03  0.14981349956E+02  0.10314758103E+04  0.93916657660E+03 0.  0.
         23    2    4    4    0    0  0.30551567483E+03  0.31112953391E+03  0.26449402206E+03  0.51973085315E+03  0.10010822931E+03 0.  0.
         23    2    4    4    0    0  0.10552683002E+03 -0.42394844626E+03 -0.24951267210E+03  0.51174495715E+03  0.93584884936E+02 0.  0.
          2    1    3    3  502    0 -0.12537682438E+03  0.52771237407E+02  0.63185751684E+01  0.13617663523E+03  0.00000000000E+00 0. -1.
         -1    1    3    3    0  502 -0.28566568046E+03  0.60047674945E+02 -0.89731137516E+02  0.30538873801E+03  0.00000000000E+00 0.  1.
         13    1    5    5    0    0  0.30846949375E+03  0.30189662053E+03  0.24106531608E+03  0.49437585365E+03  0.00000000000E+00 0. -1.
        -13    1    5    5    0    0 -0.29538189205E+01  0.92329133812E+01  0.23428705976E+02  0.25354999496E+02  0.00000000000E+00 0.  1.
          4    1    6    6  503    0  0.87095771830E+01 -0.49594894700E+02 -0.67937955614E+02  0.84564035665E+02  0.00000000000E+00 0.  1.
         -4    1    6    6    0  503  0.96817252836E+02 -0.37435355156E+03 -0.18157471649E+03  0.42718092148E+03  0.00000000000E+00 0. -1.
<mgrwt>
<rscale>  0 0.14714508E+04</rscale>
<asrwt>0</asrwt>
<pdfrwt beam="1">  1        2 0.11857480E+00 0.14714508E+04</pdfrwt>
<pdfrwt beam="2">  1       -1 0.10804692E+00 0.14714508E+04</pdfrwt>
<totfact> 0.31864694E+01</totfact>
</mgrwt>
</event>
<event>
12    7  0.1698542E-007  0.2254601E+04  0.7818608E-02  0.8496039E-01
         -1   -1    0    0    0  501 -0.00000000000E+00  0.00000000000E+00  0.63082510858E+03  0.63082510858E+03  0.00000000000E+00 0.  1.
          2   -1    0    0  501    0  0.00000000000E+00 -0.00000000000E+00 -0.20145154981E+04  0.20145154981E+04  0.00000000000E+00 0. -1.
         24    2    1    2    0    0 -0.34767969393E+03 -0.63678189060E+03 -0.13194344539E+04  0.15078874584E+04  0.80280528681E+02 0.  0.
        254    2    1    2    0    0  0.34767969393E+03  0.63678189060E+03 -0.64255935579E+02  0.11374531482E+04  0.87366955619E+03 0.  0.
         23    2    4    4    0    0  0.22675049960E+03  0.73749830122E+03 -0.30797733414E+03  0.83577103410E+03  0.91343580564E+02 0.  0.
         23    2    4    4    0    0  0.12092919433E+03 -0.10071641063E+03  0.24372139857E+03  0.30168211414E+03  0.82730359993E+02 0.  0.
          4    1    3    3  502    0 -0.32679324643E+03 -0.55903470879E+03 -0.12050634345E+04  0.13680246755E+04  0.00000000000E+00 0. -1.
         -3    1    3    3    0  502 -0.20886447496E+02 -0.77747181806E+02 -0.11437101945E+03  0.13986278296E+03  0.00000000000E+00 0.  1.
         13    1    5    5    0    0  0.14590660619E+03  0.59351891979E+03 -0.25624998307E+03  0.66273486381E+03  0.00000000000E+00 0. -1.
        -13    1    5    5    0    0  0.80843893413E+02  0.14397938143E+03 -0.51727351076E+02  0.17303617029E+03  0.00000000000E+00 0.  1.
          4    1    6    6  503    0  0.50487173009E+02 -0.75831648974E+02  0.18655724246E+03  0.20761261604E+03  0.00000000000E+00 0. -1.
         -4    1    6    6    0  503  0.70442021319E+02 -0.24884761655E+02  0.57164156104E+02  0.94069498103E+02  0.00000000000E+00 0.  1.
<mgrwt>
<rscale>  0 0.22546015E+04</rscale>
<asrwt>0</asrwt>
<pdfrwt beam="1">  1        2 0.30992546E+00 0.22546015E+04</pdfrwt>
<pdfrwt beam="2">  1       -1 0.97050017E-01 0.22546015E+04</pdfrwt>
<totfact> 0.69299931E+00</totfact>
</mgrwt>
</event>
<event>
12    7  0.1698542E-007  0.1118453E+04  0.7818608E-02  0.9187390E-01
          2   -1    0    0  501    0  0.00000000000E+00  0.00000000000E+00  0.10134704679E+04  0.10134704679E+04  0.00000000000E+00 0. -1.
         -1   -1    0    0    0  501 -0.00000000000E+00 -0.00000000000E+00 -0.30857769847E+03  0.30857769847E+03  0.00000000000E+00 0.  1.
         24    2    1    2    0    0 -0.16392051594E+03 -0.40621189979E+02  0.19494610997E+03  0.27020119382E+03  0.80527527796E+02 0.  0.
        254    2    1    2    0    0  0.16392051594E+03  0.40621189979E+02  0.50994665946E+03  0.10518469725E+04  0.90433204163E+03 0.  0.
         23    2    4    4    0    0  0.68951384052E+02  0.20752184441E+03 -0.20067362055E+03  0.31041074814E+03  0.90913812506E+02 0.  0.
         23    2    4    4    0    0  0.94969131885E+02 -0.16690065443E+03  0.71062028002E+03  0.74143622440E+03  0.88721632216E+02 0.  0.
          4    1    3    3  502    0 -0.70010113084E+02 -0.39728074837E+01  0.13705704042E+03  0.15395399138E+03  0.00000000000E+00 0. -1.
         -3    1    3    3    0  502 -0.93910402854E+02 -0.36648382495E+02  0.57889069551E+02  0.11624720245E+03  0.00000000000E+00 0.  1.
         13    1    5    5    0    0  0.85337177599E+02  0.19726201811E+03 -0.16947972214E+03  0.27371173502E+03  0.00000000000E+00 0. -1.
        -13    1    5    5    0    0 -0.16385793547E+02  0.10259826296E+02 -0.31193898410E+02  0.36699013118E+02  0.00000000000E+00 0.  1.
          1    1    6    6  503    0  0.50870300698E+02 -0.14243908893E+03  0.61508177649E+03  0.63340529940E+03  0.00000000000E+00 0. -1.
         -1    1    6    6    0  503  0.44098831187E+02 -0.24461565503E+02  0.95538503530E+02  0.10803092500E+03  0.00000000000E+00 0.  1.
<mgrwt>
<rscale>  0 0.11184532E+04</rscale>
<asrwt>0</asrwt>
<pdfrwt beam="1">  1        2 0.15591853E+00 0.11184532E+04</pdfrwt>
<pdfrwt beam="2">  1       -1 0.47473493E-01 0.11184532E+04</pdfrwt>
<totfact> 0.12364077E+02</totfact>
</mgrwt>
</event>
<event>
12    7  0.1698542E-007  0.2824442E+04  0.7818608E-02  0.8295720E-01
         -1   -1    0    0    0  501 -0.00000000000E+00  0.00000000000E+00  0.83320813594E+03  0.83320813594E+03  0.00000000000E+00 0.  1.
          2   -1    0    0  501    0  0.00000000000E+00 -0.00000000000E+00 -0.23936016284E+04  0.23936016284E+04  0.00000000000E+00 0. -1.
         24    2    1    2    0    0 -0.81830537426E+03 -0.75771657362E+03 -0.13977704840E+04  0.17899567142E+04  0.80153734563E+02 0.  0.
        254    2    1    2    0    0  0.81830537426E+03  0.75771657362E+03 -0.16262300842E+03  0.14368530501E+04  0.89125885877E+03 0.  0.
         23    2    4    4    0    0  0.91536961919E+03  0.32499856601E+03 -0.10222324146E+03  0.98105045643E+03  0.92112970444E+02 0.  0.
         23    2    4    4    0    0 -0.97064244932E+02  0.43271800761E+03 -0.60399766959E+02  0.45580259371E+03  0.86264307940E+02 0.  0.
          4    1    3    3  502    0 -0.54357860747E+03 -0.51593902216E+03 -0.87958589820E+03  0.11555700452E+04  0.00000000000E+00 0. -1.
         -1    1    3    3    0  502 -0.27472676678E+03 -0.24177755146E+03 -0.51818458582E+03  0.63438666896E+03  0.00000000000E+00 0.  1.
         13    1    5    5    0    0  0.75473288014E+03  0.24700644762E+03 -0.53353550236E+02  0.79591488669E+03  0.00000000000E+00 0.  1.
        -13    1    5    5    0    0  0.16063673905E+03  0.77992118385E+02 -0.48869691224E+02  0.18513556974E+03  0.00000000000E+00 0. -1.
          3    1    6    6  503    0 -0.56828529488E+02  0.98128596528E+02  0.20558581107E+00  0.11339640861E+03  0.00000000000E+00 0. -1.
         -3    1    6    6    0  503 -0.40235715444E+02  0.33458941109E+03 -0.60605352771E+02  0.34240618510E+03  0.00000000000E+00 0.  1.
<mgrwt>
<rscale>  0 0.28244421E+04</rscale>
<asrwt>0</asrwt>
<pdfrwt beam="1">  1        2 0.36824639E+00 0.28244421E+04</pdfrwt>
<pdfrwt beam="2">  1       -1 0.12818587E+00 0.28244421E+04</pdfrwt>
<totfact> 0.20795747E+00</totfact>
</mgrwt>
</event>
<event>
12    7  0.1698542E-007  0.3286465E+04  0.7818608E-02  0.8166348E-01
          2   -1    0    0  501    0  0.00000000000E+00  0.00000000000E+00  0.29618206839E+04  0.29618206839E+04  0.00000000000E+00 0. -1.
         -1   -1    0    0    0  501 -0.00000000000E+00 -0.00000000000E+00 -0.91167345017E+03  0.91167345017E+03  0.00000000000E+00 0.  1.
         24    2    1    2    0    0  0.23912489198E+02  0.11764839038E+04  0.20840429807E+04  0.23944960696E+04  0.75432743988E+02 0.  0.
        254    2    1    2    0    0 -0.23912489198E+02 -0.11764839038E+04 -0.33895747009E+02  0.14789980644E+04  0.89532126627E+03 0.  0.
         23    2    4    4    0    0 -0.14077209865E+03 -0.81658249800E+03  0.37480688605E+03  0.91401892797E+03  0.91250419509E+02 0.  0.
         23    2    4    4    0    0  0.11685960945E+03 -0.35990140582E+03 -0.40870263306E+03  0.56497913646E+03  0.94754377925E+02 0.  0.
          4    1    3    3  502    0  0.46629234554E+02  0.92487588307E+03  0.16643511805E+04  0.19046350140E+04  0.00000000000E+00 0. -1.
         -3    1    3    3    0  502 -0.22716745357E+02  0.25160802074E+03  0.41969180025E+03  0.48986105562E+03  0.00000000000E+00 0.  1.
         13    1    5    5    0    0 -0.25691721619E+02 -0.31875713068E+03  0.18160204996E+03  0.36775736222E+03  0.00000000000E+00 0. -1.
        -13    1    5    5    0    0 -0.11508037703E+03 -0.49782536732E+03  0.19320483608E+03  0.54626156575E+03  0.00000000000E+00 0.  1.
          4    1    6    6  503    0  0.10797186728E+02 -0.11952800055E+03 -0.18173128212E+03  0.21778379429E+03  0.00000000000E+00 0. -1.
         -4    1    6    6    0  503  0.10606242273E+03 -0.24037340527E+03 -0.22697135094E+03  0.34719534217E+03  0.00000000000E+00 0.  1.
<mgrwt>
<rscale>  0 0.32864651E+04</rscale>
<asrwt>0</asrwt>
<pdfrwt beam="1">  1        2 0.45566471E+00 0.32864651E+04</pdfrwt>
<pdfrwt beam="2">  1       -1 0.14025746E+00 0.32864651E+04</pdfrwt>
<totfact> 0.72824642E-01</totfact>
</mgrwt>
</event>
<event>
12    7  0.1698542E-007  0.1172941E+04  0.7818608E-02  0.9136876E-01
         -1   -1    0    0    0  501 -0.00000000000E+00  0.00000000000E+00  0.22539278123E+03  0.22539278123E+03  0.00000000000E+00 0.  1.
          2   -1    0    0  501    0  0.00000000000E+00 -0.00000000000E+00 -0.15259928646E+04  0.15259928646E+04  0.00000000000E+00 0. -1.
         24    2    1    2    0    0  0.95840396431E+02 -0.15604710447E+03 -0.52496324740E+02  0.20676732639E+03  0.80378994458E+02 0.  0.
        254    2    1    2    0    0 -0.95840396431E+02  0.15604710447E+03 -0.12481037586E+04  0.15446183194E+04  0.89137347956E+03 0.  0.
         23    2    4    4    0    0  0.15642092110E+03  0.46593781811E+03 -0.66787366149E+03  0.83416818103E+03  0.90640893767E+02 0.  0.
         23    2    4    4    0    0 -0.25226131753E+03 -0.30989071364E+03 -0.58023009714E+03  0.71045013842E+03  0.91675551986E+02 0.  0.
          2    1    3    3  502    0  0.34015432044E+01 -0.38980396038E+02 -0.41747085356E+02  0.57217662545E+02  0.00000000000E+00 0. -1.
         -3    1    3    3    0  502  0.92438853226E+02 -0.11706670843E+03 -0.10749239385E+02  0.14954966384E+03  0.00000000000E+00 0.  1.
         13    1    5    5    0    0  0.10612015572E+03  0.29749477153E+03 -0.49793242683E+03  0.58966204577E+03  0.00000000000E+00 0.  1.
        -13    1    5    5    0    0  0.50300765377E+02  0.16844304658E+03 -0.16994123466E+03  0.24450613525E+03  0.00000000000E+00 0. -1.
          4    1    6    6  503    0 -0.61598281359E+02 -0.13692481889E+03 -0.25164243651E+03  0.29303015228E+03  0.00000000000E+00 0. -1.
         -4    1    6    6    0  503 -0.19066303617E+03 -0.17296589475E+03 -0.32858766063E+03  0.41741998614E+03  0.00000000000E+00 0.  1.
<mgrwt>
<rscale>  0 0.11729412E+04</rscale>
<asrwt>0</asrwt>
<pdfrwt beam="1">  1        2 0.23476812E+00 0.11729412E+04</pdfrwt>
<pdfrwt beam="2">  1       -1 0.34675814E-01 0.11729412E+04</pdfrwt>
<totfact> 0.10899945E+02</totfact>
</mgrwt>
</event>
<event>
12    7  0.1698542E-007  0.2211941E+04  0.7818608E-02  0.8513474E-01
         -1   -1    0    0    0  501 -0.00000000000E+00  0.00000000000E+00  0.10036667916E+04  0.10036667916E+04  0.00000000000E+00 0.  1.
          2   -1    0    0  501    0  0.00000000000E+00 -0.00000000000E+00 -0.12187023560E+04  0.12187023560E+04  0.00000000000E+00 0. -1.
         24    2    1    2    0    0  0.84251541578E+03  0.34961869756E+03  0.88070757658E+02  0.91990139541E+03  0.79979118633E+02 0.  0.
        254    2    1    2    0    0 -0.84251541578E+03 -0.34961869756E+03 -0.30310632198E+03  0.13024677522E+04  0.87891031597E+03 0.  0.
         23    2    4    4    0    0 -0.77895703189E+03  0.16026593045E+01 -0.45204999370E+03  0.90506824635E+03  0.89569569009E+02 0.  0.
         23    2    4    4    0    0 -0.63558383889E+02 -0.35122135687E+03  0.14894367172E+03  0.39739950583E+03  0.91356664795E+02 0.  0.
          2    1    3    3  502    0  0.63731905821E+03  0.28004653004E+03  0.36006232028E+02  0.69706390647E+03  0.00000000000E+00 0. -1.
         -1    1    3    3    0  502  0.20519635757E+03  0.69572167519E+02  0.52064525630E+02  0.22283748895E+03  0.00000000000E+00 0.  1.
         13    1    5    5    0    0 -0.55068848568E+02  0.52919237247E+01 -0.81836768205E+01  0.55924548327E+02  0.00000000000E+00 0. -1.
        -13    1    5    5    0    0 -0.72388818332E+03 -0.36892644202E+01 -0.44386631688E+03  0.84914369802E+03  0.00000000000E+00 0.  1.
          2    1    6    6  503    0 -0.61312741542E+02 -0.17322994012E+03  0.11323609002E+03  0.21584780868E+03  0.00000000000E+00 0. -1.
         -2    1    6    6    0  503 -0.22456423474E+01 -0.17799141674E+03  0.35707581700E+02  0.18155169714E+03  0.00000000000E+00 0.  1.
<mgrwt>
<rscale>  0 0.22119413E+04</rscale>
<asrwt>0</asrwt>
<pdfrwt beam="1">  1        2 0.18749267E+00 0.22119413E+04</pdfrwt>
<pdfrwt beam="2">  1       -1 0.15441028E+00 0.22119413E+04</pdfrwt>
<totfact> 0.61968632E+00</totfact>
</mgrwt>
</event>
<event>
12    7  0.1698542E-007  0.1659837E+04  0.7818608E-02  0.8784608E-01
         -1   -1    0    0    0  501 -0.00000000000E+00  0.00000000000E+00  0.54707018047E+03  0.54707018047E+03  0.00000000000E+00 0.  1.
          2   -1    0    0  501    0  0.00000000000E+00 -0.00000000000E+00 -0.12590066039E+04  0.12590066039E+04  0.00000000000E+00 0. -1.
         24    2    1    2    0    0  0.19792224305E+03  0.38555366424E+03  0.17727768980E+03  0.47502245427E+03  0.79963181858E+02 0.  0.
        254    2    1    2    0    0 -0.19792224305E+03 -0.38555366424E+03 -0.88921411326E+03  0.13310543301E+04  0.89060600057E+03 0.  0.
         23    2    4    4    0    0 -0.15288376778E+02 -0.53582897613E+03 -0.92306725561E+03  0.10711703862E+04  0.89478555317E+02 0.  0.
         23    2    4    4    0    0 -0.18263386627E+03  0.15027531189E+03  0.33853142350E+02  0.25988394389E+03  0.10225375578E+03 0.  0.
          4    1    3    3  502    0  0.23711590646E+02  0.12491639811E+03  0.54643267676E+02  0.13839159205E+03  0.00000000000E+00 0. -1.
         -3    1    3    3    0  502  0.17421065240E+03  0.26063726613E+03  0.12263442213E+03  0.33663086222E+03  0.00000000000E+00 0.  1.
         13    1    5    5    0    0  0.20151235556E+02 -0.20940478195E+03 -0.43118998077E+03  0.47977206517E+03  0.00000000000E+00 0.  1.
        -13    1    5    5    0    0 -0.35439612334E+02 -0.32642419418E+03 -0.49187727484E+03  0.59139832108E+03  0.00000000000E+00 0. -1.
          1    1    6    6  503    0 -0.14745473428E+03  0.12219474306E+03  0.68175551842E+02  0.20327901948E+03  0.00000000000E+00 0. -1.
         -1    1    6    6    0  503 -0.35179131990E+02  0.28080568834E+02 -0.34322409493E+02  0.56604924406E+02  0.00000000000E+00 0.  1.
<mgrwt>
<rscale>  0 0.16598373E+04</rscale>
<asrwt>0</asrwt>
<pdfrwt beam="1">  1        2 0.19369332E+00 0.16598373E+04</pdfrwt>
<pdfrwt beam="2">  1       -1 0.84164645E-01 0.16598373E+04</pdfrwt>
<totfact> 0.26598923E+01</totfact>
</mgrwt>
</event>
<event>
12    7  0.1698542E-007  0.2522208E+04  0.7818608E-02  0.8395116E-01
         -1   -1    0    0    0  501 -0.00000000000E+00  0.00000000000E+00  0.66629719746E+03  0.66629719746E+03  0.00000000000E+00 0.  1.
          2   -1    0    0  501    0  0.00000000000E+00 -0.00000000000E+00 -0.23868981570E+04  0.23868981570E+04  0.00000000000E+00 0. -1.
         24    2    1    2    0    0 -0.24711022450E+02 -0.99840326440E+03 -0.19912714666E+03  0.10218071840E+04  0.83777012344E+02 0.  0.
        254    2    1    2    0    0  0.24711022450E+02  0.99840326440E+03 -0.15214738129E+04  0.20313881704E+04  0.90235005554E+03 0.  0.
         23    2    4    4    0    0  0.18087915087E+03  0.33682575208E+02  0.17110692010E+02  0.20661604712E+03  0.92442587897E+02 0.  0.
         23    2    4    4    0    0 -0.15616812842E+03  0.96472068919E+03 -0.15385845049E+04  0.18247721233E+04  0.86466935061E+02 0.  0.
          4    1    3    3  502    0  0.16267399049E+02 -0.64748961457E+03 -0.15290843318E+03  0.66549862373E+03  0.00000000000E+00 0. -1.
         -3    1    3    3    0  502 -0.40978421499E+02 -0.35091364983E+03 -0.46218713477E+02  0.35630856029E+03  0.00000000000E+00 0.  1.
         13    1    5    5    0    0  0.16687417312E+03  0.44164196426E+02 -0.11586159696E+02  0.17300781773E+03  0.00000000000E+00 0.  1.
        -13    1    5    5    0    0  0.14004977750E+02 -0.10481621218E+02  0.28696851706E+02  0.33608229393E+02  0.00000000000E+00 0. -1.
          4    1    6    6  503    0  0.59493952492E+01  0.69462424351E+02 -0.13818401592E+03  0.15477482340E+03  0.00000000000E+00 0. -1.
         -4    1    6    6    0  503 -0.16211752367E+03  0.89525826484E+03 -0.14004004890E+04  0.16699972999E+04  0.00000000000E+00 0.  1.
<mgrwt>
<rscale>  0 0.25222082E+04</rscale>
<asrwt>0</asrwt>
<pdfrwt beam="1">  1        2 0.36721510E+00 0.25222082E+04</pdfrwt>
<pdfrwt beam="2">  1       -1 0.10250726E+00 0.25222082E+04</pdfrwt>
<totfact> 0.36864280E+00</totfact>
</mgrwt>
</event>
<event>
12    7  0.1698542E-007  0.1574905E+04  0.7818608E-02  0.8836115E-01
          2   -1    0    0  501    0  0.00000000000E+00  0.00000000000E+00  0.19919733839E+04  0.19919733839E+04  0.00000000000E+00 0. -1.
         -1   -1    0    0    0  501 -0.00000000000E+00 -0.00000000000E+00 -0.31128988075E+03  0.31128988075E+03  0.00000000000E+00 0.  1.
         24    2    1    2    0    0  0.46419124092E+03  0.42823138506E+02  0.93933915580E+03  0.10513152379E+04  0.74822125350E+02 0.  0.
        254    2    1    2    0    0 -0.46419124092E+03 -0.42823138506E+02  0.74134434736E+03  0.12519480268E+04  0.89469273555E+03 0.  0.
         23    2    4    4    0    0 -0.65301033837E+03 -0.23194564891E+03  0.38484882234E+03  0.79751899012E+03  0.87787456248E+02 0.  0.
         23    2    4    4    0    0  0.18881909746E+03  0.18912251041E+03  0.35649552502E+03  0.45442903665E+03  0.89424350651E+02 0.  0.
          2    1    3    3  502    0  0.44210772938E+03  0.26435995968E+02  0.90276770759E+03  0.10055583723E+04  0.00000000000E+00 0. -1.
         -1    1    3    3    0  502  0.22083511530E+02  0.16387142537E+02  0.36571448213E+02  0.45756865566E+02  0.00000000000E+00 0.  1.
         13    1    5    5    0    0 -0.35859616533E+03 -0.15174035189E+03  0.25777443880E+03  0.46697323850E+03  0.00000000000E+00 0.  1.
        -13    1    5    5    0    0 -0.29441417305E+03 -0.80205297020E+02  0.12707438355E+03  0.33054575162E+03  0.00000000000E+00 0. -1.
          2    1    6    6  503    0  0.51764509168E+01  0.26895409917E+02  0.82294308591E+01  0.28598640719E+02  0.00000000000E+00 0. -1.
         -2    1    6    6    0  503  0.18364264654E+03  0.16222710049E+03  0.34826609416E+03  0.42583039594E+03  0.00000000000E+00 0.  1.
<mgrwt>
<rscale>  0 0.15749046E+04</rscale>
<asrwt>0</asrwt>
<pdfrwt beam="1">  1        2 0.30645744E+00 0.15749046E+04</pdfrwt>
<pdfrwt beam="2">  1       -1 0.47890752E-01 0.15749046E+04</pdfrwt>
<totfact> 0.32188601E+01</totfact>
</mgrwt>
</event>
<event>
12    7  0.1698542E-007  0.1481436E+04  0.7818608E-02  0.8896892E-01
         -1   -1    0    0    0  501 -0.00000000000E+00  0.00000000000E+00  0.68934439052E+03  0.68934439052E+03  0.00000000000E+00 0.  1.
          2   -1    0    0  501    0  0.00000000000E+00 -0.00000000000E+00 -0.79592023368E+03  0.79592023368E+03  0.00000000000E+00 0. -1.
         24    2    1    2    0    0  0.23857253297E+03  0.37984081048E+03 -0.14359663195E+03  0.47792132475E+03  0.81196706490E+02 0.  0.
        254    2    1    2    0    0 -0.23857253297E+03 -0.37984081048E+03  0.37020788791E+02  0.10073432995E+04  0.90120701803E+03 0.  0.
         23    2    4    4    0    0  0.10079864601E+03 -0.54355554039E+03 -0.14254375893E+03  0.57833996466E+03  0.92441327243E+02 0.  0.
         23    2    4    4    0    0 -0.33937117898E+03  0.16371472991E+03  0.17956454772E+03  0.42900333479E+03  0.99121766258E+02 0.  0.
          4    1    3    3  502    0  0.19126913856E+03  0.35285423065E+03 -0.12782999287E+03  0.42122499751E+03  0.00000000000E+00 0. -1.
         -3    1    3    3    0  502  0.47303394413E+02  0.26986579831E+02 -0.15766639079E+02  0.56696327234E+02  0.00000000000E+00 0.  1.
         13    1    5    5    0    0 -0.75632674765E+01 -0.86889694859E+01 -0.13140168341E+02  0.17474702563E+02  0.00000000000E+00 0. -1.
        -13    1    5    5    0    0  0.10836191349E+03 -0.53486657091E+03 -0.12940359059E+03  0.56086526210E+03  0.00000000000E+00 0.  1.
          3    1    6    6  503    0  0.52274852607E+01  0.91430920208E+01 -0.60999800243E+00  0.10549636554E+02  0.00000000000E+00 0. -1.
         -3    1    6    6    0  503 -0.34459866424E+03  0.15457163789E+03  0.18017454573E+03  0.41845369824E+03  0.00000000000E+00 0.  1.
<mgrwt>
<rscale>  0 0.14814360E+04</rscale>
<asrwt>0</asrwt>
<pdfrwt beam="1">  1        2 0.12244927E+00 0.14814360E+04</pdfrwt>
<pdfrwt beam="2">  1       -1 0.10605298E+00 0.14814360E+04</pdfrwt>
<totfact> 0.31876518E+01</totfact>
</mgrwt>
</event>
<event>
12    7  0.1698542E-007  0.2135675E+04  0.7818608E-02  0.8545689E-01
         -1   -1    0    0    0  501 -0.00000000000E+00  0.00000000000E+00  0.54164717228E+03  0.54164717228E+03  0.00000000000E+00 0.  1.
          2   -1    0    0  501    0  0.00000000000E+00 -0.00000000000E+00 -0.21052033116E+04  0.21052033116E+04  0.00000000000E+00 0. -1.
         24    2    1    2    0    0  0.17850544291E+03 -0.81965258035E+03 -0.93228041531E+03  0.12566899349E+04  0.80176518234E+02 0.  0.
        254    2    1    2    0    0 -0.17850544291E+03  0.81965258035E+03 -0.63127572400E+03  0.13901605490E+04  0.91123145611E+03 0.  0.
         23    2    4    4    0    0 -0.77529833067E+02  0.66600010710E+03  0.50024431428E+02  0.67851865825E+03  0.91203663177E+02 0.  0.
         23    2    4    4    0    0 -0.10097560985E+03  0.15365247324E+03 -0.68130015543E+03  0.71164189073E+03  0.91973488211E+02 0.  0.
          4    1    3    3  502    0  0.69714695732E+02 -0.22227347933E+03 -0.21611785169E+03  0.31776180424E+03  0.00000000000E+00 0. -1.
         -3    1    3    3    0  502  0.10879074718E+03 -0.59737910102E+03 -0.71616256363E+03  0.93892813066E+03  0.00000000000E+00 0.  1.
         13    1    5    5    0    0 -0.64641260334E+02  0.32489976655E+03 -0.12464445953E+02  0.33150220701E+03  0.00000000000E+00 0.  1.
        -13    1    5    5    0    0 -0.12888572733E+02  0.34110034056E+03  0.62488877381E+02  0.34701645124E+03  0.00000000000E+00 0. -1.
          2    1    6    6  503    0 -0.71675376913E+02  0.95760380833E+02 -0.27073345997E+03  0.29597975697E+03  0.00000000000E+00 0. -1.
         -2    1    6    6    0  503 -0.29300232932E+02  0.57892092408E+02 -0.41056669547E+03  0.41566213376E+03  0.00000000000E+00 0.  1.
<mgrwt>
<rscale>  0 0.21356755E+04</rscale>
<asrwt>0</asrwt>
<pdfrwt beam="1">  1        2 0.32387743E+00 0.21356755E+04</pdfrwt>
<pdfrwt beam="2">  1       -1 0.83330335E-01 0.21356755E+04</pdfrwt>
<totfact> 0.87239712E+00</totfact>
</mgrwt>
</event>
<event>
12    7  0.1698542E-007  0.1666325E+04  0.7818608E-02  0.8780807E-01
          2   -1    0    0  501    0  0.00000000000E+00  0.00000000000E+00  0.10678900697E+04  0.10678900697E+04  0.00000000000E+00 0. -1.
         -1   -1    0    0    0  501 -0.00000000000E+00 -0.00000000000E+00 -0.65002915188E+03  0.65002915188E+03  0.00000000000E+00 0.  1.
         24    2    1    2    0    0 -0.32907088158E+03 -0.18033428904E+03 -0.32304074809E+03  0.50101399823E+03  0.76495755306E+02 0.  0.
        254    2    1    2    0    0  0.32907088158E+03  0.18033428904E+03  0.74090166594E+03  0.12169052234E+04  0.88944642514E+03 0.  0.
         23    2    4    4    0    0  0.58727780235E+03  0.32001862999E+02  0.67609266947E+03  0.90047192193E+03  0.88481908323E+02 0.  0.
         23    2    4    4    0    0 -0.25820692077E+03  0.14833242604E+03  0.64808996471E+02  0.31643330145E+03  0.85185126035E+02 0.  0.
          4    1    3    3  502    0 -0.26116096226E+02 -0.25610157964E+02 -0.81702414073E+01  0.37479107749E+02  0.00000000000E+00 0. -1.
         -3    1    3    3    0  502 -0.30295478536E+03 -0.15472413108E+03 -0.31487050669E+03  0.46353489048E+03  0.00000000000E+00 0.  1.
         13    1    5    5    0    0  0.45198861548E+03  0.60859683455E+02  0.53189790471E+03  0.70065183267E+03  0.00000000000E+00 0.  1.
        -13    1    5    5    0    0  0.13528918687E+03 -0.28857820456E+02  0.14419476476E+03  0.19982008926E+03  0.00000000000E+00 0. -1.
          4    1    6    6  503    0  0.92141507460E+00 -0.73400625646E+01  0.22730969514E+01  0.77390240950E+01  0.00000000000E+00 0. -1.
         -4    1    6    6    0  503 -0.25912833584E+03  0.15567248861E+03  0.62535899519E+02  0.30869427736E+03  0.00000000000E+00 0.  1.
<mgrwt>
<rscale>  0 0.16663249E+04</rscale>
<asrwt>0</asrwt>
<pdfrwt beam="1">  1        2 0.16429078E+00 0.16663249E+04</pdfrwt>
<pdfrwt beam="2">  1       -1 0.10000448E+00 0.16663249E+04</pdfrwt>
<totfact> 0.23662786E+01</totfact>
</mgrwt>
</event>
<event>
12    7  0.1698542E-007  0.1766756E+04  0.7818608E-02  0.8724180E-01
         -1   -1    0    0    0  501 -0.00000000000E+00  0.00000000000E+00  0.26955297692E+03  0.26955297692E+03  0.00000000000E+00 0.  1.
          2   -1    0    0  501    0  0.00000000000E+00 -0.00000000000E+00 -0.28950046830E+04  0.28950046830E+04  0.00000000000E+00 0. -1.
         24    2    1    2    0    0  0.31451713535E+02  0.20885166534E+03  0.11974651565E+03  0.25802582025E+03  0.87349112771E+02 0.  0.
        254    2    1    2    0    0 -0.31451713535E+02 -0.20885166534E+03 -0.27451982217E+04  0.29065318397E+04  0.93123886838E+03 0.  0.
         23    2    4    4    0    0  0.20390146328E+03 -0.23745356942E+03 -0.28472081490E+03  0.43296580513E+03  0.91833771624E+02 0.  0.
         23    2    4    4    0    0 -0.23535317682E+03  0.28601904079E+02 -0.24604774068E+04  0.24735660345E+04  0.91491370777E+02 0.  0.
          4    1    3    3  502    0  0.10100323058E+02  0.33023953557E+02 -0.12770886545E+02  0.36819744398E+02  0.00000000000E+00 0. -1.
         -1    1    3    3    0  502  0.21351390478E+02  0.17582771179E+03  0.13251740220E+03  0.22120607585E+03  0.00000000000E+00 0.  1.
         13    1    5    5    0    0  0.20221493071E+03 -0.18623400202E+03 -0.24194006599E+03  0.36620892568E+03  0.00000000000E+00 0. -1.
        -13    1    5    5    0    0  0.16865325710E+01 -0.51219567402E+02 -0.42780748905E+02  0.66756879450E+02  0.00000000000E+00 0.  1.
          3    1    6    6  503    0 -0.23666062494E+03  0.13062339579E+02 -0.22297377767E+04  0.22423000310E+04  0.00000000000E+00 0. -1.
         -3    1    6    6    0  503  0.13074481189E+01  0.15539564499E+02 -0.23073963011E+03  0.23126600353E+03  0.00000000000E+00 0.  1.
<mgrwt>
<rscale>  0 0.17667565E+04</rscale>
<asrwt>0</asrwt>
<pdfrwt beam="1">  1        2 0.44538535E+00 0.17667565E+04</pdfrwt>
<pdfrwt beam="2">  1       -1 0.41469688E-01 0.17667565E+04</pdfrwt>
<totfact> 0.12471786E+01</totfact>
</mgrwt>
</event>
<event>
12    7  0.1698542E-007  0.1559283E+04  0.7818608E-02  0.8845960E-01
          2   -1    0    0  501    0  0.00000000000E+00  0.00000000000E+00  0.83295553659E+03  0.83295553659E+03  0.00000000000E+00 0. -1.
         -1   -1    0    0    0  501 -0.00000000000E+00 -0.00000000000E+00 -0.72973982473E+03  0.72973982473E+03  0.00000000000E+00 0.  1.
         24    2    1    2    0    0 -0.38051536347E+03 -0.19485212105E+03 -0.25577695695E+03  0.50483739286E+03  0.81729129547E+02 0.  0.
        254    2    1    2    0    0  0.38051536347E+03  0.19485212105E+03  0.35899266881E+03  0.10578579685E+04  0.89857022778E+03 0.  0.
         23    2    4    4    0    0 -0.10898266170E+03  0.28479351223E+03 -0.13881384871E+03  0.34800279423E+03  0.94085572931E+02 0.  0.
         23    2    4    4    0    0  0.48949802517E+03 -0.89941391188E+02  0.49780651752E+03  0.70985517422E+03  0.91571114375E+02 0.  0.
          4    1    3    3  502    0 -0.19107609727E+02 -0.35239458463E+02 -0.26306933334E+02  0.47947626882E+02  0.00000000000E+00 0. -1.
         -3    1    3    3    0  502 -0.36140775374E+03 -0.15961266258E+03 -0.22947002361E+03  0.45688976598E+03  0.00000000000E+00 0.  1.
         13    1    5    5    0    0  0.13737586122E+02  0.38298849790E+02 -0.35193827998E+02  0.53797106771E+02  0.00000000000E+00 0.  1.
        -13    1    5    5    0    0 -0.12272024782E+03  0.24649466244E+03 -0.10362002072E+03  0.29420568746E+03  0.00000000000E+00 0. -1.
          1    1    6    6  503    0  0.41474740680E+03 -0.92660875580E+02  0.45922603636E+03  0.62569161875E+03  0.00000000000E+00 0. -1.
         -1    1    6    6    0  503  0.74750618370E+02  0.27194843922E+01  0.38580481164E+02  0.84163555468E+02  0.00000000000E+00 0.  1.
<mgrwt>
<rscale>  0 0.15592829E+04</rscale>
<asrwt>0</asrwt>
<pdfrwt beam="1">  1        2 0.12814701E+00 0.15592829E+04</pdfrwt>
<pdfrwt beam="2">  1       -1 0.11226767E+00 0.15592829E+04</pdfrwt>
<totfact> 0.26055251E+01</totfact>
</mgrwt>
</event>
<event>
12    7  0.1698542E-007  0.2742273E+04  0.7818608E-02  0.8321418E-01
          2   -1    0    0  501    0  0.00000000000E+00  0.00000000000E+00  0.35566605817E+04  0.35566605817E+04  0.00000000000E+00 0. -1.
         -1   -1    0    0    0  501 -0.00000000000E+00 -0.00000000000E+00 -0.52859006653E+03  0.52859006653E+03  0.00000000000E+00 0.  1.
         24    2    1    2    0    0  0.95378188632E+03 -0.66634094479E+03  0.80435497183E+03  0.14167768743E+04  0.80991662728E+02 0.  0.
        254    2    1    2    0    0 -0.95378188632E+03  0.66634094479E+03  0.22237155433E+04  0.26684737739E+04  0.90671457646E+03 0.  0.
         23    2    4    4    0    0 -0.10409228532E+04  0.57641466492E+03  0.14416297370E+04  0.18712008029E+04  0.85568065959E+02 0.  0.
         23    2    4    4    0    0  0.87140966835E+02  0.89926279868E+02  0.78208580630E+03  0.79727297104E+03  0.91135602388E+02 0.  0.
          4    1    3    3  502    0  0.21296054770E+03 -0.18396505260E+03  0.17120647190E+03  0.32940399432E+03  0.00000000000E+00 0. -1.
         -3    1    3    3    0  502  0.74082133861E+03 -0.48237589219E+03  0.63314849993E+03  0.10873728800E+04  0.00000000000E+00 0.  1.
         13    1    5    5    0    0 -0.54661559011E+03  0.35085786566E+03  0.77502366142E+03  0.10112128960E+04  0.00000000000E+00 0. -1.
        -13    1    5    5    0    0 -0.49430726304E+03  0.22555679926E+03  0.66660607559E+03  0.85998790689E+03  0.00000000000E+00 0.  1.
          3    1    6    6  503    0  0.49593731413E+01  0.51662506837E+02  0.15011925758E+03  0.15883765766E+03  0.00000000000E+00 0. -1.
         -3    1    6    6    0  503  0.82181593693E+02  0.38263773031E+02  0.63196654872E+03  0.63843531338E+03  0.00000000000E+00 0.  1.
<mgrwt>
<rscale>  0 0.27422731E+04</rscale>
<asrwt>0</asrwt>
<pdfrwt beam="1">  1        2 0.54717853E+00 0.27422731E+04</pdfrwt>
<pdfrwt beam="2">  1       -1 0.81321551E-01 0.27422731E+04</pdfrwt>
<totfact> 0.11099459E+00</totfact>
</mgrwt>
</event>
<event>
12    7  0.1698542E-007  0.1712413E+04  0.7818608E-02  0.8754316E-01
         -1   -1    0    0    0  501 -0.00000000000E+00  0.00000000000E+00  0.28719269143E+03  0.28719269143E+03  0.00000000000E+00 0.  1.
          2   -1    0    0  501    0  0.00000000000E+00 -0.00000000000E+00 -0.25526056541E+04  0.25526056541E+04  0.00000000000E+00 0. -1.
         24    2    1    2    0    0  0.45024084022E+03  0.34675188265E+03 -0.12406841040E+04  0.13670035639E+04  0.80299536141E+02 0.  0.
        254    2    1    2    0    0 -0.45024084022E+03 -0.34675188265E+03 -0.10247288587E+04  0.14727947816E+04  0.89224523125E+03 0.  0.
         23    2    4    4    0    0  0.64436964795E+02  0.97040061282E+02 -0.69668333422E+03  0.71228793015E+03  0.91747105275E+02 0.  0.
         23    2    4    4    0    0 -0.51467780501E+03 -0.44379194393E+03 -0.32804552446E+03  0.76050685149E+03  0.94404833439E+02 0.  0.
          4    1    3    3  502    0  0.30797978748E+03  0.20918978242E+03 -0.73344921387E+03  0.82253246981E+03  0.00000000000E+00 0. -1.
         -3    1    3    3    0  502  0.14226105273E+03  0.13756210024E+03 -0.50723489011E+03  0.54447109408E+03  0.00000000000E+00 0.  1.
         13    1    5    5    0    0 -0.18884583708E+02  0.15215639118E+02 -0.22752268962E+03  0.22881153264E+03  0.00000000000E+00 0.  1.
        -13    1    5    5    0    0  0.83321548503E+02  0.81824422164E+02 -0.46916064461E+03  0.48347639751E+03  0.00000000000E+00 0. -1.
          3    1    6    6  503    0 -0.45576434458E+03 -0.41689754148E+03 -0.31877648456E+03  0.69508499120E+03  0.00000000000E+00 0. -1.
         -3    1    6    6    0  503 -0.58913460433E+02 -0.26894402455E+02 -0.92690398970E+01  0.65421860293E+02  0.00000000000E+00 0.  1.
<mgrwt>
<rscale>  0 0.17124131E+04</rscale>
<asrwt>0</asrwt>
<pdfrwt beam="1">  1        2 0.39270858E+00 0.17124131E+04</pdfrwt>
<pdfrwt beam="2">  1       -1 0.44183489E-01 0.17124131E+04</pdfrwt>
<totfact> 0.17828802E+01</totfact>
</mgrwt>
</event>
<event>
12    7  0.1698542E-007  0.1906686E+04  0.7818608E-02  0.8651535E-01
          2   -1    0    0  501    0  0.00000000000E+00  0.00000000000E+00  0.27970402713E+04  0.27970402713E+04  0.00000000000E+00 0. -1.
         -1   -1    0    0    0  501 -0.00000000000E+00 -0.00000000000E+00 -0.32493743718E+03  0.32493743718E+03  0.00000000000E+00 0.  1.
         24    2    1    2    0    0  0.30150594727E+03  0.25031321586E+03 -0.60446703795E+02  0.40447696248E+03  0.79907865054E+02 0.  0.
        254    2    1    2    0    0 -0.30150594727E+03 -0.25031321586E+03  0.25325495380E+04  0.27175007460E+04  0.90412421726E+03 0.  0.
         23    2    4    4    0    0 -0.59520837440E+03 -0.41775636230E+02  0.13697563432E+04  0.14968142073E+04  0.90565550161E+02 0.  0.
         23    2    4    4    0    0  0.29370242713E+03 -0.20853757963E+03  0.11627931948E+04  0.12206865387E+04  0.90766591398E+02 0.  0.
          4    1    3    3  502    0  0.12455037724E+03  0.98211676986E+02 -0.64178504223E+02  0.17110584552E+03  0.00000000000E+00 0. -1.
         -1    1    3    3    0  502  0.17695557003E+03  0.15210153888E+03  0.37318004288E+01  0.23337111696E+03  0.00000000000E+00 0.  1.
         13    1    5    5    0    0 -0.27390230564E+03  0.23490768532E+02  0.58816483673E+03  0.64923968179E+03  0.00000000000E+00 0. -1.
        -13    1    5    5    0    0 -0.32130606876E+03 -0.65266404762E+02  0.78159150642E+03  0.84757452553E+03  0.00000000000E+00 0.  1.
          4    1    6    6  503    0  0.18306107563E+02  0.73998570089E+01  0.94206919272E+02  0.96253909514E+02  0.00000000000E+00 0. -1.
         -4    1    6    6    0  503  0.27539631956E+03 -0.21593743664E+03  0.10685862755E+04  0.11244326292E+04  0.00000000000E+00 0.  1.
<mgrwt>
<rscale>  0 0.19066862E+04</rscale>
<asrwt>0</asrwt>
<pdfrwt beam="1">  1        2 0.43031387E+00 0.19066862E+04</pdfrwt>
<pdfrwt beam="2">  1       -1 0.49990377E-01 0.19066862E+04</pdfrwt>
<totfact> 0.99545857E+00</totfact>
</mgrwt>
</event>
<event>
12    7  0.1698542E-007  0.2062034E+04  0.7818608E-02  0.8578155E-01
         -1   -1    0    0    0  501 -0.00000000000E+00  0.00000000000E+00  0.49866963270E+03  0.49866963270E+03  0.00000000000E+00 0.  1.
          2   -1    0    0  501    0  0.00000000000E+00 -0.00000000000E+00 -0.21316635272E+04  0.21316635272E+04  0.00000000000E+00 0. -1.
         24    2    1    2    0    0 -0.12745470290E+03 -0.23324455071E+02  0.38620318583E+03  0.41504562022E+03  0.79506192336E+02 0.  0.
        254    2    1    2    0    0  0.12745470290E+03  0.23324455071E+02 -0.20191970803E+04  0.22152875397E+04  0.90197189686E+03 0.  0.
         23    2    4    4    0    0  0.73834342673E+00  0.42967744704E+03 -0.13223424967E+04  0.13934854014E+04  0.92674871571E+02 0.  0.
         23    2    4    4    0    0  0.12671635948E+03 -0.40635299197E+03 -0.69685458365E+03  0.82180213824E+03  0.92588626878E+02 0.  0.
          2    1    3    3  502    0 -0.95764778227E+02 -0.69140326692E+01  0.35462641814E+03  0.36739432908E+03  0.00000000000E+00 0. -1.
         -1    1    3    3    0  502 -0.31689924677E+02 -0.16410422402E+02  0.31576767691E+02  0.47651291139E+02  0.00000000000E+00 0.  1.
         13    1    5    5    0    0  0.33052999315E+01  0.37620663115E+03 -0.12350925451E+04  0.12911219731E+04  0.00000000000E+00 0.  1.
        -13    1    5    5    0    0 -0.25669565047E+01  0.53470815897E+02 -0.87249951543E+02  0.10236342835E+03  0.00000000000E+00 0. -1.
          1    1    6    6  503    0  0.29854163881E+02 -0.23721474280E+03 -0.41873973195E+03  0.48218779372E+03  0.00000000000E+00 0. -1.
         -1    1    6    6    0  503  0.96862195596E+02 -0.16913824918E+03 -0.27811485170E+03  0.33961434452E+03  0.00000000000E+00 0.  1.
<mgrwt>
<rscale>  0 0.20620338E+04</rscale>
<asrwt>0</asrwt>
<pdfrwt beam="1">  1        2 0.32794824E+00 0.20620338E+04</pdfrwt>
<pdfrwt beam="2">  1       -1 0.76718405E-01 0.20620338E+04</pdfrwt>
<totfact> 0.10119166E+01</totfact>
</mgrwt>
</event>
<event>
12    7  0.1698542E-007  0.1843567E+04  0.7818608E-02  0.8683468E-01
         -3   -1    0    0    0  501 -0.00000000000E+00  0.00000000000E+00  0.30719283066E+04  0.30719283066E+04  0.00000000000E+00 0.  1.
          4   -1    0    0  501    0  0.00000000000E+00 -0.00000000000E+00 -0.27659661350E+03  0.27659661350E+03  0.00000000000E+00 0. -1.
         24    2    1    2    0    0  0.18539424881E+03 -0.59301755430E+03  0.16492514252E+04  0.17642259487E+04  0.80137925681E+02 0.  0.
        254    2    1    2    0    0 -0.18539424881E+03  0.59301755430E+03  0.11460802678E+04  0.15842989714E+04  0.90025685403E+03 0.  0.
         23    2    4    4    0    0 -0.70907393507E+02  0.64481561381E+03  0.12365522703E+04  0.13992093708E+04  0.88939933952E+02 0.  0.
         23    2    4    4    0    0 -0.11448685530E+03 -0.51798059510E+02 -0.90472002416E+02  0.18508960065E+03  0.10140363918E+03 0.  0.
          4    1    3    3  502    0  0.33178359215E+02 -0.37537780109E+02  0.15027284301E+03  0.15840396398E+03  0.00000000000E+00 0. -1.
         -3    1    3    3    0  502  0.15221588960E+03 -0.55547977419E+03  0.14989785822E+04  0.16058219847E+04  0.00000000000E+00 0.  1.
         13    1    5    5    0    0 -0.63478090503E+02  0.22098576271E+03  0.47144179883E+03  0.52452029987E+03  0.00000000000E+00 0. -1.
        -13    1    5    5    0    0 -0.74293030040E+01  0.42382985110E+03  0.76511047143E+03  0.87468907088E+03  0.00000000000E+00 0.  1.
          2    1    6    6  503    0 -0.91875982068E+02 -0.54738722748E+02 -0.11119480133E+03  0.15427834485E+03  0.00000000000E+00 0.  1.
         -2    1    6    6    0  503 -0.22610873236E+02  0.29406632376E+01  0.20722798911E+02  0.30811255792E+02  0.00000000000E+00 0. -1.
<mgrwt>
<rscale>  0 0.18435672E+04</rscale>
<asrwt>0</asrwt>
<pdfrwt beam="1">  1        4 0.42553327E-01 0.18435672E+04</pdfrwt>
<pdfrwt beam="2">  1       -3 0.47260433E+00 0.18435672E+04</pdfrwt>
<totfact> 0.49677016E-02</totfact>
</mgrwt>
</event>
<event>
12    7  0.1698542E-007  0.1220757E+04  0.7818608E-02  0.9094879E-01
         -3   -1    0    0    0  501 -0.00000000000E+00  0.00000000000E+00  0.29539033597E+03  0.29539033597E+03  0.00000000000E+00 0.  1.
          2   -1    0    0  501    0  0.00000000000E+00 -0.00000000000E+00 -0.12612534268E+04  0.12612534268E+04  0.00000000000E+00 0. -1.
         24    2    1    2    0    0  0.52848599351E+02 -0.10493195234E+03 -0.62650745930E+03  0.64259475089E+03  0.81318683251E+02 0.  0.
        254    2    1    2    0    0 -0.52848599351E+02  0.10493195234E+03 -0.33935563151E+03  0.91404901186E+03  0.84054723982E+03 0.  0.
         23    2    4    4    0    0  0.33220075168E+03  0.15584206009E+03  0.13202420218E+02  0.38129323435E+03  0.10279172898E+03 0.  0.
         23    2    4    4    0    0 -0.38504935104E+03 -0.50910107755E+02 -0.35255805173E+03  0.53275577751E+03  0.93148788668E+02 0.  0.
          4    1    3    3  502    0  0.31138684056E+01 -0.50835654715E+02 -0.42622113446E+03  0.42925332314E+03  0.00000000000E+00 0. -1.
         -3    1    3    3    0  502  0.49734730946E+02 -0.54096297625E+02 -0.20028632484E+03  0.21334142776E+03  0.00000000000E+00 0.  1.
         13    1    5    5    0    0  0.66246849214E+01  0.17357645790E+02  0.20166474816E+02  0.27420084321E+02  0.00000000000E+00 0.  1.
        -13    1    5    5    0    0  0.32557606676E+03  0.13848441431E+03 -0.69640545977E+01  0.35387315003E+03  0.00000000000E+00 0. -1.
          3    1    6    6  503    0 -0.30435128281E+03 -0.22727493801E+02 -0.31740498989E+03  0.44033188611E+03  0.00000000000E+00 0. -1.
         -3    1    6    6    0  503 -0.80698068225E+02 -0.28182613953E+02 -0.35153061839E+02  0.92423891398E+02  0.00000000000E+00 0.  1.
<mgrwt>
<rscale>  0 0.12207573E+04</rscale>
<asrwt>0</asrwt>
<pdfrwt beam="1">  1        2 0.19403899E+00 0.12207573E+04</pdfrwt>
<pdfrwt beam="2">  1       -3 0.45444667E-01 0.12207573E+04</pdfrwt>
<totfact> 0.52890741E+01</totfact>
</mgrwt>
</event>
<event>
12    7  0.1698542E-007  0.2115785E+04  0.7818608E-02  0.8554322E-01
          2   -1    0    0  501    0  0.00000000000E+00  0.00000000000E+00  0.22582863305E+04  0.22582863305E+04  0.00000000000E+00 0. -1.
         -1   -1    0    0    0  501 -0.00000000000E+00 -0.00000000000E+00 -0.49556907303E+03  0.49556907303E+03  0.00000000000E+00 0.  1.
         24    2    1    2    0    0 -0.45846097357E+03  0.70274039669E+03  0.98729138681E+03  0.12981221158E+04  0.79663138467E+02 0.  0.
        254    2    1    2    0    0  0.45846097357E+03 -0.70274039669E+03  0.77542587071E+03  0.14557332878E+04  0.90213280329E+03 0.  0.
         23    2    4    4    0    0 -0.22185686021E+03 -0.27587309169E+03  0.48539578376E+02  0.36858386995E+03  0.90396622600E+02 0.  0.
         23    2    4    4    0    0  0.68031783378E+03 -0.42686730500E+03  0.72688629233E+03  0.10871494178E+04  0.92098445573E+02 0.  0.
          2    1    3    3  502    0 -0.45571626019E+03  0.67184745339E+03  0.95134410600E+03  0.12506446012E+04  0.00000000000E+00 0. -1.
         -1    1    3    3    0  502 -0.27447133829E+01  0.30892943301E+02  0.35947280806E+02  0.47477514622E+02  0.00000000000E+00 0.  1.
         13    1    5    5    0    0 -0.10684128839E+02  0.39904713238E+01 -0.73397634510E+01  0.13562691398E+02  0.00000000000E+00 0.  1.
        -13    1    5    5    0    0 -0.21117273137E+03 -0.27986356302E+03  0.55879341827E+02  0.35502117856E+03  0.00000000000E+00 0. -1.
          2    1    6    6  503    0  0.39755396556E+03 -0.30157694478E+03  0.45844941067E+03  0.67762354689E+03  0.00000000000E+00 0. -1.
         -2    1    6    6    0  503  0.28276386822E+03 -0.12529036021E+03  0.26843688166E+03  0.40952587094E+03  0.00000000000E+00 0.  1.
<mgrwt>
<rscale>  0 0.21157853E+04</rscale>
<asrwt>0</asrwt>
<pdfrwt beam="1">  1        2 0.34742866E+00 0.21157853E+04</pdfrwt>
<pdfrwt beam="2">  1       -1 0.76241397E-01 0.21157853E+04</pdfrwt>
<totfact> 0.86622953E+00</totfact>
</mgrwt>
</event>
<event>
12    7  0.1698542E-007  0.2501778E+04  0.7818608E-02  0.8402352E-01
          2   -1    0    0  501    0  0.00000000000E+00  0.00000000000E+00  0.16921856426E+04  0.16921856426E+04  0.00000000000E+00 0. -1.
         -1   -1    0    0    0  501 -0.00000000000E+00 -0.00000000000E+00 -0.92467607267E+03  0.92467607267E+03  0.00000000000E+00 0.  1.
         24    2    1    2    0    0 -0.42616229379E+03  0.61467231769E+03  0.11498807898E+04  0.13740465291E+04  0.79634631962E+02 0.  0.
        254    2    1    2    0    0  0.42616229379E+03 -0.61467231769E+03 -0.38237121993E+03  0.12428151861E+04  0.91593966952E+03 0.  0.
         23    2    4    4    0    0 -0.74646549679E+02 -0.40447126524E+03  0.17685885692E+03  0.45731065434E+03  0.93192636624E+02 0.  0.
         23    2    4    4    0    0  0.50080884347E+03 -0.21020105245E+03 -0.55923007685E+03  0.78550453176E+03  0.96359277802E+02 0.  0.
          4    1    3    3  502    0 -0.37930647829E+03  0.53129598940E+03  0.10446706854E+04  0.12318626846E+04  0.00000000000E+00 0. -1.
         -3    1    3    3    0  502 -0.46855815502E+02  0.83376328290E+02  0.10521010444E+03  0.14218384452E+03  0.00000000000E+00 0.  1.
         13    1    5    5    0    0 -0.74640901940E+02 -0.40254796739E+03  0.18476740511E+03  0.44917159782E+03  0.00000000000E+00 0.  1.
        -13    1    5    5    0    0 -0.56477386652E-02 -0.19232978448E+01 -0.79085481958E+01  0.81390565216E+01  0.00000000000E+00 0. -1.
          3    1    6    6  503    0  0.69902899119E+02 -0.58422464148E+02 -0.61642485433E+02  0.10999725284E+03  0.00000000000E+00 0. -1.
         -3    1    6    6    0  503  0.43090594435E+03 -0.15177858830E+03 -0.49758759142E+03  0.67550727892E+03  0.00000000000E+00 0.  1.
<mgrwt>
<rscale>  0 0.25017782E+04</rscale>
<asrwt>0</asrwt>
<pdfrwt beam="1">  1        2 0.26033625E+00 0.25017782E+04</pdfrwt>
<pdfrwt beam="2">  1       -1 0.14225786E+00 0.25017782E+04</pdfrwt>
<totfact> 0.40420068E+00</totfact>
</mgrwt>
</event>
<event>
12    7  0.1698542E-007  0.1185418E+04  0.7818608E-02  0.9125717E-01
          2   -1    0    0  501    0  0.00000000000E+00  0.00000000000E+00  0.88648965521E+03  0.88648965521E+03  0.00000000000E+00 0. -1.
         -1   -1    0    0    0  501 -0.00000000000E+00 -0.00000000000E+00 -0.39628627933E+03  0.39628627933E+03  0.00000000000E+00 0.  1.
         24    2    1    2    0    0  0.20212004929E+03  0.33769738583E+02  0.23592482136E+03  0.32295012260E+03  0.81506752993E+02 0.  0.
        254    2    1    2    0    0 -0.20212004929E+03 -0.33769738583E+02  0.25427855453E+03  0.95982581194E+03  0.90256030071E+03 0.  0.
         23    2    4    4    0    0  0.24938619211E+02 -0.34118530270E+03  0.40593734155E+03  0.53891558267E+03  0.92819903453E+02 0.  0.
         23    2    4    4    0    0 -0.22705866850E+03  0.30741556411E+03 -0.15165878703E+03  0.42091022927E+03  0.90028136825E+02 0.  0.
          2    1    3    3  502    0  0.14163359797E+03  0.21582947944E+02  0.21387528823E+03  0.25742676362E+03  0.00000000000E+00 0. -1.
         -1    1    3    3    0  502  0.60486451323E+02  0.12186790639E+02  0.22049533127E+02  0.65523358971E+02  0.00000000000E+00 0.  1.
         13    1    5    5    0    0 -0.42808632531E+01 -0.10404553813E+02  0.53548706209E+02  0.54717862412E+02  0.00000000000E+00 0.  1.
        -13    1    5    5    0    0  0.29219482464E+02 -0.33078074888E+03  0.35238863534E+03  0.48419772026E+03  0.00000000000E+00 0. -1.
          2    1    6    6  503    0 -0.18715335475E+03  0.29757717750E+03 -0.13550444436E+03  0.37674926570E+03  0.00000000000E+00 0. -1.
         -2    1    6    6    0  503 -0.39905313746E+02  0.98383866151E+01 -0.16154342670E+02  0.44160963571E+02  0.00000000000E+00 0.  1.
<mgrwt>
<rscale>  0 0.11854175E+04</rscale>
<asrwt>0</asrwt>
<pdfrwt beam="1">  1        2 0.13638302E+00 0.11854175E+04</pdfrwt>
<pdfrwt beam="2">  1       -1 0.60967120E-01 0.11854175E+04</pdfrwt>
<totfact> 0.92107511E+01</totfact>
</mgrwt>
</event>
<event>
12    7  0.1698542E-007  0.1603678E+04  0.7818608E-02  0.8818292E-01
          2   -1    0    0  501    0  0.00000000000E+00  0.00000000000E+00  0.25063573802E+04  0.25063573802E+04  0.00000000000E+00 0. -1.
         -1   -1    0    0    0  501 -0.00000000000E+00 -0.00000000000E+00 -0.25652585845E+03  0.25652585845E+03  0.00000000000E+00 0.  1.
         24    2    1    2    0    0 -0.71387614843E+02 -0.51174341689E+03  0.43146757473E+03  0.67796795889E+03  0.80614942511E+02 0.  0.
        254    2    1    2    0    0  0.71387614843E+02  0.51174341689E+03  0.18183639471E+04  0.20849152798E+04  0.87945822169E+03 0.  0.
         23    2    4    4    0    0  0.17366388614E+03  0.16384315764E+03  0.16594627045E+04  0.16790105972E+04  0.90864690800E+02 0.  0.
         23    2    4    4    0    0 -0.10227627129E+03  0.34790025925E+03  0.15890124250E+03  0.40590468260E+03  0.89520837977E+02 0.  0.
          2    1    3    3  502    0 -0.32681452808E+02 -0.41641255714E+03  0.37074076605E+03  0.55849459327E+03  0.00000000000E+00 0. -1.
         -1    1    3    3    0  502 -0.38706162036E+02 -0.95330859753E+02  0.60726808683E+02  0.11947336562E+03  0.00000000000E+00 0.  1.
         13    1    5    5    0    0  0.58212996912E+02  0.80004060647E+02  0.96388985219E+03  0.96895461704E+03  0.00000000000E+00 0.  1.
        -13    1    5    5    0    0  0.11545088922E+03  0.83839096992E+02  0.69557285236E+03  0.71005598015E+03  0.00000000000E+00 0. -1.
          4    1    6    6  503    0 -0.32264170738E+02  0.23601519199E+03  0.75984104447E+02  0.25003546087E+03  0.00000000000E+00 0.  1.
         -4    1    6    6    0  503 -0.70012100555E+02  0.11188506726E+03  0.82917138056E+02  0.15586922173E+03  0.00000000000E+00 0. -1.
<mgrwt>
<rscale>  0 0.16036776E+04</rscale>
<asrwt>0</asrwt>
<pdfrwt beam="1">  1        2 0.38559343E+00 0.16036776E+04</pdfrwt>
<pdfrwt beam="2">  1       -1 0.39465518E-01 0.16036776E+04</pdfrwt>
<totfact> 0.23575670E+01</totfact>
</mgrwt>
</event>
<event>
12    7  0.1698542E-007  0.2080624E+04  0.7818608E-02  0.8569827E-01
          2   -1    0    0  501    0  0.00000000000E+00  0.00000000000E+00  0.88070309128E+03  0.88070309128E+03  0.00000000000E+00 0. -1.
         -1   -1    0    0    0  501 -0.00000000000E+00 -0.00000000000E+00 -0.12288461389E+04  0.12288461389E+04  0.00000000000E+00 0.  1.
         24    2    1    2    0    0 -0.50386532155E+01 -0.73631133638E+03  0.27028158734E+03  0.78841520141E+03  0.79791110029E+02 0.  0.
        254    2    1    2    0    0  0.50386532155E+01  0.73631133638E+03 -0.61842463500E+03  0.13211340288E+04  0.90596154489E+03 0.  0.
         23    2    4    4    0    0 -0.14776702252E+03  0.58479018170E+03 -0.81287928533E+03  0.10170762817E+04  0.99281321563E+02 0.  0.
         23    2    4    4    0    0  0.15280567573E+03  0.15152115468E+03  0.19445465034E+03  0.30405774707E+03  0.91270300011E+02 0.  0.
          2    1    3    3  502    0 -0.15886401060E+02 -0.47700262566E+03  0.21296507842E+03  0.52262606828E+03  0.00000000000E+00 0. -1.
         -1    1    3    3    0  502  0.10847747845E+02 -0.25930871073E+03  0.57316508924E+02  0.26578913312E+03  0.00000000000E+00 0.  1.
         13    1    5    5    0    0 -0.97794915704E+02  0.41525113923E+03 -0.64490730366E+03  0.77324173742E+03  0.00000000000E+00 0.  1.
        -13    1    5    5    0    0 -0.49972106813E+02  0.16953904247E+03 -0.16797198167E+03  0.24383454433E+03  0.00000000000E+00 0. -1.
          3    1    6    6  503    0 -0.74566043899E+01  0.33096059321E+02  0.21226415390E+02  0.40018880568E+02  0.00000000000E+00 0. -1.
         -3    1    6    6    0  503  0.16026228012E+03  0.11842509536E+03  0.17322823495E+03  0.26403886650E+03  0.00000000000E+00 0.  1.
<mgrwt>
<rscale>  0 0.20806236E+04</rscale>
<asrwt>0</asrwt>
<pdfrwt beam="1">  1        2 0.13549278E+00 0.20806236E+04</pdfrwt>
<pdfrwt beam="2">  1       -1 0.18905325E+00 0.20806236E+04</pdfrwt>
<totfact> 0.57104285E+00</totfact>
</mgrwt>
</event>
<event>
12    7  0.1698542E-007  0.2114385E+04  0.7818608E-02  0.8554933E-01
          2   -1    0    0  501    0  0.00000000000E+00  0.00000000000E+00  0.67881522581E+03  0.67881522581E+03  0.00000000000E+00 0. -1.
         -1   -1    0    0    0  501 -0.00000000000E+00 -0.00000000000E+00 -0.16464808966E+04  0.16464808966E+04  0.00000000000E+00 0.  1.
         24    2    1    2    0    0  0.28432233685E+03  0.78951394228E+03 -0.19898521900E+03  0.86579677428E+03  0.76403407581E+02 0.  0.
        254    2    1    2    0    0 -0.28432233685E+03 -0.78951394228E+03 -0.76868045181E+03  0.14594993482E+04  0.91383655759E+03 0.  0.
         23    2    4    4    0    0 -0.49708262798E+03 -0.22928598017E+03 -0.11269261722E+03  0.56644977252E+03  0.92209105143E+02 0.  0.
         23    2    4    4    0    0  0.21276029113E+03 -0.56022796211E+03 -0.65598783460E+03  0.89304957563E+03  0.89973298200E+02 0.  0.
          4    1    3    3  502    0  0.74544337243E+02  0.14095557049E+03 -0.17510002544E+02  0.16041175535E+03  0.00000000000E+00 0. -1.
         -3    1    3    3    0  502  0.20977799961E+03  0.64855837179E+03 -0.18147521645E+03  0.70538501893E+03  0.00000000000E+00 0.  1.
         13    1    5    5    0    0 -0.48594377373E+03 -0.23683587654E+03 -0.11529600088E+03  0.55274383892E+03  0.00000000000E+00 0. -1.
        -13    1    5    5    0    0 -0.11138854255E+02  0.75498963758E+01  0.26033836685E+01  0.13705933603E+02  0.00000000000E+00 0.  1.
          3    1    6    6  503    0  0.20025241663E+03 -0.52814548589E+03 -0.64395642483E+03  0.85657373396E+03  0.00000000000E+00 0. -1.
         -3    1    6    6    0  503  0.12507874504E+02 -0.32082476217E+02 -0.12031409772E+02  0.36475841676E+02  0.00000000000E+00 0.  1.
<mgrwt>
<rscale>  0 0.21143853E+04</rscale>
<asrwt>0</asrwt>
<pdfrwt beam="1">  1        2 0.10443311E+00 0.21143853E+04</pdfrwt>
<pdfrwt beam="2">  1       -1 0.25330475E+00 0.21143853E+04</pdfrwt>
<totfact> 0.29688119E+00</totfact>
</mgrwt>
</event>
<event>
12    7  0.1698542E-007  0.1853177E+04  0.7818608E-02  0.8678521E-01
          2   -1    0    0  501    0  0.00000000000E+00  0.00000000000E+00  0.30023287636E+04  0.30023287636E+04  0.00000000000E+00 0. -1.
         -1   -1    0    0    0  501 -0.00000000000E+00 -0.00000000000E+00 -0.28596670083E+03  0.28596670083E+03  0.00000000000E+00 0.  1.
         24    2    1    2    0    0  0.35839966054E+03 -0.33600866622E+03  0.19440268282E+04  0.20067552919E+04  0.80463360434E+02 0.  0.
        254    2    1    2    0    0 -0.35839966054E+03  0.33600866622E+03  0.77233523453E+03  0.12815401725E+04  0.89693442278E+03 0.  0.
         23    2    4    4    0    0 -0.12177526818E+03  0.87028305959E+02  0.89050452965E+03  0.90746018872E+03  0.89902918777E+02 0.  0.
         23    2    4    4    0    0 -0.23662439236E+03  0.24898036026E+03 -0.11816929512E+03  0.37407998377E+03  0.89384165764E+02 0.  0.
          2    1    3    3  502    0  0.28479921523E+03 -0.23547567166E+03  0.13406121630E+04  0.13906115045E+04  0.00000000000E+00 0. -1.
         -1    1    3    3    0  502  0.73600445318E+02 -0.10053299456E+03  0.60341466522E+03  0.61614378740E+03  0.00000000000E+00 0.  1.
         13    1    5    5    0    0 -0.20105190178E+02  0.12821671456E+02  0.32705824070E+02  0.40475731730E+02  0.00000000000E+00 0.  1.
        -13    1    5    5    0    0 -0.10167007800E+03  0.74206634503E+02  0.85779870558E+03  0.86698445699E+03  0.00000000000E+00 0. -1.
          3    1    6    6  503    0 -0.19986079100E+03  0.22894067549E+03 -0.13004173944E+03  0.33055865240E+03  0.00000000000E+00 0. -1.
         -3    1    6    6    0  503 -0.36763601360E+02  0.20039684763E+02  0.11872444316E+02  0.43521331372E+02  0.00000000000E+00 0.  1.
<mgrwt>
<rscale>  0 0.18531768E+04</rscale>
<asrwt>0</asrwt>
<pdfrwt beam="1">  1        2 0.46189671E+00 0.18531768E+04</pdfrwt>
<pdfrwt beam="2">  1       -1 0.43994879E-01 0.18531768E+04</pdfrwt>
<totfact> 0.95192265E+00</totfact>
</mgrwt>
</event>
<event>
12    7  0.1698542E-007  0.1452640E+04  0.7818608E-02  0.8916573E-01
         -1   -1    0    0    0  501 -0.00000000000E+00  0.00000000000E+00  0.51246516923E+03  0.51246516923E+03  0.00000000000E+00 0.  1.
          2   -1    0    0  501    0  0.00000000000E+00 -0.00000000000E+00 -0.10294171601E+04  0.10294171601E+04  0.00000000000E+00 0. -1.
         24    2    1    2    0    0 -0.18546862286E+03 -0.67518022072E+02  0.26059405284E+03  0.33651006282E+03  0.79827743507E+02 0.  0.
        254    2    1    2    0    0  0.18546862286E+03  0.67518022072E+02 -0.77754604371E+03  0.12053722665E+04  0.89965946749E+03 0.  0.
         23    2    4    4    0    0  0.25471241460E+03  0.43200532973E+03 -0.58991105715E+03  0.77941699547E+03  0.89379966487E+02 0.  0.
         23    2    4    4    0    0 -0.69243791735E+02 -0.36448730766E+03 -0.18763498656E+03  0.42595527105E+03  0.92656918894E+02 0.  0.
          4    1    3    3  502    0 -0.17701319892E+02 -0.68641398085E+01 -0.19571569475E+01  0.19086215040E+02  0.00000000000E+00 0. -1.
         -3    1    3    3    0  502 -0.16776730297E+03 -0.60653882264E+02  0.26255120978E+03  0.31742384778E+03  0.00000000000E+00 0.  1.
         13    1    5    5    0    0  0.30176362131E+02  0.19923808665E+02 -0.20583083391E+02  0.41608103839E+02  0.00000000000E+00 0.  1.
        -13    1    5    5    0    0  0.22453605247E+03  0.41208152107E+03 -0.56932797376E+03  0.73780889163E+03  0.00000000000E+00 0. -1.
          3    1    6    6  503    0 -0.26316487863E+02 -0.14908440431E+03 -0.26842443422E+02  0.15375055743E+03  0.00000000000E+00 0. -1.
         -3    1    6    6    0  503 -0.42927303872E+02 -0.21540290335E+03 -0.16079254314E+03  0.27220471362E+03  0.00000000000E+00 0.  1.
<mgrwt>
<rscale>  0 0.14526396E+04</rscale>
<asrwt>0</asrwt>
<pdfrwt beam="1">  1        2 0.15837187E+00 0.14526396E+04</pdfrwt>
<pdfrwt beam="2">  1       -1 0.78840796E-01 0.14526396E+04</pdfrwt>
<totfact> 0.42940998E+01</totfact>
</mgrwt>
</event>
<event>
12    7  0.1698542E-007  0.2120598E+04  0.7818608E-02  0.8552224E-01
         -1   -1    0    0    0  501 -0.00000000000E+00  0.00000000000E+00  0.32988386209E+03  0.32988386209E+03  0.00000000000E+00 0.  1.
          2   -1    0    0  501    0  0.00000000000E+00 -0.00000000000E+00 -0.34079684341E+04  0.34079684341E+04  0.00000000000E+00 0. -1.
         24    2    1    2    0    0 -0.60458048521E+03 -0.46199348256E+03 -0.57389615789E+03  0.95634987271E+03  0.79326779652E+02 0.  0.
        254    2    1    2    0    0  0.60458048521E+03  0.46199348256E+03 -0.25041884141E+04  0.27815024235E+04  0.94172213381E+03 0.  0.
         23    2    4    4    0    0  0.66378510227E+03  0.16359901201E+03 -0.23049241612E+04  0.24059061782E+04  0.91289924911E+02 0.  0.
         23    2    4    4    0    0 -0.59204617059E+02  0.29839447055E+03 -0.19926425288E+03  0.37559624529E+03  0.93924705307E+02 0.  0.
          4    1    3    3  502    0 -0.10334545567E+03 -0.73735167640E+02 -0.13451615527E+03  0.18496419703E+03  0.00000000000E+00 0. -1.
         -3    1    3    3    0  502 -0.50123502955E+03 -0.38825831492E+03 -0.43938000262E+03  0.77138567568E+03  0.00000000000E+00 0.  1.
         13    1    5    5    0    0  0.61612472870E+03  0.15198193628E+03 -0.22063828001E+04  0.22958295344E+04  0.00000000000E+00 0.  1.
        -13    1    5    5    0    0  0.47660373570E+02  0.11617075736E+02 -0.98541361098E+02  0.11007664377E+03  0.00000000000E+00 0. -1.
          4    1    6    6  503    0 -0.76210369256E+02  0.14692058164E+03 -0.11363709316E+03  0.20076619893E+03  0.00000000000E+00 0.  1.
         -4    1    6    6    0  503  0.17005752198E+02  0.15147388891E+03 -0.85627159720E+02  0.17483004636E+03  0.00000000000E+00 0. -1.
<mgrwt>
<rscale>  0 0.21205978E+04</rscale>
<asrwt>0</asrwt>
<pdfrwt beam="1">  1        2 0.52430284E+00 0.21205978E+04</pdfrwt>
<pdfrwt beam="2">  1       -1 0.50751363E-01 0.21205978E+04</pdfrwt>
<totfact> 0.38598161E+00</totfact>
</mgrwt>
</event>
<event>
12    7  0.1698542E-007  0.1687462E+04  0.7818608E-02  0.8768547E-01
          2   -1    0    0  501    0  0.00000000000E+00  0.00000000000E+00  0.11488897220E+04  0.11488897220E+04  0.00000000000E+00 0. -1.
         -1   -1    0    0    0  501 -0.00000000000E+00 -0.00000000000E+00 -0.61962635653E+03  0.61962635653E+03  0.00000000000E+00 0.  1.
         24    2    1    2    0    0 -0.11784401810E+03 -0.60742024813E+03  0.18998631637E+03  0.65219013506E+03  0.80066231525E+02 0.  0.
        254    2    1    2    0    0  0.11784401810E+03  0.60742024813E+03  0.33927704911E+03  0.11163259435E+04  0.86500180671E+03 0.  0.
         23    2    4    4    0    0 -0.10870507389E+03  0.51669502402E+03  0.55988904078E+03  0.77496238014E+03  0.91106595349E+02 0.  0.
         23    2    4    4    0    0  0.22654909199E+03  0.90725224105E+02 -0.22061199167E+03  0.34136356334E+03  0.91125595385E+02 0.  0.
          2    1    3    3  502    0 -0.96588465522E+02 -0.54738223840E+03  0.19309805292E+03  0.58842459553E+03  0.00000000000E+00 0. -1.
         -1    1    3    3    0  502 -0.21255552574E+02 -0.60038009729E+02 -0.31117365483E+01  0.63765539532E+02  0.00000000000E+00 0.  1.
         13    1    5    5    0    0 -0.12317977695E+03  0.43370401020E+03  0.48575245811E+03  0.66274269251E+03  0.00000000000E+00 0. -1.
        -13    1    5    5    0    0  0.14474703053E+02  0.82991013817E+02  0.74136582670E+02  0.11221968763E+03  0.00000000000E+00 0.  1.
          1    1    6    6  503    0  0.82316797827E+02  0.26800861168E+02 -0.25094102835E+02  0.90133541819E+02  0.00000000000E+00 0. -1.
         -1    1    6    6    0  503  0.14423229416E+03  0.63924362937E+02 -0.19551788884E+03  0.25123002152E+03  0.00000000000E+00 0.  1.
<mgrwt>
<rscale>  0 0.16874624E+04</rscale>
<asrwt>0</asrwt>
<pdfrwt beam="1">  1        2 0.17675226E+00 0.16874624E+04</pdfrwt>
<pdfrwt beam="2">  1       -1 0.95327132E-01 0.16874624E+04</pdfrwt>
<totfact> 0.23471578E+01</totfact>
</mgrwt>
</event>
<event>
12    7  0.1698542E-007  0.1306177E+04  0.7818608E-02  0.9024681E-01
         -1   -1    0    0    0  501 -0.00000000000E+00  0.00000000000E+00  0.14149138185E+03  0.14149138185E+03  0.00000000000E+00 0.  1.
          2   -1    0    0  501    0  0.00000000000E+00 -0.00000000000E+00 -0.30144901899E+04  0.30144901899E+04  0.00000000000E+00 0. -1.
         24    2    1    2    0    0  0.28470345343E+02  0.30933827002E+03 -0.10914017160E+04  0.11379237303E+04  0.84923403864E+02 0.  0.
        254    2    1    2    0    0 -0.28470345343E+02 -0.30933827002E+03 -0.17815970920E+04  0.20180578414E+04  0.89552695491E+03 0.  0.
         23    2    4    4    0    0  0.37583720418E+03 -0.18355324580E+03 -0.13072141677E+04  0.13758141268E+04  0.95447540842E+02 0.  0.
         23    2    4    4    0    0 -0.40430754953E+03 -0.12578502422E+03 -0.47438292433E+03  0.64224371463E+03  0.90284899951E+02 0.  0.
          2    1    3    3  502    0  0.33097714688E+02  0.15327799664E+03 -0.41248913330E+03  0.44129002715E+03  0.00000000000E+00 0. -1.
         -3    1    3    3    0  502 -0.46273693445E+01  0.15606027338E+03 -0.67891258269E+03  0.69663370319E+03  0.00000000000E+00 0.  1.
         13    1    5    5    0    0  0.35140647198E+03 -0.14262716362E+03 -0.11131025530E+04  0.11759363545E+04  0.00000000000E+00 0. -1.
        -13    1    5    5    0    0  0.24430732206E+02 -0.40926082178E+02 -0.19411161471E+03  0.19987777226E+03  0.00000000000E+00 0.  1.
          2    1    6    6  503    0 -0.14434752759E+03 -0.90808481831E+02 -0.19376875339E+03  0.25812539373E+03  0.00000000000E+00 0. -1.
         -2    1    6    6    0  503 -0.25996002193E+03 -0.34976542391E+02 -0.28061417094E+03  0.38411832090E+03  0.00000000000E+00 0.  1.
<mgrwt>
<rscale>  0 0.13061767E+04</rscale>
<asrwt>0</asrwt>
<pdfrwt beam="1">  1        2 0.46376771E+00 0.13061767E+04</pdfrwt>
<pdfrwt beam="2">  1       -1 0.21767906E-01 0.13061767E+04</pdfrwt>
<totfact> 0.34133004E+01</totfact>
</mgrwt>
</event>
<event>
12    7  0.1698542E-007  0.2335072E+04  0.7818608E-02  0.8464220E-01
         -1   -1    0    0    0  501 -0.00000000000E+00  0.00000000000E+00  0.80648096567E+03  0.80648096567E+03  0.00000000000E+00 0.  1.
          2   -1    0    0  501    0  0.00000000000E+00 -0.00000000000E+00 -0.16902331878E+04  0.16902331878E+04  0.00000000000E+00 0. -1.
         24    2    1    2    0    0  0.94845385253E+03 -0.14936991519E+03 -0.65947687799E+03  0.11674162613E+04  0.77941596695E+02 0.  0.
        254    2    1    2    0    0 -0.94845385253E+03  0.14936991519E+03 -0.22427534409E+03  0.13292978922E+04  0.89154774086E+03 0.  0.
         23    2    4    4    0    0 -0.38858887001E+03  0.44213791679E+03 -0.33201001204E+03  0.68181265648E+03  0.90280690534E+02 0.  0.
         23    2    4    4    0    0 -0.55986498251E+03 -0.29276800159E+03  0.10773466795E+03  0.64748523569E+03  0.92024292223E+02 0.  0.
          4    1    3    3  502    0  0.48023312625E+03 -0.78075538298E+02 -0.28701352825E+03  0.56488619263E+03  0.00000000000E+00 0. -1.
         -3    1    3    3    0  502  0.46822072628E+03 -0.71294376896E+02 -0.37246334974E+03  0.60253006862E+03  0.00000000000E+00 0.  1.
         13    1    5    5    0    0 -0.14717096461E+03  0.12707873079E+03 -0.14774834012E+03  0.24420865802E+03  0.00000000000E+00 0. -1.
        -13    1    5    5    0    0 -0.24141790540E+03  0.31505918600E+03 -0.18426167192E+03  0.43760399846E+03  0.00000000000E+00 0.  1.
          4    1    6    6  503    0 -0.12088766626E+03 -0.10728211279E+03  0.19029821171E+02  0.16274339824E+03  0.00000000000E+00 0. -1.
         -4    1    6    6    0  503 -0.43897731626E+03 -0.18548588881E+03  0.88704846778E+02  0.48474183745E+03  0.00000000000E+00 0.  1.
<mgrwt>
<rscale>  0 0.23350725E+04</rscale>
<asrwt>0</asrwt>
<pdfrwt beam="1">  1        2 0.26003587E+00 0.23350725E+04</pdfrwt>
<pdfrwt beam="2">  1       -1 0.12407400E+00 0.23350725E+04</pdfrwt>
<totfact> 0.58275347E+00</totfact>
</mgrwt>
</event>
<event>
12    7  0.1698542E-007  0.3284471E+04  0.7818608E-02  0.8166858E-01
         -3   -1    0    0    0  501 -0.00000000000E+00  0.00000000000E+00  0.17623145411E+04  0.17623145411E+04  0.00000000000E+00 0.  1.
          2   -1    0    0  501    0  0.00000000000E+00 -0.00000000000E+00 -0.15303387598E+04  0.15303387598E+04  0.00000000000E+00 0. -1.
         24    2    1    2    0    0 -0.88037598816E+03 -0.12081359089E+04 -0.15416050169E+03  0.15049419027E+04  0.80189870907E+02 0.  0.
        254    2    1    2    0    0  0.88037598816E+03  0.12081359089E+04  0.38613628305E+03  0.17877113982E+04  0.90119729217E+03 0.  0.
         23    2    4    4    0    0  0.46257349701E+03  0.17443750485E+03  0.44023565550E+03  0.66803797586E+03  0.89803238142E+02 0.  0.
         23    2    4    4    0    0  0.41780249115E+03  0.10336984040E+04 -0.54099372447E+02  0.11196734224E+04  0.87467242864E+02 0.  0.
          2    1    3    3  502    0 -0.25588050271E+03 -0.37907020985E+03 -0.13951904335E+02  0.45756279492E+03  0.00000000000E+00 0. -1.
         -1    1    3    3    0  502 -0.62449548545E+03 -0.82906569901E+03 -0.14020859736E+03  0.10473791078E+04  0.00000000000E+00 0.  1.
         13    1    5    5    0    0  0.21661982679E+03  0.69131008770E+02  0.26020536529E+03  0.34555763320E+03  0.00000000000E+00 0. -1.
        -13    1    5    5    0    0  0.24595367022E+03  0.10530649609E+03  0.18003029020E+03  0.32248034266E+03  0.00000000000E+00 0.  1.
          2    1    6    6  503    0  0.12963159264E+03  0.22257971364E+03 -0.12080940697E+02  0.25786048138E+03  0.00000000000E+00 0. -1.
         -2    1    6    6    0  503  0.28817089851E+03  0.81111869038E+03 -0.42018431750E+02  0.86181294098E+03  0.00000000000E+00 0.  1.
<mgrwt>
<rscale>  0 0.32844715E+04</rscale>
<asrwt>0</asrwt>
<pdfrwt beam="1">  1        2 0.23543673E+00 0.32844715E+04</pdfrwt>
<pdfrwt beam="2">  1       -3 0.27112531E+00 0.32844715E+04</pdfrwt>
<totfact> 0.35471785E-01</totfact>
</mgrwt>
</event>
<event>
12    7  0.1698542E-007  0.1622850E+04  0.7818608E-02  0.8806632E-01
         -1   -1    0    0    0  501 -0.00000000000E+00  0.00000000000E+00  0.68557358940E+03  0.68557358940E+03  0.00000000000E+00 0.  1.
          2   -1    0    0  501    0  0.00000000000E+00 -0.00000000000E+00 -0.96037874397E+03  0.96037874397E+03  0.00000000000E+00 0. -1.
         24    2    1    2    0    0  0.62778673864E+02  0.48307952862E+03  0.18265692350E+03  0.52643874294E+03  0.80418937483E+02 0.  0.
        254    2    1    2    0    0 -0.62778673864E+02 -0.48307952862E+03 -0.45746207807E+03  0.11195135904E+04  0.89818268376E+03 0.  0.
         23    2    4    4    0    0 -0.10508427003E+03  0.23490005379E+03 -0.23795297616E+03  0.36184554274E+03  0.89943531495E+02 0.  0.
         23    2    4    4    0    0  0.42305596161E+02 -0.71797958242E+03 -0.21950910191E+03  0.75766804769E+03  0.92694015083E+02 0.  0.
          4    1    3    3  502    0 -0.77132953312E+01  0.66881140517E+02  0.50331466743E+02  0.84058541661E+02  0.00000000000E+00 0. -1.
         -3    1    3    3    0  502  0.70491969195E+02  0.41619838811E+03  0.13232545675E+03  0.44238020128E+03  0.00000000000E+00 0.  1.
         13    1    5    5    0    0 -0.10176588982E+03  0.21185110653E+03 -0.24295254692E+03  0.33802829426E+03  0.00000000000E+00 0.  1.
        -13    1    5    5    0    0 -0.33183802041E+01  0.23048947261E+02  0.49995707596E+01  0.23817248472E+02  0.00000000000E+00 0. -1.
          1    1    6    6  503    0  0.62270577868E+01 -0.51739509944E+02 -0.42832302209E+02  0.67456350705E+02  0.00000000000E+00 0. -1.
         -1    1    6    6    0  503  0.36078538374E+02 -0.66624007247E+03 -0.17667679971E+03  0.69021169698E+03  0.00000000000E+00 0.  1.
<mgrwt>
<rscale>  0 0.16228497E+04</rscale>
<asrwt>0</asrwt>
<pdfrwt beam="1">  1        2 0.14775058E+00 0.16228497E+04</pdfrwt>
<pdfrwt beam="2">  1       -1 0.10547286E+00 0.16228497E+04</pdfrwt>
<totfact> 0.24600147E+01</totfact>
</mgrwt>
</event>
<event>
12    7  0.1698542E-007  0.1479378E+04  0.7818608E-02  0.8898283E-01
          2   -1    0    0  501    0  0.00000000000E+00  0.00000000000E+00  0.11272511222E+04  0.11272511222E+04  0.00000000000E+00 0. -1.
         -1   -1    0    0    0  501 -0.00000000000E+00 -0.00000000000E+00 -0.48537544017E+03  0.48537544017E+03  0.00000000000E+00 0.  1.
         24    2    1    2    0    0  0.10930389171E+03  0.11709505663E+03  0.66810894233E+03  0.69280262582E+03  0.89147778963E+02 0.  0.
        254    2    1    2    0    0 -0.10930389171E+03 -0.11709505663E+03 -0.26233260287E+02  0.91982393655E+03  0.90538903090E+03 0.  0.
         23    2    4    4    0    0 -0.83430128303E+02 -0.19450034374E+03  0.40725506873E+03  0.46797327893E+03  0.91385604765E+02 0.  0.
         23    2    4    4    0    0 -0.25873763412E+02  0.77405287109E+02 -0.43348832902E+03  0.45185065762E+03  0.97958436583E+02 0.  0.
          4    1    3    3  502    0  0.79814087729E+02  0.97692201811E+02  0.62236666020E+03  0.63502308196E+03  0.00000000000E+00 0. -1.
         -3    1    3    3    0  502  0.29489803986E+02  0.19402854823E+02  0.45742282128E+02  0.57779543860E+02  0.00000000000E+00 0.  1.
         13    1    5    5    0    0 -0.67696733102E+02 -0.17859132587E+03  0.40188966999E+03  0.44496406168E+03  0.00000000000E+00 0. -1.
        -13    1    5    5    0    0 -0.15733395201E+02 -0.15909017878E+02  0.53653987392E+01  0.23009217240E+02  0.00000000000E+00 0.  1.
          4    1    6    6  503    0 -0.27340965022E+02  0.10007475346E+03 -0.37562296945E+03  0.38968589893E+03  0.00000000000E+00 0. -1.
         -4    1    6    6    0  503  0.14672016102E+01 -0.22669466356E+02 -0.57865359565E+02  0.62164758691E+02  0.00000000000E+00 0.  1.
<mgrwt>
<rscale>  0 0.14793783E+04</rscale>
<asrwt>0</asrwt>
<pdfrwt beam="1">  1        2 0.17342325E+00 0.14793783E+04</pdfrwt>
<pdfrwt beam="2">  1       -1 0.74673145E-01 0.14793783E+04</pdfrwt>
<totfact> 0.41745628E+01</totfact>
</mgrwt>
</event>
<event>
12    7  0.1698542E-007  0.1210658E+04  0.7818608E-02  0.9103579E-01
          4   -1    0    0  501    0  0.00000000000E+00  0.00000000000E+00  0.45212937319E+03  0.45212937319E+03  0.00000000000E+00 0. -1.
         -3   -1    0    0    0  501 -0.00000000000E+00 -0.00000000000E+00 -0.81043855242E+03  0.81043855242E+03  0.00000000000E+00 0.  1.
         24    2    1    2    0    0 -0.14915555046E+02 -0.16447623677E+03 -0.21812293610E+03  0.28441764658E+03  0.77723073724E+02 0.  0.
        254    2    1    2    0    0  0.14915555046E+02  0.16447623677E+03 -0.14018624313E+03  0.97815027903E+03  0.95386103776E+03 0.  0.
         23    2    4    4    0    0  0.41934829976E+03  0.22714312072E+03  0.98243242918E+02  0.49572403529E+03  0.92970912564E+02 0.  0.
         23    2    4    4    0    0 -0.40443274472E+03 -0.62666883948E+02 -0.23842948604E+03  0.48242624374E+03  0.91615923800E+02 0.  0.
          4    1    3    3  502    0 -0.28839406972E+02 -0.25787670689E+02 -0.24321679029E+02  0.45697477227E+02  0.00000000000E+00 0. -1.
         -1    1    3    3    0  502  0.13923851926E+02 -0.13868856608E+03 -0.19380125707E+03  0.23872016936E+03  0.00000000000E+00 0.  1.
         13    1    5    5    0    0  0.40865325882E+03  0.21167289365E+03  0.11046810306E+03  0.47329282864E+03  0.00000000000E+00 0.  1.
        -13    1    5    5    0    0  0.10695040944E+02  0.15470227073E+02 -0.12224860139E+02  0.22431206653E+02  0.00000000000E+00 0. -1.
          2    1    6    6  503    0 -0.31092017016E+03 -0.59320305752E+02 -0.13843122769E+03  0.34547569479E+03  0.00000000000E+00 0.  1.
         -2    1    6    6    0  503 -0.93512574553E+02 -0.33465781957E+01 -0.99998258356E+02  0.13695054896E+03  0.00000000000E+00 0. -1.
<mgrwt>
<rscale>  0 0.12106578E+04</rscale>
<asrwt>0</asrwt>
<pdfrwt beam="1">  1        4 0.69558366E-01 0.12106578E+04</pdfrwt>
<pdfrwt beam="2">  1       -3 0.12468285E+00 0.12106578E+04</pdfrwt>
<totfact> 0.22030736E+00</totfact>
</mgrwt>
</event>
<event>
12    7  0.1698542E-007  0.1842276E+04  0.7818608E-02  0.8684135E-01
         -1   -1    0    0    0  501 -0.00000000000E+00  0.00000000000E+00  0.68038159389E+03  0.68038159389E+03  0.00000000000E+00 0.  1.
          2   -1    0    0  501    0  0.00000000000E+00 -0.00000000000E+00 -0.12470876249E+04  0.12470876249E+04  0.00000000000E+00 0. -1.
         24    2    1    2    0    0 -0.66180869417E+03  0.11592855963E+03 -0.42474571654E+03  0.79850490326E+03  0.75966954563E+02 0.  0.
        254    2    1    2    0    0  0.66180869417E+03 -0.11592855963E+03 -0.14196031446E+03  0.11289643155E+04  0.89609012728E+03 0.  0.
         23    2    4    4    0    0  0.40572946714E+03 -0.34362852928E+03  0.25517200192E+03  0.59663588848E+03  0.90358542564E+02 0.  0.
         23    2    4    4    0    0  0.25607922704E+03  0.22769996965E+03 -0.39713231638E+03  0.53232842704E+03  0.90750376438E+02 0.  0.
          4    1    3    3  502    0 -0.23100442313E+03  0.37503709130E+02 -0.19137749614E+03  0.30231592372E+03  0.00000000000E+00 0. -1.
         -3    1    3    3    0  502 -0.43080427104E+03  0.78424850499E+02 -0.23336822040E+03  0.49618897954E+03  0.00000000000E+00 0.  1.
         13    1    5    5    0    0  0.39420272848E+03 -0.30862817471E+03  0.24943184250E+03  0.55934192174E+03  0.00000000000E+00 0. -1.
        -13    1    5    5    0    0  0.11526738654E+02 -0.35000354575E+02  0.57401594132E+01  0.37293966730E+02  0.00000000000E+00 0.  1.
          3    1    6    6  503    0  0.15938306210E+03  0.18001320530E+03 -0.31764429356E+03  0.39837872910E+03  0.00000000000E+00 0. -1.
         -3    1    6    6    0  503  0.96696164931E+02  0.47686764357E+02 -0.79488022821E+02  0.13394969794E+03  0.00000000000E+00 0.  1.
<mgrwt>
<rscale>  0 0.18422763E+04</rscale>
<asrwt>0</asrwt>
<pdfrwt beam="1">  1        2 0.19185963E+00 0.18422763E+04</pdfrwt>
<pdfrwt beam="2">  1       -1 0.10467409E+00 0.18422763E+04</pdfrwt>
<totfact> 0.16337019E+01</totfact>
</mgrwt>
</event>
<event>
12    7  0.1698542E-007  0.2251362E+04  0.7818608E-02  0.8497349E-01
          2   -1    0    0  501    0  0.00000000000E+00  0.00000000000E+00  0.10281382558E+04  0.10281382558E+04  0.00000000000E+00 0. -1.
         -1   -1    0    0    0  501 -0.00000000000E+00 -0.00000000000E+00 -0.12324776926E+04  0.12324776926E+04  0.00000000000E+00 0.  1.
         24    2    1    2    0    0 -0.45156266321E+03 -0.43615342330E+03  0.63064392234E+03  0.89303872388E+03  0.75284514310E+02 0.  0.
        254    2    1    2    0    0  0.45156266321E+03  0.43615342330E+03 -0.83498335911E+03  0.13675772245E+04  0.88257102117E+03 0.  0.
         23    2    4    4    0    0 -0.12268134331E+03  0.34156823175E+03 -0.36976322522E+02  0.37573889721E+03  0.89960555319E+02 0.  0.
         23    2    4    4    0    0  0.57424400652E+03  0.94585191554E+02 -0.79800703659E+03  0.99183832725E+03  0.90694539349E+02 0.  0.
          2    1    3    3  502    0 -0.30360068315E+03 -0.33556442570E+03  0.43054560824E+03  0.62461698614E+03  0.00000000000E+00 0. -1.
         -1    1    3    3    0  502 -0.14796198007E+03 -0.10058899761E+03  0.20009831410E+03  0.26842173774E+03  0.00000000000E+00 0.  1.
         13    1    5    5    0    0 -0.77585663815E+02  0.16066803869E+03 -0.59194469907E+02  0.18798334808E+03  0.00000000000E+00 0. -1.
        -13    1    5    5    0    0 -0.45095679496E+02  0.18090019306E+03  0.22218147385E+02  0.18775554913E+03  0.00000000000E+00 0.  1.
          2    1    6    6  503    0  0.24570823674E+03  0.21027763635E+02 -0.40678043083E+03  0.47569425406E+03  0.00000000000E+00 0. -1.
         -2    1    6    6    0  503  0.32853576979E+03  0.73557427919E+02 -0.39122660576E+03  0.51614407319E+03  0.00000000000E+00 0.  1.
<mgrwt>
<rscale>  0 0.22513618E+04</rscale>
<asrwt>0</asrwt>
<pdfrwt beam="1">  1        2 0.15817512E+00 0.22513618E+04</pdfrwt>
<pdfrwt beam="2">  1       -1 0.18961195E+00 0.22513618E+04</pdfrwt>
<totfact> 0.44600109E+00</totfact>
</mgrwt>
</event>
<event>
12    7  0.1698542E-007  0.1653791E+04  0.7818608E-02  0.8788167E-01
         -1   -1    0    0    0  501 -0.00000000000E+00  0.00000000000E+00  0.16311944310E+04  0.16311944310E+04  0.00000000000E+00 0.  1.
          2   -1    0    0  501    0  0.00000000000E+00 -0.00000000000E+00 -0.41917536924E+03  0.41917536924E+03  0.00000000000E+00 0. -1.
         24    2    1    2    0    0 -0.20823430389E+03  0.47480371303E+03  0.13161646737E+03  0.54081410447E+03  0.79730231977E+02 0.  0.
        254    2    1    2    0    0  0.20823430389E+03 -0.47480371303E+03  0.10804025944E+04  0.15095556958E+04  0.91798068687E+03 0.  0.
         23    2    4    4    0    0  0.31973375326E+03 -0.30010600340E+03  0.45430921521E+02  0.45007740914E+03  0.90622399801E+02 0.  0.
         23    2    4    4    0    0 -0.11149944937E+03 -0.17469770963E+03  0.10349716729E+04  0.10594782867E+04  0.91522998356E+02 0.  0.
          2    1    3    3  502    0 -0.21354835252E+03  0.46193515252E+03  0.12045239707E+03  0.52296822461E+03  0.00000000000E+00 0. -1.
         -1    1    3    3    0  502  0.53140486280E+01  0.12868560512E+02  0.11164070290E+02  0.17845879858E+02  0.00000000000E+00 0.  1.
         13    1    5    5    0    0  0.25888183152E+03 -0.27279211758E+03  0.62476257818E+02  0.38123303228E+03  0.00000000000E+00 0. -1.
        -13    1    5    5    0    0  0.60851921733E+02 -0.27313885816E+02 -0.17045336297E+02  0.68844376869E+02  0.00000000000E+00 0.  1.
          3    1    6    6  503    0 -0.11510946766E+03 -0.18130107336E+03  0.94050661803E+03  0.96471393029E+03  0.00000000000E+00 0. -1.
         -3    1    6    6    0  503  0.36100182899E+01  0.66033637338E+01  0.94465054870E+02  0.94764356359E+02  0.00000000000E+00 0.  1.
<mgrwt>
<rscale>  0 0.16537914E+04</rscale>
<asrwt>0</asrwt>
<pdfrwt beam="1">  1        2 0.64488519E-01 0.16537914E+04</pdfrwt>
<pdfrwt beam="2">  1       -1 0.25095299E+00 0.16537914E+04</pdfrwt>
<totfact> 0.56617948E+00</totfact>
</mgrwt>
</event>
<event>
12    7  0.1698542E-007  0.1604832E+04  0.7818608E-02  0.8817585E-01
         -1   -1    0    0    0  501 -0.00000000000E+00  0.00000000000E+00  0.19221619508E+03  0.19221619508E+03  0.00000000000E+00 0.  1.
          2   -1    0    0  501    0  0.00000000000E+00 -0.00000000000E+00 -0.33497253204E+04  0.33497253204E+04  0.00000000000E+00 0. -1.
         24    2    1    2    0    0 -0.93068189186E+02  0.60979958018E+02 -0.22733242149E+04  0.22774517970E+04  0.80021614002E+02 0.  0.
        254    2    1    2    0    0  0.93068189186E+02 -0.60979958018E+02 -0.88418491046E+03  0.12644897185E+04  0.89709032382E+03 0.  0.
         23    2    4    4    0    0 -0.13208428999E+03 -0.31072600206E+03 -0.42049722111E+02  0.35270375716E+03  0.92923910631E+02 0.  0.
         23    2    4    4    0    0  0.22515247918E+03  0.24974604404E+03 -0.84213518834E+03  0.91178596130E+03  0.95368959191E+02 0.  0.
          4    1    3    3  502    0 -0.96788414655E+02  0.71534818477E+02 -0.21988560468E+04  0.22021473934E+04  0.00000000000E+00 0. -1.
         -3    1    3    3    0  502  0.37202254686E+01 -0.10554860459E+02 -0.74468168052E+02  0.75304403655E+02  0.00000000000E+00 0.  1.
         13    1    5    5    0    0 -0.22936504316E+02 -0.28246060080E+02  0.22888249636E+02  0.42985987387E+02  0.00000000000E+00 0.  1.
        -13    1    5    5    0    0 -0.10914778568E+03 -0.28247994198E+03 -0.64937971747E+02  0.30971776977E+03  0.00000000000E+00 0. -1.
          3    1    6    6  503    0  0.15725497436E+03  0.22822159854E+03 -0.63867700913E+03  0.69622018571E+03  0.00000000000E+00 0. -1.
         -3    1    6    6    0  503  0.67897504822E+02  0.21524445502E+02 -0.20345817921E+03  0.21556577559E+03  0.00000000000E+00 0.  1.
<mgrwt>
<rscale>  0 0.16048320E+04</rscale>
<asrwt>0</asrwt>
<pdfrwt beam="1">  1        2 0.51534240E+00 0.16048320E+04</pdfrwt>
<pdfrwt beam="2">  1       -1 0.29571720E-01 0.16048320E+04</pdfrwt>
<totfact> 0.11896817E+01</totfact>
</mgrwt>
</event>
<event>
12    7  0.1698542E-007  0.3024583E+04  0.7818608E-02  0.8236746E-01
          2   -1    0    0  501    0  0.00000000000E+00  0.00000000000E+00  0.10299859444E+04  0.10299859444E+04  0.00000000000E+00 0. -1.
         -1   -1    0    0    0  501 -0.00000000000E+00 -0.00000000000E+00 -0.22204432680E+04  0.22204432680E+04  0.00000000000E+00 0.  1.
         24    2    1    2    0    0  0.10808498166E+04 -0.55401730772E+03  0.15109634525E+03  0.12265374564E+04  0.79953256222E+02 0.  0.
        254    2    1    2    0    0 -0.10808498166E+04  0.55401730772E+03 -0.13415536689E+04  0.20238917560E+04  0.90620091068E+03 0.  0.
         23    2    4    4    0    0 -0.93173557754E+03  0.11351750219E+03 -0.12059750587E+04  0.15309353622E+04  0.91486782758E+02 0.  0.
         23    2    4    4    0    0 -0.14911423903E+03  0.44049980553E+03 -0.13557861018E+03  0.49295639381E+03  0.91374568164E+02 0.  0.
          2    1    3    3  502    0  0.65753262558E+03 -0.37048075370E+03  0.11881340176E+03  0.76401686303E+03  0.00000000000E+00 0. -1.
         -1    1    3    3    0  502  0.42331719099E+03 -0.18353655401E+03  0.32282943489E+02  0.46252059336E+03  0.00000000000E+00 0.  1.
         13    1    5    5    0    0 -0.86985790620E+03  0.11727161751E+03 -0.10903328495E+04  0.13997253773E+04  0.00000000000E+00 0. -1.
        -13    1    5    5    0    0 -0.61877671332E+02 -0.37541153210E+01 -0.11564220920E+03  0.13120998491E+03  0.00000000000E+00 0.  1.
          1    1    6    6  503    0 -0.10038888718E+02  0.73192304870E+02 -0.54791972638E+02  0.91978546653E+02  0.00000000000E+00 0. -1.
         -1    1    6    6    0  503 -0.13907535031E+03  0.36730750066E+03 -0.80786637539E+02  0.40097784715E+03  0.00000000000E+00 0.  1.
<mgrwt>
<rscale>  0 0.30245829E+04</rscale>
<asrwt>0</asrwt>
<pdfrwt beam="1">  1        2 0.15845938E+00 0.30245829E+04</pdfrwt>
<pdfrwt beam="2">  1       -1 0.34160665E+00 0.30245829E+04</pdfrwt>
<totfact> 0.41418743E-01</totfact>
</mgrwt>
</event>
<event>
12    7  0.1698542E-007  0.2357289E+04  0.7818608E-02  0.8455669E-01
         -1   -1    0    0    0  501 -0.00000000000E+00  0.00000000000E+00  0.79958317958E+03  0.79958317958E+03  0.00000000000E+00 0.  1.
          2   -1    0    0  501    0  0.00000000000E+00 -0.00000000000E+00 -0.17374087939E+04  0.17374087939E+04  0.00000000000E+00 0. -1.
         24    2    1    2    0    0  0.55881834849E+03  0.26837081732E+03  0.44649447759E+03  0.76851762021E+03  0.83433637506E+02 0.  0.
        254    2    1    2    0    0 -0.55881834849E+03 -0.26837081732E+03 -0.13843200919E+04  0.17684743532E+04  0.90931764478E+03 0.  0.
         23    2    4    4    0    0  0.17927466548E+03 -0.18607799804E+03 -0.71404900979E+03  0.76367220036E+03  0.81023540929E+02 0.  0.
         23    2    4    4    0    0 -0.73809301397E+03 -0.82292819280E+02 -0.67027108206E+03  0.10048021529E+04  0.93864996494E+02 0.  0.
          4    1    3    3  502    0  0.32658690814E+01  0.10280404120E+02  0.52643767348E+00  0.10799525283E+02  0.00000000000E+00 0. -1.
         -3    1    3    3    0  502  0.55555247941E+03  0.25809041320E+03  0.44596803991E+03  0.75771809493E+03  0.00000000000E+00 0.  1.
         13    1    5    5    0    0  0.74697098482E+01 -0.48838112384E+02 -0.10233953322E+03  0.11364126823E+03  0.00000000000E+00 0. -1.
        -13    1    5    5    0    0  0.17180495563E+03 -0.13723988566E+03 -0.61170947657E+03  0.65003093212E+03  0.00000000000E+00 0.  1.
          4    1    6    6  503    0 -0.32276584653E+03 -0.82857884635E+02 -0.29515400046E+03  0.44515065396E+03  0.00000000000E+00 0.  1.
         -4    1    6    6    0  503 -0.41532716744E+03  0.56506535533E+00 -0.37511708161E+03  0.55965149890E+03  0.00000000000E+00 0. -1.
<mgrwt>
<rscale>  0 0.23572890E+04</rscale>
<asrwt>0</asrwt>
<pdfrwt beam="1">  1        2 0.26729366E+00 0.23572890E+04</pdfrwt>
<pdfrwt beam="2">  1       -1 0.12301280E+00 0.23572890E+04</pdfrwt>
<totfact> 0.55931030E+00</totfact>
</mgrwt>
</event>
<event>
12    7  0.1698542E-007  0.1708507E+04  0.7818608E-02  0.8756527E-01
          2   -1    0    0  501    0  0.00000000000E+00  0.00000000000E+00  0.31618369678E+04  0.31618369678E+04  0.00000000000E+00 0. -1.
         -1   -1    0    0    0  501 -0.00000000000E+00 -0.00000000000E+00 -0.23079908871E+03  0.23079908871E+03  0.00000000000E+00 0.  1.
         24    2    1    2    0    0  0.13370769373E+03 -0.21037418792E+03 -0.57093146645E+02  0.26730322505E+03  0.77822493035E+02 0.  0.
        254    2    1    2    0    0 -0.13370769373E+03  0.21037418792E+03  0.29881310257E+04  0.31253328315E+04  0.88127364320E+03 0.  0.
         23    2    4    4    0    0  0.34990641371E+03  0.18873373998E+03  0.16411183902E+04  0.16909733650E+04  0.89813292378E+02 0.  0.
         23    2    4    4    0    0 -0.48361410745E+03  0.21640447939E+02  0.13470126356E+04  0.14343594665E+04  0.92699109424E+02 0.  0.
          2    1    3    3  502    0  0.36773311932E+01 -0.10474238214E+01  0.10997671495E+02  0.11643394680E+02  0.00000000000E+00 0. -1.
         -1    1    3    3    0  502  0.13003036254E+03 -0.20932676409E+03 -0.68090818140E+02  0.25565983037E+03  0.00000000000E+00 0.  1.
         13    1    5    5    0    0  0.29816410946E+03  0.17849307299E+03  0.15135368327E+04  0.15529183357E+04  0.00000000000E+00 0. -1.
        -13    1    5    5    0    0  0.51742304252E+02  0.10240666986E+02  0.12758155746E+03  0.13805502929E+03  0.00000000000E+00 0.  1.
          1    1    6    6  503    0 -0.40284912806E+03 -0.46116098926E+01  0.11820567931E+04  0.12488262285E+04  0.00000000000E+00 0. -1.
         -1    1    6    6    0  503 -0.80764979383E+02  0.26252057832E+02  0.16495584244E+03  0.18553323797E+03  0.00000000000E+00 0.  1.
<mgrwt>
<rscale>  0 0.17085071E+04</rscale>
<asrwt>0</asrwt>
<pdfrwt beam="1">  1        2 0.48643643E+00 0.17085071E+04</pdfrwt>
<pdfrwt beam="2">  1       -1 0.35507554E-01 0.17085071E+04</pdfrwt>
<totfact> 0.11310430E+01</totfact>
</mgrwt>
</event>
<event>
12    7  0.1698542E-007  0.1718041E+04  0.7818608E-02  0.8751141E-01
         -1   -1    0    0    0  501 -0.00000000000E+00  0.00000000000E+00  0.11492685426E+04  0.11492685426E+04  0.00000000000E+00 0.  1.
          2   -1    0    0  501    0  0.00000000000E+00 -0.00000000000E+00 -0.64207483037E+03  0.64207483037E+03  0.00000000000E+00 0. -1.
         24    2    1    2    0    0  0.42908571181E+03 -0.43372102095E+03  0.71120193009E+02  0.61948113874E+03  0.80438344755E+02 0.  0.
        254    2    1    2    0    0 -0.42908571181E+03  0.43372102095E+03  0.43607351924E+03  0.11718622343E+04  0.90048459720E+03 0.  0.
         23    2    4    4    0    0 -0.26348273551E+03  0.56927243114E+03 -0.47010070606E+02  0.63557076665E+03  0.90807488186E+02 0.  0.
         23    2    4    4    0    0 -0.16560297629E+03 -0.13555141020E+03  0.48308358985E+03  0.53629146760E+03  0.91870848881E+02 0.  0.
          2    1    3    3  502    0 -0.36340684595E+01 -0.54205041225E+01  0.12391870073E+01  0.66425825512E+01  0.00000000000E+00 0. -1.
         -1    1    3    3    0  502  0.43271978027E+03 -0.42830051683E+03  0.69881006002E+02  0.61283855619E+03  0.00000000000E+00 0.  1.
         13    1    5    5    0    0 -0.15964626390E+03  0.43960151160E+03 -0.36614485276E+02  0.46912369276E+03  0.00000000000E+00 0. -1.
        -13    1    5    5    0    0 -0.10383647161E+03  0.12967091954E+03 -0.10395585331E+02  0.16644707389E+03  0.00000000000E+00 0.  1.
          4    1    6    6  503    0 -0.17311906003E+03 -0.11024071549E+03  0.44379532762E+03  0.48895553695E+03  0.00000000000E+00 0. -1.
         -4    1    6    6    0  503  0.75160837402E+01 -0.25310694703E+02  0.39288262229E+02  0.47335930646E+02  0.00000000000E+00 0.  1.
<mgrwt>
<rscale>  0 0.17180412E+04</rscale>
<asrwt>0</asrwt>
<pdfrwt beam="1">  1        2 0.98780743E-01 0.17180412E+04</pdfrwt>
<pdfrwt beam="2">  1       -1 0.17681054E+00 0.17180412E+04</pdfrwt>
<totfact> 0.10871153E+01</totfact>
</mgrwt>
</event>
<event>
12    7  0.1698542E-007  0.1371527E+04  0.7818608E-02  0.8974691E-01
          2   -1    0    0  501    0  0.00000000000E+00  0.00000000000E+00  0.91118266389E+03  0.91118266389E+03  0.00000000000E+00 0. -1.
         -1   -1    0    0    0  501 -0.00000000000E+00 -0.00000000000E+00 -0.51611123622E+03  0.51611123622E+03  0.00000000000E+00 0.  1.
         24    2    1    2    0    0 -0.36093167037E+03  0.13860165664E+01 -0.21527371005E+02  0.37023748711E+03  0.79616439513E+02 0.  0.
        254    2    1    2    0    0  0.36093167037E+03 -0.13860165664E+01  0.41659879867E+03  0.10570564130E+04  0.90196458328E+03 0.  0.
         23    2    4    4    0    0  0.27967297718E+03  0.39876626358E+03  0.46701417749E+02  0.49783164542E+03  0.91781357723E+02 0.  0.
         23    2    4    4    0    0  0.81258693193E+02 -0.40015228014E+03  0.36989738092E+03  0.55922476759E+03  0.95830296593E+02 0.  0.
          4    1    3    3  502    0 -0.58701963283E+02  0.23492570445E+02  0.15067236775E+02  0.64998792169E+02  0.00000000000E+00 0. -1.
         -3    1    3    3    0  502 -0.30222970709E+03 -0.22106553879E+02 -0.36594607780E+02  0.30523869494E+03  0.00000000000E+00 0.  1.
         13    1    5    5    0    0  0.24472225553E+03  0.38819486393E+03  0.39297842977E+02  0.46057415819E+03  0.00000000000E+00 0.  1.
        -13    1    5    5    0    0  0.34950721655E+02  0.10571399643E+02  0.74035747713E+01  0.37257487221E+02  0.00000000000E+00 0. -1.
          2    1    6    6  503    0 -0.16079508957E+02 -0.15024235121E+03  0.13966100685E+03  0.20575838146E+03  0.00000000000E+00 0. -1.
         -2    1    6    6    0  503  0.97338202150E+02 -0.24990992893E+03  0.23023637408E+03  0.35346638613E+03  0.00000000000E+00 0.  1.
<mgrwt>
<rscale>  0 0.13715270E+04</rscale>
<asrwt>0</asrwt>
<pdfrwt beam="1">  1        2 0.14018195E+00 0.13715270E+04</pdfrwt>
<pdfrwt beam="2">  1       -1 0.79401729E-01 0.13715270E+04</pdfrwt>
<totfact> 0.50852937E+01</totfact>
</mgrwt>
</event>
<event>
12    7  0.1698542E-007  0.1244725E+04  0.7818608E-02  0.9074585E-01
          2   -1    0    0  501    0  0.00000000000E+00  0.00000000000E+00  0.26202911161E+04  0.26202911161E+04  0.00000000000E+00 0. -1.
         -1   -1    0    0    0  501 -0.00000000000E+00 -0.00000000000E+00 -0.14782145011E+03  0.14782145011E+03  0.00000000000E+00 0.  1.
         24    2    1    2    0    0  0.19717214599E+03 -0.18339017578E+03  0.94798397985E+03  0.98867486152E+03  0.79344464359E+02 0.  0.
        254    2    1    2    0    0 -0.19717214599E+03  0.18339017578E+03  0.15244856861E+04  0.17794377047E+04  0.87740134824E+03 0.  0.
         23    2    4    4    0    0 -0.38682938915E+03 -0.14932270396E+03  0.38346853005E+03  0.57235416821E+03  0.92773563569E+02 0.  0.
         23    2    4    4    0    0  0.18965724316E+03  0.33271287974E+03  0.11410171561E+04  0.12070835365E+04  0.91993387410E+02 0.  0.
          2    1    3    3  502    0  0.13063465345E+03 -0.97156552443E+02  0.68390722411E+03  0.70301770928E+03  0.00000000000E+00 0. -1.
         -1    1    3    3    0  502  0.66537492532E+02 -0.86233623335E+02  0.26407675574E+03  0.28565715224E+03  0.00000000000E+00 0.  1.
         13    1    5    5    0    0 -0.36569592482E+03 -0.13644937661E+03  0.32168584193E+03  0.50580008176E+03  0.00000000000E+00 0. -1.
        -13    1    5    5    0    0 -0.21133464326E+02 -0.12873327350E+02  0.61782688120E+02  0.66554086447E+02  0.00000000000E+00 0.  1.
          3    1    6    6  503    0  0.14018765825E+03  0.30808883728E+03  0.99110892274E+03  0.10473147607E+04  0.00000000000E+00 0. -1.
         -3    1    6    6    0  503  0.49469584912E+02  0.24624042458E+02  0.14990823331E+03  0.15976877578E+03  0.00000000000E+00 0.  1.
<mgrwt>
<rscale>  0 0.12447252E+04</rscale>
<asrwt>0</asrwt>
<pdfrwt beam="1">  1        2 0.40312168E+00 0.12447252E+04</pdfrwt>
<pdfrwt beam="2">  1       -1 0.22741764E-01 0.12447252E+04</pdfrwt>
<totfact> 0.55021636E+01</totfact>
</mgrwt>
</event>
<event>
12    7  0.1698542E-007  0.2098571E+04  0.7818608E-02  0.8561873E-01
         -1   -1    0    0    0  501 -0.00000000000E+00  0.00000000000E+00  0.78392242518E+03  0.78392242518E+03  0.00000000000E+00 0.  1.
          2   -1    0    0  501    0  0.00000000000E+00 -0.00000000000E+00 -0.14044760601E+04  0.14044760601E+04  0.00000000000E+00 0. -1.
         24    2    1    2    0    0  0.67898194362E+03  0.50632397163E+03 -0.14733048835E+03  0.86347491737E+03  0.80636320152E+02 0.  0.
        254    2    1    2    0    0 -0.67898194362E+03 -0.50632397163E+03 -0.47322314653E+03  0.13249235679E+04  0.90227593911E+03 0.  0.
         23    2    4    4    0    0 -0.37762040675E+03 -0.58765915781E+02  0.21290703485E+03  0.44688865212E+03  0.91265861373E+02 0.  0.
         23    2    4    4    0    0 -0.30136153687E+03 -0.44755805585E+03 -0.68613018138E+03  0.87803491575E+03  0.95098360766E+02 0.  0.
          4    1    3    3  502    0  0.32885591624E+02  0.18241057403E+02 -0.23459628876E+02  0.44323272652E+02  0.00000000000E+00 0. -1.
         -3    1    3    3    0  502  0.64609635199E+03  0.48808291423E+03 -0.12387085947E+03  0.81915164472E+03  0.00000000000E+00 0.  1.
         13    1    5    5    0    0 -0.10244573375E+03 -0.49129897415E+02  0.91885795265E+02  0.14612280642E+03  0.00000000000E+00 0. -1.
        -13    1    5    5    0    0 -0.27517467300E+03 -0.96360183661E+01  0.12102123959E+03  0.30076584570E+03  0.00000000000E+00 0.  1.
          1    1    6    6  503    0 -0.26770502620E+03 -0.32913792811E+03 -0.51569068409E+03  0.66778337687E+03  0.00000000000E+00 0. -1.
         -1    1    6    6    0  503 -0.33656510672E+02 -0.11842012773E+03 -0.17043949730E+03  0.21025153888E+03  0.00000000000E+00 0.  1.
<mgrwt>
<rscale>  0 0.20985712E+04</rscale>
<asrwt>0</asrwt>
<pdfrwt beam="1">  1        2 0.21607324E+00 0.20985712E+04</pdfrwt>
<pdfrwt beam="2">  1       -1 0.12060345E+00 0.20985712E+04</pdfrwt>
<totfact> 0.92393811E+00</totfact>
</mgrwt>
</event>
<event>
12    7  0.1698542E-007  0.1645933E+04  0.7818608E-02  0.8792816E-01
         -1   -1    0    0    0  501 -0.00000000000E+00  0.00000000000E+00  0.34991714435E+03  0.34991714435E+03  0.00000000000E+00 0.  1.
          2   -1    0    0  501    0  0.00000000000E+00 -0.00000000000E+00 -0.19355260569E+04  0.19355260569E+04  0.00000000000E+00 0. -1.
         24    2    1    2    0    0  0.35573322102E+03  0.92997454088E+02  0.53977216697E+02  0.38027563077E+03  0.80631038906E+02 0.  0.
        254    2    1    2    0    0 -0.35573322102E+03 -0.92997454088E+02 -0.16395861292E+04  0.19051675705E+04  0.89790096636E+03 0.  0.
         23    2    4    4    0    0  0.16506742589E+02 -0.24249145659E+03 -0.14100676738E+04  0.14337479981E+04  0.90927983259E+02 0.  0.
         23    2    4    4    0    0 -0.37223996361E+03  0.14949400250E+03 -0.22951845541E+03  0.47141957240E+03  0.92987335564E+02 0.  0.
          2    1    3    3  502    0  0.42987501844E+02  0.31318302689E+02 -0.12529167024E+02  0.54641938330E+02  0.00000000000E+00 0. -1.
         -1    1    3    3    0  502  0.31274571918E+03  0.61679151399E+02  0.66506383721E+02  0.32563369244E+03  0.00000000000E+00 0.  1.
         13    1    5    5    0    0  0.24781960560E+02 -0.67264461193E+02 -0.63733415955E+03  0.64135285470E+03  0.00000000000E+00 0. -1.
        -13    1    5    5    0    0 -0.82752179710E+01 -0.17522699539E+03 -0.77273351427E+03  0.79239514336E+03  0.00000000000E+00 0.  1.
          1    1    6    6  503    0 -0.12088094408E+03  0.54816865271E+02 -0.12765461373E+03  0.18415426079E+03  0.00000000000E+00 0. -1.
         -1    1    6    6    0  503 -0.25135901953E+03  0.94677137227E+02 -0.10186384167E+03  0.28726531160E+03  0.00000000000E+00 0.  1.
<mgrwt>
<rscale>  0 0.16459329E+04</rscale>
<asrwt>0</asrwt>
<pdfrwt beam="1">  1        2 0.29777324E+00 0.16459329E+04</pdfrwt>
<pdfrwt beam="2">  1       -1 0.53833407E-01 0.16459329E+04</pdfrwt>
<totfact> 0.27509267E+01</totfact>
</mgrwt>
</event>
<event>
12    7  0.1698542E-007  0.1687352E+04  0.7818608E-02  0.8768611E-01
          2   -1    0    0  501    0  0.00000000000E+00  0.00000000000E+00  0.24074762250E+04  0.24074762250E+04  0.00000000000E+00 0. -1.
         -1   -1    0    0    0  501 -0.00000000000E+00 -0.00000000000E+00 -0.29565766132E+03  0.29565766132E+03  0.00000000000E+00 0.  1.
         24    2    1    2    0    0 -0.38742364379E+03  0.38676394007E+00  0.17409185406E+02  0.39653483147E+03  0.82701653448E+02 0.  0.
        254    2    1    2    0    0  0.38742364379E+03 -0.38676394007E+00  0.20944093783E+04  0.23065990548E+04  0.88529730975E+03 0.  0.
         23    2    4    4    0    0  0.54278647519E+03 -0.29175204050E+03  0.13973357086E+04  0.15298850547E+04  0.90910875559E+02 0.  0.
         23    2    4    4    0    0 -0.15536283141E+03  0.29136527656E+03  0.69707366966E+03  0.77671400012E+03  0.91332378107E+02 0.  0.
          4    1    3    3  502    0 -0.13264918187E+03  0.25851479162E+02 -0.23714067386E+02  0.13720955294E+03  0.00000000000E+00 0. -1.
         -3    1    3    3    0  502 -0.25477446191E+03 -0.25464715222E+02  0.41123252792E+02  0.25932527853E+03  0.00000000000E+00 0.  1.
         13    1    5    5    0    0  0.18770596412E+02 -0.18776778726E+02  0.11422533544E+03  0.11727032858E+03  0.00000000000E+00 0.  1.
        -13    1    5    5    0    0  0.52401587878E+03 -0.27297526177E+03  0.12831103732E+04  0.14126147261E+04  0.00000000000E+00 0. -1.
          2    1    6    6  503    0 -0.13215015741E+03  0.23184788230E+03  0.46633087058E+03  0.53729096911E+03  0.00000000000E+00 0. -1.
         -2    1    6    6    0  503 -0.23212674000E+02  0.59517394253E+02  0.23074279908E+03  0.23942303101E+03  0.00000000000E+00 0.  1.
<mgrwt>
<rscale>  0 0.16873515E+04</rscale>
<asrwt>0</asrwt>
<pdfrwt beam="1">  1        2 0.37038094E+00 0.16873515E+04</pdfrwt>
<pdfrwt beam="2">  1       -1 0.45485796E-01 0.16873515E+04</pdfrwt>
<totfact> 0.20520334E+01</totfact>
</mgrwt>
</event>
<event>
12    7  0.1698542E-007  0.1840304E+04  0.7818608E-02  0.8685155E-01
         -1   -1    0    0    0  501 -0.00000000000E+00  0.00000000000E+00  0.30853461938E+03  0.30853461938E+03  0.00000000000E+00 0.  1.
          2   -1    0    0  501    0  0.00000000000E+00 -0.00000000000E+00 -0.27441977449E+04  0.27441977449E+04  0.00000000000E+00 0. -1.
         24    2    1    2    0    0 -0.44771036645E+03  0.17636235048E+03 -0.17660172486E+04  0.18320805582E+04  0.78447424160E+02 0.  0.
        254    2    1    2    0    0  0.44771036645E+03 -0.17636235048E+03 -0.66964587687E+03  0.12206518061E+04  0.90000943348E+03 0.  0.
         23    2    4    4    0    0 -0.24084299633E+03  0.94854547522E+02 -0.16470765092E+03  0.32007980547E+03  0.91212595279E+02 0.  0.
         23    2    4    4    0    0  0.68855336278E+03 -0.27121689800E+03 -0.50493822596E+03  0.90057200059E+03  0.91667753706E+02 0.  0.
          2    1    3    3  502    0 -0.40982471852E+03  0.16091659579E+03 -0.15123778650E+04  0.15751626130E+04  0.00000000000E+00 0. -1.
         -1    1    3    3    0  502 -0.37885647933E+02  0.15445754688E+02 -0.25363938364E+03  0.25691794525E+03  0.00000000000E+00 0.  1.
         13    1    5    5    0    0 -0.16279837841E+03  0.21431404251E+02 -0.75844777051E+02  0.18087301432E+03  0.00000000000E+00 0. -1.
        -13    1    5    5    0    0 -0.78044617913E+02  0.73423143271E+02 -0.88862873865E+02  0.13920679116E+03  0.00000000000E+00 0.  1.
          3    1    6    6  503    0  0.32495662851E+03 -0.80070426479E+02 -0.23816753328E+03  0.41076983521E+03  0.00000000000E+00 0. -1.
         -3    1    6    6    0  503  0.36359673427E+03 -0.19114647152E+03 -0.26677069268E+03  0.48980216539E+03  0.00000000000E+00 0.  1.
<mgrwt>
<rscale>  0 0.18403043E+04</rscale>
<asrwt>0</asrwt>
<pdfrwt beam="1">  1        2 0.42218428E+00 0.18403043E+04</pdfrwt>
<pdfrwt beam="2">  1       -1 0.47466863E-01 0.18403043E+04</pdfrwt>
<totfact> 0.11883261E+01</totfact>
</mgrwt>
</event>
<event>
12    7  0.1698542E-007  0.3283333E+04  0.7818608E-02  0.8167149E-01
         -1   -1    0    0    0  501 -0.00000000000E+00  0.00000000000E+00  0.14255981806E+04  0.14255981806E+04  0.00000000000E+00 0.  1.
          2   -1    0    0  501    0  0.00000000000E+00 -0.00000000000E+00 -0.18904824744E+04  0.18904824744E+04  0.00000000000E+00 0. -1.
         24    2    1    2    0    0 -0.34691410343E+03 -0.13798194787E+04 -0.73290127461E+03  0.16025562188E+04  0.82407324449E+02 0.  0.
        254    2    1    2    0    0  0.34691410343E+03  0.13798194787E+04  0.26801698082E+03  0.17135244363E+04  0.91655971036E+03 0.  0.
         23    2    4    4    0    0  0.38288701205E+03  0.52717521067E+03  0.49732188739E+03  0.82479069120E+03  0.91839304636E+02 0.  0.
         23    2    4    4    0    0 -0.35972908623E+02  0.85264426806E+03 -0.22930490656E+03  0.88873374506E+03  0.94713417419E+02 0.  0.
          2    1    3    3  502    0 -0.24792311655E+03 -0.11110405690E+04 -0.59972989088E+03  0.12866829290E+04  0.00000000000E+00 0. -1.
         -1    1    3    3    0  502 -0.98990986882E+02 -0.26877890971E+03 -0.13317138374E+03  0.31587328984E+03  0.00000000000E+00 0.  1.
         13    1    5    5    0    0  0.10054846826E+03  0.10930614955E+03  0.71897765059E+02  0.16500641630E+03  0.00000000000E+00 0.  1.
        -13    1    5    5    0    0  0.28233854379E+03  0.41786906112E+03  0.42542412233E+03  0.65978427490E+03  0.00000000000E+00 0. -1.
          2    1    6    6  503    0 -0.19076128346E+02  0.28948950068E+02 -0.65493030187E+01  0.35282201643E+02  0.00000000000E+00 0.  1.
         -2    1    6    6    0  503 -0.16896780277E+02  0.82369531799E+03 -0.22275560355E+03  0.85345154342E+03  0.00000000000E+00 0. -1.
<mgrwt>
<rscale>  0 0.32833327E+04</rscale>
<asrwt>0</asrwt>
<pdfrwt beam="1">  1        2 0.29084346E+00 0.32833327E+04</pdfrwt>
<pdfrwt beam="2">  1       -1 0.21932280E+00 0.32833327E+04</pdfrwt>
<totfact> 0.81335387E-01</totfact>
</mgrwt>
</event>
<event>
12    7  0.1698542E-007  0.1943403E+04  0.7818608E-02  0.8633548E-01
          2   -1    0    0  501    0  0.00000000000E+00  0.00000000000E+00  0.98338309705E+03  0.98338309705E+03  0.00000000000E+00 0. -1.
         -1   -1    0    0    0  501 -0.00000000000E+00 -0.00000000000E+00 -0.96015908735E+03  0.96015908735E+03  0.00000000000E+00 0.  1.
         24    2    1    2    0    0  0.28330460210E+03 -0.40664059622E+03 -0.56842701199E+03  0.75872002909E+03  0.83239068465E+02 0.  0.
        254    2    1    2    0    0 -0.28330460210E+03  0.40664059622E+03  0.59165102169E+03  0.11848221553E+04  0.89896303382E+03 0.  0.
         23    2    4    4    0    0 -0.46318227097E+03  0.29719449131E+03  0.93831007918E+01  0.55862010951E+03  0.95425375921E+02 0.  0.
         23    2    4    4    0    0  0.17987766886E+03  0.10944610491E+03  0.58226792090E+03  0.62620204580E+03  0.93587631719E+02 0.  0.
          4    1    3    3  502    0  0.55744731344E+01 -0.21687043169E+02 -0.55523131337E+02  0.59868361474E+02  0.00000000000E+00 0. -1.
         -3    1    3    3    0  502  0.27773012897E+03 -0.38495355305E+03 -0.51290388066E+03  0.69885166762E+03  0.00000000000E+00 0.  1.
         13    1    5    5    0    0 -0.24468778094E+03  0.16256818610E+03  0.52381503701E+02  0.29840299463E+03  0.00000000000E+00 0. -1.
        -13    1    5    5    0    0 -0.21849449003E+03  0.13462630521E+03 -0.42998402909E+02  0.26021711489E+03  0.00000000000E+00 0.  1.
          3    1    6    6  503    0  0.29509300704E+02  0.72441466038E+01  0.22957869017E+02  0.38083332809E+02  0.00000000000E+00 0. -1.
         -3    1    6    6    0  503  0.15036836816E+03  0.10220195830E+03  0.55931005189E+03  0.58811871299E+03  0.00000000000E+00 0.  1.
<mgrwt>
<rscale>  0 0.19434034E+04</rscale>
<asrwt>0</asrwt>
<pdfrwt beam="1">  1        2 0.15128971E+00 0.19434034E+04</pdfrwt>
<pdfrwt beam="2">  1       -1 0.14771678E+00 0.19434034E+04</pdfrwt>
<totfact> 0.99960124E+00</totfact>
</mgrwt>
</event>
<event>
12    7  0.1698542E-007  0.2434699E+04  0.7818608E-02  0.8426626E-01
         -1   -1    0    0    0  501 -0.00000000000E+00  0.00000000000E+00  0.74727302383E+03  0.74727302383E+03  0.00000000000E+00 0.  1.
          2   -1    0    0  501    0  0.00000000000E+00 -0.00000000000E+00 -0.19831296857E+04  0.19831296857E+04  0.00000000000E+00 0. -1.
         24    2    1    2    0    0  0.42772109007E+02 -0.10307451378E+04 -0.33233487757E+03  0.10869089030E+04  0.81605759878E+02 0.  0.
        254    2    1    2    0    0 -0.42772109007E+02  0.10307451378E+04 -0.90352178436E+03  0.16434938066E+04  0.90578986800E+03 0.  0.
         23    2    4    4    0    0 -0.12894641655E+03  0.75474428269E+03 -0.10535811574E+04  0.13059072256E+04  0.95364123549E+02 0.  0.
         23    2    4    4    0    0  0.86174307541E+02  0.27600085516E+03  0.15005937300E+03  0.33758658101E+03  0.88568622698E+02 0.  0.
          4    1    3    3  502    0  0.16015325095E+02 -0.46926944660E+03 -0.19387830899E+03  0.50799517995E+03  0.00000000000E+00 0. -1.
         -3    1    3    3    0  502  0.26756783912E+02 -0.56147569125E+03 -0.13845656857E+03  0.57891372304E+03  0.00000000000E+00 0.  1.
         13    1    5    5    0    0 -0.15623060204E+01  0.31544703707E+02 -0.83189141058E+02  0.88982820376E+02  0.00000000000E+00 0. -1.
        -13    1    5    5    0    0 -0.12738411053E+03  0.72319957899E+03 -0.97039201630E+03  0.12169244052E+04  0.00000000000E+00 0.  1.
          3    1    6    6  503    0  0.13285131342E+02 -0.33373886730E+01  0.74444570216E+01  0.15590151323E+02  0.00000000000E+00 0. -1.
         -3    1    6    6    0  503  0.72889176199E+02  0.27933824383E+03  0.14261491598E+03  0.32199642969E+03  0.00000000000E+00 0.  1.
<mgrwt>
<rscale>  0 0.24346986E+04</rscale>
<asrwt>0</asrwt>
<pdfrwt beam="1">  1        2 0.30509687E+00 0.24346986E+04</pdfrwt>
<pdfrwt beam="2">  1       -1 0.11496508E+00 0.24346986E+04</pdfrwt>
<totfact> 0.47850514E+00</totfact>
</mgrwt>
</event>
<event>
12    7  0.1698542E-007  0.2437995E+04  0.7818608E-02  0.8425414E-01
          2   -1    0    0  501    0  0.00000000000E+00  0.00000000000E+00  0.33355734520E+04  0.33355734520E+04  0.00000000000E+00 0. -1.
         -1   -1    0    0    0  501 -0.00000000000E+00 -0.00000000000E+00 -0.44548702894E+03  0.44548702894E+03  0.00000000000E+00 0.  1.
         24    2    1    2    0    0 -0.76867345021E+03  0.14171169297E+03  0.15880669177E+03  0.80141062222E+03  0.78091888675E+02 0.  0.
        254    2    1    2    0    0  0.76867345021E+03 -0.14171169297E+03  0.27312797313E+04  0.29796498587E+04  0.89860070836E+03 0.  0.
         23    2    4    4    0    0  0.42234182924E+02 -0.59840285726E+02 -0.29028100195E+02  0.12272733643E+03  0.94099853901E+02 0.  0.
         23    2    4    4    0    0  0.72643926728E+03 -0.81871407245E+02  0.27603078315E+04  0.28569225223E+04  0.91049642743E+02 0.  0.
          2    1    3    3  502    0 -0.38445120931E+01 -0.13833974271E+01  0.77823921091E+01  0.87897490644E+01  0.00000000000E+00 0. -1.
         -1    1    3    3    0  502 -0.76482893811E+03  0.14309509040E+03  0.15102429966E+03  0.79262087315E+03  0.00000000000E+00 0.  1.
         13    1    5    5    0    0  0.39695838854E+02  0.16136048934E+02 -0.58115860080E+01  0.43242412392E+02  0.00000000000E+00 0.  1.
        -13    1    5    5    0    0  0.25383440702E+01 -0.75976334660E+02 -0.23216514187E+02  0.79484924042E+02  0.00000000000E+00 0. -1.
          4    1    6    6  503    0  0.29741507514E+03 -0.44154643958E+02  0.96948635849E+03  0.10150414567E+04  0.00000000000E+00 0. -1.
         -4    1    6    6    0  503  0.42902419214E+03 -0.37716763287E+02  0.17908214730E+04  0.18418810656E+04  0.00000000000E+00 0.  1.
<mgrwt>
<rscale>  0 0.24379948E+04</rscale>
<asrwt>0</asrwt>
<pdfrwt beam="1">  1        2 0.51316513E+00 0.24379948E+04</pdfrwt>
<pdfrwt beam="2">  1       -1 0.68536468E-01 0.24379948E+04</pdfrwt>
<totfact> 0.23188437E+00</totfact>
</mgrwt>
</event>
<event>
12    7  0.1698542E-007  0.1275513E+04  0.7818608E-02  0.9049212E-01
          2   -1    0    0  501    0  0.00000000000E+00  0.00000000000E+00  0.14432519699E+04  0.14432519699E+04  0.00000000000E+00 0. -1.
         -1   -1    0    0    0  501 -0.00000000000E+00 -0.00000000000E+00 -0.28181723684E+03  0.28181723684E+03  0.00000000000E+00 0.  1.
         24    2    1    2    0    0  0.49693641424E+02  0.25806819521E+03  0.49636040801E+02  0.27964626405E+03  0.81667894984E+02 0.  0.
        254    2    1    2    0    0 -0.49693641424E+02 -0.25806819521E+03  0.11117986923E+04  0.14454229427E+04  0.88548433062E+03 0.  0.
         23    2    4    4    0    0  0.38611246591E+03 -0.26995837093E+03  0.56961685882E+03  0.74481165260E+03  0.91217726481E+02 0.  0.
         23    2    4    4    0    0 -0.43580610734E+03  0.11890175717E+02  0.54218183344E+03  0.70061129010E+03  0.82623845373E+02 0.  0.
          4    1    3    3  502    0  0.35389332613E+02  0.82895636077E+02  0.51641049966E+02  0.10387920574E+03  0.00000000000E+00 0. -1.
         -3    1    3    3    0  502  0.14304308811E+02  0.17517255913E+03 -0.20050091650E+01  0.17576705831E+03  0.00000000000E+00 0.  1.
         13    1    5    5    0    0  0.11780656998E+03 -0.13616282349E+03  0.21589710618E+03  0.28112321656E+03  0.00000000000E+00 0. -1.
        -13    1    5    5    0    0  0.26830589594E+03 -0.13379554743E+03  0.35371975264E+03  0.46368843604E+03  0.00000000000E+00 0.  1.
          1    1    6    6  503    0 -0.43329607541E+03  0.84416495080E+01  0.54437377568E+03  0.69581575008E+03  0.00000000000E+00 0. -1.
         -1    1    6    6    0  503 -0.25100319288E+01  0.34485262090E+01 -0.21919422359E+01  0.47955400179E+01  0.00000000000E+00 0.  1.
<mgrwt>
<rscale>  0 0.12755129E+04</rscale>
<asrwt>0</asrwt>
<pdfrwt beam="1">  1        2 0.22203876E+00 0.12755129E+04</pdfrwt>
<pdfrwt beam="2">  1       -1 0.43356499E-01 0.12755129E+04</pdfrwt>
<totfact> 0.80256499E+01</totfact>
</mgrwt>
</event>
<event>
12    7  0.1698542E-007  0.1160183E+04  0.7818608E-02  0.9148440E-01
         -1   -1    0    0    0  501 -0.00000000000E+00  0.00000000000E+00  0.24243672955E+03  0.24243672955E+03  0.00000000000E+00 0.  1.
          2   -1    0    0  501    0  0.00000000000E+00 -0.00000000000E+00 -0.13880171708E+04  0.13880171708E+04  0.00000000000E+00 0. -1.
         24    2    1    2    0    0 -0.11000210922E+03  0.11320746686E+03 -0.18067665400E+02  0.17698607511E+03  0.77982277885E+02 0.  0.
        254    2    1    2    0    0  0.11000210922E+03 -0.11320746686E+03 -0.11275127759E+04  0.14534678253E+04  0.90353044484E+03 0.  0.
         23    2    4    4    0    0  0.24415016512E+03 -0.44816351362E+03 -0.82202461539E+03  0.97193806145E+03  0.92083054432E+02 0.  0.
         23    2    4    4    0    0 -0.13414805591E+03  0.33495604676E+03 -0.30548816048E+03  0.48152976382E+03  0.91414676516E+02 0.  0.
          2    1    3    3  502    0 -0.42463100298E+02  0.87837041082E+02 -0.33599637518E+02  0.10318622153E+03  0.00000000000E+00 0. -1.
         -1    1    3    3    0  502 -0.67539008917E+02  0.25370425778E+02  0.15531972119E+02  0.73799853574E+02  0.00000000000E+00 0.  1.
         13    1    5    5    0    0  0.81704443081E+02 -0.22626217631E+03 -0.43616293274E+03  0.49810470018E+03  0.00000000000E+00 0. -1.
        -13    1    5    5    0    0  0.16244572204E+03 -0.22190133732E+03 -0.38586168265E+03  0.47383336127E+03  0.00000000000E+00 0.  1.
          2    1    6    6  503    0 -0.72719836616E+02  0.11009630108E+03 -0.15731317175E+03  0.20532122188E+03  0.00000000000E+00 0. -1.
         -2    1    6    6    0  503 -0.61428219293E+02  0.22485974568E+03 -0.14817498873E+03  0.27620854194E+03  0.00000000000E+00 0.  1.
<mgrwt>
<rscale>  0 0.11601833E+04</rscale>
<asrwt>0</asrwt>
<pdfrwt beam="1">  1        2 0.21354111E+00 0.11601833E+04</pdfrwt>
<pdfrwt beam="2">  1       -1 0.37297958E-01 0.11601833E+04</pdfrwt>
<totfact> 0.11458986E+02</totfact>
</mgrwt>
</event>
<event>
12    7  0.1698542E-007  0.1608386E+04  0.7818608E-02  0.8815413E-01
          2   -1    0    0  501    0  0.00000000000E+00  0.00000000000E+00  0.51265107000E+03  0.51265107000E+03  0.00000000000E+00 0. -1.
         -1   -1    0    0    0  501 -0.00000000000E+00 -0.00000000000E+00 -0.12615325195E+04  0.12615325195E+04  0.00000000000E+00 0.  1.
         24    2    1    2    0    0 -0.86623274497E+02  0.51353760437E+03 -0.47558264566E+03  0.70987597039E+03  0.80750094054E+02 0.  0.
        254    2    1    2    0    0  0.86623274497E+02 -0.51353760437E+03 -0.27329880382E+03  0.10643076191E+04  0.88703664474E+03 0.  0.
         23    2    4    4    0    0 -0.21721265566E+02  0.15478208423E+03 -0.33235548756E+03  0.37831541930E+03  0.90736317936E+02 0.  0.
         23    2    4    4    0    0  0.10834454006E+03 -0.66831968859E+03  0.59056683742E+02  0.68599219979E+03  0.93315919111E+02 0.  0.
          2    1    3    3  502    0 -0.39201268920E+02  0.27867988021E+03 -0.20323701355E+03  0.34713757906E+03  0.00000000000E+00 0. -1.
         -1    1    3    3    0  502 -0.47422005577E+02  0.23485772416E+03 -0.27234563212E+03  0.36273839133E+03  0.00000000000E+00 0.  1.
         13    1    5    5    0    0 -0.55254546952E+02  0.82428875235E+02 -0.21000223570E+03  0.23226821442E+03  0.00000000000E+00 0. -1.
        -13    1    5    5    0    0  0.33533281386E+02  0.72353208991E+02 -0.12235325186E+03  0.14604720488E+03  0.00000000000E+00 0.  1.
          1    1    6    6  503    0  0.86723554975E+02 -0.26310932816E+03  0.38376204993E+02  0.27967879194E+03  0.00000000000E+00 0. -1.
         -1    1    6    6    0  503  0.21620985087E+02 -0.40521036043E+03  0.20680478750E+02  0.40631340785E+03  0.00000000000E+00 0.  1.
<mgrwt>
<rscale>  0 0.16083855E+04</rscale>
<asrwt>0</asrwt>
<pdfrwt beam="1">  1        2 0.78869397E-01 0.16083855E+04</pdfrwt>
<pdfrwt beam="2">  1       -1 0.19408192E+00 0.16083855E+04</pdfrwt>
<totfact> 0.10836699E+01</totfact>
</mgrwt>
</event>
<event>
12    7  0.1698542E-007  0.1601843E+04  0.7818608E-02  0.8819417E-01
          2   -1    0    0  501    0  0.00000000000E+00  0.00000000000E+00  0.23451672294E+04  0.23451672294E+04  0.00000000000E+00 0. -1.
         -1   -1    0    0    0  501 -0.00000000000E+00 -0.00000000000E+00 -0.27353072792E+03  0.27353072792E+03  0.00000000000E+00 0.  1.
         24    2    1    2    0    0 -0.36107476451E+03 -0.27195193030E+03  0.99111760390E+03  0.10922686349E+04  0.80023921955E+02 0.  0.
        254    2    1    2    0    0  0.36107476451E+03  0.27195193030E+03  0.10805188976E+04  0.15264293225E+04  0.97884245433E+03 0.  0.
         23    2    4    4    0    0 -0.24458203845E+02  0.51326580051E+03  0.87504439708E+03  0.10189046506E+04  0.91782375098E+02 0.  0.
         23    2    4    4    0    0  0.38553296835E+03 -0.24131387021E+03  0.20547450054E+03  0.50752467189E+03  0.92160016085E+02 0.  0.
          4    1    3    3  502    0 -0.23896248798E+03 -0.22493021045E+03  0.71473689419E+03  0.78647663548E+03  0.00000000000E+00 0. -1.
         -3    1    3    3    0  502 -0.12211227653E+03 -0.47021719851E+02  0.27638070971E+03  0.30579199943E+03  0.00000000000E+00 0.  1.
         13    1    5    5    0    0  0.17048783651E+02  0.74011423357E+02  0.84843981348E+02  0.11387209044E+03  0.00000000000E+00 0. -1.
        -13    1    5    5    0    0 -0.41506987496E+02  0.43925437715E+03  0.79020041573E+03  0.90503256012E+03  0.00000000000E+00 0.  1.
          1    1    6    6  503    0  0.16440791040E+02  0.68884448798E+01  0.63097415628E+00  0.17836715260E+02  0.00000000000E+00 0. -1.
         -1    1    6    6    0  503  0.36909217731E+03 -0.24820231509E+03  0.20484352639E+03  0.48968795663E+03  0.00000000000E+00 0.  1.
<mgrwt>
<rscale>  0 0.16018431E+04</rscale>
<asrwt>0</asrwt>
<pdfrwt beam="1">  1        2 0.36079495E+00 0.16018431E+04</pdfrwt>
<pdfrwt beam="2">  1       -1 0.42081652E-01 0.16018431E+04</pdfrwt>
<totfact> 0.25920284E+01</totfact>
</mgrwt>
</event>
<event>
12    7  0.1698542E-007  0.1915921E+04  0.7818608E-02  0.8646972E-01
         -1   -1    0    0    0  501 -0.00000000000E+00  0.00000000000E+00  0.51886564600E+03  0.51886564600E+03  0.00000000000E+00 0.  1.
          2   -1    0    0  501    0  0.00000000000E+00 -0.00000000000E+00 -0.17686426397E+04  0.17686426397E+04  0.00000000000E+00 0. -1.
         24    2    1    2    0    0 -0.54279587652E+03  0.50527102653E+03 -0.55606791514E+03  0.93027176973E+03  0.79169852174E+02 0.  0.
        254    2    1    2    0    0  0.54279587652E+03 -0.50527102653E+03 -0.69370907852E+03  0.13572365159E+04  0.90051790696E+03 0.  0.
         23    2    4    4    0    0  0.18408407845E+03 -0.62699967075E+03 -0.13099476385E+03  0.67242336063E+03  0.89319721810E+02 0.  0.
         23    2    4    4    0    0  0.35871179807E+03  0.12172864422E+03 -0.56271431467E+03  0.68481315531E+03  0.93966168655E+02 0.  0.
          2    1    3    3  502    0 -0.82217369262E+01  0.24544421973E-01 -0.71417819221E-01  0.82220837394E+01  0.00000000000E+00 0. -1.
         -1    1    3    3    0  502 -0.53457413959E+03  0.50524648211E+03 -0.55599649732E+03  0.92204968599E+03  0.00000000000E+00 0.  1.
         13    1    5    5    0    0  0.19241548360E+03 -0.58001740090E+03 -0.11319263657E+03  0.62149535529E+03  0.00000000000E+00 0.  1.
        -13    1    5    5    0    0 -0.83314051478E+01 -0.46982269846E+02 -0.17802127279E+02  0.50928005334E+02  0.00000000000E+00 0. -1.
          3    1    6    6  503    0  0.12720889845E+03  0.16127947261E+02 -0.25579120894E+03  0.28613171285E+03  0.00000000000E+00 0.  1.
         -3    1    6    6    0  503  0.23150289962E+03  0.10560069696E+03 -0.30692310573E+03  0.39868144246E+03  0.00000000000E+00 0. -1.
<mgrwt>
<rscale>  0 0.19159206E+04</rscale>
<asrwt>0</asrwt>
<pdfrwt beam="1">  1        2 0.27209887E+00 0.19159206E+04</pdfrwt>
<pdfrwt beam="2">  1       -1 0.79825482E-01 0.19159206E+04</pdfrwt>
<totfact> 0.14994605E+01</totfact>
</mgrwt>
</event>
<event>
12    7  0.1698542E-007  0.1336721E+04  0.7818608E-02  0.9000941E-01
         -1   -1    0    0    0  501 -0.00000000000E+00  0.00000000000E+00  0.47777096855E+03  0.47777096855E+03  0.00000000000E+00 0.  1.
          2   -1    0    0  501    0  0.00000000000E+00 -0.00000000000E+00 -0.93497926307E+03  0.93497926307E+03  0.00000000000E+00 0. -1.
         24    2    1    2    0    0  0.24270995759E+03 -0.18965369542E+03  0.57006739673E+02  0.32236804602E+03  0.76123196399E+02 0.  0.
        254    2    1    2    0    0 -0.24270995759E+03  0.18965369542E+03 -0.51421503419E+03  0.10903821856E+04  0.91084552016E+03 0.  0.
         23    2    4    4    0    0  0.17795301848E+03  0.34727288617E+02  0.16922619089E+03  0.26754999554E+03  0.10036052547E+03 0.  0.
         23    2    4    4    0    0 -0.42066297607E+03  0.15492640680E+03 -0.68344122508E+03  0.82283219006E+03  0.94875570626E+02 0.  0.
          4    1    3    3  502    0  0.17893768812E+03 -0.98305348136E+02  0.20773370688E+02  0.20521737410E+03  0.00000000000E+00 0. -1.
         -3    1    3    3    0  502  0.63772269468E+02 -0.91348347281E+02  0.36233368985E+02  0.11715067192E+03  0.00000000000E+00 0.  1.
         13    1    5    5    0    0  0.16188751251E+03  0.41639481971E+02  0.18106814284E+03  0.24642866213E+03  0.00000000000E+00 0.  1.
        -13    1    5    5    0    0  0.16065505972E+02 -0.69121933543E+01 -0.11841951956E+02  0.21121333415E+02  0.00000000000E+00 0. -1.
          3    1    6    6  503    0 -0.13446573888E+03  0.39853968380E+01 -0.20966240395E+03  0.24910889576E+03  0.00000000000E+00 0. -1.
         -3    1    6    6    0  503 -0.28619723719E+03  0.15094100996E+03 -0.47377882113E+03  0.57372329430E+03  0.00000000000E+00 0.  1.
<mgrwt>
<rscale>  0 0.13367213E+04</rscale>
<asrwt>0</asrwt>
<pdfrwt beam="1">  1        2 0.14384296E+00 0.13367213E+04</pdfrwt>
<pdfrwt beam="2">  1       -1 0.73503226E-01 0.13367213E+04</pdfrwt>
<totfact> 0.57807773E+01</totfact>
</mgrwt>
</event>
<event>
12    7  0.1698542E-007  0.1210094E+04  0.7818608E-02  0.9104067E-01
          2   -1    0    0  501    0  0.00000000000E+00  0.00000000000E+00  0.80985798700E+03  0.80985798700E+03  0.00000000000E+00 0. -1.
         -1   -1    0    0    0  501 -0.00000000000E+00 -0.00000000000E+00 -0.45203223659E+03  0.45203223659E+03  0.00000000000E+00 0.  1.
         24    2    1    2    0    0 -0.37572460854E+02 -0.25097535848E+03  0.16871099645E+03  0.31506542087E+03  0.80015615523E+02 0.  0.
        254    2    1    2    0    0  0.37572460854E+02  0.25097535848E+03  0.18911475396E+03  0.94682480272E+03  0.89236343297E+03 0.  0.
         23    2    4    4    0    0 -0.12341308508E+03 -0.12905206609E+03  0.41911416979E+03  0.46389243892E+03  0.87488754920E+02 0.  0.
         23    2    4    4    0    0  0.16098554593E+03  0.38002742458E+03 -0.22999941582E+03  0.48293236380E+03  0.99933714529E+02 0.  0.
          4    1    3    3  502    0 -0.57468409080E+02 -0.21700606939E+03  0.12791580392E+03  0.25837318957E+03  0.00000000000E+00 0. -1.
         -3    1    3    3    0  502  0.19895948226E+02 -0.33969289093E+02  0.40795192524E+02  0.56692231305E+02  0.00000000000E+00 0.  1.
         13    1    5    5    0    0  0.11919379766E+02 -0.46834483987E+00  0.31039245945E+02  0.33252454793E+02  0.00000000000E+00 0. -1.
        -13    1    5    5    0    0 -0.13533246485E+03 -0.12858372125E+03  0.38807492384E+03  0.43063998412E+03  0.00000000000E+00 0.  1.
          2    1    6    6  503    0  0.72908302247E+02  0.28676181518E+03 -0.17087693572E+03  0.34168243494E+03  0.00000000000E+00 0.  1.
         -2    1    6    6    0  503  0.88077243687E+02  0.93265609393E+02 -0.59122480103E+02  0.14124992887E+03  0.00000000000E+00 0. -1.
<mgrwt>
<rscale>  0 0.12100941E+04</rscale>
<asrwt>0</asrwt>
<pdfrwt beam="1">  1        2 0.12459354E+00 0.12100941E+04</pdfrwt>
<pdfrwt beam="2">  1       -1 0.69543421E-01 0.12100941E+04</pdfrwt>
<totfact> 0.79795395E+01</totfact>
</mgrwt>
</event>
<event>
12    7  0.1698542E-007  0.1197714E+04  0.7818608E-02  0.9114859E-01
          2   -1    0    0  501    0  0.00000000000E+00  0.00000000000E+00  0.28640914767E+04  0.28640914767E+04  0.00000000000E+00 0. -1.
         -1   -1    0    0    0  501 -0.00000000000E+00 -0.00000000000E+00 -0.12521594652E+03  0.12521594652E+03  0.00000000000E+00 0.  1.
         24    2    1    2    0    0 -0.53344960705E+02  0.65991736380E+02  0.11655919033E+04  0.11714150677E+04  0.80051118472E+02 0.  0.
        254    2    1    2    0    0  0.53344960705E+02 -0.65991736380E+02  0.15732836269E+04  0.18178923556E+04  0.90681346030E+03 0.  0.
         23    2    4    4    0    0  0.12394983063E+03  0.40425463675E+02 -0.64636746562E+02  0.17252235956E+03  0.92672956759E+02 0.  0.
         23    2    4    4    0    0 -0.70604869924E+02 -0.10641720005E+03  0.16379203734E+04  0.16453699960E+04  0.90275168047E+02 0.  0.
          4    1    3    3  502    0 -0.53565943740E+02  0.33517238439E+02  0.10319969588E+04  0.10339296101E+04  0.00000000000E+00 0. -1.
         -3    1    3    3    0  502  0.22098303544E+00  0.32474497940E+02  0.13359494451E+03  0.13748545759E+03  0.00000000000E+00 0.  1.
         13    1    5    5    0    0  0.12099760276E+03  0.18000884310E+01 -0.52685478527E+02  0.13198264977E+03  0.00000000000E+00 0.  1.
        -13    1    5    5    0    0  0.29522278695E+01  0.38625375244E+02 -0.11951268034E+02  0.40539709789E+02  0.00000000000E+00 0. -1.
          3    1    6    6  503    0  0.11560659097E+01 -0.76547183805E+02  0.67824063256E+03  0.68254755402E+03  0.00000000000E+00 0. -1.
         -3    1    6    6    0  503 -0.71760935834E+02 -0.29870016249E+02  0.95967974088E+03  0.96282244201E+03  0.00000000000E+00 0.  1.
<mgrwt>
<rscale>  0 0.11977144E+04</rscale>
<asrwt>0</asrwt>
<pdfrwt beam="1">  1        2 0.44062941E+00 0.11977144E+04</pdfrwt>
<pdfrwt beam="2">  1       -1 0.19263994E-01 0.11977144E+04</pdfrwt>
<totfact> 0.52375531E+01</totfact>
</mgrwt>
</event>
<event>
12    7  0.1698542E-007  0.1144741E+04  0.7818608E-02  0.9162649E-01
         -1   -1    0    0    0  501 -0.00000000000E+00  0.00000000000E+00  0.27982006027E+03  0.27982006027E+03  0.00000000000E+00 0.  1.
          2   -1    0    0  501    0  0.00000000000E+00 -0.00000000000E+00 -0.11707813751E+04  0.11707813751E+04  0.00000000000E+00 0. -1.
         24    2    1    2    0    0  0.13701069634E+03 -0.29917855788E+02  0.11488973968E+02  0.16386097682E+03  0.83972699112E+02 0.  0.
        254    2    1    2    0    0 -0.13701069634E+03  0.29917855788E+02 -0.90245028885E+03  0.12867404586E+04  0.90643117496E+03 0.  0.
         23    2    4    4    0    0  0.19776054771E+03  0.33469660114E+03 -0.64106124953E+03  0.75608020783E+03  0.97809539306E+02 0.  0.
         23    2    4    4    0    0 -0.33477124404E+03 -0.30477874535E+03 -0.26138903931E+03  0.53066025076E+03  0.91182248331E+02 0.  0.
          4    1    3    3  502    0  0.17734196977E+02  0.16534205259E+02  0.25387907538E+02  0.35105947290E+02  0.00000000000E+00 0. -1.
         -3    1    3    3    0  502  0.11927649936E+03 -0.46452061046E+02 -0.13898933571E+02  0.12875502953E+03  0.00000000000E+00 0.  1.
         13    1    5    5    0    0  0.72649391418E+02  0.20202933431E+03 -0.29423729021E+03  0.36423806631E+03  0.00000000000E+00 0.  1.
        -13    1    5    5    0    0  0.12511115629E+03  0.13266726682E+03 -0.34682395932E+03  0.39184214153E+03  0.00000000000E+00 0. -1.
          3    1    6    6  503    0 -0.23259852968E+01 -0.17074332729E+02 -0.28061220192E+02  0.32929851569E+02  0.00000000000E+00 0. -1.
         -3    1    6    6    0  503 -0.33244525875E+03 -0.28770441262E+03 -0.23332781912E+03  0.49773039919E+03  0.00000000000E+00 0.  1.
<mgrwt>
<rscale>  0 0.11447412E+04</rscale>
<asrwt>0</asrwt>
<pdfrwt beam="1">  1        2 0.18012021E+00 0.11447412E+04</pdfrwt>
<pdfrwt beam="2">  1       -1 0.43049241E-01 0.11447412E+04</pdfrwt>
<totfact> 0.11834564E+02</totfact>
</mgrwt>
</event>
<event>
12    7  0.1698542E-007  0.2925609E+04  0.7818608E-02  0.8265299E-01
         -1   -1    0    0    0  501 -0.00000000000E+00  0.00000000000E+00  0.15349784406E+04  0.15349784406E+04  0.00000000000E+00 0.  1.
          2   -1    0    0  501    0  0.00000000000E+00 -0.00000000000E+00 -0.13940239032E+04  0.13940239032E+04  0.00000000000E+00 0. -1.
         24    2    1    2    0    0  0.50410990927E+03 -0.69146796561E+03  0.10745773549E+04  0.13759200942E+04  0.78643918247E+02 0.  0.
        254    2    1    2    0    0 -0.50410990927E+03  0.69146796561E+03 -0.93362281754E+03  0.15530822496E+04  0.89897617353E+03 0.  0.
         23    2    4    4    0    0 -0.34811540211E+03  0.68461327718E+03 -0.19884364589E+03  0.79757500309E+03  0.81898825140E+02 0.  0.
         23    2    4    4    0    0 -0.15599450716E+03  0.68546884308E+01 -0.73477917164E+03  0.75550724654E+03  0.80681444408E+02 0.  0.
          2    1    3    3  502    0  0.20100597152E+03 -0.22447934487E+03  0.34210116799E+03  0.45588110950E+03  0.00000000000E+00 0. -1.
         -1    1    3    3    0  502  0.30310393775E+03 -0.46698862074E+03  0.73247618688E+03  0.92003898468E+03  0.00000000000E+00 0.  1.
         13    1    5    5    0    0 -0.18228073589E+03  0.27658184149E+03 -0.10219247961E+03  0.34665124348E+03  0.00000000000E+00 0. -1.
        -13    1    5    5    0    0 -0.16583466622E+03  0.40803143569E+03 -0.96651166282E+02  0.45092375960E+03  0.00000000000E+00 0.  1.
          1    1    6    6  503    0 -0.38102799527E+02 -0.87155151435E+01 -0.69976774902E+02  0.80153181856E+02  0.00000000000E+00 0. -1.
         -1    1    6    6    0  503 -0.11789170763E+03  0.15570203574E+02 -0.66480239674E+03  0.67535406468E+03  0.00000000000E+00 0.  1.
<mgrwt>
<rscale>  0 0.29256087E+04</rscale>
<asrwt>0</asrwt>
<pdfrwt beam="1">  1        2 0.21446522E+00 0.29256087E+04</pdfrwt>
<pdfrwt beam="2">  1       -1 0.23615053E+00 0.29256087E+04</pdfrwt>
<totfact> 0.12296218E+00</totfact>
</mgrwt>
</event>
<event>
12    7  0.1698542E-007  0.2457813E+04  0.7818608E-02  0.8418171E-01
          2   -1    0    0  501    0  0.00000000000E+00  0.00000000000E+00  0.22248420353E+04  0.22248420353E+04  0.00000000000E+00 0. -1.
         -1   -1    0    0    0  501 -0.00000000000E+00 -0.00000000000E+00 -0.67879475889E+03  0.67879475889E+03  0.00000000000E+00 0.  1.
         24    2    1    2    0    0 -0.49673844941E+03  0.50681743744E+03 -0.26867865136E+03  0.76228894893E+03  0.72685775461E+02 0.  0.
        254    2    1    2    0    0  0.49673844941E+03 -0.50681743744E+03  0.18147259278E+04  0.21413478453E+04  0.88799065280E+03 0.  0.
         23    2    4    4    0    0  0.42585094323E+03 -0.67090247986E+03  0.89718626435E+03  0.12019540319E+04  0.91055689401E+02 0.  0.
         23    2    4    4    0    0  0.70887506172E+02  0.16408504242E+03  0.91753966343E+03  0.93939381335E+03  0.92912662831E+02 0.  0.
          2    1    3    3  502    0 -0.71846506504E+01  0.26516576811E+02 -0.12501646785E+02  0.30183426298E+02  0.00000000000E+00 0. -1.
         -1    1    3    3    0  502 -0.48955379876E+03  0.48030086062E+03 -0.25617700458E+03  0.73210552263E+03  0.00000000000E+00 0.  1.
         13    1    5    5    0    0  0.13706440626E+03 -0.29374991216E+03  0.38825005311E+03  0.50578035361E+03  0.00000000000E+00 0.  1.
        -13    1    5    5    0    0  0.28878653697E+03 -0.37715256770E+03  0.50893621125E+03  0.69617367832E+03  0.00000000000E+00 0. -1.
          2    1    6    6  503    0  0.29949408228E+02  0.18667030057E+01  0.83217411165E+02  0.88462360099E+02  0.00000000000E+00 0.  1.
         -2    1    6    6    0  503  0.40938097944E+02  0.16221833941E+03  0.83432225227E+03  0.85093145325E+03  0.00000000000E+00 0. -1.
<mgrwt>
<rscale>  0 0.24578129E+04</rscale>
<asrwt>0</asrwt>
<pdfrwt beam="1">  1        2 0.34228339E+00 0.24578129E+04</pdfrwt>
<pdfrwt beam="2">  1       -1 0.10442996E+00 0.24578129E+04</pdfrwt>
<totfact> 0.43888480E+00</totfact>
</mgrwt>
</event>
<event>
12    7  0.1698542E-007  0.3624987E+04  0.7818608E-02  0.8084792E-01
          2   -1    0    0  501    0  0.00000000000E+00  0.00000000000E+00  0.16354082135E+04  0.16354082135E+04  0.00000000000E+00 0. -1.
         -1   -1    0    0    0  501 -0.00000000000E+00 -0.00000000000E+00 -0.20087544065E+04  0.20087544065E+04  0.00000000000E+00 0.  1.
         24    2    1    2    0    0  0.10557369658E+04  0.12257267219E+04 -0.69761803610E+03  0.17635332011E+04  0.79949290898E+02 0.  0.
        254    2    1    2    0    0 -0.10557369658E+04 -0.12257267219E+04  0.32427184312E+03  0.18806294190E+04  0.90256758496E+03 0.  0.
         23    2    4    4    0    0 -0.10081427281E+04 -0.11935348813E+04  0.52708938947E+03  0.16513751993E+04  0.91321143210E+02 0.  0.
         23    2    4    4    0    0 -0.47594237712E+02 -0.32191840642E+02 -0.20281754635E+03  0.22925421970E+03  0.90116669250E+02 0.  0.
          2    1    3    3  502    0  0.35369685038E+03  0.41574565954E+03 -0.19465504329E+03  0.57951402164E+03  0.00000000000E+00 0. -1.
         -1    1    3    3    0  502  0.70204011542E+03  0.80998106241E+03 -0.50296299282E+03  0.11840191794E+04  0.00000000000E+00 0.  1.
         13    1    5    5    0    0 -0.40090378538E+03 -0.41490240284E+03  0.17192093049E+03  0.60201715536E+03  0.00000000000E+00 0.  1.
        -13    1    5    5    0    0 -0.60723894272E+03 -0.77863247846E+03  0.35516845898E+03  0.10493580439E+04  0.00000000000E+00 0. -1.
          1    1    6    6  503    0 -0.54106298381E+02  0.12003456659E+02 -0.15093992197E+03  0.16079314208E+03  0.00000000000E+00 0. -1.
         -1    1    6    6    0  503  0.65120606692E+01 -0.44195297301E+02 -0.51877624381E+02  0.68461077622E+02  0.00000000000E+00 0.  1.
<mgrwt>
<rscale>  0 0.36249874E+04</rscale>
<asrwt>0</asrwt>
<pdfrwt beam="1">  1        2 0.25160126E+00 0.36249874E+04</pdfrwt>
<pdfrwt beam="2">  1       -1 0.30903914E+00 0.36249874E+04</pdfrwt>
<totfact> 0.28455029E-01</totfact>
</mgrwt>
</event>
<event>
12    7  0.1698542E-007  0.2476751E+04  0.7818608E-02  0.8411315E-01
          2   -1    0    0  501    0  0.00000000000E+00  0.00000000000E+00  0.13159901535E+04  0.13159901535E+04  0.00000000000E+00 0. -1.
         -1   -1    0    0    0  501 -0.00000000000E+00 -0.00000000000E+00 -0.11653380550E+04  0.11653380550E+04  0.00000000000E+00 0.  1.
         24    2    1    2    0    0 -0.49612241419E+02 -0.68367562078E+03 -0.76388256421E+03  0.10295329342E+04  0.80918240702E+02 0.  0.
        254    2    1    2    0    0  0.49612241419E+02  0.68367562078E+03  0.91453466270E+03  0.14517952743E+04  0.89524417912E+03 0.  0.
         23    2    4    4    0    0 -0.32004977960E+03  0.66622418144E+03  0.56831810924E+03  0.93684696779E+03  0.91707395597E+02 0.  0.
         23    2    4    4    0    0  0.36966202102E+03  0.17451439338E+02  0.34621655346E+03  0.51494830651E+03  0.91385414398E+02 0.  0.
          2    1    3    3  502    0  0.13764226554E+02 -0.48864383434E+02 -0.75546568534E+02  0.91019041515E+02  0.00000000000E+00 0. -1.
         -1    1    3    3    0  502 -0.63376467974E+02 -0.63481123734E+03 -0.68833599567E+03  0.93851389265E+03  0.00000000000E+00 0.  1.
         13    1    5    5    0    0 -0.64941714185E+02  0.11241408740E+03  0.60027832136E+02  0.14303039509E+03  0.00000000000E+00 0.  1.
        -13    1    5    5    0    0 -0.25510806542E+03  0.55381009404E+03  0.50829027710E+03  0.79381657270E+03  0.00000000000E+00 0. -1.
          2    1    6    6  503    0  0.20380694735E+03 -0.26629402670E+02  0.15112403027E+03  0.25511736397E+03  0.00000000000E+00 0. -1.
         -2    1    6    6    0  503  0.16585507367E+03  0.44080842008E+02  0.19509252319E+03  0.25983094254E+03  0.00000000000E+00 0.  1.
<mgrwt>
<rscale>  0 0.24767506E+04</rscale>
<asrwt>0</asrwt>
<pdfrwt beam="1">  1        2 0.20246002E+00 0.24767506E+04</pdfrwt>
<pdfrwt beam="2">  1       -1 0.17928278E+00 0.24767506E+04</pdfrwt>
<totfact> 0.34697027E+00</totfact>
</mgrwt>
</event>
<event>
12    7  0.1698542E-007  0.1518298E+04  0.7818608E-02  0.8872375E-01
          2   -1    0    0  501    0  0.00000000000E+00  0.00000000000E+00  0.37051578835E+04  0.37051578835E+04  0.00000000000E+00 0. -1.
         -1   -1    0    0    0  501 -0.00000000000E+00 -0.00000000000E+00 -0.15554185075E+03  0.15554185075E+03  0.00000000000E+00 0.  1.
         24    2    1    2    0    0  0.17020073875E+03 -0.40088760562E+03  0.18726565368E+04  0.19241620127E+04  0.76666696696E+02 0.  0.
        254    2    1    2    0    0 -0.17020073875E+03  0.40088760562E+03  0.16769594959E+04  0.19365377216E+04  0.86504683819E+03 0.  0.
         23    2    4    4    0    0 -0.39246250353E+03 -0.97140136562E+02  0.76071374223E+03  0.86655243262E+03  0.93619966111E+02 0.  0.
         23    2    4    4    0    0  0.22226176478E+03  0.49802774218E+03  0.91624575372E+03  0.10699852890E+04  0.89052306678E+02 0.  0.
          4    1    3    3  502    0  0.10997943636E+03 -0.33224459667E+03  0.15333969986E+04  0.15728281228E+04  0.00000000000E+00 0. -1.
         -3    1    3    3    0  502  0.60221302391E+02 -0.68643008952E+02  0.33925953817E+03  0.35133388988E+03  0.00000000000E+00 0.  1.
         13    1    5    5    0    0 -0.27616853091E+03 -0.32066075167E+02  0.45762076634E+03  0.53545686701E+03  0.00000000000E+00 0. -1.
        -13    1    5    5    0    0 -0.11629397263E+03 -0.65074061395E+02  0.30309297589E+03  0.33109556562E+03  0.00000000000E+00 0.  1.
          2    1    6    6  503    0  0.85307138873E+02  0.27310871997E+03  0.53380530688E+03  0.60565153886E+03  0.00000000000E+00 0.  1.
         -2    1    6    6    0  503  0.13695462591E+03  0.22491902221E+03  0.38244044684E+03  0.46433375010E+03  0.00000000000E+00 0. -1.
<mgrwt>
<rscale>  0 0.15182979E+04</rscale>
<asrwt>0</asrwt>
<pdfrwt beam="1">  1        2 0.57002422E+00 0.15182979E+04</pdfrwt>
<pdfrwt beam="2">  1       -1 0.23929518E-01 0.15182979E+04</pdfrwt>
<totfact> 0.97644080E+00</totfact>
</mgrwt>
</event>
<event>
12    7  0.1698542E-007  0.1225906E+04  0.7818608E-02  0.9090478E-01
          2   -1    0    0  501    0  0.00000000000E+00  0.00000000000E+00  0.89018747248E+03  0.89018747248E+03  0.00000000000E+00 0. -1.
         -1   -1    0    0    0  501 -0.00000000000E+00 -0.00000000000E+00 -0.42205877701E+03  0.42205877701E+03  0.00000000000E+00 0.  1.
         24    2    1    2    0    0 -0.73758767148E+02  0.11026198792E+03 -0.10241800954E+03  0.18555805262E+03  0.79650991859E+02 0.  0.
        254    2    1    2    0    0  0.73758767148E+02 -0.11026198792E+03  0.57054670501E+03  0.11266881969E+04  0.96244723941E+03 0.  0.
         23    2    4    4    0    0 -0.32654404624E+02 -0.20051626891E+03  0.80638947416E+03  0.83644445580E+03  0.90012551108E+02 0.  0.
         23    2    4    4    0    0  0.10641317177E+03  0.90254280985E+02 -0.23584276915E+03  0.29024374107E+03  0.95655732209E+02 0.  0.
          4    1    3    3  502    0 -0.15161049730E+02  0.34001804943E+02  0.90728742196E+01  0.38318366548E+02  0.00000000000E+00 0. -1.
         -3    1    3    3    0  502 -0.58597717418E+02  0.76260182979E+02 -0.11149088376E+03  0.14723968608E+03  0.00000000000E+00 0.  1.
         13    1    5    5    0    0  0.20104434301E+02 -0.66967360422E+01  0.86207101603E+02  0.88773300710E+02  0.00000000000E+00 0.  1.
        -13    1    5    5    0    0 -0.52758838924E+02 -0.19381953287E+03  0.72018237256E+03  0.74767115509E+03  0.00000000000E+00 0. -1.
          4    1    6    6  503    0  0.10319165852E+03  0.31664584626E+02 -0.12770531731E+03  0.16721187870E+03  0.00000000000E+00 0. -1.
         -4    1    6    6    0  503  0.32215132470E+01  0.58589696359E+02 -0.10813745184E+03  0.12303186237E+03  0.00000000000E+00 0.  1.
<mgrwt>
<rscale>  0 0.12259061E+04</rscale>
<asrwt>0</asrwt>
<pdfrwt beam="1">  1        2 0.13695192E+00 0.12259061E+04</pdfrwt>
<pdfrwt beam="2">  1       -1 0.64932120E-01 0.12259061E+04</pdfrwt>
<totfact> 0.80506792E+01</totfact>
</mgrwt>
</event>
<event>
12    7  0.1698542E-007  0.2561452E+04  0.7818608E-02  0.8381414E-01
         -1   -1    0    0    0  501 -0.00000000000E+00  0.00000000000E+00  0.13721104598E+04  0.13721104598E+04  0.00000000000E+00 0.  1.
          2   -1    0    0  501    0  0.00000000000E+00 -0.00000000000E+00 -0.11954275539E+04  0.11954275539E+04  0.00000000000E+00 0. -1.
         24    2    1    2    0    0 -0.23807124636E+03 -0.81633806739E+03  0.81498138091E+03  0.11804473469E+04  0.78584534202E+02 0.  0.
        254    2    1    2    0    0  0.23807124636E+03  0.81633806739E+03 -0.63829847498E+03  0.13870906668E+04  0.89079167946E+03 0.  0.
         23    2    4    4    0    0  0.51951179928E+03  0.76416626982E+03 -0.43367401000E+03  0.10247947329E+04  0.91041199743E+02 0.  0.
         23    2    4    4    0    0 -0.28144055292E+03  0.52171797577E+02 -0.20462446497E+03  0.36229593395E+03  0.86350974516E+02 0.  0.
          4    1    3    3  502    0 -0.21425003323E+03 -0.74740019041E+03  0.71201687967E+03  0.10542666448E+04  0.00000000000E+00 0. -1.
         -3    1    3    3    0  502 -0.23821213132E+02 -0.68937876981E+02  0.10296450124E+03  0.12618070214E+03  0.00000000000E+00 0.  1.
         13    1    5    5    0    0  0.44078935391E+03  0.69259721072E+03 -0.39979300262E+03  0.91313777480E+03  0.00000000000E+00 0.  1.
        -13    1    5    5    0    0  0.78722445368E+02  0.71569059097E+02 -0.33881007382E+02  0.11165695807E+03  0.00000000000E+00 0. -1.
          1    1    6    6  503    0 -0.63424637622E+02  0.50298475072E+02 -0.56302369906E+02  0.98603134378E+02  0.00000000000E+00 0. -1.
         -1    1    6    6    0  503 -0.21801591530E+03  0.18733225042E+01 -0.14832209507E+03  0.26369279957E+03  0.00000000000E+00 0.  1.
<mgrwt>
<rscale>  0 0.25614517E+04</rscale>
<asrwt>0</asrwt>
<pdfrwt beam="1">  1        2 0.18391193E+00 0.25614517E+04</pdfrwt>
<pdfrwt beam="2">  1       -1 0.21109392E+00 0.25614517E+04</pdfrwt>
<totfact> 0.24360508E+00</totfact>
</mgrwt>
</event>
<event>
12    7  0.1698542E-007  0.2898069E+04  0.7818608E-02  0.8273452E-01
          2   -1    0    0  501    0  0.00000000000E+00  0.00000000000E+00  0.13119168827E+04  0.13119168827E+04  0.00000000000E+00 0. -1.
         -1   -1    0    0    0  501 -0.00000000000E+00 -0.00000000000E+00 -0.16004832516E+04  0.16004832516E+04  0.00000000000E+00 0.  1.
         24    2    1    2    0    0 -0.14148270015E+03  0.47529881901E+03  0.10855027579E+04  0.11961325225E+04  0.80563342893E+02 0.  0.
        254    2    1    2    0    0  0.14148270015E+03 -0.47529881901E+03 -0.13740691269E+04  0.17162676118E+04  0.90087858677E+03 0.  0.
         23    2    4    4    0    0  0.33171105405E+03  0.98813583902E+02 -0.80556876401E+03  0.88123749020E+03  0.88555817633E+02 0.  0.
         23    2    4    4    0    0 -0.19022835390E+03 -0.57411240291E+03 -0.56850036284E+03  0.83503012159E+03  0.91053630366E+02 0.  0.
          2    1    3    3  502    0 -0.86986020899E+02  0.37584244216E+03  0.77824752953E+03  0.86861575301E+03  0.00000000000E+00 0. -1.
         -1    1    3    3    0  502 -0.54496679253E+02  0.99456376846E+02  0.30725522836E+03  0.32751676950E+03  0.00000000000E+00 0.  1.
         13    1    5    5    0    0  0.71791199665E+02  0.37119834713E+02 -0.11295421484E+03  0.13889029170E+03  0.00000000000E+00 0. -1.
        -13    1    5    5    0    0  0.25991985439E+03  0.61693749189E+02 -0.69261454917E+03  0.74234719850E+03  0.00000000000E+00 0.  1.
          2    1    6    6  503    0 -0.31002566949E+02 -0.83711507447E+02 -0.13266132324E+03  0.15989935059E+03  0.00000000000E+00 0. -1.
         -2    1    6    6    0  503 -0.15922578695E+03 -0.49040089546E+03 -0.43583903961E+03  0.67513077100E+03  0.00000000000E+00 0.  1.
<mgrwt>
<rscale>  0 0.28980690E+04</rscale>
<asrwt>0</asrwt>
<pdfrwt beam="1">  1        2 0.20183337E+00 0.28980690E+04</pdfrwt>
<pdfrwt beam="2">  1       -1 0.24622819E+00 0.28980690E+04</pdfrwt>
<totfact> 0.11804785E+00</totfact>
</mgrwt>
</event>
<event>
12    7  0.1698542E-007  0.1323989E+04  0.7818608E-02  0.9010755E-01
         -1   -1    0    0    0  501 -0.00000000000E+00  0.00000000000E+00  0.45876204045E+03  0.45876204045E+03  0.00000000000E+00 0.  1.
          2   -1    0    0  501    0  0.00000000000E+00 -0.00000000000E+00 -0.95525962450E+03  0.95525962450E+03  0.00000000000E+00 0. -1.
         24    2    1    2    0    0  0.26247836356E+03 -0.13377494652E+03 -0.34347643833E+03  0.45961376606E+03  0.80486785311E+02 0.  0.
        254    2    1    2    0    0 -0.26247836356E+03  0.13377494652E+03 -0.15302114573E+03  0.95440789889E+03  0.89481190134E+03 0.  0.
         23    2    4    4    0    0  0.15386839659E+03  0.31864113673E+03  0.15588285012E+03  0.39645867427E+03  0.87592008527E+02 0.  0.
         23    2    4    4    0    0 -0.41634676014E+03 -0.18486619021E+03 -0.30890399585E+03  0.55794922462E+03  0.91463247476E+02 0.  0.
          4    1    3    3  502    0  0.73436659110E+02 -0.67979879643E+01 -0.11796205739E+03  0.13911938227E+03  0.00000000000E+00 0. -1.
         -3    1    3    3    0  502  0.18904170445E+03 -0.12697695855E+03 -0.22551438094E+03  0.32049438378E+03  0.00000000000E+00 0.  1.
         13    1    5    5    0    0  0.15340987209E+03  0.24377114361E+03  0.13850238065E+03  0.31959641544E+03  0.00000000000E+00 0. -1.
        -13    1    5    5    0    0  0.45852449382E+00  0.74869993119E+02  0.17380469471E+02  0.76862258836E+02  0.00000000000E+00 0.  1.
          1    1    6    6  503    0 -0.29167313323E+03 -0.12422292438E+03 -0.26297724724E+03  0.41189996863E+03  0.00000000000E+00 0. -1.
         -1    1    6    6    0  503 -0.12467362691E+03 -0.60643265837E+02 -0.45926748610E+02  0.14604925600E+03  0.00000000000E+00 0.  1.
<mgrwt>
<rscale>  0 0.13239892E+04</rscale>
<asrwt>0</asrwt>
<pdfrwt beam="1">  1        2 0.14696302E+00 0.13239892E+04</pdfrwt>
<pdfrwt beam="2">  1       -1 0.70578776E-01 0.13239892E+04</pdfrwt>
<totfact> 0.61017665E+01</totfact>
</mgrwt>
</event>
<event>
12    7  0.1698542E-007  0.2172715E+04  0.7818608E-02  0.8529871E-01
          2   -1    0    0  501    0  0.00000000000E+00  0.00000000000E+00  0.93030111413E+03  0.93030111413E+03  0.00000000000E+00 0. -1.
         -1   -1    0    0    0  501 -0.00000000000E+00 -0.00000000000E+00 -0.12685915302E+04  0.12685915302E+04  0.00000000000E+00 0.  1.
         24    2    1    2    0    0  0.74607312886E+02  0.50236655352E+03  0.61059341999E+03  0.79853497759E+03  0.83038428909E+02 0.  0.
        254    2    1    2    0    0 -0.74607312886E+02 -0.50236655352E+03 -0.94888383603E+03  0.14003576667E+04  0.89592558575E+03 0.  0.
         23    2    4    4    0    0  0.61858052037E+02 -0.19545202707E+03 -0.10201416948E+04  0.10445208150E+04  0.91141328934E+02 0.  0.
         23    2    4    4    0    0 -0.13646536492E+03 -0.30691452644E+03  0.71257858801E+02  0.35583685176E+03  0.93396254017E+02 0.  0.
          4    1    3    3  502    0  0.83687896295E+02  0.48946645219E+03  0.60263720675E+03  0.78086661778E+03  0.00000000000E+00 0. -1.
         -3    1    3    3    0  502 -0.90805834082E+01  0.12900101330E+02  0.79562132379E+01  0.17668359812E+02  0.00000000000E+00 0.  1.
         13    1    5    5    0    0  0.25656889619E+02 -0.42748788672E+02 -0.46367735966E+03  0.46635011395E+03  0.00000000000E+00 0.  1.
        -13    1    5    5    0    0  0.36201162418E+02 -0.15270323840E+03 -0.55646433517E+03  0.57817070100E+03  0.00000000000E+00 0. -1.
          4    1    6    6  503    0 -0.94436327563E+01 -0.16072730407E+02  0.30658196040E+02  0.35880912012E+02  0.00000000000E+00 0. -1.
         -4    1    6    6    0  503 -0.12702173217E+03 -0.29084179604E+03  0.40599662762E+02  0.31995593975E+03  0.00000000000E+00 0.  1.
<mgrwt>
<rscale>  0 0.21727145E+04</rscale>
<asrwt>0</asrwt>
<pdfrwt beam="1">  1        2 0.14312325E+00 0.21727145E+04</pdfrwt>
<pdfrwt beam="2">  1       -1 0.19516793E+00 0.21727145E+04</pdfrwt>
<totfact> 0.47529901E+00</totfact>
</mgrwt>
</event>
<event>
12    7  0.1698542E-007  0.1276447E+04  0.7818608E-02  0.9048454E-01
         -1   -1    0    0    0  501 -0.00000000000E+00  0.00000000000E+00  0.50911197746E+03  0.50911197746E+03  0.00000000000E+00 0.  1.
          2   -1    0    0  501    0  0.00000000000E+00 -0.00000000000E+00 -0.80007773334E+03  0.80007773334E+03  0.00000000000E+00 0. -1.
         24    2    1    2    0    0 -0.72751517583E+02 -0.23557008390E+03  0.76894686841E+02  0.27045226941E+03  0.80284428295E+02 0.  0.
        254    2    1    2    0    0  0.72751517583E+02  0.23557008390E+03 -0.36786044272E+03  0.10387374414E+04  0.93961062100E+03 0.  0.
         23    2    4    4    0    0  0.40754618041E+03 -0.15667149031E+03 -0.14512874397E+03  0.46961747342E+03  0.94012626644E+02 0.  0.
         23    2    4    4    0    0 -0.33479466283E+03  0.39224157421E+03 -0.22273169875E+03  0.56911996798E+03  0.91363064336E+02 0.  0.
          2    1    3    3  502    0 -0.31931371169E+01  0.37192013946E+01 -0.60773387922E+01  0.78078569694E+01  0.00000000000E+00 0. -1.
         -1    1    3    3    0  502 -0.69558380466E+02 -0.23928928529E+03  0.82972025633E+02  0.26264441244E+03  0.00000000000E+00 0.  1.
         13    1    5    5    0    0  0.35268442192E+03 -0.14659793236E+03 -0.92613180395E+02  0.39300694195E+03  0.00000000000E+00 0. -1.
        -13    1    5    5    0    0  0.54861758492E+02 -0.10073557952E+02 -0.52515563571E+02  0.76610531468E+02  0.00000000000E+00 0.  1.
          1    1    6    6  503    0 -0.30685379043E+03  0.31188821974E+03 -0.19991929687E+03  0.48104182311E+03  0.00000000000E+00 0. -1.
         -1    1    6    6    0  503 -0.27940872397E+02  0.80353354465E+02 -0.22812401883E+02  0.88078144870E+02  0.00000000000E+00 0.  1.
<mgrwt>
<rscale>  0 0.12764469E+04</rscale>
<asrwt>0</asrwt>
<pdfrwt beam="1">  1        2 0.12308888E+00 0.12764469E+04</pdfrwt>
<pdfrwt beam="2">  1       -1 0.78324920E-01 0.12764469E+04</pdfrwt>
<totfact> 0.63015063E+01</totfact>
</mgrwt>
</event>
<event>
12    7  0.1698542E-007  0.3302510E+04  0.7818608E-02  0.8162257E-01
          2   -1    0    0  501    0  0.00000000000E+00  0.00000000000E+00  0.10694791458E+04  0.10694791458E+04  0.00000000000E+00 0. -1.
         -1   -1    0    0    0  501 -0.00000000000E+00 -0.00000000000E+00 -0.25495050481E+04  0.25495050481E+04  0.00000000000E+00 0.  1.
         24    2    1    2    0    0  0.59092209904E+02 -0.64769944576E+03  0.82629259523E+03  0.10548777855E+04  0.83673341047E+02 0.  0.
        254    2    1    2    0    0 -0.59092209904E+02  0.64769944576E+03 -0.23063184976E+04  0.25641064084E+04  0.91243092894E+03 0.  0.
         23    2    4    4    0    0  0.17365483419E+03  0.18629339539E+03 -0.88771271884E+02  0.28532554152E+03  0.93107976721E+02 0.  0.
         23    2    4    4    0    0 -0.23274704409E+03  0.46140605037E+03 -0.22175472257E+04  0.22787808669E+04  0.90883503843E+02 0.  0.
          2    1    3    3  502    0  0.54621984698E+02 -0.62117764965E+03  0.75834438534E+03  0.98180010206E+03  0.00000000000E+00 0. -1.
         -1    1    3    3    0  502  0.44702252062E+01 -0.26521796113E+02  0.67948209893E+02  0.73077683393E+02  0.00000000000E+00 0.  1.
         13    1    5    5    0    0  0.72939267322E+02  0.51452355925E+02  0.10581515196E+02  0.89885761451E+02  0.00000000000E+00 0.  1.
        -13    1    5    5    0    0  0.10071556687E+03  0.13484103947E+03 -0.99352787079E+02  0.19543978007E+03  0.00000000000E+00 0. -1.
          2    1    6    6  503    0  0.85009262728E+01  0.13214750017E+02 -0.68535840122E+02  0.70313986850E+02  0.00000000000E+00 0.  1.
         -2    1    6    6    0  503 -0.24124797036E+03  0.44819130035E+03 -0.21490113856E+04  0.22084668800E+04  0.00000000000E+00 0. -1.
<mgrwt>
<rscale>  0 0.33025096E+04</rscale>
<asrwt>0</asrwt>
<pdfrwt beam="1">  1        2 0.16453526E+00 0.33025096E+04</pdfrwt>
<pdfrwt beam="2">  1       -1 0.39223154E+00 0.33025096E+04</pdfrwt>
<totfact> 0.17487505E-01</totfact>
</mgrwt>
</event>
<event>
12    7  0.1698542E-007  0.1815761E+04  0.7818608E-02  0.8697963E-01
         -1   -1    0    0    0  501 -0.00000000000E+00  0.00000000000E+00  0.48382561589E+03  0.48382561589E+03  0.00000000000E+00 0.  1.
          2   -1    0    0  501    0  0.00000000000E+00 -0.00000000000E+00 -0.17036035269E+04  0.17036035269E+04  0.00000000000E+00 0. -1.
         24    2    1    2    0    0  0.20472128427E+03 -0.60887478395E+03 -0.67337795538E+03  0.93356497179E+03  0.73934964707E+02 0.  0.
        254    2    1    2    0    0 -0.20472128427E+03  0.60887478395E+03 -0.54639995558E+03  0.12538641710E+04  0.92789177224E+03 0.  0.
         23    2    4    4    0    0  0.32091675271E+03  0.36076018800E+03 -0.69392740540E+02  0.49679377631E+03  0.94091595428E+02 0.  0.
         23    2    4    4    0    0 -0.52563803697E+03  0.24811459595E+03 -0.47700721504E+03  0.75707039464E+03  0.88110729231E+02 0.  0.
          4    1    3    3  502    0  0.17743220293E+02 -0.11505220949E+03 -0.15249493913E+03  0.19185030423E+03  0.00000000000E+00 0. -1.
         -3    1    3    3    0  502  0.18697806397E+03 -0.49382257446E+03 -0.52088301625E+03  0.74171466756E+03  0.00000000000E+00 0.  1.
         13    1    5    5    0    0  0.17465706097E+03  0.22422881371E+03  0.23620414382E+01  0.28423446146E+03  0.00000000000E+00 0. -1.
        -13    1    5    5    0    0  0.14625969173E+03  0.13653137430E+03 -0.71754781978E+02  0.21255931485E+03  0.00000000000E+00 0.  1.
          3    1    6    6  503    0 -0.47411602451E+03  0.19920679084E+03 -0.44084156245E+03  0.67735561812E+03  0.00000000000E+00 0. -1.
         -3    1    6    6    0  503 -0.51522012462E+02  0.48907805108E+02 -0.36165652593E+02  0.79714776523E+02  0.00000000000E+00 0.  1.
<mgrwt>
<rscale>  0 0.18157610E+04</rscale>
<asrwt>0</asrwt>
<pdfrwt beam="1">  1        2 0.26209285E+00 0.18157610E+04</pdfrwt>
<pdfrwt beam="2">  1       -1 0.74434710E-01 0.18157610E+04</pdfrwt>
<totfact> 0.19043177E+01</totfact>
</mgrwt>
</event>
<event>
12    7  0.1698542E-007  0.2202535E+04  0.7818608E-02  0.8517374E-01
          4   -1    0    0  501    0  0.00000000000E+00  0.00000000000E+00  0.93626038957E+03  0.93626038957E+03  0.00000000000E+00 0. -1.
         -3   -1    0    0    0  501 -0.00000000000E+00 -0.00000000000E+00 -0.12953551556E+04  0.12953551556E+04  0.00000000000E+00 0.  1.
         24    2    1    2    0    0 -0.52713044241E+02  0.81877237429E+03  0.31355311220E+03  0.88204597925E+03  0.80763168633E+02 0.  0.
        254    2    1    2    0    0  0.52713044241E+02 -0.81877237429E+03 -0.67264787819E+03  0.13495695659E+04  0.83409590525E+03 0.  0.
         23    2    4    4    0    0 -0.16721710393E+03 -0.22955832680E+03  0.12990776853E+03  0.32554929478E+03  0.91911532229E+02 0.  0.
         23    2    4    4    0    0  0.21993014817E+03 -0.58921404749E+03 -0.80255564672E+03  0.10240202711E+04  0.94760148191E+02 0.  0.
          4    1    3    3  502    0 -0.72024196942E+02  0.67032623002E+03  0.26889088960E+03  0.72582852666E+03  0.00000000000E+00 0. -1.
         -3    1    3    3    0  502  0.19311152701E+02  0.14844614427E+03  0.44662222594E+02  0.15621745259E+03  0.00000000000E+00 0.  1.
         13    1    5    5    0    0 -0.81631842863E+02 -0.44536593163E+02  0.56873544555E+02  0.10900397227E+03  0.00000000000E+00 0. -1.
        -13    1    5    5    0    0 -0.85585261067E+02 -0.18502173364E+03  0.73034223977E+02  0.21654532251E+03  0.00000000000E+00 0.  1.
          3    1    6    6  503    0  0.14424336149E+03 -0.49252252705E+03 -0.65070694674E+03  0.82873645843E+03  0.00000000000E+00 0.  1.
         -3    1    6    6    0  503  0.75686786685E+02 -0.96691520442E+02 -0.15184869997E+03  0.19528381266E+03  0.00000000000E+00 0. -1.
<mgrwt>
<rscale>  0 0.22025347E+04</rscale>
<asrwt>0</asrwt>
<pdfrwt beam="1">  1        4 0.14404006E+00 0.22025347E+04</pdfrwt>
<pdfrwt beam="2">  1       -3 0.19928541E+00 0.22025347E+04</pdfrwt>
<totfact> 0.10244985E-01</totfact>
</mgrwt>
</event>
<event>
12    7  0.1698542E-007  0.2245701E+04  0.7818608E-02  0.8499644E-01
         -1   -1    0    0    0  501 -0.00000000000E+00  0.00000000000E+00  0.56554361288E+03  0.56554361288E+03  0.00000000000E+00 0.  1.
          2   -1    0    0  501    0  0.00000000000E+00 -0.00000000000E+00 -0.22293474851E+04  0.22293474851E+04  0.00000000000E+00 0. -1.
         24    2    1    2    0    0 -0.53377145588E+03 -0.49177734130E+03 -0.14429406956E+04  0.16171380716E+04  0.79377396507E+02 0.  0.
        254    2    1    2    0    0  0.53377145588E+03  0.49177734130E+03 -0.22086317668E+03  0.11777530264E+04  0.90086887388E+03 0.  0.
         23    2    4    4    0    0 -0.18841828460E+03  0.35297965147E+03 -0.25850663079E+02  0.41104251748E+03  0.90507513932E+02 0.  0.
         23    2    4    4    0    0  0.72218974048E+03  0.13879768984E+03 -0.19501251360E+03  0.76671050895E+03  0.94827760227E+02 0.  0.
          4    1    3    3  502    0 -0.77743363987E+02 -0.10100126893E+03 -0.20868988611E+03  0.24453375132E+03  0.00000000000E+00 0. -1.
         -3    1    3    3    0  502 -0.45602809190E+03 -0.39077607237E+03 -0.12342508095E+04  0.13726043203E+04  0.00000000000E+00 0.  1.
         13    1    5    5    0    0 -0.17269798488E+03  0.34122598403E+03 -0.50917220621E+01  0.38247312558E+03  0.00000000000E+00 0.  1.
        -13    1    5    5    0    0 -0.15720299719E+02  0.11753667432E+02 -0.20758941017E+02  0.28569391899E+02  0.00000000000E+00 0. -1.
          3    1    6    6  503    0  0.20492604854E+03  0.11825546338E+02 -0.20774647030E+02  0.20631557109E+03  0.00000000000E+00 0. -1.
         -3    1    6    6    0  503  0.51726369194E+03  0.12697214350E+03 -0.17423786657E+03  0.56039493786E+03  0.00000000000E+00 0.  1.
<mgrwt>
<rscale>  0 0.22457010E+04</rscale>
<asrwt>0</asrwt>
<pdfrwt beam="1">  1        2 0.34297654E+00 0.22457010E+04</pdfrwt>
<pdfrwt beam="2">  1       -1 0.87006710E-01 0.22457010E+04</pdfrwt>
<totfact> 0.67020723E+00</totfact>
</mgrwt>
</event>
<event>
12    7  0.1698542E-007  0.1127651E+04  0.7818608E-02  0.9178652E-01
          2   -1    0    0  501    0  0.00000000000E+00  0.00000000000E+00  0.25087427529E+03  0.25087427529E+03  0.00000000000E+00 0. -1.
         -1   -1    0    0    0  501 -0.00000000000E+00 -0.00000000000E+00 -0.12671662564E+04  0.12671662564E+04  0.00000000000E+00 0.  1.
         24    2    1    2    0    0 -0.38132958825E+02 -0.17271292017E+03 -0.24032350917E+03  0.31014588193E+03  0.84564789813E+02 0.  0.
        254    2    1    2    0    0  0.38132958825E+02  0.17271292017E+03 -0.77596847199E+03  0.12078946498E+04  0.90862453200E+03 0.  0.
         23    2    4    4    0    0 -0.26959661121E+03  0.36318217846E+03 -0.68223803975E+03  0.82340683170E+03  0.89254916245E+02 0.  0.
         23    2    4    4    0    0  0.30772957003E+03 -0.19046925829E+03 -0.93730432241E+02  0.38448781811E+03  0.89830182672E+02 0.  0.
          4    1    3    3  502    0 -0.17794771725E+02 -0.13786904284E+02 -0.81472085799E+02  0.84524750191E+02  0.00000000000E+00 0. -1.
         -3    1    3    3    0  502 -0.20338187099E+02 -0.15892601589E+03 -0.15885142337E+03  0.22562113174E+03  0.00000000000E+00 0.  1.
         13    1    5    5    0    0 -0.17922206551E+01  0.76356468583E+01 -0.47533926456E+02  0.48176647062E+02  0.00000000000E+00 0.  1.
        -13    1    5    5    0    0 -0.26780439055E+03  0.35554653160E+03 -0.63470411329E+03  0.77523018463E+03  0.00000000000E+00 0. -1.
          3    1    6    6  503    0  0.27581452811E+03 -0.13121552178E+03 -0.72588127279E+02  0.31394299370E+03  0.00000000000E+00 0. -1.
         -3    1    6    6    0  503  0.31915041921E+02 -0.59253736508E+02 -0.21142304962E+02  0.70544824403E+02  0.00000000000E+00 0.  1.
<mgrwt>
<rscale>  0 0.11276514E+04</rscale>
<asrwt>0</asrwt>
<pdfrwt beam="1">  1        2 0.38596042E-01 0.11276514E+04</pdfrwt>
<pdfrwt beam="2">  1       -1 0.19494865E+00 0.11276514E+04</pdfrwt>
<totfact> 0.24875423E+01</totfact>
</mgrwt>
</event>
<event>
12    7  0.1698542E-007  0.3122050E+04  0.7818608E-02  0.8209712E-01
         -1   -1    0    0    0  501 -0.00000000000E+00  0.00000000000E+00  0.67493397594E+03  0.67493397594E+03  0.00000000000E+00 0.  1.
          2   -1    0    0  501    0  0.00000000000E+00 -0.00000000000E+00 -0.36104258676E+04  0.36104258676E+04  0.00000000000E+00 0. -1.
         24    2    1    2    0    0  0.82754584052E+02  0.11486011121E+04 -0.17951270502E+03  0.11683097970E+04  0.81179644056E+02 0.  0.
        254    2    1    2    0    0 -0.82754584052E+02 -0.11486011121E+04 -0.27559791866E+04  0.31170500465E+04  0.89131749642E+03 0.  0.
         23    2    4    4    0    0 -0.15934503050E+03 -0.24823527517E+03 -0.16813679611E+04  0.17101411192E+04  0.10282429794E+03 0.  0.
         23    2    4    4    0    0  0.76590446450E+02 -0.90036583695E+03 -0.10746112255E+04  0.14069089274E+04  0.89881627804E+02 0.  0.
          4    1    3    3  502    0 -0.86736254768E+01  0.36298443879E+02  0.29588964716E+01  0.37437466197E+02  0.00000000000E+00 0. -1.
         -3    1    3    3    0  502  0.91428209529E+02  0.11123026682E+04 -0.18247160150E+03  0.11308723308E+04  0.00000000000E+00 0.  1.
         13    1    5    5    0    0  0.28275431248E+01 -0.32299363314E+02 -0.36015996245E+03  0.36161642997E+03  0.00000000000E+00 0. -1.
        -13    1    5    5    0    0 -0.16217257363E+03 -0.21593591185E+03 -0.13212079986E+04  0.13485246892E+04  0.00000000000E+00 0.  1.
          2    1    6    6  503    0  0.27049084265E+02 -0.62680605054E+03 -0.79325068494E+03  0.10113674541E+04  0.00000000000E+00 0.  1.
         -2    1    6    6    0  503  0.49541362185E+02 -0.27355978642E+03 -0.28136054061E+03  0.39554147333E+03  0.00000000000E+00 0. -1.
<mgrwt>
<rscale>  0 0.31220500E+04</rscale>
<asrwt>0</asrwt>
<pdfrwt beam="1">  1        2 0.55545014E+00 0.31220500E+04</pdfrwt>
<pdfrwt beam="2">  1       -1 0.10383600E+00 0.31220500E+04</pdfrwt>
<totfact> 0.57000741E-01</totfact>
</mgrwt>
</event>
<event>
12    7  0.1698542E-007  0.1514234E+04  0.7818608E-02  0.8875042E-01
         -1   -1    0    0    0  501 -0.00000000000E+00  0.00000000000E+00  0.40448683382E+03  0.40448683382E+03  0.00000000000E+00 0.  1.
          2   -1    0    0  501    0  0.00000000000E+00 -0.00000000000E+00 -0.14171684046E+04  0.14171684046E+04  0.00000000000E+00 0. -1.
         24    2    1    2    0    0  0.24342314294E+03  0.27241117784E+02  0.17262432328E+03  0.31051395097E+03  0.81380905271E+02 0.  0.
        254    2    1    2    0    0 -0.24342314294E+03 -0.27241117784E+02 -0.11853058940E+04  0.15111412874E+04  0.90476572832E+03 0.  0.
         23    2    4    4    0    0  0.79702012206E+02  0.36357646267E+03 -0.30066433911E+03  0.48746600815E+03  0.93186959067E+02 0.  0.
         23    2    4    4    0    0 -0.32312515515E+03 -0.39081758045E+03 -0.88464155494E+03  0.10236752793E+04  0.90399942621E+02 0.  0.
          4    1    3    3  502    0  0.55175410920E+02  0.35549882761E+02  0.69961496481E+02  0.95930866380E+02  0.00000000000E+00 0. -1.
         -3    1    3    3    0  502  0.18824773202E+03 -0.83087649774E+01  0.10266282679E+03  0.21458308459E+03  0.00000000000E+00 0.  1.
         13    1    5    5    0    0  0.48731590872E+02  0.98445984533E+02 -0.13193056566E+03  0.17167426708E+03  0.00000000000E+00 0. -1.
        -13    1    5    5    0    0  0.30970421334E+02  0.26513047813E+03 -0.16873377344E+03  0.31579174108E+03  0.00000000000E+00 0.  1.
          3    1    6    6  503    0 -0.79004652571E+02 -0.81741905062E+02 -0.27854969222E+03  0.30085445851E+03  0.00000000000E+00 0. -1.
         -3    1    6    6    0  503 -0.24412050258E+03 -0.30907567539E+03 -0.60609186272E+03  0.72282082078E+03  0.00000000000E+00 0.  1.
<mgrwt>
<rscale>  0 0.15142337E+04</rscale>
<asrwt>0</asrwt>
<pdfrwt beam="1">  1        2 0.21802591E+00 0.15142337E+04</pdfrwt>
<pdfrwt beam="2">  1       -1 0.62228744E-01 0.15142337E+04</pdfrwt>
<totfact> 0.40757500E+01</totfact>
</mgrwt>
</event>
<event>
12    7  0.1698542E-007  0.1555127E+04  0.7818608E-02  0.8848600E-01
          2   -1    0    0  501    0  0.00000000000E+00  0.00000000000E+00  0.10603533403E+04  0.10603533403E+04  0.00000000000E+00 0. -1.
         -1   -1    0    0    0  501 -0.00000000000E+00 -0.00000000000E+00 -0.57019190834E+03  0.57019190834E+03  0.00000000000E+00 0.  1.
         24    2    1    2    0    0  0.24732356812E+03 -0.86095538423E+02 -0.30325268157E+03  0.40840060027E+03  0.79040953546E+02 0.  0.
        254    2    1    2    0    0 -0.24732356812E+03  0.86095538423E+02  0.79341411354E+03  0.12221446484E+04  0.89193620677E+03 0.  0.
         23    2    4    4    0    0 -0.51890356125E+03  0.18066197440E+03  0.27238411105E+03  0.62000494818E+03  0.91177721755E+02 0.  0.
         23    2    4    4    0    0  0.27157999313E+03 -0.94566435974E+02  0.52103000249E+03  0.60213970021E+03  0.91659432674E+02 0.  0.
          2    1    3    3  502    0  0.12699965853E+03 -0.25584027191E+01 -0.13721066665E+03  0.18698188612E+03  0.00000000000E+00 0. -1.
         -1    1    3    3    0  502  0.12032390958E+03 -0.83537135704E+02 -0.16604201491E+03  0.22141871415E+03  0.00000000000E+00 0.  1.
         13    1    5    5    0    0 -0.15346640664E+03  0.15715514181E+02  0.98146204802E+02  0.18284308264E+03  0.00000000000E+00 0.  1.
        -13    1    5    5    0    0 -0.36543715461E+03  0.16494646022E+03  0.17423790625E+03  0.43716186554E+03  0.00000000000E+00 0. -1.
          1    1    6    6  503    0  0.11804588017E+03  0.53764525202E+01  0.18821218146E+03  0.22223312380E+03  0.00000000000E+00 0.  1.
         -1    1    6    6    0  503  0.15353411296E+03 -0.99942888494E+02  0.33281782103E+03  0.37990657641E+03  0.00000000000E+00 0. -1.
<mgrwt>
<rscale>  0 0.15551269E+04</rscale>
<asrwt>0</asrwt>
<pdfrwt beam="1">  1        2 0.16313128E+00 0.15551269E+04</pdfrwt>
<pdfrwt beam="2">  1       -1 0.87721832E-01 0.15551269E+04</pdfrwt>
<totfact> 0.32355973E+01</totfact>
</mgrwt>
</event>
<event>
12    7  0.1698542E-007  0.1651210E+04  0.7818608E-02  0.8789691E-01
         -1   -1    0    0    0  501 -0.00000000000E+00  0.00000000000E+00  0.40079883650E+03  0.40079883650E+03  0.00000000000E+00 0.  1.
          2   -1    0    0  501    0  0.00000000000E+00 -0.00000000000E+00 -0.17006634143E+04  0.17006634143E+04  0.00000000000E+00 0. -1.
         24    2    1    2    0    0 -0.34068862157E+03  0.29044504950E+03  0.12964508095E+02  0.45698754994E+03  0.90788097720E+02 0.  0.
        254    2    1    2    0    0  0.34068862157E+03 -0.29044504950E+03 -0.13128290859E+04  0.16444747008E+04  0.88337408230E+03 0.  0.
         23    2    4    4    0    0 -0.13650068006E+03  0.18631475308E+03 -0.13284765052E+03  0.28210794368E+03  0.92686410926E+02 0.  0.
         23    2    4    4    0    0  0.47718930162E+03 -0.47675980258E+03 -0.11799814353E+04  0.13623667571E+04  0.93152854187E+02 0.  0.
          2    1    3    3  502    0 -0.88380507266E+02  0.98081833327E+02 -0.33800861049E+02  0.13628520940E+03  0.00000000000E+00 0. -1.
         -1    1    3    3    0  502 -0.25230811430E+03  0.19236321618E+03  0.46765369144E+02  0.32070234055E+03  0.00000000000E+00 0.  1.
         13    1    5    5    0    0  0.71657139474E+01  0.55421262572E+01  0.76138971567E+01  0.11833598343E+02  0.00000000000E+00 0.  1.
        -13    1    5    5    0    0 -0.14366639400E+03  0.18077262682E+03 -0.14046154768E+03  0.27027434534E+03  0.00000000000E+00 0. -1.
          2    1    6    6  503    0  0.28248291242E+03 -0.24656450751E+03 -0.57553747460E+03  0.68690176651E+03  0.00000000000E+00 0. -1.
         -2    1    6    6    0  503  0.19470638920E+03 -0.23019529507E+03 -0.60444396075E+03  0.67546499062E+03  0.00000000000E+00 0.  1.
<mgrwt>
<rscale>  0 0.16512104E+04</rscale>
<asrwt>0</asrwt>
<pdfrwt beam="1">  1        2 0.26164052E+00 0.16512104E+04</pdfrwt>
<pdfrwt beam="2">  1       -1 0.61661360E-01 0.16512104E+04</pdfrwt>
<totfact> 0.28441089E+01</totfact>
</mgrwt>
</event>
<event>
12    7  0.1698542E-007  0.1713867E+04  0.7818608E-02  0.8753495E-01
         -1   -1    0    0    0  501 -0.00000000000E+00  0.00000000000E+00  0.52109902502E+03  0.52109902502E+03  0.00000000000E+00 0.  1.
          2   -1    0    0  501    0  0.00000000000E+00 -0.00000000000E+00 -0.14092046041E+04  0.14092046041E+04  0.00000000000E+00 0. -1.
         24    2    1    2    0    0  0.11458056051E+03 -0.49058423240E+03  0.81062516080E+02  0.51651742871E+03  0.80109479600E+02 0.  0.
        254    2    1    2    0    0 -0.11458056051E+03  0.49058423240E+03 -0.96916809511E+03  0.14137862004E+04  0.89760961995E+03 0.  0.
         23    2    4    4    0    0  0.17094050300E+03  0.63927294944E+03 -0.48445437848E+03  0.82502982055E+03  0.89931087590E+02 0.  0.
         23    2    4    4    0    0 -0.28552106351E+03 -0.14868871704E+03 -0.48471371664E+03  0.58875637982E+03  0.89755642706E+02 0.  0.
          2    1    3    3  502    0  0.15402841971E+02 -0.81570722905E+01  0.35979172465E+00  0.17433152876E+02  0.00000000000E+00 0. -1.
         -1    1    3    3    0  502  0.99177718539E+02 -0.48242716011E+03  0.80702724356E+02  0.49908427584E+03  0.00000000000E+00 0.  1.
         13    1    5    5    0    0  0.16709781164E+03  0.47612062121E+03 -0.36286625127E+03  0.62151785244E+03  0.00000000000E+00 0. -1.
        -13    1    5    5    0    0  0.38426913639E+01  0.16315232823E+03 -0.12158812721E+03  0.20351196811E+03  0.00000000000E+00 0.  1.
          3    1    6    6  503    0 -0.18006248781E+03 -0.44261510730E+02 -0.25560168974E+03  0.31577492719E+03  0.00000000000E+00 0. -1.
         -3    1    6    6    0  503 -0.10545857570E+03 -0.10442720631E+03 -0.22911202690E+03  0.27298145262E+03  0.00000000000E+00 0.  1.
<mgrwt>
<rscale>  0 0.17138671E+04</rscale>
<asrwt>0</asrwt>
<pdfrwt beam="1">  1        2 0.21680070E+00 0.17138671E+04</pdfrwt>
<pdfrwt beam="2">  1       -1 0.80169083E-01 0.17138671E+04</pdfrwt>
<totfact> 0.24050258E+01</totfact>
</mgrwt>
</event>
<event>
12    7  0.1698542E-007  0.1714866E+04  0.7818608E-02  0.8752931E-01
         -1   -1    0    0    0  501 -0.00000000000E+00  0.00000000000E+00  0.54808111152E+03  0.54808111152E+03  0.00000000000E+00 0.  1.
          2   -1    0    0  501    0  0.00000000000E+00 -0.00000000000E+00 -0.13413920027E+04  0.13413920027E+04  0.00000000000E+00 0. -1.
         24    2    1    2    0    0 -0.31775376968E+03  0.52735932104E+03 -0.38682492827E+03  0.73097932195E+03  0.74979546193E+02 0.  0.
        254    2    1    2    0    0  0.31775376968E+03 -0.52735932104E+03 -0.40648596291E+03  0.11584937923E+04  0.89319746813E+03 0.  0.
         23    2    4    4    0    0  0.61878494861E+03 -0.40657796602E+03 -0.33127619680E+03  0.81620994359E+03  0.90853169333E+02 0.  0.
         23    2    4    4    0    0 -0.30103117893E+03 -0.12078135503E+03 -0.75209766106E+02  0.34228384868E+03  0.79333585194E+02 0.  0.
          2    1    3    3  502    0 -0.18950171896E+02  0.60594268890E+02 -0.20815570773E+02  0.66813639505E+02  0.00000000000E+00 0. -1.
         -1    1    3    3    0  502 -0.29880359778E+03  0.46676505215E+03 -0.36600935750E+03  0.66416568244E+03  0.00000000000E+00 0.  1.
         13    1    5    5    0    0  0.52260708131E+03 -0.34443583426E+03 -0.24217430369E+03  0.67112040553E+03  0.00000000000E+00 0.  1.
        -13    1    5    5    0    0  0.96177867298E+02 -0.62142131760E+02 -0.89101893119E+02  0.14508953806E+03  0.00000000000E+00 0. -1.
          1    1    6    6  503    0 -0.17625371986E+03 -0.35717504019E+02 -0.63881582341E+02  0.19084540975E+03  0.00000000000E+00 0. -1.
         -1    1    6    6    0  503 -0.12477745907E+03 -0.85063851006E+02 -0.11328183764E+02  0.15143843894E+03  0.00000000000E+00 0.  1.
<mgrwt>
<rscale>  0 0.17148663E+04</rscale>
<asrwt>0</asrwt>
<pdfrwt beam="1">  1        2 0.20636800E+00 0.17148663E+04</pdfrwt>
<pdfrwt beam="2">  1       -1 0.84320172E-01 0.17148663E+04</pdfrwt>
<totfact> 0.23607396E+01</totfact>
</mgrwt>
</event>
<event>
12    7  0.1698542E-007  0.1328177E+04  0.7818608E-02  0.9007515E-01
          2   -1    0    0  501    0  0.00000000000E+00  0.00000000000E+00  0.73844507501E+03  0.73844507501E+03  0.00000000000E+00 0. -1.
         -1   -1    0    0    0  501 -0.00000000000E+00 -0.00000000000E+00 -0.59721873802E+03  0.59721873802E+03  0.00000000000E+00 0.  1.
         24    2    1    2    0    0  0.19787515933E+03 -0.30257518899E+03  0.77890173710E+02  0.37869942205E+03  0.81486498413E+02 0.  0.
        254    2    1    2    0    0 -0.19787515933E+03  0.30257518899E+03  0.63336163283E+02  0.95696439098E+03  0.88377771659E+03 0.  0.
         23    2    4    4    0    0  0.33337909446E+03  0.17533264337E+03  0.10468250026E+03  0.40076577276E+03  0.88156805206E+02 0.  0.
         23    2    4    4    0    0 -0.53125425379E+03  0.12724254562E+03 -0.41346336979E+02  0.55619861822E+03  0.96050173030E+02 0.  0.
          2    1    3    3  502    0 -0.75204593241E+01 -0.18774536701E+02  0.28565645263E+01  0.20425486474E+02  0.00000000000E+00 0. -1.
         -1    1    3    3    0  502  0.20539561866E+03 -0.28380065229E+03  0.75033609183E+02  0.35827393557E+03  0.00000000000E+00 0.  1.
         13    1    5    5    0    0  0.33660356596E+03  0.16683627565E+03  0.95041214480E+02  0.38751662666E+03  0.00000000000E+00 0. -1.
        -13    1    5    5    0    0 -0.32244715016E+01  0.84963677144E+01  0.96412857827E+01  0.13249146099E+02  0.00000000000E+00 0.  1.
          3    1    6    6  503    0 -0.36496854678E+03  0.63226666296E+02 -0.66254905661E+02  0.37628362175E+03  0.00000000000E+00 0. -1.
         -3    1    6    6    0  503 -0.16628570701E+03  0.64015879326E+02  0.24908568682E+02  0.17991499647E+03  0.00000000000E+00 0.  1.
<mgrwt>
<rscale>  0 0.13281765E+04</rscale>
<asrwt>0</asrwt>
<pdfrwt beam="1">  1        2 0.11360693E+00 0.13281765E+04</pdfrwt>
<pdfrwt beam="2">  1       -1 0.91879806E-01 0.13281765E+04</pdfrwt>
<totfact> 0.49345096E+01</totfact>
</mgrwt>
</event>
<event>
12    7  0.1698542E-007  0.1692639E+04  0.7818608E-02  0.8765574E-01
         -1   -1    0    0    0  501 -0.00000000000E+00  0.00000000000E+00  0.20380479336E+03  0.20380479336E+03  0.00000000000E+00 0.  1.
          2   -1    0    0  501    0  0.00000000000E+00 -0.00000000000E+00 -0.35144262584E+04  0.35144262584E+04  0.00000000000E+00 0. -1.
         24    2    1    2    0    0  0.31790341108E+03 -0.72046672584E+02 -0.74528834469E+02  0.34552895618E+03  0.87077038212E+02 0.  0.
        254    2    1    2    0    0 -0.31790341108E+03  0.72046672584E+02 -0.32360926306E+04  0.33727020956E+04  0.89250804485E+03 0.  0.
         23    2    4    4    0    0 -0.20095050151E+03  0.33610566591E+03 -0.61723678091E+03  0.73652376640E+03  0.90210265715E+02 0.  0.
         23    2    4    4    0    0 -0.11695290956E+03 -0.26405899333E+03 -0.26188558497E+04  0.26361783292E+04  0.87321743941E+02 0.  0.
          2    1    3    3  502    0  0.31565717516E+02  0.12823933323E+02  0.93346294729E+01  0.35326804209E+02  0.00000000000E+00 0. -1.
         -1    1    3    3    0  502  0.28633769356E+03 -0.84870605907E+02 -0.83863463941E+02  0.31020215197E+03  0.00000000000E+00 0.  1.
         13    1    5    5    0    0 -0.54367252534E+02  0.16241885348E+03 -0.21931372995E+03  0.27827000244E+03  0.00000000000E+00 0. -1.
        -13    1    5    5    0    0 -0.14658324898E+03  0.17368681244E+03 -0.39792305096E+03  0.45825376396E+03  0.00000000000E+00 0.  1.
          2    1    6    6  503    0 -0.10034459818E+03 -0.12346395967E+03 -0.14944368188E+04  0.15028818294E+04  0.00000000000E+00 0. -1.
         -2    1    6    6    0  503 -0.16608311387E+02 -0.14059503365E+03 -0.11244190309E+04  0.11332964998E+04  0.00000000000E+00 0.  1.
<mgrwt>
<rscale>  0 0.16926393E+04</rscale>
<asrwt>0</asrwt>
<pdfrwt beam="1">  1        2 0.54068092E+00 0.16926393E+04</pdfrwt>
<pdfrwt beam="2">  1       -1 0.31354586E-01 0.16926393E+04</pdfrwt>
<totfact> 0.82109483E+00</totfact>
</mgrwt>
</event>
<event>
12    7  0.1698542E-007  0.2012429E+04  0.7818608E-02  0.8600832E-01
         -1   -1    0    0    0  501 -0.00000000000E+00  0.00000000000E+00  0.72871906202E+03  0.72871906202E+03  0.00000000000E+00 0.  1.
          2   -1    0    0  501    0  0.00000000000E+00 -0.00000000000E+00 -0.13893800750E+04  0.13893800750E+04  0.00000000000E+00 0. -1.
         24    2    1    2    0    0 -0.12446706727E+03 -0.50709245743E+03  0.37250586003E+03  0.64632848910E+03  0.79656065978E+02 0.  0.
        254    2    1    2    0    0  0.12446706727E+03  0.50709245743E+03 -0.10331668730E+04  0.14717706479E+04  0.90886755986E+03 0.  0.
         23    2    4    4    0    0  0.13985919737E+03  0.68538988210E+03 -0.40794341973E+03  0.81477853418E+03  0.90146217217E+02 0.  0.
         23    2    4    4    0    0 -0.15392130095E+02 -0.17829742467E+03 -0.62522345329E+03  0.65699211375E+03  0.93313352044E+02 0.  0.
          2    1    3    3  502    0 -0.49674626260E+02 -0.35129270485E+03  0.23618509857E+03  0.42621301453E+03  0.00000000000E+00 0. -1.
         -1    1    3    3    0  502 -0.74792441013E+02 -0.15579975258E+03  0.13632076146E+03  0.22011547457E+03  0.00000000000E+00 0.  1.
         13    1    5    5    0    0  0.15062955585E+03  0.66847322689E+03 -0.39707182818E+03  0.79196701630E+03  0.00000000000E+00 0.  1.
        -13    1    5    5    0    0 -0.10770358477E+02  0.16916655205E+02 -0.10871591554E+02  0.22811517879E+02  0.00000000000E+00 0. -1.
          4    1    6    6  503    0 -0.32939467830E+02 -0.15423702194E+02 -0.84415106229E+02  0.91917404717E+02  0.00000000000E+00 0. -1.
         -4    1    6    6    0  503  0.17547337735E+02 -0.16287372248E+03 -0.54080834706E+03  0.56507470903E+03  0.00000000000E+00 0.  1.
<mgrwt>
<rscale>  0 0.20124291E+04</rscale>
<asrwt>0</asrwt>
<pdfrwt beam="1">  1        2 0.21375078E+00 0.20124291E+04</pdfrwt>
<pdfrwt beam="2">  1       -1 0.11211063E+00 0.20124291E+04</pdfrwt>
<totfact> 0.11323932E+01</totfact>
</mgrwt>
</event>
<event>
12    7  0.1698542E-007  0.2939799E+04  0.7818608E-02  0.8261134E-01
         -1   -1    0    0    0  501 -0.00000000000E+00  0.00000000000E+00  0.26327537922E+04  0.26327537922E+04  0.00000000000E+00 0.  1.
          2   -1    0    0  501    0  0.00000000000E+00 -0.00000000000E+00 -0.82066317186E+03  0.82066317186E+03  0.00000000000E+00 0. -1.
         24    2    1    2    0    0  0.13029062953E+04 -0.17307638219E+03  0.57809837631E+03  0.14380654214E+04  0.79461784444E+02 0.  0.
        254    2    1    2    0    0 -0.13029062953E+04  0.17307638219E+03  0.12339922440E+04  0.20153515426E+04  0.90076896805E+03 0.  0.
         23    2    4    4    0    0 -0.10596972443E+04  0.42641243132E+03  0.11857878627E+04  0.16490149054E+04  0.91495856251E+02 0.  0.
         23    2    4    4    0    0 -0.24320905095E+03 -0.25333604913E+03  0.48204381345E+02  0.36633663726E+03  0.92461198154E+02 0.  0.
          2    1    3    3  502    0  0.94703294596E+03 -0.10448297590E+03  0.44965251268E+03  0.10535537362E+04  0.00000000000E+00 0. -1.
         -1    1    3    3    0  502  0.35587334932E+03 -0.68593406284E+02  0.12844586364E+03  0.38451168516E+03  0.00000000000E+00 0.  1.
         13    1    5    5    0    0 -0.86046509239E+03  0.38385572004E+03  0.97387112345E+03  0.13550536351E+04  0.00000000000E+00 0.  1.
        -13    1    5    5    0    0 -0.19923215194E+03  0.42556711283E+02  0.21191673921E+03  0.29396127024E+03  0.00000000000E+00 0. -1.
          2    1    6    6  503    0 -0.12433777946E+02 -0.17553447950E+02 -0.20071462882E+02  0.29420842802E+02  0.00000000000E+00 0. -1.
         -2    1    6    6    0  503 -0.23077527301E+03 -0.23578260118E+03  0.68275844227E+02  0.33691579446E+03  0.00000000000E+00 0.  1.
<mgrwt>
<rscale>  0 0.29397987E+04</rscale>
<asrwt>0</asrwt>
<pdfrwt beam="1">  1        2 0.12625587E+00 0.29397987E+04</pdfrwt>
<pdfrwt beam="2">  1       -1 0.40503904E+00 0.29397987E+04</pdfrwt>
<totfact> 0.21556029E-01</totfact>
</mgrwt>
</event>
<event>
12    7  0.2872359E-007  0.2012381E+04  0.7818608E-02  0.8600854E-01
          2   -1    0    0  501    0  0.00000000000E+00  0.00000000000E+00  0.12574108142E+04  0.12574108142E+04  0.00000000000E+00 0. -1.
         -1   -1    0    0    0  501 -0.00000000000E+00 -0.00000000000E+00 -0.80516178907E+03  0.80516178907E+03  0.00000000000E+00 0.  1.
         24    2    1    2    0    0  0.30748620334E+03  0.72005001080E+03  0.31535615483E+02  0.78761826839E+03  0.79550351110E+02 0.  0.
        254    2    1    2    0    0 -0.30748620334E+03 -0.72005001080E+03  0.42071340961E+03  0.12749543348E+04  0.91405087365E+03 0.  0.
         23    2    4    4    0    0 -0.16851708506E+02 -0.86157918455E+03  0.28349057769E+03  0.91169665652E+03  0.90670913469E+02 0.  0.
         23    2    4    4    0    0 -0.29063449483E+03  0.14152917375E+03  0.13722283192E+03  0.36325767832E+03  0.92882283841E+02 0.  0.
          4    1    3    3  502    0  0.16101711896E+02  0.72465260318E+02 -0.15896389784E+02  0.75915573416E+02  0.00000000000E+00 0. -1.
         -3    1    3    3    0  502  0.29138449144E+03  0.64758475048E+03  0.47432005266E+02  0.71170269497E+03  0.00000000000E+00 0.  1.
         13    1    5    5    0    0 -0.26954879472E+02 -0.84656142488E+03  0.28469432026E+03  0.89355675120E+03  0.00000000000E+00 0. -1.
        -13    1    5    5    0    0  0.10103170966E+02 -0.15017759666E+02 -0.12037425699E+01  0.18139905323E+02  0.00000000000E+00 0.  1.
          3    1    6    6  503    0 -0.13944656915E+03  0.10868424062E+03  0.42449376456E+02  0.18182287911E+03  0.00000000000E+00 0. -1.
         -3    1    6    6    0  503 -0.15118792569E+03  0.32844933132E+02  0.94773455463E+02  0.18143479921E+03  0.00000000000E+00 0.  1.
<mgrwt>
<rscale>  0 0.20123808E+04</rscale>
<asrwt>0</asrwt>
<pdfrwt beam="1">  1        2 0.19344782E+00 0.20123808E+04</pdfrwt>
<pdfrwt beam="2">  1       -1 0.12387104E+00 0.20123808E+04</pdfrwt>
<totfact> 0.10605905E+01</totfact>
</mgrwt>
</event>
<event>
12    7  0.1698542E-007  0.2013810E+04  0.7818608E-02  0.8600191E-01
          2   -1    0    0  501    0  0.00000000000E+00  0.00000000000E+00  0.11966063093E+04  0.11966063093E+04  0.00000000000E+00 0. -1.
         -1   -1    0    0    0  501 -0.00000000000E+00 -0.00000000000E+00 -0.84727715720E+03  0.84727715720E+03  0.00000000000E+00 0.  1.
         24    2    1    2    0    0 -0.20091771780E+03 -0.17533440130E+03  0.92157886269E+03  0.96273157626E+03  0.80214750255E+02 0.  0.
        254    2    1    2    0    0  0.20091771780E+03  0.17533440130E+03 -0.57224971057E+03  0.10811518903E+04  0.87767283025E+03 0.  0.
         23    2    4    4    0    0  0.36172123060E+03  0.13159215009E+03 -0.73293397039E+03  0.83283146736E+03  0.90869716944E+02 0.  0.
         23    2    4    4    0    0 -0.16080351280E+03  0.43742251216E+02  0.16068425982E+03  0.24832042290E+03  0.89846796307E+02 0.  0.
          2    1    3    3  502    0 -0.20494995080E+03 -0.16766321143E+03  0.84131848255E+03  0.88200466205E+03  0.00000000000E+00 0. -1.
         -1    1    3    3    0  502  0.40322329979E+01 -0.76711898763E+01  0.80260380141E+02  0.80726914208E+02  0.00000000000E+00 0.  1.
         13    1    5    5    0    0  0.16699591491E+03  0.10906972246E+03 -0.37293824067E+03  0.42292643723E+03  0.00000000000E+00 0.  1.
        -13    1    5    5    0    0  0.19472531568E+03  0.22522427625E+02 -0.35999572972E+03  0.40990503013E+03  0.00000000000E+00 0. -1.
          2    1    6    6  503    0 -0.16041800265E+03  0.40758113602E+02  0.11269784695E+03  0.20023976654E+03  0.00000000000E+00 0. -1.
         -2    1    6    6    0  503 -0.38551014329E+00  0.29841376141E+01  0.47986412867E+02  0.48080656352E+02  0.00000000000E+00 0.  1.
<mgrwt>
<rscale>  0 0.20138095E+04</rscale>
<asrwt>0</asrwt>
<pdfrwt beam="1">  1        2 0.18409328E+00 0.20138095E+04</pdfrwt>
<pdfrwt beam="2">  1       -1 0.13035033E+00 0.20138095E+04</pdfrwt>
<totfact> 0.10142971E+01</totfact>
</mgrwt>
</event>
<event>
12    7  0.1698542E-007  0.1334054E+04  0.7818608E-02  0.9002988E-01
         -1   -1    0    0    0  501 -0.00000000000E+00  0.00000000000E+00  0.71416621607E+03  0.71416621607E+03  0.00000000000E+00 0.  1.
          2   -1    0    0  501    0  0.00000000000E+00 -0.00000000000E+00 -0.62299908935E+03  0.62299908935E+03  0.00000000000E+00 0. -1.
         24    2    1    2    0    0 -0.18395120574E+03 -0.15411131703E+03 -0.24116232063E+03  0.34949281198E+03  0.79985102386E+02 0.  0.
        254    2    1    2    0    0  0.18395120574E+03  0.15411131703E+03  0.33232944735E+03  0.98767249344E+03  0.89859097958E+03 0.  0.
         23    2    4    4    0    0 -0.67157240287E+01 -0.26447220992E+03 -0.14832162000E+03  0.31598271529E+03  0.88629129733E+02 0.  0.
         23    2    4    4    0    0  0.19066692977E+03  0.41858352695E+03  0.48065106735E+03  0.67168977815E+03  0.92604872340E+02 0.  0.
          4    1    3    3  502    0 -0.13847934209E+03 -0.92689250593E+02 -0.20711892306E+03  0.26583091177E+03  0.00000000000E+00 0. -1.
         -3    1    3    3    0  502 -0.45471863651E+02 -0.61422066436E+02 -0.34043397571E+02  0.83661900213E+02  0.00000000000E+00 0.  1.
         13    1    5    5    0    0 -0.24495188988E+02 -0.23098203141E+03 -0.95923739496E+02  0.25130474909E+03  0.00000000000E+00 0. -1.
        -13    1    5    5    0    0  0.17779464959E+02 -0.33490178510E+02 -0.52397880505E+02  0.64677966204E+02  0.00000000000E+00 0.  1.
          1    1    6    6  503    0  0.12735657494E+03  0.30914311624E+03  0.28816404544E+03  0.44139288687E+03  0.00000000000E+00 0. -1.
         -1    1    6    6    0  503  0.63310354828E+02  0.10944041070E+03  0.19248702192E+03  0.23029689127E+03  0.00000000000E+00 0.  1.
<mgrwt>
<rscale>  0 0.13340538E+04</rscale>
<asrwt>0</asrwt>
<pdfrwt beam="1">  1        2 0.95846015E-01 0.13340538E+04</pdfrwt>
<pdfrwt beam="2">  1       -1 0.10987172E+00 0.13340538E+04</pdfrwt>
<totfact> 0.40529854E+01</totfact>
</mgrwt>
</event>
<event>
12    7  0.1698542E-007  0.1764647E+04  0.7818608E-02  0.8725329E-01
         -1   -1    0    0    0  501 -0.00000000000E+00  0.00000000000E+00  0.70217168503E+03  0.70217168503E+03  0.00000000000E+00 0.  1.
          2   -1    0    0  501    0  0.00000000000E+00 -0.00000000000E+00 -0.11086956719E+04  0.11086956719E+04  0.00000000000E+00 0. -1.
         24    2    1    2    0    0  0.35480195060E+03 -0.92934050456E+02  0.39626549329E+03  0.54545677795E+03  0.77301963481E+02 0.  0.
        254    2    1    2    0    0 -0.35480195060E+03  0.92934050456E+02 -0.80278948011E+03  0.12654105789E+04  0.90679205003E+03 0.  0.
         23    2    4    4    0    0 -0.22641522899E+02 -0.82128954796E+02 -0.86497564762E+03  0.87435223556E+03  0.95137569245E+02 0.  0.
         23    2    4    4    0    0 -0.33216042770E+03  0.17506300525E+03  0.62186167510E+02  0.39105834336E+03  0.89899404594E+02 0.  0.
          2    1    3    3  502    0  0.96744100359E+02 -0.61869705791E+02  0.12639286756E+03  0.17077013328E+03  0.00000000000E+00 0. -1.
         -1    1    3    3    0  502  0.25805785024E+03 -0.31064344664E+02  0.26987262573E+03  0.37468664467E+03  0.00000000000E+00 0.  1.
         13    1    5    5    0    0  0.30663710814E+02 -0.47739232529E+02 -0.55885880575E+03  0.56173166391E+03  0.00000000000E+00 0. -1.
        -13    1    5    5    0    0 -0.53305233714E+02 -0.34389722267E+02 -0.30611684187E+03  0.31262057165E+03  0.00000000000E+00 0.  1.
          1    1    6    6  503    0  0.28807399175E+01 -0.39900259807E+01 -0.27892634875E+01  0.56567623781E+01  0.00000000000E+00 0. -1.
         -1    1    6    6    0  503 -0.33504116762E+03  0.17905303123E+03  0.64975430998E+02  0.38540158099E+03  0.00000000000E+00 0.  1.
<mgrwt>
<rscale>  0 0.17646469E+04</rscale>
<asrwt>0</asrwt>
<pdfrwt beam="1">  1        2 0.17056857E+00 0.17646469E+04</pdfrwt>
<pdfrwt beam="2">  1       -1 0.10802641E+00 0.17646469E+04</pdfrwt>
<totfact> 0.18509805E+01</totfact>
</mgrwt>
</event>
<event>
12    7  0.1698542E-007  0.3062658E+04  0.7818608E-02  0.8226061E-01
         -1   -1    0    0    0  501 -0.00000000000E+00  0.00000000000E+00  0.11338625222E+04  0.11338625222E+04  0.00000000000E+00 0.  1.
          2   -1    0    0  501    0  0.00000000000E+00 -0.00000000000E+00 -0.20681245643E+04  0.20681245643E+04  0.00000000000E+00 0. -1.
         24    2    1    2    0    0 -0.28839899630E+03  0.11130326100E+03 -0.18550204039E+04  0.18819468582E+04  0.71139870560E+02 0.  0.
        254    2    1    2    0    0  0.28839899630E+03 -0.11130326100E+03  0.92075836177E+03  0.13200402283E+04  0.89395069589E+03 0.  0.
         23    2    4    4    0    0  0.37157363209E+02  0.34387702291E+03  0.61043223510E+03  0.70760304486E+03  0.91882963207E+02 0.  0.
         23    2    4    4    0    0  0.25124163309E+03 -0.45518028391E+03  0.31032612667E+03  0.61243718348E+03  0.92008422178E+02 0.  0.
          2    1    3    3  502    0 -0.19235048687E+03  0.54194143823E+02 -0.13500533248E+04  0.13647636040E+04  0.00000000000E+00 0. -1.
         -1    1    3    3    0  502 -0.96048509436E+02  0.57109117179E+02 -0.50496707911E+03  0.51718325419E+03  0.00000000000E+00 0.  1.
         13    1    5    5    0    0 -0.28744492122E+02  0.10431194793E+03  0.21274861229E+03  0.23868221622E+03  0.00000000000E+00 0. -1.
        -13    1    5    5    0    0  0.65901855332E+02  0.23956507498E+03  0.39768362280E+03  0.46892082864E+03  0.00000000000E+00 0.  1.
          1    1    6    6  503    0  0.21676694081E+03 -0.33752990216E+03  0.26931832335E+03  0.48316322374E+03  0.00000000000E+00 0. -1.
         -1    1    6    6    0  503  0.34474692285E+02 -0.11765038175E+03  0.41007803320E+02  0.12927395974E+03  0.00000000000E+00 0.  1.
<mgrwt>
<rscale>  0 0.30626583E+04</rscale>
<asrwt>0</asrwt>
<pdfrwt beam="1">  1        2 0.31817301E+00 0.30626583E+04</pdfrwt>
<pdfrwt beam="2">  1       -1 0.17444039E+00 0.30626583E+04</pdfrwt>
<totfact> 0.13538473E+00</totfact>
</mgrwt>
</event>
<event>
12    7  0.1698542E-007  0.1329849E+04  0.7818608E-02  0.9006224E-01
         -1   -1    0    0    0  501 -0.00000000000E+00  0.00000000000E+00  0.13726722660E+03  0.13726722660E+03  0.00000000000E+00 0.  1.
          2   -1    0    0  501    0  0.00000000000E+00 -0.00000000000E+00 -0.32209022390E+04  0.32209022390E+04  0.00000000000E+00 0. -1.
         24    2    1    2    0    0 -0.24481328787E+03  0.20535553330E+03 -0.11034849431E+04  0.11517294357E+04  0.81836620343E+02 0.  0.
        254    2    1    2    0    0  0.24481328787E+03 -0.20535553330E+03 -0.19801500693E+04  0.22064400299E+04  0.91939048701E+03 0.  0.
         23    2    4    4    0    0  0.27210377551E+03  0.26565254321E+03 -0.13992267514E+04  0.14529038077E+04  0.92099047142E+02 0.  0.
         23    2    4    4    0    0 -0.27290487638E+02 -0.47100807651E+03 -0.58092331798E+03  0.75353622218E+03  0.88042932273E+02 0.  0.
          2    1    3    3  502    0 -0.25117141145E+03  0.20273939560E+03 -0.10854880827E+04  0.11324640030E+04  0.00000000000E+00 0. -1.
         -1    1    3    3    0  502  0.63581235793E+01  0.26161376946E+01 -0.17996860421E+02  0.19265432694E+02  0.00000000000E+00 0.  1.
         13    1    5    5    0    0  0.47949691361E+02  0.10955986395E+02 -0.12639499773E+03  0.13562780685E+03  0.00000000000E+00 0.  1.
        -13    1    5    5    0    0  0.22415408415E+03  0.25469655681E+03 -0.12728317536E+04  0.13172760009E+04  0.00000000000E+00 0. -1.
          2    1    6    6  503    0 -0.58142460763E+02 -0.36073518663E+03 -0.43791264973E+03  0.57033140315E+03  0.00000000000E+00 0. -1.
         -2    1    6    6    0  503  0.30851973126E+02 -0.11027288988E+03 -0.14301066824E+03  0.18320481904E+03  0.00000000000E+00 0.  1.
<mgrwt>
<rscale>  0 0.13298486E+04</rscale>
<asrwt>0</asrwt>
<pdfrwt beam="1">  1        2 0.49552339E+00 0.13298486E+04</pdfrwt>
<pdfrwt beam="2">  1       -1 0.21118036E-01 0.13298486E+04</pdfrwt>
<totfact> 0.26506784E+01</totfact>
</mgrwt>
</event>
<event>
12    7  0.1698542E-007  0.1692402E+04  0.7818608E-02  0.8765709E-01
         -1   -1    0    0    0  501 -0.00000000000E+00  0.00000000000E+00  0.11612590585E+04  0.11612590585E+04  0.00000000000E+00 0.  1.
          2   -1    0    0  501    0  0.00000000000E+00 -0.00000000000E+00 -0.61662079810E+03  0.61662079810E+03  0.00000000000E+00 0. -1.
         24    2    1    2    0    0 -0.50241611650E+03  0.13250924438E+03  0.51737856815E+03  0.73772687759E+03  0.81115406486E+02 0.  0.
        254    2    1    2    0    0  0.50241611650E+03 -0.13250924438E+03  0.27259692260E+02  0.10401529790E+04  0.90066335274E+03 0.  0.
         23    2    4    4    0    0  0.43633453993E+03  0.12059537264E+03 -0.34529481012E+03  0.57614661547E+03  0.88234584975E+02 0.  0.
         23    2    4    4    0    0  0.66081576571E+02 -0.25310461702E+03  0.37255450238E+03  0.46400636355E+03  0.89868382937E+02 0.  0.
          2    1    3    3  502    0 -0.79562364221E+02  0.50719023144E+02  0.10957927879E+03  0.14460362184E+03  0.00000000000E+00 0. -1.
         -1    1    3    3    0  502 -0.42285375228E+03  0.81790221232E+02  0.40779928936E+03  0.59312325575E+03  0.00000000000E+00 0.  1.
         13    1    5    5    0    0  0.22306639623E+03  0.26342374820E+02 -0.20452329806E+03  0.30378004755E+03  0.00000000000E+00 0.  1.
        -13    1    5    5    0    0  0.21326814370E+03  0.94252997822E+02 -0.14077151206E+03  0.27236656792E+03  0.00000000000E+00 0. -1.
          2    1    6    6  503    0 -0.16905421029E+02 -0.10316150852E+02  0.22251243156E+02  0.29788152856E+02  0.00000000000E+00 0. -1.
         -2    1    6    6    0  503  0.82986997600E+02 -0.24278846616E+03  0.35030325922E+03  0.43421821069E+03  0.00000000000E+00 0.  1.
<mgrwt>
<rscale>  0 0.16924024E+04</rscale>
<asrwt>0</asrwt>
<pdfrwt beam="1">  1        2 0.94864738E-01 0.16924024E+04</pdfrwt>
<pdfrwt beam="2">  1       -1 0.17865524E+00 0.16924024E+04</pdfrwt>
<totfact> 0.11102745E+01</totfact>
</mgrwt>
</event>
<event>
12    7  0.1698542E-007  0.2382248E+04  0.7818608E-02  0.8446180E-01
         -1   -1    0    0    0  501 -0.00000000000E+00  0.00000000000E+00  0.47234544470E+03  0.47234544470E+03  0.00000000000E+00 0.  1.
          2   -1    0    0  501    0  0.00000000000E+00 -0.00000000000E+00 -0.30036831530E+04  0.30036831530E+04  0.00000000000E+00 0. -1.
         24    2    1    2    0    0 -0.65611633095E+03  0.24635133324E+02 -0.22261386043E+04  0.23223934905E+04  0.81993353543E+02 0.  0.
        254    2    1    2    0    0  0.65611633095E+03 -0.24635133324E+02 -0.30519910407E+03  0.11536351072E+04  0.89812690522E+03 0.  0.
         23    2    4    4    0    0 -0.12231089864E+03 -0.22026960237E+03  0.48034999179E+02  0.27181870402E+03  0.89996628035E+02 0.  0.
         23    2    4    4    0    0  0.77842722959E+03  0.19563446904E+03 -0.35323410325E+03  0.88181640316E+03  0.92757964328E+02 0.  0.
          4    1    3    3  502    0 -0.51355360246E+03 -0.11935039896E+02 -0.17766180426E+04  0.18493921750E+04  0.00000000000E+00 0. -1.
         -3    1    3    3    0  502 -0.14256272849E+03  0.36570173220E+02 -0.44952056165E+03  0.47300131551E+03  0.00000000000E+00 0.  1.
         13    1    5    5    0    0 -0.64428466705E+02 -0.51293117776E+02 -0.12346526857E+02  0.83273332938E+02  0.00000000000E+00 0. -1.
        -13    1    5    5    0    0 -0.57882431936E+02 -0.16897648459E+03  0.60381526035E+02  0.18854537109E+03  0.00000000000E+00 0.  1.
          2    1    6    6  503    0  0.47162578897E+03  0.15051990817E+03 -0.18112452564E+03  0.52715578472E+03  0.00000000000E+00 0.  1.
         -2    1    6    6    0  503  0.30680144062E+03  0.45114560875E+02 -0.17210957761E+03  0.35466061844E+03  0.00000000000E+00 0. -1.
<mgrwt>
<rscale>  0 0.23822477E+04</rscale>
<asrwt>0</asrwt>
<pdfrwt beam="1">  1        2 0.46210510E+00 0.23822477E+04</pdfrwt>
<pdfrwt beam="2">  1       -1 0.72668530E-01 0.23822477E+04</pdfrwt>
<totfact> 0.33897287E+00</totfact>
</mgrwt>
</event>
<event>
12    7  0.1698542E-007  0.1367330E+04  0.7818608E-02  0.8977812E-01
         -1   -1    0    0    0  501 -0.00000000000E+00  0.00000000000E+00  0.24371609354E+03  0.24371609354E+03  0.00000000000E+00 0.  1.
          2   -1    0    0  501    0  0.00000000000E+00 -0.00000000000E+00 -0.19177965896E+04  0.19177965896E+04  0.00000000000E+00 0. -1.
         24    2    1    2    0    0  0.51484023478E+02 -0.33978067114E+03 -0.22759529623E+03  0.42036054673E+03  0.82473397075E+02 0.  0.
        254    2    1    2    0    0 -0.51484023478E+02  0.33978067114E+03 -0.14464851999E+04  0.17411521364E+04  0.90619524368E+03 0.  0.
         23    2    4    4    0    0 -0.17515463780E+03  0.24294503626E+03 -0.15152758334E+04  0.15474237124E+04  0.93583420796E+02 0.  0.
         23    2    4    4    0    0  0.12367061433E+03  0.96835634883E+02  0.68790633524E+02  0.19372842405E+03  0.90149819708E+02 0.  0.
          2    1    3    3  502    0  0.33615266779E+01 -0.86349998014E+02 -0.10127654583E+03  0.13313361992E+03  0.00000000000E+00 0. -1.
         -1    1    3    3    0  502  0.48122496800E+02 -0.25343067312E+03 -0.12631875040E+03  0.28722692681E+03  0.00000000000E+00 0.  1.
         13    1    5    5    0    0 -0.71675616646E+00 -0.79669806758E+01 -0.48134426985E+02  0.48794565083E+02  0.00000000000E+00 0. -1.
        -13    1    5    5    0    0 -0.17443788164E+03  0.25091201693E+03 -0.14671414064E+04  0.14986291473E+04  0.00000000000E+00 0.  1.
          3    1    6    6  503    0  0.70197494392E+01  0.22271610680E+02 -0.18733027946E+02  0.29937064995E+02  0.00000000000E+00 0. -1.
         -3    1    6    6    0  503  0.11665086489E+03  0.74564024203E+02  0.87523661470E+02  0.16379135906E+03  0.00000000000E+00 0.  1.
<mgrwt>
<rscale>  0 0.13673301E+04</rscale>
<asrwt>0</asrwt>
<pdfrwt beam="1">  1        2 0.29504564E+00 0.13673301E+04</pdfrwt>
<pdfrwt beam="2">  1       -1 0.37494783E-01 0.13673301E+04</pdfrwt>
<totfact> 0.56555204E+01</totfact>
</mgrwt>
</event>
<event>
12    7  0.1698542E-007  0.2876107E+04  0.7818608E-02  0.8280022E-01
         -1   -1    0    0    0  501 -0.00000000000E+00  0.00000000000E+00  0.14800329715E+04  0.14800329715E+04  0.00000000000E+00 0.  1.
          2   -1    0    0  501    0  0.00000000000E+00 -0.00000000000E+00 -0.13972652053E+04  0.13972652053E+04  0.00000000000E+00 0. -1.
         24    2    1    2    0    0 -0.15036153984E+03  0.10893401857E+04  0.73398089506E+03  0.13242723282E+04  0.75489152429E+02 0.  0.
        254    2    1    2    0    0  0.15036153984E+03 -0.10893401857E+04 -0.65121312882E+03  0.15530258486E+04  0.88234920203E+03 0.  0.
         23    2    4    4    0    0  0.33005137876E+03 -0.44795589071E+02 -0.13860383634E+03  0.37215594222E+03  0.91369931936E+02 0.  0.
         23    2    4    4    0    0 -0.17968983892E+03 -0.10445445967E+04 -0.51260929248E+03  0.11808699064E+04  0.91233745926E+02 0.  0.
          4    1    3    3  502    0 -0.48594534903E+01  0.15013758405E+02  0.14279980393E+01  0.15845075199E+02  0.00000000000E+00 0. -1.
         -3    1    3    3    0  502 -0.14550208635E+03  0.10743264273E+04  0.73255289702E+03  0.13084272530E+04  0.00000000000E+00 0.  1.
         13    1    5    5    0    0  0.20993552143E+03 -0.19738999458E+01 -0.12392977137E+03  0.24379378104E+03  0.00000000000E+00 0.  1.
        -13    1    5    5    0    0  0.12011585733E+03 -0.42821689125E+02 -0.14674064962E+02  0.12836216119E+03  0.00000000000E+00 0. -1.
          3    1    6    6  503    0 -0.63978288243E+02 -0.28603542960E+03 -0.18477027334E+03  0.34648166223E+03  0.00000000000E+00 0. -1.
         -3    1    6    6    0  503 -0.11571155068E+03 -0.75850916707E+03 -0.32783901914E+03  0.83438824414E+03  0.00000000000E+00 0.  1.
<mgrwt>
<rscale>  0 0.28761075E+04</rscale>
<asrwt>0</asrwt>
<pdfrwt beam="1">  1        2 0.21496388E+00 0.28761075E+04</pdfrwt>
<pdfrwt beam="2">  1       -1 0.22769738E+00 0.28761075E+04</pdfrwt>
<totfact> 0.13985607E+00</totfact>
</mgrwt>
</event>
<event>
12    7  0.1698542E-007  0.1333833E+04  0.7818608E-02  0.9003157E-01
          2   -1    0    0  501    0  0.00000000000E+00  0.00000000000E+00  0.25448910827E+04  0.25448910827E+04  0.00000000000E+00 0. -1.
         -3   -1    0    0    0  501 -0.00000000000E+00 -0.00000000000E+00 -0.17477271509E+03  0.17477271509E+03  0.00000000000E+00 0.  1.
         24    2    1    2    0    0  0.29604838714E+03 -0.10423172895E+02  0.10406645693E+04  0.10849952299E+04  0.80489831497E+02 0.  0.
        254    2    1    2    0    0 -0.29604838714E+03  0.10423172895E+02  0.13294537984E+04  0.16346685680E+04  0.90384768358E+03 0.  0.
         23    2    4    4    0    0  0.18209885123E+03  0.18262324042E+03  0.96720299846E+03  0.10050098529E+04  0.89732516645E+02 0.  0.
         23    2    4    4    0    0 -0.47814723837E+03 -0.17220006753E+03  0.36225079990E+03  0.62965871513E+03  0.83467422950E+02 0.  0.
          4    1    3    3  502    0  0.25153399820E+03 -0.37892229650E+02  0.88033836358E+03  0.91635190168E+03  0.00000000000E+00 0. -1.
         -3    1    3    3    0  502  0.44514388938E+02  0.27469056755E+02  0.16032620571E+03  0.16864332818E+03  0.00000000000E+00 0.  1.
         13    1    5    5    0    0  0.96478612816E+02  0.11291830726E+03  0.70562464881E+03  0.72108585609E+03  0.00000000000E+00 0.  1.
        -13    1    5    5    0    0  0.85620238411E+02  0.69704933158E+02  0.26157834964E+03  0.28392399676E+03  0.00000000000E+00 0. -1.
          4    1    6    6  503    0 -0.22021898161E+03 -0.10487088919E+03  0.21486647820E+03  0.32505677460E+03  0.00000000000E+00 0. -1.
         -4    1    6    6    0  503 -0.25792825675E+03 -0.67329178335E+02  0.14738432170E+03  0.30460194052E+03  0.00000000000E+00 0.  1.
<mgrwt>
<rscale>  0 0.13338329E+04</rscale>
<asrwt>0</asrwt>
<pdfrwt beam="1">  1        2 0.39152168E+00 0.13338329E+04</pdfrwt>
<pdfrwt beam="2">  1       -3 0.26888112E-01 0.13338329E+04</pdfrwt>
<totfact> 0.27889536E+01</totfact>
</mgrwt>
</event>
<event>
12    7  0.1698542E-007  0.2725197E+04  0.7818608E-02  0.8326876E-01
          2   -1    0    0  501    0  0.00000000000E+00  0.00000000000E+00  0.12414275936E+04  0.12414275936E+04  0.00000000000E+00 0. -1.
         -1   -1    0    0    0  501 -0.00000000000E+00 -0.00000000000E+00 -0.14955959685E+04  0.14955959685E+04  0.00000000000E+00 0.  1.
         24    2    1    2    0    0 -0.36376447072E+03 -0.28797007843E+03 -0.12378000819E+04  0.13242770549E+04  0.79431223111E+02 0.  0.
        254    2    1    2    0    0  0.36376447072E+03  0.28797007843E+03  0.98363170699E+03  0.14127465073E+04  0.90170394397E+03 0.  0.
         23    2    4    4    0    0  0.46747718874E+03  0.49134003404E+03  0.43380302799E+03  0.81039652730E+03  0.92776685274E+02 0.  0.
         23    2    4    4    0    0 -0.10371271802E+03 -0.20336995561E+03  0.54982867901E+03  0.60234997996E+03  0.91641995742E+02 0.  0.
          2    1    3    3  502    0 -0.50113416154E+02 -0.31571431117E+02 -0.96688127205E+02  0.11338740531E+03  0.00000000000E+00 0. -1.
         -3    1    3    3    0  502 -0.31365105457E+03 -0.25639864732E+03 -0.11411119547E+04  0.12108896496E+04  0.00000000000E+00 0.  1.
         13    1    5    5    0    0  0.33315488380E+03  0.38595887130E+03  0.36139127692E+03  0.62494806342E+03  0.00000000000E+00 0. -1.
        -13    1    5    5    0    0  0.13432230494E+03  0.10538116274E+03  0.72411751066E+02  0.18544846388E+03  0.00000000000E+00 0.  1.
          4    1    6    6  503    0 -0.33431453537E+02 -0.13713164784E+03  0.24688972971E+03  0.28438932744E+03  0.00000000000E+00 0. -1.
         -4    1    6    6    0  503 -0.70281264486E+02 -0.66238307763E+02  0.30293894930E+03  0.31796065253E+03  0.00000000000E+00 0.  1.
<mgrwt>
<rscale>  0 0.27251966E+04</rscale>
<asrwt>0</asrwt>
<pdfrwt beam="1">  1        2 0.19098886E+00 0.27251966E+04</pdfrwt>
<pdfrwt beam="2">  1       -1 0.23009169E+00 0.27251966E+04</pdfrwt>
<totfact> 0.16826256E+00</totfact>
</mgrwt>
</event>
<event>
12    7  0.1698542E-007  0.1491522E+04  0.7818608E-02  0.8890111E-01
          2   -1    0    0  501    0  0.00000000000E+00  0.00000000000E+00  0.50139877982E+03  0.50139877982E+03  0.00000000000E+00 0. -1.
         -1   -1    0    0    0  501 -0.00000000000E+00 -0.00000000000E+00 -0.11092151151E+04  0.11092151151E+04  0.00000000000E+00 0.  1.
         24    2    1    2    0    0  0.19213566092E+03  0.69800805447E+02 -0.65580698106E+03  0.69245732724E+03  0.87327481369E+02 0.  0.
        254    2    1    2    0    0 -0.19213566092E+03 -0.69800805447E+02  0.47990645776E+02  0.91815656769E+03  0.89382331368E+03 0.  0.
         23    2    4    4    0    0  0.49319374056E+01 -0.46062225714E+03  0.40610800762E+01  0.46962101029E+03  0.91270001425E+02 0.  0.
         23    2    4    4    0    0 -0.19706759832E+03  0.39082145169E+03  0.43929565700E+02  0.44853555740E+03  0.87620169455E+02 0.  0.
          2    1    3    3  502    0  0.26893509545E+01  0.21579496762E+02 -0.12327244533E+03  0.12517588852E+03  0.00000000000E+00 0. -1.
         -1    1    3    3    0  502  0.18944630996E+03  0.48221308685E+02 -0.53253453573E+03  0.56728143872E+03  0.00000000000E+00 0.  1.
         13    1    5    5    0    0  0.86839620408E+00 -0.59128781065E+02 -0.30655753125E+02  0.66608873747E+02  0.00000000000E+00 0.  1.
        -13    1    5    5    0    0  0.40635412015E+01 -0.40149347607E+03  0.34716833201E+02  0.40301213655E+03  0.00000000000E+00 0. -1.
          4    1    6    6  503    0 -0.78770794187E+02  0.16611676990E+03  0.61826074589E+02  0.19396412750E+03  0.00000000000E+00 0. -1.
         -4    1    6    6    0  503 -0.11829680414E+03  0.22470468179E+03 -0.17896508889E+02  0.25457142989E+03  0.00000000000E+00 0.  1.
<mgrwt>
<rscale>  0 0.14915215E+04</rscale>
<asrwt>0</asrwt>
<pdfrwt beam="1">  1        2 0.77138274E-01 0.14915215E+04</pdfrwt>
<pdfrwt beam="2">  1       -1 0.17064848E+00 0.14915215E+04</pdfrwt>
<totfact> 0.16510372E+01</totfact>
</mgrwt>
</event>
<event>
12    7  0.1698542E-007  0.1401756E+04  0.7818608E-02  0.8952548E-01
         -1   -1    0    0    0  501 -0.00000000000E+00  0.00000000000E+00  0.64589670012E+03  0.64589670012E+03  0.00000000000E+00 0.  1.
          2   -1    0    0  501    0  0.00000000000E+00 -0.00000000000E+00 -0.76054000482E+03  0.76054000482E+03  0.00000000000E+00 0. -1.
         24    2    1    2    0    0  0.22511226578E+03  0.32610315011E+03  0.51150549664E+02  0.40730861002E+03  0.79152563760E+02 0.  0.
        254    2    1    2    0    0 -0.22511226578E+03 -0.32610315011E+03 -0.16579385436E+03  0.99912809491E+03  0.90208123314E+03 0.  0.
         23    2    4    4    0    0 -0.45706562030E+03 -0.26306533490E+03  0.18302513587E+03  0.56532870425E+03  0.89364376601E+02 0.  0.
         23    2    4    4    0    0  0.23195335452E+03 -0.63037815204E+02 -0.34881899024E+03  0.43379939066E+03  0.93440347647E+02 0.  0.
          4    1    3    3  502    0  0.22490358660E+03  0.29298979773E+03  0.56853638402E+02  0.37370707919E+03  0.00000000000E+00 0. -1.
         -3    1    3    3    0  502  0.20867918024E+00  0.33113352378E+02 -0.57030887378E+01  0.33601530827E+02  0.00000000000E+00 0.  1.
         13    1    5    5    0    0 -0.46772912619E+02 -0.61691410216E+02  0.34475298301E+02  0.84747163033E+02  0.00000000000E+00 0.  1.
        -13    1    5    5    0    0 -0.41029270768E+03 -0.20137392469E+03  0.14854983757E+03  0.48058154122E+03  0.00000000000E+00 0. -1.
          3    1    6    6  503    0  0.23072525275E+03 -0.61331402317E+02 -0.35469640194E+03  0.42755727185E+03  0.00000000000E+00 0. -1.
         -3    1    6    6    0  503  0.12281017694E+01 -0.17064128872E+01  0.58774117008E+01  0.62421188068E+01  0.00000000000E+00 0.  1.
<mgrwt>
<rscale>  0 0.14017564E+04</rscale>
<asrwt>0</asrwt>
<pdfrwt beam="1">  1        2 0.11700615E+00 0.14017564E+04</pdfrwt>
<pdfrwt beam="2">  1       -1 0.99368723E-01 0.14017564E+04</pdfrwt>
<totfact> 0.39589919E+01</totfact>
</mgrwt>
</event>
<event>
12    7  0.1698542E-007  0.1415509E+04  0.7818608E-02  0.8942668E-01
          2   -1    0    0  501    0  0.00000000000E+00  0.00000000000E+00  0.16334331928E+04  0.16334331928E+04  0.00000000000E+00 0. -1.
         -1   -1    0    0    0  501 -0.00000000000E+00 -0.00000000000E+00 -0.30666470059E+03  0.30666470059E+03  0.00000000000E+00 0.  1.
         24    2    1    2    0    0  0.32450876043E+03  0.33758045929E+01  0.77078694699E+03  0.84003362164E+03  0.78909037424E+02 0.  0.
        254    2    1    2    0    0 -0.32450876043E+03 -0.33758045929E+01  0.55598154523E+03  0.11000642718E+04  0.89202499500E+03 0.  0.
         23    2    4    4    0    0 -0.38531632944E+02 -0.89952413512E+02 -0.22326753246E+03  0.26050467686E+03  0.91859524173E+02 0.  0.
         23    2    4    4    0    0 -0.28597712749E+03  0.86576608919E+02  0.77924907770E+03  0.83955959489E+03  0.91393444095E+02 0.  0.
          2    1    3    3  502    0  0.30943539736E+03 -0.10858468293E+02  0.74610371884E+03  0.80779881824E+03  0.00000000000E+00 0. -1.
         -3    1    3    3    0  502  0.15073363069E+02  0.14234272886E+02  0.24683228144E+02  0.32234803403E+02  0.00000000000E+00 0.  1.
         13    1    5    5    0    0  0.10399172891E+02 -0.22258746366E+02 -0.27782656540E+01  0.24724751701E+02  0.00000000000E+00 0. -1.
        -13    1    5    5    0    0 -0.48930805835E+02 -0.67693667145E+02 -0.22048926681E+03  0.23577992516E+03  0.00000000000E+00 0.  1.
          1    1    6    6  503    0 -0.29301470415E+02 -0.15480337051E+02  0.12657722673E+03  0.13084346117E+03  0.00000000000E+00 0. -1.
         -1    1    6    6    0  503 -0.25667565707E+03  0.10205694597E+03  0.65267185096E+03  0.70871613372E+03  0.00000000000E+00 0.  1.
<mgrwt>
<rscale>  0 0.14155088E+04</rscale>
<asrwt>0</asrwt>
<pdfrwt beam="1">  1        2 0.25129741E+00 0.14155088E+04</pdfrwt>
<pdfrwt beam="2">  1       -1 0.47179186E-01 0.14155088E+04</pdfrwt>
<totfact> 0.53016947E+01</totfact>
</mgrwt>
</event>
<event>
12    7  0.1698542E-007  0.1613118E+04  0.7818608E-02  0.8812530E-01
         -1   -1    0    0    0  501 -0.00000000000E+00  0.00000000000E+00  0.45661546340E+03  0.45661546340E+03  0.00000000000E+00 0.  1.
          2   -1    0    0  501    0  0.00000000000E+00 -0.00000000000E+00 -0.14246936963E+04  0.14246936963E+04  0.00000000000E+00 0. -1.
         24    2    1    2    0    0 -0.23720250781E+03  0.26076109186E+03  0.16013673685E+03  0.39433354442E+03  0.74791664164E+02 0.  0.
        254    2    1    2    0    0  0.23720250781E+03 -0.26076109186E+03 -0.11282149697E+04  0.14869756153E+04  0.90220069038E+03 0.  0.
         23    2    4    4    0    0  0.44986466851E+03 -0.10676652637E+01 -0.21127158381E+03  0.50621478936E+03  0.96116444753E+02 0.  0.
         23    2    4    4    0    0 -0.21266216071E+03 -0.25969342660E+03 -0.91694338591E+03  0.98076082589E+03  0.91873577453E+02 0.  0.
          2    1    3    3  502    0 -0.22042753855E+03  0.21440246362E+03  0.11760659906E+03  0.32922337144E+03  0.00000000000E+00 0. -1.
         -1    1    3    3    0  502 -0.16774969258E+02  0.46358628241E+02  0.42530137782E+02  0.65110172982E+02  0.00000000000E+00 0.  1.
         13    1    5    5    0    0  0.24349104032E+03  0.97571350605E+01 -0.62489256802E+02  0.25157105481E+03  0.00000000000E+00 0.  1.
        -13    1    5    5    0    0  0.20637362819E+03 -0.10824800324E+02 -0.14878232701E+03  0.25464373455E+03  0.00000000000E+00 0. -1.
          1    1    6    6  503    0 -0.23152258189E+02 -0.83423729305E+02 -0.28537544449E+03  0.29821919789E+03  0.00000000000E+00 0.  1.
         -1    1    6    6    0  503 -0.18950990252E+03 -0.17626969729E+03 -0.63156794142E+03  0.68254162800E+03  0.00000000000E+00 0. -1.
<mgrwt>
<rscale>  0 0.16131177E+04</rscale>
<asrwt>0</asrwt>
<pdfrwt beam="1">  1        2 0.21918364E+00 0.16131177E+04</pdfrwt>
<pdfrwt beam="2">  1       -1 0.70248534E-01 0.16131177E+04</pdfrwt>
<totfact> 0.31323930E+01</totfact>
</mgrwt>
</event>
<event>
12    7  0.1698542E-007  0.1030696E+04  0.7818608E-02  0.9275505E-01
          2   -1    0    0  501    0  0.00000000000E+00  0.00000000000E+00  0.44714564785E+03  0.44714564785E+03  0.00000000000E+00 0. -1.
         -1   -1    0    0    0  501 -0.00000000000E+00 -0.00000000000E+00 -0.59395263523E+03  0.59395263523E+03  0.00000000000E+00 0.  1.
         24    2    1    2    0    0 -0.19746171166E+02  0.95144340296E+02 -0.45674395811E+02  0.13389207223E+03  0.79991123307E+02 0.  0.
        254    2    1    2    0    0  0.19746171166E+02 -0.95144340296E+02 -0.10113259157E+03  0.90720621085E+03  0.89629958784E+03 0.  0.
         23    2    4    4    0    0  0.19823802314E+03  0.35007791870E+03 -0.69932102243E+02  0.41808018810E+03  0.89708872338E+02 0.  0.
         23    2    4    4    0    0 -0.17849185198E+03 -0.44522225900E+03 -0.31200489331E+02  0.48912602275E+03  0.90490852952E+02 0.  0.
          4    1    3    3  502    0 -0.27238183006E+02 -0.13207787647E+01 -0.91619811456E+00  0.27285572910E+02  0.00000000000E+00 0. -1.
         -3    1    3    3    0  502  0.74920118406E+01  0.96465119061E+02 -0.44758197696E+02  0.10660649932E+03  0.00000000000E+00 0.  1.
         13    1    5    5    0    0  0.64469725887E+02  0.19799822042E+03 -0.18107214337E+02  0.20901557850E+03  0.00000000000E+00 0. -1.
        -13    1    5    5    0    0  0.13376829726E+03  0.15207969828E+03 -0.51824887907E+02  0.20906460960E+03  0.00000000000E+00 0.  1.
          1    1    6    6  503    0 -0.43254661484E+01 -0.10989301421E+03  0.61529019724E-03  0.10997810795E+03  0.00000000000E+00 0. -1.
         -1    1    6    6    0  503 -0.17416638583E+03 -0.33532924479E+03 -0.31201104621E+02  0.37914791480E+03  0.00000000000E+00 0.  1.
<mgrwt>
<rscale>  0 0.10306956E+04</rscale>
<asrwt>0</asrwt>
<pdfrwt beam="1">  1        2 0.68791639E-01 0.10306956E+04</pdfrwt>
<pdfrwt beam="2">  1       -1 0.91377328E-01 0.10306956E+04</pdfrwt>
<totfact> 0.93371475E+01</totfact>
</mgrwt>
</event>
<event>
12    7  0.1698542E-007  0.2535930E+04  0.7818608E-02  0.8390296E-01
         -1   -1    0    0    0  501 -0.00000000000E+00  0.00000000000E+00  0.90266864305E+03  0.90266864305E+03  0.00000000000E+00 0.  1.
          2   -1    0    0  501    0  0.00000000000E+00 -0.00000000000E+00 -0.17810907441E+04  0.17810907441E+04  0.00000000000E+00 0. -1.
         24    2    1    2    0    0 -0.11589396564E+03  0.10973519734E+04 -0.22681622077E+03  0.11293416714E+04  0.79713536961E+02 0.  0.
        254    2    1    2    0    0  0.11589396564E+03 -0.10973519734E+04 -0.65160588024E+03  0.15544177157E+04  0.87977920355E+03 0.  0.
         23    2    4    4    0    0 -0.34786334973E+03 -0.24228896800E+03 -0.21053278310E+03  0.48252023779E+03  0.93748989410E+02 0.  0.
         23    2    4    4    0    0  0.46375731537E+03 -0.85506300539E+03 -0.44107309714E+03  0.10718974779E+04  0.90637384234E+02 0.  0.
          4    1    3    3  502    0 -0.11523577106E+02  0.12898559495E+03 -0.53262930748E+02  0.14002505606E+03  0.00000000000E+00 0. -1.
         -3    1    3    3    0  502 -0.10437038853E+03  0.96836637844E+03 -0.17355329002E+03  0.98931661533E+03  0.00000000000E+00 0.  1.
         13    1    5    5    0    0 -0.12858478788E+03 -0.90614239648E+02 -0.12979378959E+03  0.20393973599E+03  0.00000000000E+00 0. -1.
        -13    1    5    5    0    0 -0.21927856185E+03 -0.15167472835E+03 -0.80738993515E+02  0.27858050180E+03  0.00000000000E+00 0.  1.
          4    1    6    6  503    0  0.33755302775E+03 -0.54683570320E+03 -0.26461014790E+03  0.69497472128E+03  0.00000000000E+00 0. -1.
         -4    1    6    6    0  503  0.12620428762E+03 -0.30822730219E+03 -0.17646294924E+03  0.37692275665E+03  0.00000000000E+00 0.  1.
<mgrwt>
<rscale>  0 0.25359296E+04</rscale>
<asrwt>0</asrwt>
<pdfrwt beam="1">  1        2 0.27401396E+00 0.25359296E+04</pdfrwt>
<pdfrwt beam="2">  1       -1 0.13887210E+00 0.25359296E+04</pdfrwt>
<totfact> 0.38308823E+00</totfact>
</mgrwt>
</event>
<event>
12    7  0.1698542E-007  0.2334273E+04  0.7818608E-02  0.8464529E-01
          2   -1    0    0  501    0  0.00000000000E+00  0.00000000000E+00  0.28531755500E+04  0.28531755500E+04  0.00000000000E+00 0. -1.
         -1   -1    0    0    0  501 -0.00000000000E+00 -0.00000000000E+00 -0.47743573802E+03  0.47743573802E+03  0.00000000000E+00 0.  1.
         24    2    1    2    0    0  0.16261296360E+03  0.59575368954E+03  0.21706406669E+04  0.22581437372E+04  0.78528966007E+02 0.  0.
        254    2    1    2    0    0 -0.16261296360E+03 -0.59575368954E+03  0.20509914511E+03  0.10724675509E+04  0.85249959167E+03 0.  0.
         23    2    4    4    0    0 -0.25933056133E+03 -0.28352710159E+03 -0.27690956164E+03  0.48234247278E+03  0.91298402751E+02 0.  0.
         23    2    4    4    0    0  0.96717597730E+02 -0.31222658795E+03  0.48200870674E+03  0.59012507808E+03  0.95265305699E+02 0.  0.
          4    1    3    3  502    0  0.15250280506E+03  0.57779402135E+03  0.21341469799E+04  0.22162324716E+04  0.00000000000E+00 0. -1.
         -3    1    3    3    0  502  0.10110158536E+02  0.17959668193E+02  0.36493686992E+02  0.41911265520E+02  0.00000000000E+00 0.  1.
         13    1    5    5    0    0 -0.20370324428E+01 -0.17195045415E+02  0.37164414917E+01  0.17709630865E+02  0.00000000000E+00 0. -1.
        -13    1    5    5    0    0 -0.25729352888E+03 -0.26633205618E+03 -0.28062600313E+03  0.46463284191E+03  0.00000000000E+00 0.  1.
          1    1    6    6  503    0  0.15821881758E+02 -0.55978598112E+02  0.33080194468E+02  0.66919613381E+02  0.00000000000E+00 0. -1.
         -1    1    6    6    0  503  0.80895715972E+02 -0.25624798984E+03  0.44892851228E+03  0.52320546470E+03  0.00000000000E+00 0.  1.
<mgrwt>
<rscale>  0 0.23342733E+04</rscale>
<asrwt>0</asrwt>
<pdfrwt beam="1">  1        2 0.43895008E+00 0.23342733E+04</pdfrwt>
<pdfrwt beam="2">  1       -1 0.73451653E-01 0.23342733E+04</pdfrwt>
<totfact> 0.41243664E+00</totfact>
</mgrwt>
</event>
<event>
12    7  0.1698542E-007  0.1279783E+04  0.7818608E-02  0.9045753E-01
         -1   -1    0    0    0  501 -0.00000000000E+00  0.00000000000E+00  0.17380358432E+03  0.17380358432E+03  0.00000000000E+00 0.  1.
          2   -1    0    0  501    0  0.00000000000E+00 -0.00000000000E+00 -0.23558840562E+04  0.23558840562E+04  0.00000000000E+00 0. -1.
         24    2    1    2    0    0 -0.10124318038E+03  0.28857346612E+03 -0.74527318515E+03  0.80940781784E+03  0.78638846362E+02 0.  0.
        254    2    1    2    0    0  0.10124318038E+03 -0.28857346612E+03 -0.14368072868E+04  0.17202798227E+04  0.89522213011E+03 0.  0.
         23    2    4    4    0    0 -0.15229932213E+03 -0.47833503696E+02  0.48460428551E+02  0.19154395149E+03  0.94114529279E+02 0.  0.
         23    2    4    4    0    0  0.25354250251E+03 -0.24073996243E+03 -0.14852677153E+04  0.15287358712E+04  0.93667751832E+02 0.  0.
          2    1    3    3  502    0 -0.11211069921E+03  0.23030625132E+03 -0.58979006323E+03  0.64301018418E+03  0.00000000000E+00 0. -1.
         -1    1    3    3    0  502  0.10867518830E+02  0.58267214798E+02 -0.15548312191E+03  0.16639763365E+03  0.00000000000E+00 0.  1.
         13    1    5    5    0    0 -0.38128350862E+02  0.18319074507E+02  0.41731334774E+02  0.59421073134E+02  0.00000000000E+00 0. -1.
        -13    1    5    5    0    0 -0.11417097127E+03 -0.66152578204E+02  0.67290937766E+01  0.13212287836E+03  0.00000000000E+00 0.  1.
          3    1    6    6  503    0  0.50277907342E+02 -0.10318575825E+03 -0.40603993755E+03  0.42195212946E+03  0.00000000000E+00 0. -1.
         -3    1    6    6    0  503  0.20326459517E+03 -0.13755420417E+03 -0.10792277778E+04  0.11067837418E+04  0.00000000000E+00 0.  1.
<mgrwt>
<rscale>  0 0.12797829E+04</rscale>
<asrwt>0</asrwt>
<pdfrwt beam="1">  1        2 0.36244369E+00 0.12797829E+04</pdfrwt>
<pdfrwt beam="2">  1       -1 0.26739014E-01 0.12797829E+04</pdfrwt>
<totfact> 0.58963968E+01</totfact>
</mgrwt>
</event>
<event>
12    7  0.1698542E-007  0.1603810E+04  0.7818608E-02  0.8818211E-01
         -1   -1    0    0    0  501 -0.00000000000E+00  0.00000000000E+00  0.36017367755E+03  0.36017367755E+03  0.00000000000E+00 0.  1.
          2   -1    0    0  501    0  0.00000000000E+00 -0.00000000000E+00 -0.17853936412E+04  0.17853936412E+04  0.00000000000E+00 0. -1.
         24    2    1    2    0    0  0.42749332239E+03 -0.31324110846E+03 -0.70284405617E+03  0.88394486355E+03  0.80611548649E+02 0.  0.
        254    2    1    2    0    0 -0.42749332239E+03  0.31324110846E+03 -0.72237590752E+03  0.12616224553E+04  0.88825319314E+03 0.  0.
         23    2    4    4    0    0  0.24461918661E+03  0.77187444779E+02 -0.37600005218E+03  0.46452213041E+03  0.92781044998E+02 0.  0.
         23    2    4    4    0    0 -0.67211250900E+03  0.23605366368E+03 -0.34637585534E+03  0.79710032485E+03  0.89085003281E+02 0.  0.
          4    1    3    3  502    0  0.27661730445E+03 -0.19383474383E+03 -0.50854421087E+03  0.61049672844E+03  0.00000000000E+00 0. -1.
         -3    1    3    3    0  502  0.15087601794E+03 -0.11940636463E+03 -0.19429984530E+03  0.27344813510E+03  0.00000000000E+00 0.  1.
         13    1    5    5    0    0  0.63534978742E+02 -0.10379370212E+02 -0.14226518115E+03  0.15615315116E+03  0.00000000000E+00 0. -1.
        -13    1    5    5    0    0  0.18108420787E+03  0.87566814991E+02 -0.23373487103E+03  0.30836897925E+03  0.00000000000E+00 0.  1.
          4    1    6    6  503    0 -0.41200677969E+03  0.17844481458E+03 -0.24927918427E+03  0.51354868325E+03  0.00000000000E+00 0. -1.
         -4    1    6    6    0  503 -0.26010572931E+03  0.57608849098E+02 -0.97096671072E+02  0.28355164159E+03  0.00000000000E+00 0.  1.
<mgrwt>
<rscale>  0 0.16038102E+04</rscale>
<asrwt>0</asrwt>
<pdfrwt beam="1">  1        2 0.27467594E+00 0.16038102E+04</pdfrwt>
<pdfrwt beam="2">  1       -1 0.55411336E-01 0.16038102E+04</pdfrwt>
<totfact> 0.31614637E+01</totfact>
</mgrwt>
</event>
<event>
12    7  0.1698542E-007  0.2375243E+04  0.7818608E-02  0.8448831E-01
          2   -1    0    0  501    0  0.00000000000E+00  0.00000000000E+00  0.26949225557E+04  0.26949225557E+04  0.00000000000E+00 0. -1.
         -1   -1    0    0    0  501 -0.00000000000E+00 -0.00000000000E+00 -0.52337129760E+03  0.52337129760E+03  0.00000000000E+00 0.  1.
         24    2    1    2    0    0  0.79484161515E+03  0.29153933626E+03  0.18052011663E+03  0.87042351675E+03  0.91001144160E+02 0.  0.
        254    2    1    2    0    0 -0.79484161515E+03 -0.29153933626E+03  0.19910311414E+04  0.23478703365E+04  0.91187813504E+03 0.  0.
         23    2    4    4    0    0 -0.76773823266E+03 -0.24530509427E+03  0.75510877341E+03  0.11079695467E+04  0.88378015244E+02 0.  0.
         23    2    4    4    0    0 -0.27103382494E+02 -0.46234241996E+02  0.12359223680E+04  0.12399007898E+04  0.83532450729E+02 0.  0.
          2    1    3    3  502    0  0.79136195018E+02  0.16841266121E+02  0.42828132343E+02  0.91544604027E+02  0.00000000000E+00 0. -1.
         -1    1    3    3    0  502  0.71570542013E+03  0.27469807014E+03  0.13769198429E+03  0.77887891272E+03  0.00000000000E+00 0.  1.
         13    1    5    5    0    0 -0.94063864359E+02 -0.45765528951E+02  0.13552295796E+03  0.17119861668E+03  0.00000000000E+00 0.  1.
        -13    1    5    5    0    0 -0.67367436830E+03 -0.19953956532E+03  0.61958581545E+03  0.93677093002E+03  0.00000000000E+00 0. -1.
          4    1    6    6  503    0  0.42752917032E+01  0.20483745747E+02  0.14655817332E+03  0.14804445321E+03  0.00000000000E+00 0.  1.
         -4    1    6    6    0  503 -0.31378674197E+02 -0.66717987743E+02  0.10893641947E+04  0.10918563366E+04  0.00000000000E+00 0. -1.
<mgrwt>
<rscale>  0 0.23752432E+04</rscale>
<asrwt>0</asrwt>
<pdfrwt beam="1">  1        2 0.41460346E+00 0.23752432E+04</pdfrwt>
<pdfrwt beam="2">  1       -1 0.80518663E-01 0.23752432E+04</pdfrwt>
<totfact> 0.42172566E+00</totfact>
</mgrwt>
</event>
<event>
12    7  0.1698542E-007  0.2573466E+04  0.7818608E-02  0.8377270E-01
         -1   -1    0    0    0  501 -0.00000000000E+00  0.00000000000E+00  0.76162795413E+03  0.76162795413E+03  0.00000000000E+00 0.  1.
          2   -1    0    0  501    0  0.00000000000E+00 -0.00000000000E+00 -0.21738727859E+04  0.21738727859E+04  0.00000000000E+00 0. -1.
         24    2    1    2    0    0 -0.71021614180E+02  0.97721781842E+03  0.16412851195E+02  0.98329071725E+03  0.81194326356E+02 0.  0.
        254    2    1    2    0    0  0.71021614180E+02 -0.97721781842E+03 -0.14286576830E+04  0.19522100228E+04  0.90003470138E+03 0.  0.
         23    2    4    4    0    0  0.24046209517E+03 -0.10376177450E+04 -0.13787776231E+04  0.17446028860E+04  0.90215807277E+02 0.  0.
         23    2    4    4    0    0 -0.16944048099E+03  0.60399926545E+02 -0.49880059907E+02  0.20760713686E+03  0.90854142292E+02 0.  0.
          2    1    3    3  502    0 -0.16376889251E+02  0.67396518521E+02  0.18671834881E+02  0.71827088400E+02  0.00000000000E+00 0. -1.
         -1    1    3    3    0  502 -0.54644724929E+02  0.90982129990E+03 -0.22589836859E+01  0.91146362885E+03  0.00000000000E+00 0.  1.
         13    1    5    5    0    0  0.63726546614E+02 -0.34785443055E+03 -0.52289062297E+03  0.63125144054E+03  0.00000000000E+00 0.  1.
        -13    1    5    5    0    0  0.17673554856E+03 -0.68976331442E+03 -0.85588700012E+03  0.11133514454E+04  0.00000000000E+00 0. -1.
          3    1    6    6  503    0 -0.14962166276E+03  0.82114129901E+02 -0.51173159306E+02  0.17817986567E+03  0.00000000000E+00 0. -1.
         -3    1    6    6    0  503 -0.19818818235E+02 -0.21714203356E+02  0.12930993984E+01  0.29427271190E+02  0.00000000000E+00 0.  1.
<mgrwt>
<rscale>  0 0.25734664E+04</rscale>
<asrwt>0</asrwt>
<pdfrwt beam="1">  1        2 0.33444196E+00 0.25734664E+04</pdfrwt>
<pdfrwt beam="2">  1       -1 0.11717353E+00 0.25734664E+04</pdfrwt>
<totfact> 0.35337501E+00</totfact>
</mgrwt>
</event>
<event>
12    7  0.1698542E-007  0.1530245E+04  0.7818608E-02  0.8864586E-01
          2   -1    0    0  501    0  0.00000000000E+00  0.00000000000E+00  0.93010579538E+03  0.93010579538E+03  0.00000000000E+00 0. -1.
         -1   -1    0    0    0  501 -0.00000000000E+00 -0.00000000000E+00 -0.62940411043E+03  0.62940411043E+03  0.00000000000E+00 0.  1.
         24    2    1    2    0    0 -0.43761412409E+03 -0.79743603182E+02 -0.72584690443E+02  0.45771001184E+03  0.79779407118E+02 0.  0.
        254    2    1    2    0    0  0.43761412409E+03  0.79743603182E+02  0.37328637540E+03  0.11017998940E+04  0.93635203020E+03 0.  0.
         23    2    4    4    0    0  0.25880523312E+03 -0.39467862877E+03  0.24360701062E+02  0.47953945263E+03  0.81322039917E+02 0.  0.
         23    2    4    4    0    0  0.17880889097E+03  0.47442223195E+03  0.34892567433E+03  0.62226044134E+03  0.91705272417E+02 0.  0.
          4    1    3    3  502    0 -0.24471340439E+03 -0.59950930039E+02 -0.77917701210E+02  0.26372321184E+03  0.00000000000E+00 0. -1.
         -3    1    3    3    0  502 -0.19290071970E+03 -0.19792673143E+02  0.53330107666E+01  0.19398680000E+03  0.00000000000E+00 0.  1.
         13    1    5    5    0    0  0.17710517128E+03 -0.28545552955E+03  0.53215843151E+02  0.34012207662E+03  0.00000000000E+00 0.  1.
        -13    1    5    5    0    0  0.81700061843E+02 -0.10922309922E+03 -0.28855142089E+02  0.13941737601E+03  0.00000000000E+00 0. -1.
          1    1    6    6  503    0  0.18090835974E+02  0.69411444783E+02  0.91142862639E+02  0.11598382828E+03  0.00000000000E+00 0. -1.
         -1    1    6    6    0  503  0.16071805499E+03  0.40501078717E+03  0.25778281170E+03  0.50627661306E+03  0.00000000000E+00 0.  1.
<mgrwt>
<rscale>  0 0.15302450E+04</rscale>
<asrwt>0</asrwt>
<pdfrwt beam="1">  1        2 0.14309320E+00 0.15302450E+04</pdfrwt>
<pdfrwt beam="2">  1       -1 0.96831402E-01 0.15302450E+04</pdfrwt>
<totfact> 0.31585823E+01</totfact>
</mgrwt>
</event>
<event>
12    7  0.1698542E-007  0.2970226E+04  0.7818608E-02  0.8252284E-01
          2   -1    0    0  501    0  0.00000000000E+00  0.00000000000E+00  0.15717619448E+04  0.15717619448E+04  0.00000000000E+00 0. -1.
         -1   -1    0    0    0  501 -0.00000000000E+00 -0.00000000000E+00 -0.14032409789E+04  0.14032409789E+04  0.00000000000E+00 0.  1.
         24    2    1    2    0    0  0.93997526875E+03 -0.88747440054E+03 -0.17265413258E+03  0.13066867773E+04  0.80352766157E+02 0.  0.
        254    2    1    2    0    0 -0.93997526875E+03  0.88747440054E+03  0.34117509848E+03  0.16683161464E+04  0.99785469832E+03 0.  0.
         23    2    4    4    0    0 -0.10913673937E+04  0.88019816473E+03  0.43113838117E+03  0.14694836695E+04  0.87580557044E+02 0.  0.
         23    2    4    4    0    0  0.15139212494E+03  0.72762358083E+01 -0.89963282690E+02  0.19883247689E+03  0.92024141026E+02 0.  0.
          4    1    3    3  502    0  0.21488918136E+03 -0.23664829023E+03 -0.18057693934E+02  0.32016535391E+03  0.00000000000E+00 0. -1.
         -3    1    3    3    0  502  0.72508608739E+03 -0.65082611031E+03 -0.15459643865E+03  0.98652142340E+03  0.00000000000E+00 0.  1.
         13    1    5    5    0    0 -0.19994833452E+03  0.14133121083E+03  0.10647617385E+03  0.26700378879E+03  0.00000000000E+00 0.  1.
        -13    1    5    5    0    0 -0.89141905917E+03  0.73886695390E+03  0.32466220733E+03  0.12024798807E+04  0.00000000000E+00 0. -1.
          2    1    6    6  503    0  0.14870210825E+03  0.58478512174E+00 -0.48006387842E+02  0.15626027084E+03  0.00000000000E+00 0. -1.
         -2    1    6    6    0  503  0.26900166929E+01  0.66914506865E+01 -0.41956894848E+02  0.42572206043E+02  0.00000000000E+00 0.  1.
<mgrwt>
<rscale>  0 0.29702261E+04</rscale>
<asrwt>0</asrwt>
<pdfrwt beam="1">  1        2 0.24180953E+00 0.29702261E+04</pdfrwt>
<pdfrwt beam="2">  1       -1 0.21588323E+00 0.29702261E+04</pdfrwt>
<totfact> 0.13253823E+00</totfact>
</mgrwt>
</event>
<event>
12    7  0.1698542E-007  0.1943863E+04  0.7818608E-02  0.8633326E-01
         -3   -1    0    0    0  501 -0.00000000000E+00  0.00000000000E+00  0.18837162088E+04  0.18837162088E+04  0.00000000000E+00 0.  1.
          4   -1    0    0  501    0  0.00000000000E+00 -0.00000000000E+00 -0.50148258258E+03  0.50148258258E+03  0.00000000000E+00 0. -1.
         24    2    1    2    0    0  0.36207927265E+03  0.18054199914E+03  0.13401400201E+04  0.14021043660E+04  0.78895922342E+02 0.  0.
        254    2    1    2    0    0 -0.36207927265E+03 -0.18054199914E+03  0.42093606149E+02  0.98309442541E+03  0.89498936556E+03 0.  0.
         23    2    4    4    0    0 -0.18230507100E+02  0.28668082519E+03 -0.18549235743E+03  0.35320579026E+03  0.88479764307E+02 0.  0.
         23    2    4    4    0    0 -0.34384876555E+03 -0.46722282433E+03  0.22758596358E+03  0.62988863515E+03  0.91843239984E+02 0.  0.
          4    1    3    3  502    0  0.19307992253E+03  0.11657580803E+03  0.62371313448E+03  0.66324041616E+03  0.00000000000E+00 0. -1.
         -3    1    3    3    0  502  0.16899935011E+03  0.63966191110E+02  0.71642688559E+03  0.73886394982E+03  0.00000000000E+00 0.  1.
         13    1    5    5    0    0 -0.40127700990E+02  0.23601557922E+03 -0.12075530332E+03  0.26813323051E+03  0.00000000000E+00 0. -1.
        -13    1    5    5    0    0  0.21897193890E+02  0.50665245964E+02 -0.64737054103E+02  0.85072559752E+02  0.00000000000E+00 0.  1.
          2    1    6    6  503    0 -0.25623820534E+02 -0.89495670356E+02  0.43981243530E+02  0.10295826812E+03  0.00000000000E+00 0. -1.
         -2    1    6    6    0  503 -0.31822494501E+03 -0.37772715397E+03  0.18360472005E+03  0.52693036703E+03  0.00000000000E+00 0.  1.
<mgrwt>
<rscale>  0 0.19438630E+04</rscale>
<asrwt>0</asrwt>
<pdfrwt beam="1">  1        4 0.77151167E-01 0.19438630E+04</pdfrwt>
<pdfrwt beam="2">  1       -3 0.28980249E+00 0.19438630E+04</pdfrwt>
<totfact> 0.13975847E-01</totfact>
</mgrwt>
</event>
<event>
12    7  0.1698542E-007  0.1594809E+04  0.7818608E-02  0.8823743E-01
         -1   -1    0    0    0  501 -0.00000000000E+00  0.00000000000E+00  0.53140258578E+03  0.53140258578E+03  0.00000000000E+00 0.  1.
          2   -1    0    0  501    0  0.00000000000E+00 -0.00000000000E+00 -0.11965584185E+04  0.11965584185E+04  0.00000000000E+00 0. -1.
         24    2    1    2    0    0 -0.25974523020E+03  0.45504161581E+03 -0.40711903970E+03  0.66858535923E+03  0.82036658673E+02 0.  0.
        254    2    1    2    0    0  0.25974523020E+03 -0.45504161581E+03 -0.25803679298E+03  0.10593756450E+04  0.88383443810E+03 0.  0.
         23    2    4    4    0    0 -0.27389133012E+03 -0.10972721918E+03 -0.28017966836E+03  0.41715122748E+03  0.91967258746E+02 0.  0.
         23    2    4    4    0    0  0.53363656031E+03 -0.34531439663E+03  0.22142875383E+02  0.64222441753E+03  0.89173339737E+02 0.  0.
          2    1    3    3  502    0 -0.15842067942E+03  0.31205844324E+03 -0.22619343912E+03  0.41670259846E+03  0.00000000000E+00 0. -1.
         -1    1    3    3    0  502 -0.10132455077E+03  0.14298317257E+03 -0.18092560058E+03  0.25188276077E+03  0.00000000000E+00 0.  1.
         13    1    5    5    0    0 -0.98332150179E+02 -0.56217631223E+02 -0.52876483645E+02  0.12500222535E+03  0.00000000000E+00 0.  1.
        -13    1    5    5    0    0 -0.17555917994E+03 -0.53509587961E+02 -0.22730318472E+03  0.29214900213E+03  0.00000000000E+00 0. -1.
          1    1    6    6  503    0  0.27277314382E+02 -0.45346745441E+02  0.79504908900E+01  0.53512517296E+02  0.00000000000E+00 0. -1.
         -1    1    6    6    0  503  0.50635924593E+03 -0.29996765118E+03  0.14192384493E+02  0.58871190023E+03  0.00000000000E+00 0.  1.
<mgrwt>
<rscale>  0 0.15948094E+04</rscale>
<asrwt>0</asrwt>
<pdfrwt beam="1">  1        2 0.18408591E+00 0.15948094E+04</pdfrwt>
<pdfrwt beam="2">  1       -1 0.81754245E-01 0.15948094E+04</pdfrwt>
<totfact> 0.31004424E+01</totfact>
</mgrwt>
</event>
<event>
12    7  0.1698542E-007  0.1892959E+04  0.7818608E-02  0.8658369E-01
          2   -1    0    0  501    0  0.00000000000E+00  0.00000000000E+00  0.12207699531E+04  0.12207699531E+04  0.00000000000E+00 0. -1.
         -1   -1    0    0    0  501 -0.00000000000E+00 -0.00000000000E+00 -0.73381806250E+03  0.73381806250E+03  0.00000000000E+00 0.  1.
         24    2    1    2    0    0  0.39268445859E+03  0.38384206419E+03 -0.31140612131E+03  0.63580943780E+03  0.75789541150E+02 0.  0.
        254    2    1    2    0    0 -0.39268445859E+03 -0.38384206419E+03  0.79835801188E+03  0.13187785778E+04  0.89457565794E+03 0.  0.
         23    2    4    4    0    0 -0.30192700415E+03 -0.57824641342E+03  0.21884068291E+03  0.69415970829E+03  0.91856549313E+02 0.  0.
         23    2    4    4    0    0 -0.90757454437E+02  0.19440434923E+03  0.57951732897E+03  0.62461886947E+03  0.90985883471E+02 0.  0.
          2    1    3    3  502    0  0.19707718146E+03  0.14339815557E+03 -0.12193790294E+03  0.27252761079E+03  0.00000000000E+00 0. -1.
         -1    1    3    3    0  502  0.19560727713E+03  0.24044390863E+03 -0.18946821837E+03  0.36328182701E+03  0.00000000000E+00 0.  1.
         13    1    5    5    0    0 -0.27005269045E+03 -0.55674922549E+03  0.21676973173E+03  0.65565789273E+03  0.00000000000E+00 0. -1.
        -13    1    5    5    0    0 -0.31874313703E+02 -0.21497187930E+02  0.20709511768E+01  0.38501815563E+02  0.00000000000E+00 0.  1.
          2    1    6    6  503    0 -0.51128436646E+02  0.18246141102E+03  0.50496791756E+03  0.53935042533E+03  0.00000000000E+00 0. -1.
         -2    1    6    6    0  503 -0.39629017792E+02  0.11942938212E+02  0.74549411409E+02  0.85268444138E+02  0.00000000000E+00 0.  1.
<mgrwt>
<rscale>  0 0.18929586E+04</rscale>
<asrwt>0</asrwt>
<pdfrwt beam="1">  1        2 0.18781076E+00 0.18929586E+04</pdfrwt>
<pdfrwt beam="2">  1       -1 0.11289509E+00 0.18929586E+04</pdfrwt>
<totfact> 0.14112001E+01</totfact>
</mgrwt>
</event>
<event>
12    7  0.1698542E-007  0.2294461E+04  0.7818608E-02  0.8480108E-01
         -1   -1    0    0    0  501 -0.00000000000E+00  0.00000000000E+00  0.45575461243E+03  0.45575461243E+03  0.00000000000E+00 0.  1.
          2   -1    0    0  501    0  0.00000000000E+00 -0.00000000000E+00 -0.28878208506E+04  0.28878208506E+04  0.00000000000E+00 0. -1.
         24    2    1    2    0    0  0.62229142604E+03 -0.46855417847E+03 -0.18716330850E+04  0.20288532241E+04  0.80283018651E+02 0.  0.
        254    2    1    2    0    0 -0.62229142604E+03  0.46855417847E+03 -0.56043315319E+03  0.13147222389E+04  0.89867658769E+03 0.  0.
         23    2    4    4    0    0 -0.45511808614E+03 -0.15694475511E+03 -0.64522961159E+02  0.49386544067E+03  0.89306956514E+02 0.  0.
         23    2    4    4    0    0 -0.16717333989E+03  0.62549893358E+03 -0.49591019204E+03  0.82085679826E+03  0.93183277493E+02 0.  0.
          2    1    3    3  502    0  0.58243405506E+03 -0.44069594753E+03 -0.17972283090E+04  0.19399669949E+04  0.00000000000E+00 0. -1.
         -1    1    3    3    0  502  0.39857370981E+02 -0.27858230941E+02 -0.74404776012E+02  0.88886229227E+02  0.00000000000E+00 0.  1.
         13    1    5    5    0    0 -0.69976486121E+02 -0.41004535874E+02 -0.41214697676E+02  0.90976545750E+02  0.00000000000E+00 0. -1.
        -13    1    5    5    0    0 -0.38514160002E+03 -0.11594021923E+03 -0.23308263482E+02  0.40288889492E+03  0.00000000000E+00 0.  1.
          2    1    6    6  503    0 -0.58182646288E+01  0.84494998635E+02 -0.10140692168E+03  0.13212350571E+03  0.00000000000E+00 0. -1.
         -2    1    6    6    0  503 -0.16135507526E+03  0.54100393495E+03 -0.39450327036E+03  0.68873329255E+03  0.00000000000E+00 0.  1.
<mgrwt>
<rscale>  0 0.22944609E+04</rscale>
<asrwt>0</asrwt>
<pdfrwt beam="1">  1        2 0.44428014E+00 0.22944609E+04</pdfrwt>
<pdfrwt beam="2">  1       -1 0.70116093E-01 0.22944609E+04</pdfrwt>
<totfact> 0.43395165E+00</totfact>
</mgrwt>
</event>
<event>
12    7  0.1698542E-007  0.1794571E+04  0.7818608E-02  0.8709192E-01
         -1   -1    0    0    0  501 -0.00000000000E+00  0.00000000000E+00  0.53387157772E+03  0.53387157772E+03  0.00000000000E+00 0.  1.
          2   -1    0    0  501    0  0.00000000000E+00 -0.00000000000E+00 -0.15080808175E+04  0.15080808175E+04  0.00000000000E+00 0. -1.
         24    2    1    2    0    0  0.49760650686E+03  0.31571826651E+03 -0.71657004543E+03  0.93131199234E+03  0.81111883131E+02 0.  0.
        254    2    1    2    0    0 -0.49760650686E+03 -0.31571826651E+03 -0.25763919435E+03  0.11106404029E+04  0.90545783478E+03 0.  0.
         23    2    4    4    0    0 -0.57170642373E+03 -0.17795570225E+03  0.18506198563E+03  0.63237826246E+03  0.84485865178E+02 0.  0.
         23    2    4    4    0    0  0.74099916863E+02 -0.13776256426E+03 -0.44270117999E+03  0.47826214042E+03  0.91000101136E+02 0.  0.
          4    1    3    3  502    0  0.29301684771E+03  0.15439413377E+03 -0.44792980992E+03  0.55707947028E+03  0.00000000000E+00 0. -1.
         -3    1    3    3    0  502  0.20458965915E+03  0.16132413274E+03 -0.26864023550E+03  0.37423252206E+03  0.00000000000E+00 0.  1.
         13    1    5    5    0    0 -0.16298523196E+03 -0.54813601415E+02  0.14051424603E+02  0.17252872014E+03  0.00000000000E+00 0. -1.
        -13    1    5    5    0    0 -0.40872119176E+03 -0.12314210084E+03  0.17101056103E+03  0.45984954233E+03  0.00000000000E+00 0.  1.
          1    1    6    6  503    0  0.57751493648E+02 -0.74520436827E+02 -0.14131001339E+03  0.16987363070E+03  0.00000000000E+00 0. -1.
         -1    1    6    6    0  503  0.16348423215E+02 -0.63242127433E+02 -0.30139116660E+03  0.30838850972E+03  0.00000000000E+00 0.  1.
<mgrwt>
<rscale>  0 0.17945712E+04</rscale>
<asrwt>0</asrwt>
<pdfrwt beam="1">  1        2 0.23201243E+00 0.17945712E+04</pdfrwt>
<pdfrwt beam="2">  1       -1 0.82134090E-01 0.17945712E+04</pdfrwt>
<totfact> 0.19930939E+01</totfact>
</mgrwt>
</event>
<event>
12    7  0.1698542E-007  0.2053238E+04  0.7818608E-02  0.8582127E-01
          2   -1    0    0  501    0  0.00000000000E+00  0.00000000000E+00  0.86186568879E+03  0.86186568879E+03  0.00000000000E+00 0. -1.
         -1   -1    0    0    0  501 -0.00000000000E+00 -0.00000000000E+00 -0.12228666518E+04  0.12228666518E+04  0.00000000000E+00 0.  1.
         24    2    1    2    0    0 -0.17609600576E+03 -0.55009324391E+03 -0.71751723133E+03  0.92442501442E+03  0.78219241865E+02 0.  0.
        254    2    1    2    0    0  0.17609600576E+03  0.55009324391E+03  0.35651626827E+03  0.11603073262E+04  0.94106156095E+03 0.  0.
         23    2    4    4    0    0  0.37886980549E+03 -0.70342051102E+02 -0.27550866886E+02  0.39767696590E+03  0.94327012472E+02 0.  0.
         23    2    4    4    0    0 -0.20277379972E+03  0.62043529501E+03  0.38406713516E+03  0.76263036032E+03  0.89667904111E+02 0.  0.
          4    1    3    3  502    0 -0.76350057903E+02 -0.32409743846E+03 -0.36611651654E+03  0.49488360716E+03  0.00000000000E+00 0. -1.
         -3    1    3    3    0  502 -0.99745947862E+02 -0.22599580545E+03 -0.35140071479E+03  0.42954140726E+03  0.00000000000E+00 0.  1.
         13    1    5    5    0    0  0.34437795488E+03 -0.35427635842E+02 -0.12809573387E+02  0.34643235755E+03  0.00000000000E+00 0. -1.
        -13    1    5    5    0    0  0.34491850609E+02 -0.34914415260E+02 -0.14741293499E+02  0.51244608354E+02  0.00000000000E+00 0.  1.
          2    1    6    6  503    0 -0.49974673730E+02  0.62826130298E+02  0.55892142891E+02  0.97818823851E+02  0.00000000000E+00 0. -1.
         -2    1    6    6    0  503 -0.15279912599E+03  0.55760916471E+03  0.32817499226E+03  0.66481153647E+03  0.00000000000E+00 0.  1.
<mgrwt>
<rscale>  0 0.20532382E+04</rscale>
<asrwt>0</asrwt>
<pdfrwt beam="1">  1        2 0.13259472E+00 0.20532382E+04</pdfrwt>
<pdfrwt beam="2">  1       -1 0.18813333E+00 0.20532382E+04</pdfrwt>
<totfact> 0.59860285E+00</totfact>
</mgrwt>
</event>
<event>
12    7  0.1698542E-007  0.1948504E+04  0.7818608E-02  0.8631082E-01
         -1   -1    0    0    0  501 -0.00000000000E+00  0.00000000000E+00  0.29909803111E+03  0.29909803111E+03  0.00000000000E+00 0.  1.
          2   -1    0    0  501    0  0.00000000000E+00 -0.00000000000E+00 -0.31734322822E+04  0.31734322822E+04  0.00000000000E+00 0. -1.
         24    2    1    2    0    0 -0.24251726190E+03 -0.30286317657E+03  0.53828920187E+02  0.39953423039E+03  0.78672247729E+02 0.  0.
        254    2    1    2    0    0  0.24251726190E+03  0.30286317657E+03 -0.29281631713E+04  0.30729960829E+04  0.84771731256E+03 0.  0.
         23    2    4    4    0    0  0.77547378444E+02  0.57943657490E+03 -0.20314958873E+04  0.21159001447E+04  0.91090845775E+02 0.  0.
         23    2    4    4    0    0  0.16496988346E+03 -0.27657339833E+03 -0.89666728400E+03  0.95709593821E+03  0.91172965393E+02 0.  0.
          2    1    3    3  502    0 -0.74530740308E+01 -0.50252272756E+02  0.85000999419E+01  0.51508163709E+02  0.00000000000E+00 0. -1.
         -1    1    3    3    0  502 -0.23506418787E+03 -0.25261090382E+03  0.45328820246E+02  0.34802606668E+03  0.00000000000E+00 0.  1.
         13    1    5    5    0    0  0.71071320477E+02  0.21459815088E+03 -0.82769723379E+03  0.85801294266E+03  0.00000000000E+00 0.  1.
        -13    1    5    5    0    0  0.64760579666E+01  0.36483842402E+03 -0.12037986535E+04  0.12578872020E+04  0.00000000000E+00 0. -1.
          3    1    6    6  503    0  0.17296447630E+03 -0.26559774905E+03 -0.81787472738E+03  0.87714191785E+03  0.00000000000E+00 0. -1.
         -3    1    6    6    0  503 -0.79945928431E+01 -0.10975649272E+02 -0.78792556622E+02  0.79954020354E+02  0.00000000000E+00 0.  1.
<mgrwt>
<rscale>  0 0.19485044E+04</rscale>
<asrwt>0</asrwt>
<pdfrwt beam="1">  1        2 0.48822038E+00 0.19485044E+04</pdfrwt>
<pdfrwt beam="2">  1       -1 0.46015079E-01 0.19485044E+04</pdfrwt>
<totfact> 0.67563306E+00</totfact>
</mgrwt>
</event>
<event>
12    7  0.1698542E-007  0.2293994E+04  0.7818608E-02  0.8480293E-01
         -3   -1    0    0    0  501 -0.00000000000E+00  0.00000000000E+00  0.21672524818E+04  0.21672524818E+04  0.00000000000E+00 0.  1.
          4   -1    0    0  501    0  0.00000000000E+00 -0.00000000000E+00 -0.60703708799E+03  0.60703708799E+03  0.00000000000E+00 0. -1.
         24    2    1    2    0    0  0.87812466353E+03 -0.15543629475E+03  0.11121572322E+04  0.14277994857E+04  0.80338631988E+02 0.  0.
        254    2    1    2    0    0 -0.87812466353E+03  0.15543629475E+03  0.44805816170E+03  0.13464900842E+04  0.90388940921E+03 0.  0.
         23    2    4    4    0    0 -0.10525617296E+04  0.92005087877E+02  0.38694539930E+03  0.11289803369E+04  0.92296955905E+02 0.  0.
         23    2    4    4    0    0  0.17443706612E+03  0.63431206873E+02  0.61112762395E+02  0.21750974731E+03  0.95519172980E+02 0.  0.
          4    1    3    3  502    0  0.31316124205E+03 -0.51744897084E+02  0.33602612022E+03  0.46223484439E+03  0.00000000000E+00 0. -1.
         -3    1    3    3    0  502  0.56496342148E+03 -0.10369139767E+03  0.77613111194E+03  0.96556464127E+03  0.00000000000E+00 0.  1.
         13    1    5    5    0    0 -0.84163485448E+01  0.75482881433E+01  0.11633262005E+02  0.16221724989E+02  0.00000000000E+00 0.  1.
        -13    1    5    5    0    0 -0.10441453811E+04  0.84456799733E+02  0.37531213730E+03  0.11127586119E+04  0.00000000000E+00 0. -1.
          2    1    6    6  503    0  0.52937622673E+02  0.61549011466E+02 -0.68170055394E+00  0.81185820328E+02  0.00000000000E+00 0. -1.
         -2    1    6    6    0  503  0.12149944344E+03  0.18821954067E+01  0.61794462949E+02  0.13632392698E+03  0.00000000000E+00 0.  1.
<mgrwt>
<rscale>  0 0.22939945E+04</rscale>
<asrwt>0</asrwt>
<pdfrwt beam="1">  1        4 0.93390323E-01 0.22939945E+04</pdfrwt>
<pdfrwt beam="2">  1       -3 0.33342345E+00 0.22939945E+04</pdfrwt>
<totfact> 0.49858278E-02</totfact>
</mgrwt>
</event>
<event>
12    7  0.1698542E-007  0.1764829E+04  0.7818608E-02  0.8725230E-01
          2   -1    0    0  501    0  0.00000000000E+00  0.00000000000E+00  0.17483294235E+04  0.17483294235E+04  0.00000000000E+00 0. -1.
         -1   -1    0    0    0  501 -0.00000000000E+00 -0.00000000000E+00 -0.44537115552E+03  0.44537115552E+03  0.00000000000E+00 0.  1.
         24    2    1    2    0    0  0.61856209034E+03  0.16572232123E+03  0.33461057181E+03  0.72714159479E+03  0.81778461427E+02 0.  0.
        254    2    1    2    0    0 -0.61856209034E+03 -0.16572232123E+03  0.96834769621E+03  0.14665589843E+04  0.89611106803E+03 0.  0.
         23    2    4    4    0    0 -0.83805448880E+03 -0.10520271555E+03  0.67949618456E+03  0.10875851664E+04  0.87883398823E+02 0.  0.
         23    2    4    4    0    0  0.21949239846E+03 -0.60519605681E+02  0.28885151165E+03  0.37897381788E+03  0.91358760934E+02 0.  0.
          4    1    3    3  502    0  0.14169872373E+03  0.54951646906E+02  0.11497003155E+03  0.19056841281E+03  0.00000000000E+00 0. -1.
         -3    1    3    3    0  502  0.47686336660E+03  0.11077067432E+03  0.21964054026E+03  0.53657318198E+03  0.00000000000E+00 0.  1.
         13    1    5    5    0    0 -0.70620235968E+03 -0.86148362299E+02  0.52875615824E+03  0.88641208703E+03  0.00000000000E+00 0.  1.
        -13    1    5    5    0    0 -0.13185212911E+03 -0.19054353251E+02  0.15074002632E+03  0.20117307937E+03  0.00000000000E+00 0. -1.
          3    1    6    6  503    0  0.10012890735E+03 -0.20936152590E+02  0.62053660669E+02  0.11964437879E+03  0.00000000000E+00 0. -1.
         -3    1    6    6    0  503  0.11936349110E+03 -0.39583453091E+02  0.22679785098E+03  0.25932943909E+03  0.00000000000E+00 0.  1.
<mgrwt>
<rscale>  0 0.17648292E+04</rscale>
<asrwt>0</asrwt>
<pdfrwt beam="1">  1        2 0.26897375E+00 0.17648292E+04</pdfrwt>
<pdfrwt beam="2">  1       -1 0.68518640E-01 0.17648292E+04</pdfrwt>
<totfact> 0.21429121E+01</totfact>
</mgrwt>
</event>
<event>
12    7  0.1698542E-007  0.1562108E+04  0.7818608E-02  0.8844171E-01
         -1   -1    0    0    0  501 -0.00000000000E+00  0.00000000000E+00  0.48226913044E+03  0.48226913044E+03  0.00000000000E+00 0.  1.
          2   -1    0    0  501    0  0.00000000000E+00 -0.00000000000E+00 -0.12649483236E+04  0.12649483236E+04  0.00000000000E+00 0. -1.
         24    2    1    2    0    0 -0.28418972594E+03  0.38855578399E+03 -0.47839920492E+03  0.68337275896E+03  0.79957056099E+02 0.  0.
        254    2    1    2    0    0  0.28418972594E+03 -0.38855578399E+03 -0.30427998824E+03  0.10638446951E+04  0.89857655566E+03 0.  0.
         23    2    4    4    0    0  0.14640927689E+02 -0.49444937995E+03  0.14354143645E+03  0.52289141924E+03  0.90092986623E+02 0.  0.
         23    2    4    4    0    0  0.26954879825E+03  0.10589359596E+03 -0.44782142469E+03  0.54095327583E+03  0.90644414725E+02 0.  0.
          2    1    3    3  502    0 -0.14681730622E+03  0.17318282868E+03 -0.27646711617E+03  0.35774527233E+03  0.00000000000E+00 0. -1.
         -1    1    3    3    0  502 -0.13737241972E+03  0.21537295532E+03 -0.20193208875E+03  0.32562748663E+03  0.00000000000E+00 0.  1.
         13    1    5    5    0    0 -0.23007791901E+02 -0.28708463574E+03  0.11540658684E+03  0.31026702508E+03  0.00000000000E+00 0. -1.
        -13    1    5    5    0    0  0.37648719590E+02 -0.20736474421E+03  0.28134849603E+02  0.21262439415E+03  0.00000000000E+00 0.  1.
          1    1    6    6  503    0  0.43455347037E+02 -0.10855581383E+02 -0.10380547706E+03  0.11305656947E+03  0.00000000000E+00 0. -1.
         -1    1    6    6    0  503  0.22609345121E+03  0.11674917734E+03 -0.34401594763E+03  0.42789670637E+03  0.00000000000E+00 0.  1.
<mgrwt>
<rscale>  0 0.15621082E+04</rscale>
<asrwt>0</asrwt>
<pdfrwt beam="1">  1        2 0.19460743E+00 0.15621082E+04</pdfrwt>
<pdfrwt beam="2">  1       -1 0.74195251E-01 0.15621082E+04</pdfrwt>
<totfact> 0.34753900E+01</totfact>
</mgrwt>
</event>
<event>
12    7  0.1698542E-007  0.1375541E+04  0.7818608E-02  0.8971716E-01
          2   -1    0    0  501    0  0.00000000000E+00  0.00000000000E+00  0.16725882929E+04  0.16725882929E+04  0.00000000000E+00 0. -1.
         -1   -1    0    0    0  501 -0.00000000000E+00 -0.00000000000E+00 -0.28281224783E+03  0.28281224783E+03  0.00000000000E+00 0.  1.
         24    2    1    2    0    0 -0.88230077162E+02  0.32849345019E+03  0.18966803041E+03  0.39755502993E+03  0.79897100842E+02 0.  0.
        254    2    1    2    0    0  0.88230077162E+02 -0.32849345019E+03  0.12001080147E+04  0.15578455108E+04  0.93323678420E+03 0.  0.
         23    2    4    4    0    0 -0.91978758611E+02  0.74599348612E+02  0.10812539794E+04  0.10915278167E+04  0.91091447292E+02 0.  0.
         23    2    4    4    0    0  0.18020883577E+03 -0.40309279881E+03  0.11885403530E+03  0.46631769417E+03  0.91470657872E+02 0.  0.
          2    1    3    3  502    0  0.86171118496E+01  0.31339245368E+02  0.38479068557E+02  0.50369054328E+02  0.00000000000E+00 0. -1.
         -1    1    3    3    0  502 -0.96847189012E+02  0.29715420483E+03  0.15118896185E+03  0.34718597560E+03  0.00000000000E+00 0.  1.
         13    1    5    5    0    0 -0.10149585520E+03  0.41831723990E+02  0.93090154234E+03  0.93735211276E+03  0.00000000000E+00 0. -1.
        -13    1    5    5    0    0  0.95170965907E+01  0.32767624622E+02  0.15035243703E+03  0.15417570390E+03  0.00000000000E+00 0.  1.
          4    1    6    6  503    0  0.17624065494E+03 -0.34668127357E+03  0.78254084789E+02  0.39670187255E+03  0.00000000000E+00 0. -1.
         -4    1    6    6    0  503  0.39681808301E+01 -0.56411525234E+02  0.40599950513E+02  0.69615821621E+02  0.00000000000E+00 0.  1.
<mgrwt>
<rscale>  0 0.13755413E+04</rscale>
<asrwt>0</asrwt>
<pdfrwt beam="1">  1        2 0.25732127E+00 0.13755413E+04</pdfrwt>
<pdfrwt beam="2">  1       -1 0.43509578E-01 0.13755413E+04</pdfrwt>
<totfact> 0.58837759E+01</totfact>
</mgrwt>
</event>
<event>
12    7  0.1698542E-007  0.2672060E+04  0.7818608E-02  0.8344128E-01
          2   -1    0    0  501    0  0.00000000000E+00  0.00000000000E+00  0.14302465148E+04  0.14302465148E+04  0.00000000000E+00 0. -1.
         -1   -1    0    0    0  501 -0.00000000000E+00 -0.00000000000E+00 -0.12480196306E+04  0.12480196306E+04  0.00000000000E+00 0.  1.
         24    2    1    2    0    0 -0.26624221971E+03 -0.80727183019E+03  0.90659111675E+03  0.12466707876E+04  0.98528535687E+02 0.  0.
        254    2    1    2    0    0  0.26624221971E+03  0.80727183019E+03 -0.72436423254E+03  0.14315953577E+04  0.89565004298E+03 0.  0.
         23    2    4    4    0    0 -0.51512021191E+02  0.73524470050E+03 -0.13922560783E+03  0.75568686728E+03  0.91872811900E+02 0.  0.
         23    2    4    4    0    0  0.31775424090E+03  0.72027129687E+02 -0.58513862471E+03  0.67590849043E+03  0.91155977844E+02 0.  0.
          2    1    3    3  502    0 -0.91884463421E+02 -0.34462165306E+03  0.44482930500E+03  0.57015782812E+03  0.00000000000E+00 0. -1.
         -1    1    3    3    0  502 -0.17435775629E+03 -0.46265017713E+03  0.46176181175E+03  0.67651295950E+03  0.00000000000E+00 0.  1.
         13    1    5    5    0    0 -0.18065320326E+02  0.47322184686E+03 -0.46966615928E+02  0.47588983510E+03  0.00000000000E+00 0. -1.
        -13    1    5    5    0    0 -0.33446700865E+02  0.26202285364E+03 -0.92258991906E+02  0.27979703218E+03  0.00000000000E+00 0.  1.
          4    1    6    6  503    0  0.92301212354E+01 -0.56689943003E+01 -0.67118054922E+02  0.67986512860E+02  0.00000000000E+00 0. -1.
         -4    1    6    6    0  503  0.30852411967E+03  0.77696123987E+02 -0.51802056979E+03  0.60792197757E+03  0.00000000000E+00 0.  1.
<mgrwt>
<rscale>  0 0.26720597E+04</rscale>
<asrwt>0</asrwt>
<pdfrwt beam="1">  1        2 0.22003793E+00 0.26720597E+04</pdfrwt>
<pdfrwt beam="2">  1       -1 0.19200302E+00 0.26720597E+04</pdfrwt>
<totfact> 0.23827162E+00</totfact>
</mgrwt>
</event>
<event>
12    7  0.1698542E-007  0.1347459E+04  0.7818608E-02  0.8992754E-01
         -1   -1    0    0    0  501 -0.00000000000E+00  0.00000000000E+00  0.13866477552E+04  0.13866477552E+04  0.00000000000E+00 0.  1.
          2   -1    0    0  501    0  0.00000000000E+00 -0.00000000000E+00 -0.32734461178E+03  0.32734461178E+03  0.00000000000E+00 0. -1.
         24    2    1    2    0    0 -0.64138019532E+02  0.28356013726E+03  0.58481715755E+03  0.65805457957E+03  0.80651626970E+02 0.  0.
        254    2    1    2    0    0  0.64138019532E+02 -0.28356013726E+03  0.47448598587E+03  0.10559377874E+04  0.89741162412E+03 0.  0.
         23    2    4    4    0    0 -0.23248228097E+03 -0.19012161175E+03  0.62418614697E+03  0.69897303355E+03  0.93598703766E+02 0.  0.
         23    2    4    4    0    0  0.29662030050E+03 -0.93438525513E+02 -0.14970016110E+03  0.35696475387E+03  0.91100694581E+02 0.  0.
          2    1    3    3  502    0 -0.39382364413E+02  0.44373019172E+02  0.88409004793E+02  0.10647106455E+03  0.00000000000E+00 0. -1.
         -1    1    3    3    0  502 -0.24755655119E+02  0.23918711809E+03  0.49640815276E+03  0.55158351502E+03  0.00000000000E+00 0.  1.
         13    1    5    5    0    0 -0.17697825281E+03 -0.14674280868E+03  0.55270869090E+03  0.59861644721E+03  0.00000000000E+00 0.  1.
        -13    1    5    5    0    0 -0.55504028151E+02 -0.43378803067E+02  0.71477456063E+02  0.10035658634E+03  0.00000000000E+00 0. -1.
          3    1    6    6  503    0  0.57796435782E+01 -0.13345131282E+02 -0.28237860977E+02  0.31762770682E+02  0.00000000000E+00 0. -1.
         -3    1    6    6    0  503  0.29084065692E+03 -0.80093394231E+02 -0.12146230012E+03  0.32520198318E+03  0.00000000000E+00 0.  1.
<mgrwt>
<rscale>  0 0.13474593E+04</rscale>
<asrwt>0</asrwt>
<pdfrwt beam="1">  1        2 0.50360710E-01 0.13474593E+04</pdfrwt>
<pdfrwt beam="2">  1       -1 0.21333042E+00 0.13474593E+04</pdfrwt>
<totfact> 0.13600953E+01</totfact>
</mgrwt>
</event>
<event>
12    7  0.1698542E-007  0.1734778E+04  0.7818608E-02  0.8741774E-01
         -1   -1    0    0    0  501 -0.00000000000E+00  0.00000000000E+00  0.73609237971E+03  0.73609237971E+03  0.00000000000E+00 0.  1.
          2   -1    0    0  501    0  0.00000000000E+00 -0.00000000000E+00 -0.10221045091E+04  0.10221045091E+04  0.00000000000E+00 0. -1.
         24    2    1    2    0    0 -0.10279583785E+03 -0.12882788864E+03 -0.71726069563E+03  0.74042880696E+03  0.81291472514E+02 0.  0.
        254    2    1    2    0    0  0.10279583785E+03  0.12882788864E+03  0.43124856628E+03  0.10177680818E+04  0.90703524368E+03 0.  0.
         23    2    4    4    0    0  0.48945071374E+03  0.17115321964E+02  0.15705907071E+03  0.52229871466E+03  0.90958563201E+02 0.  0.
         23    2    4    4    0    0 -0.38665487589E+03  0.11171256667E+03  0.27418949556E+03  0.49546936715E+03  0.91259649935E+02 0.  0.
          2    1    3    3  502    0 -0.10614448197E+03 -0.94111113862E+02 -0.64190441460E+03  0.65739244769E+03  0.00000000000E+00 0. -1.
         -1    1    3    3    0  502  0.33486441228E+01 -0.34716774776E+02 -0.75356281035E+02  0.83036359263E+02  0.00000000000E+00 0.  1.
         13    1    5    5    0    0  0.37279987734E+03 -0.23812982642E+02  0.10396687727E+03  0.38775755087E+03  0.00000000000E+00 0.  1.
        -13    1    5    5    0    0  0.11665083640E+03  0.40928304605E+02  0.53092193440E+02  0.13454116380E+03  0.00000000000E+00 0. -1.
          3    1    6    6  503    0 -0.89449089176E+02 -0.30891313859E+01  0.31228504946E+02  0.94793996689E+02  0.00000000000E+00 0. -1.
         -3    1    6    6    0  503 -0.29720578671E+03  0.11480169806E+03  0.24296099062E+03  0.40067537046E+03  0.00000000000E+00 0.  1.
<mgrwt>
<rscale>  0 0.17347776E+04</rscale>
<asrwt>0</asrwt>
<pdfrwt beam="1">  1        2 0.15724685E+00 0.17347776E+04</pdfrwt>
<pdfrwt beam="2">  1       -1 0.11324498E+00 0.17347776E+04</pdfrwt>
<totfact> 0.18800423E+01</totfact>
</mgrwt>
</event>
<event>
12    7  0.1698542E-007  0.1448519E+04  0.7818608E-02  0.8919428E-01
          2   -1    0    0  501    0  0.00000000000E+00  0.00000000000E+00  0.15581814779E+04  0.15581814779E+04  0.00000000000E+00 0. -1.
         -1   -1    0    0    0  501 -0.00000000000E+00 -0.00000000000E+00 -0.33664379868E+03  0.33664379868E+03  0.00000000000E+00 0.  1.
         24    2    1    2    0    0 -0.11891188202E+03  0.60283052979E+02 -0.17221952020E+03  0.23179833273E+03  0.79352515746E+02 0.  0.
        254    2    1    2    0    0  0.11891188202E+03 -0.60283052979E+02  0.13937571995E+04  0.16630269439E+04  0.89739924387E+03 0.  0.
         23    2    4    4    0    0  0.41677372494E+03  0.21773932339E+03  0.61535963627E+03  0.77971981584E+03  0.90469655253E+02 0.  0.
         23    2    4    4    0    0 -0.29786184292E+03 -0.27802237637E+03  0.77839756319E+03  0.88330712804E+03  0.91162475011E+02 0.  0.
          2    1    3    3  502    0  0.10848740690E+02  0.11235237831E+02 -0.10948006509E+02  0.19073137922E+02  0.00000000000E+00 0. -1.
         -1    1    3    3    0  502 -0.12976062271E+03  0.49047815148E+02 -0.16127151369E+03  0.21272519480E+03  0.00000000000E+00 0.  1.
         13    1    5    5    0    0  0.38292229334E+03  0.17757738795E+03  0.57592039162E+03  0.71403606977E+03  0.00000000000E+00 0.  1.
        -13    1    5    5    0    0  0.33851431601E+02  0.40161935444E+02  0.39439244642E+02  0.65683746071E+02  0.00000000000E+00 0. -1.
          3    1    6    6  503    0 -0.20857334780E+02 -0.61417820385E+02  0.14503312150E+03  0.15887662952E+03  0.00000000000E+00 0. -1.
         -3    1    6    6    0  503 -0.27700450814E+03 -0.21660455599E+03  0.63336444168E+03  0.72443049852E+03  0.00000000000E+00 0.  1.
<mgrwt>
<rscale>  0 0.14485194E+04</rscale>
<asrwt>0</asrwt>
<pdfrwt beam="1">  1        2 0.23972022E+00 0.14485194E+04</pdfrwt>
<pdfrwt beam="2">  1       -1 0.51791355E-01 0.14485194E+04</pdfrwt>
<totfact> 0.48806620E+01</totfact>
</mgrwt>
</event>
<event>
12    7  0.1698542E-007  0.3430601E+04  0.7818608E-02  0.8130436E-01
         -1   -1    0    0    0  501 -0.00000000000E+00  0.00000000000E+00  0.10676109012E+04  0.10676109012E+04  0.00000000000E+00 0.  1.
          2   -1    0    0  501    0  0.00000000000E+00 -0.00000000000E+00 -0.27559250284E+04  0.27559250284E+04  0.00000000000E+00 0. -1.
         24    2    1    2    0    0 -0.15491569996E+03 -0.31898433175E+03  0.95108607014E+03  0.10183229003E+04  0.81651322823E+02 0.  0.
        254    2    1    2    0    0  0.15491569996E+03  0.31898433175E+03 -0.26394001973E+04  0.28052130293E+04  0.88149694290E+03 0.  0.
         23    2    4    4    0    0  0.15505096988E+03 -0.28383738412E+03 -0.81088015897E+03  0.87772919902E+03  0.90980496318E+02 0.  0.
         23    2    4    4    0    0 -0.13526991897E+00  0.60282171587E+03 -0.18285200384E+04  0.19274838303E+04  0.91183036026E+02 0.  0.
          4    1    3    3  502    0 -0.30635057005E+02 -0.17649258392E+02  0.13487922597E+03  0.13943603780E+03  0.00000000000E+00 0. -1.
         -3    1    3    3    0  502 -0.12428064296E+03 -0.30133507336E+03  0.81620684417E+03  0.87888686252E+03  0.00000000000E+00 0.  1.
         13    1    5    5    0    0  0.13604009894E+03 -0.21479101738E+03 -0.52948739127E+03  0.58736614405E+03  0.00000000000E+00 0. -1.
        -13    1    5    5    0    0  0.19010870943E+02 -0.69046366744E+02 -0.28139276770E+03  0.29036305496E+03  0.00000000000E+00 0.  1.
          1    1    6    6  503    0 -0.84470110006E+01  0.17023559990E+03 -0.65264067334E+03  0.67453047371E+03  0.00000000000E+00 0. -1.
         -1    1    6    6    0  503  0.83117410817E+01  0.43258611597E+03 -0.11758793650E+04  0.12529533566E+04  0.00000000000E+00 0.  1.
<mgrwt>
<rscale>  0 0.34306009E+04</rscale>
<asrwt>0</asrwt>
<pdfrwt beam="1">  1        2 0.42398846E+00 0.34306009E+04</pdfrwt>
<pdfrwt beam="2">  1       -1 0.16424783E+00 0.34306009E+04</pdfrwt>
<totfact> 0.62629321E-01</totfact>
</mgrwt>
</event>
<event>
12    7  0.1698542E-007  0.3880158E+04  0.7818608E-02  0.8029169E-01
          2   -1    0    0  501    0  0.00000000000E+00  0.00000000000E+00  0.22036762774E+04  0.22036762774E+04  0.00000000000E+00 0. -1.
         -1   -1    0    0    0  501 -0.00000000000E+00 -0.00000000000E+00 -0.17080120506E+04  0.17080120506E+04  0.00000000000E+00 0.  1.
         24    2    1    2    0    0  0.63593603474E+03 -0.10247733606E+04  0.15716772760E+04  0.19822452432E+04  0.67466016501E+02 0.  0.
        254    2    1    2    0    0 -0.63593603474E+03  0.10247733606E+04 -0.10760130492E+04  0.19294430848E+04  0.10537416450E+04 0.  0.
         23    2    4    4    0    0  0.75046721200E+02  0.54477989831E+03 -0.88562586895E+03  0.10464726232E+04  0.91403629469E+02 0.  0.
         23    2    4    4    0    0 -0.71098275594E+03  0.47999346230E+03 -0.19038718023E+03  0.88297046153E+03  0.86598813167E+02 0.  0.
          4    1    3    3  502    0  0.36216589230E+03 -0.61717702003E+03  0.97776842261E+03  0.12116528776E+04  0.00000000000E+00 0. -1.
         -3    1    3    3    0  502  0.27377014245E+03 -0.40759634058E+03  0.59390885344E+03  0.77059236561E+03  0.00000000000E+00 0.  1.
         13    1    5    5    0    0  0.65390703039E+02  0.47500431156E+03 -0.70504252964E+03  0.85263709082E+03  0.00000000000E+00 0.  1.
        -13    1    5    5    0    0  0.96560181609E+01  0.69775586754E+02 -0.18058333931E+03  0.19383553243E+03  0.00000000000E+00 0. -1.
          2    1    6    6  503    0 -0.57266161325E+02  0.13899680353E+02 -0.62263582014E+01  0.59256914223E+02  0.00000000000E+00 0. -1.
         -2    1    6    6    0  503 -0.65371659462E+03  0.46609378194E+03 -0.18416082203E+03  0.82371354731E+03  0.00000000000E+00 0.  1.
<mgrwt>
<rscale>  0 0.38801575E+04</rscale>
<asrwt>0</asrwt>
<pdfrwt beam="1">  1        2 0.33902712E+00 0.38801575E+04</pdfrwt>
<pdfrwt beam="2">  1       -1 0.26277108E+00 0.38801575E+04</pdfrwt>
<totfact> 0.26799552E-01</totfact>
</mgrwt>
</event>
<event>
12    7  0.1698542E-007  0.2733536E+04  0.7818608E-02  0.8324205E-01
          2   -1    0    0  501    0  0.00000000000E+00  0.00000000000E+00  0.17881851929E+04  0.17881851929E+04  0.00000000000E+00 0. -1.
         -1   -1    0    0    0  501 -0.00000000000E+00 -0.00000000000E+00 -0.10446649155E+04  0.10446649155E+04  0.00000000000E+00 0.  1.
         24    2    1    2    0    0  0.18669129296E+03  0.55156010171E+03  0.14419956501E+04  0.15571049401E+04  0.78435673722E+02 0.  0.
        254    2    1    2    0    0 -0.18669129296E+03 -0.55156010171E+03 -0.69847537274E+03  0.12757451683E+04  0.89475454923E+03 0.  0.
         23    2    4    4    0    0 -0.11488347390E+03 -0.47035934470E+03  0.66211634246E+02  0.49815614512E+03  0.96640771348E+02 0.  0.
         23    2    4    4    0    0 -0.71807819053E+02 -0.81200757008E+02 -0.76468700698E+03  0.77758902315E+03  0.90269288541E+02 0.  0.
          4    1    3    3  502    0  0.12596058084E+03  0.40994230377E+03  0.96948319621E+03  0.10601020838E+04  0.00000000000E+00 0. -1.
         -3    1    3    3    0  502  0.60730712122E+02  0.14161779794E+03  0.47251245390E+03  0.49700285631E+03  0.00000000000E+00 0.  1.
         13    1    5    5    0    0 -0.10516599425E+03 -0.25311651619E+03  0.13651604514E+02  0.27443436997E+03  0.00000000000E+00 0.  1.
        -13    1    5    5    0    0 -0.97174796514E+01 -0.21724282851E+03  0.52560029732E+02  0.22372177515E+03  0.00000000000E+00 0. -1.
          3    1    6    6  503    0 -0.29454447221E+02 -0.72123799539E+02 -0.65566923864E+03  0.66028142289E+03  0.00000000000E+00 0. -1.
         -3    1    6    6    0  503 -0.42353371832E+02 -0.90769574689E+01 -0.10901776835E+03  0.11730760026E+03  0.00000000000E+00 0.  1.
<mgrwt>
<rscale>  0 0.27335357E+04</rscale>
<asrwt>0</asrwt>
<pdfrwt beam="1">  1        2 0.27510541E+00 0.27335357E+04</pdfrwt>
<pdfrwt beam="2">  1       -1 0.16071768E+00 0.27335357E+04</pdfrwt>
<totfact> 0.25175596E+00</totfact>
</mgrwt>
</event>
<event>
12    7  0.1698542E-007  0.1261262E+04  0.7818608E-02  0.9060862E-01
         -1   -1    0    0    0  501 -0.00000000000E+00  0.00000000000E+00  0.28108880725E+03  0.28108880725E+03  0.00000000000E+00 0.  1.
          2   -1    0    0  501    0  0.00000000000E+00 -0.00000000000E+00 -0.14148381552E+04  0.14148381552E+04  0.00000000000E+00 0. -1.
         24    2    1    2    0    0 -0.25875523139E+03 -0.10945879389E+03 -0.14208653358E+03  0.33219913930E+03  0.10598201636E+03 0.  0.
        254    2    1    2    0    0  0.25875523139E+03  0.10945879389E+03 -0.99166281438E+03  0.13637278232E+04  0.89298540912E+03 0.  0.
         23    2    4    4    0    0 -0.92859446228E+02 -0.85358889242E+02  0.10814561755E+03  0.18959572534E+03  0.91334811249E+02 0.  0.
         23    2    4    4    0    0  0.35161467762E+03  0.19481768313E+03 -0.10998084319E+04  0.11741320978E+04  0.86143978294E+02 0.  0.
          4    1    3    3  502    0 -0.88883091926E+02 -0.53039508669E+02 -0.10873492243E+03  0.15012220644E+03  0.00000000000E+00 0. -1.
         -3    1    3    3    0  502 -0.16987213947E+03 -0.56419285216E+02 -0.33351611142E+02  0.18207693285E+03  0.00000000000E+00 0.  1.
         13    1    5    5    0    0 -0.83354346365E+02 -0.91273181855E+02  0.12070791928E+03  0.17276904399E+03  0.00000000000E+00 0. -1.
        -13    1    5    5    0    0 -0.95050998633E+01  0.59142926131E+01 -0.12562301731E+02  0.16826681352E+02  0.00000000000E+00 0.  1.
          2    1    6    6  503    0  0.11705181595E+03  0.40898098993E+02 -0.44040434980E+03  0.45752570795E+03  0.00000000000E+00 0. -1.
         -2    1    6    6    0  503  0.23456286168E+03  0.15391958413E+03 -0.65940408213E+03  0.71660638986E+03  0.00000000000E+00 0.  1.
<mgrwt>
<rscale>  0 0.12612615E+04</rscale>
<asrwt>0</asrwt>
<pdfrwt beam="1">  1        2 0.21766741E+00 0.12612615E+04</pdfrwt>
<pdfrwt beam="2">  1       -1 0.43244432E-01 0.12612615E+04</pdfrwt>
<totfact> 0.83791031E+01</totfact>
</mgrwt>
</event>
<event>
12    7  0.1698542E-007  0.1842038E+04  0.7818608E-02  0.8684258E-01
         -1   -1    0    0    0  501 -0.00000000000E+00  0.00000000000E+00  0.39299801825E+03  0.39299801825E+03  0.00000000000E+00 0.  1.
          2   -1    0    0  501    0  0.00000000000E+00 -0.00000000000E+00 -0.21584746183E+04  0.21584746183E+04  0.00000000000E+00 0. -1.
         24    2    1    2    0    0  0.31450271058E+02 -0.60617068152E+03 -0.11537970116E+04  0.13061457183E+04  0.79605771098E+02 0.  0.
        254    2    1    2    0    0 -0.31450271058E+02  0.60617068152E+03 -0.61167958853E+03  0.12453269183E+04  0.89903014397E+03 0.  0.
         23    2    4    4    0    0  0.32868026484E+03  0.57354061481E+03 -0.55152906456E+03  0.86477755980E+03  0.81709029830E+02 0.  0.
         23    2    4    4    0    0 -0.36013053590E+03  0.32630066709E+02 -0.60150523968E+02  0.38054935851E+03  0.10218123402E+03 0.  0.
          4    1    3    3  502    0  0.34565885900E+02 -0.52239758447E+03 -0.93113949237E+03  0.10682297463E+04  0.00000000000E+00 0. -1.
         -3    1    3    3    0  502 -0.31156148423E+01 -0.83773097043E+02 -0.22265751919E+03  0.23791597192E+03  0.00000000000E+00 0.  1.
         13    1    5    5    0    0  0.42817404854E+02  0.10107978132E+03 -0.12947628838E+03  0.16974852459E+03  0.00000000000E+00 0.  1.
        -13    1    5    5    0    0  0.28586285999E+03  0.47246083349E+03 -0.42205277618E+03  0.69502903521E+03  0.00000000000E+00 0. -1.
          3    1    6    6  503    0 -0.29094503997E+03 -0.78778454066E+01 -0.22337263271E+02  0.29190757110E+03  0.00000000000E+00 0. -1.
         -3    1    6    6    0  503 -0.69185495926E+02  0.40507912116E+02 -0.37813260697E+02  0.88641787409E+02  0.00000000000E+00 0.  1.
<mgrwt>
<rscale>  0 0.18420383E+04</rscale>
<asrwt>0</asrwt>
<pdfrwt beam="1">  1        2 0.33207302E+00 0.18420383E+04</pdfrwt>
<pdfrwt beam="2">  1       -1 0.60461233E-01 0.18420383E+04</pdfrwt>
<totfact> 0.16197279E+01</totfact>
</mgrwt>
</event>
<event>
12    7  0.1698542E-007  0.2189053E+04  0.7818608E-02  0.8522998E-01
          2   -1    0    0  501    0  0.00000000000E+00  0.00000000000E+00  0.19971088078E+04  0.19971088078E+04  0.00000000000E+00 0. -1.
         -1   -1    0    0    0  501 -0.00000000000E+00 -0.00000000000E+00 -0.59986117954E+03  0.59986117954E+03  0.00000000000E+00 0.  1.
         24    2    1    2    0    0 -0.71206358901E+03 -0.33846114176E+03  0.45724692345E+02  0.79354762918E+03  0.77695514667E+02 0.  0.
        254    2    1    2    0    0  0.71206358901E+03  0.33846114176E+03  0.13515229359E+04  0.18034223581E+04  0.89673154080E+03 0.  0.
         23    2    4    4    0    0 -0.19970389566E+03  0.17271122848E+02  0.20797951579E+03  0.30329856097E+03  0.92491083203E+02 0.  0.
         23    2    4    4    0    0  0.91176748467E+03  0.32119001892E+03  0.11435434201E+04  0.15001237971E+04  0.90536615746E+02 0.  0.
          4    1    3    3  502    0 -0.19291971410E+02 -0.12938758594E+02  0.14680098868E+02  0.27479027232E+02  0.00000000000E+00 0. -1.
         -3    1    3    3    0  502 -0.69277161760E+03 -0.32552238317E+03  0.31044593477E+02  0.76606860194E+03  0.00000000000E+00 0.  1.
         13    1    5    5    0    0 -0.15467518270E+03  0.45920118507E+02  0.12272884380E+03  0.20272009898E+03  0.00000000000E+00 0. -1.
        -13    1    5    5    0    0 -0.45028712958E+02 -0.28648995660E+02  0.85250671986E+02  0.10057846199E+03  0.00000000000E+00 0.  1.
          4    1    6    6  503    0  0.71649374300E+03  0.27214007696E+03  0.85445296714E+03  0.11478298560E+04  0.00000000000E+00 0. -1.
         -4    1    6    6    0  503  0.19527374167E+03  0.49049941953E+02  0.28909045294E+03  0.35229394115E+03  0.00000000000E+00 0.  1.
<mgrwt>
<rscale>  0 0.21890528E+04</rscale>
<asrwt>0</asrwt>
<pdfrwt beam="1">  1        2 0.30724751E+00 0.21890528E+04</pdfrwt>
<pdfrwt beam="2">  1       -1 0.92286336E-01 0.21890528E+04</pdfrwt>
<totfact> 0.79781591E+00</totfact>
</mgrwt>
</event>
<event>
12    7  0.1698542E-007  0.2996327E+04  0.7818608E-02  0.8244781E-01
         -1   -1    0    0    0  501 -0.00000000000E+00  0.00000000000E+00  0.21725000725E+04  0.21725000725E+04  0.00000000000E+00 0.  1.
          2   -1    0    0  501    0  0.00000000000E+00 -0.00000000000E+00 -0.10331386688E+04  0.10331386688E+04  0.00000000000E+00 0. -1.
         24    2    1    2    0    0  0.11293250977E+04  0.17695075528E+03 -0.27006611929E+03  0.11772465726E+04  0.79290842533E+02 0.  0.
        254    2    1    2    0    0 -0.11293250977E+04 -0.17695075528E+03  0.14094275230E+04  0.20283921687E+04  0.90620202013E+03 0.  0.
         23    2    4    4    0    0 -0.45804615290E+03 -0.18292213543E+03  0.12285296702E+04  0.13268285429E+04  0.89005875532E+02 0.  0.
         23    2    4    4    0    0 -0.67127894483E+03  0.59713801457E+01  0.18089785282E+03  0.70156362580E+03  0.93895733376E+02 0.  0.
          2    1    3    3  502    0  0.96817063547E+03  0.17015447899E+03 -0.21044875008E+03  0.10052838418E+04  0.00000000000E+00 0. -1.
         -1    1    3    3    0  502  0.16115446226E+03  0.67962762915E+01 -0.59617369214E+02  0.17196273082E+03  0.00000000000E+00 0.  1.
         13    1    5    5    0    0 -0.39663127932E+03 -0.18918315216E+03  0.10805733733E+04  0.11665099450E+04  0.00000000000E+00 0. -1.
        -13    1    5    5    0    0 -0.61414873578E+02  0.62610167312E+01  0.14795629693E+03  0.16031859789E+03  0.00000000000E+00 0.  1.
          3    1    6    6  503    0 -0.25421117355E+03  0.40489971702E+02  0.43315654469E+02  0.26103448908E+03  0.00000000000E+00 0. -1.
         -3    1    6    6    0  503 -0.41706777128E+03 -0.34518591556E+02  0.13758219835E+03  0.44052913672E+03  0.00000000000E+00 0.  1.
<mgrwt>
<rscale>  0 0.29963270E+04</rscale>
<asrwt>0</asrwt>
<pdfrwt beam="1">  1        2 0.15894441E+00 0.29963270E+04</pdfrwt>
<pdfrwt beam="2">  1       -1 0.33423078E+00 0.29963270E+04</pdfrwt>
<totfact> 0.46217336E-01</totfact>
</mgrwt>
</event>
<event>
12    7  0.1698542E-007  0.1461510E+04  0.7818608E-02  0.8910460E-01
         -1   -1    0    0    0  501 -0.00000000000E+00  0.00000000000E+00  0.17354023611E+04  0.17354023611E+04  0.00000000000E+00 0.  1.
          2   -1    0    0  501    0  0.00000000000E+00 -0.00000000000E+00 -0.30771109318E+03  0.30771109318E+03  0.00000000000E+00 0. -1.
         24    2    1    2    0    0 -0.36580833578E+03  0.11419625429E+03  0.11891199151E+03  0.40907789870E+03  0.79675231131E+02 0.  0.
        254    2    1    2    0    0  0.36580833578E+03 -0.11419625429E+03  0.13087792764E+04  0.16340355556E+04  0.90017358302E+03 0.  0.
         23    2    4    4    0    0 -0.16532089446E+02  0.65103919747E+02 -0.10534602644E+03  0.15578088225E+03  0.93048737984E+02 0.  0.
         23    2    4    4    0    0  0.38234042523E+03 -0.17930017404E+03  0.14141253029E+04  0.14782546734E+04  0.84579867202E+02 0.  0.
          4    1    3    3  502    0 -0.34614633331E+03  0.10702141344E+03  0.89892868742E+02  0.37329826526E+03  0.00000000000E+00 0. -1.
         -1    1    3    3    0  502 -0.19662002476E+02  0.71748408531E+01  0.29019122768E+02  0.35779633437E+02  0.00000000000E+00 0.  1.
         13    1    5    5    0    0  0.41856373944E+01  0.56549225587E+02 -0.11736657398E+03  0.13034664232E+03  0.00000000000E+00 0. -1.
        -13    1    5    5    0    0 -0.20717726840E+02  0.85546941604E+01  0.12020547546E+02  0.25434239932E+02  0.00000000000E+00 0.  1.
          1    1    6    6  503    0  0.36730850885E+03 -0.18870704387E+03  0.13552752369E+04  0.14167910421E+04  0.00000000000E+00 0. -1.
         -1    1    6    6    0  503  0.15031916378E+02  0.94068698241E+01  0.58850065959E+02  0.61463631306E+02  0.00000000000E+00 0.  1.
<mgrwt>
<rscale>  0 0.14615096E+04</rscale>
<asrwt>0</asrwt>
<pdfrwt beam="1">  1        2 0.47340169E-01 0.14615096E+04</pdfrwt>
<pdfrwt beam="2">  1       -1 0.26698497E+00 0.14615096E+04</pdfrwt>
<totfact> 0.64090686E+00</totfact>
</mgrwt>
</event>
<event>
12    7  0.1698542E-007  0.1840446E+04  0.7818608E-02  0.8685082E-01
          2   -1    0    0  501    0  0.00000000000E+00  0.00000000000E+00  0.24820005294E+04  0.24820005294E+04  0.00000000000E+00 0. -1.
         -1   -1    0    0    0  501 -0.00000000000E+00 -0.00000000000E+00 -0.34118058397E+03  0.34118058397E+03  0.00000000000E+00 0.  1.
         24    2    1    2    0    0  0.21132502069E+03 -0.65672084860E+03  0.64810380774E+03  0.94938592791E+03  0.73174839654E+02 0.  0.
        254    2    1    2    0    0 -0.21132502069E+03  0.65672084860E+03  0.14927161377E+04  0.18737951855E+04  0.89831308130E+03 0.  0.
         23    2    4    4    0    0  0.22212794061E+03 -0.56292319412E+02  0.14285914875E+03  0.28428440965E+03  0.88877679785E+02 0.  0.
         23    2    4    4    0    0 -0.43345296130E+03  0.71301316801E+03  0.13498569890E+04  0.15895107758E+04  0.90340292552E+02 0.  0.
          4    1    3    3  502    0  0.18971109764E+03 -0.60590859233E+03  0.56679966235E+03  0.85110362476E+03  0.00000000000E+00 0. -1.
         -3    1    3    3    0  502  0.21613923050E+02 -0.50812256261E+02  0.81304145387E+02  0.98282303153E+02  0.00000000000E+00 0.  1.
         13    1    5    5    0    0  0.16009291279E+03 -0.54773630101E+02  0.57404930490E+02  0.17867629201E+03  0.00000000000E+00 0.  1.
        -13    1    5    5    0    0  0.62035027815E+02 -0.15186893111E+01  0.85454218260E+02  0.10560811764E+03  0.00000000000E+00 0. -1.
          1    1    6    6  503    0 -0.55006155292E+02  0.48143898982E+02  0.14305899298E+03  0.16065300371E+03  0.00000000000E+00 0. -1.
         -1    1    6    6    0  503 -0.37844680601E+03  0.66486926903E+03  0.12067979960E+04  0.14288577721E+04  0.00000000000E+00 0.  1.
<mgrwt>
<rscale>  0 0.18404460E+04</rscale>
<asrwt>0</asrwt>
<pdfrwt beam="1">  1        2 0.38184622E+00 0.18404460E+04</pdfrwt>
<pdfrwt beam="2">  1       -1 0.52489322E-01 0.18404460E+04</pdfrwt>
<totfact> 0.13984669E+01</totfact>
</mgrwt>
</event>
<event>
12    7  0.1698542E-007  0.1778907E+04  0.7818608E-02  0.8717597E-01
          2   -1    0    0  501    0  0.00000000000E+00  0.00000000000E+00  0.14631452593E+04  0.14631452593E+04  0.00000000000E+00 0. -1.
         -1   -1    0    0    0  501 -0.00000000000E+00 -0.00000000000E+00 -0.54070348817E+03  0.54070348817E+03  0.00000000000E+00 0.  1.
         24    2    1    2    0    0  0.45063467734E+03 -0.34362515625E+03 -0.38150375218E+02  0.57324287910E+03  0.77473136458E+02 0.  0.
        254    2    1    2    0    0 -0.45063467734E+03  0.34362515625E+03  0.96059214636E+03  0.14306058684E+04  0.89596094701E+03 0.  0.
         23    2    4    4    0    0 -0.35877904020E+03 -0.21501153357E+03  0.65054850913E+03  0.77881275678E+03  0.91561936021E+02 0.  0.
         23    2    4    4    0    0 -0.91855637143E+02  0.55863668982E+03  0.31004363722E+03  0.65179311160E+03  0.90525101841E+02 0.  0.
          2    1    3    3  502    0  0.38777849017E+02 -0.27532395834E+02  0.18412284494E+02  0.50997711861E+02  0.00000000000E+00 0. -1.
         -1    1    3    3    0  502  0.41185682833E+03 -0.31609276042E+03 -0.56562659712E+02  0.52224516724E+03  0.00000000000E+00 0.  1.
         13    1    5    5    0    0 -0.25007407505E+03 -0.14476520986E+03  0.36682721881E+03  0.46696489960E+03  0.00000000000E+00 0.  1.
        -13    1    5    5    0    0 -0.10870496515E+03 -0.70246323706E+02  0.28372129032E+03  0.31184785718E+03  0.00000000000E+00 0. -1.
          4    1    6    6  503    0 -0.79207040012E+02  0.52431702837E+03  0.31185634936E+03  0.61517191424E+03  0.00000000000E+00 0.  1.
         -4    1    6    6    0  503 -0.12648597131E+02  0.34319661451E+02 -0.18127121381E+01  0.36621197370E+02  0.00000000000E+00 0. -1.
<mgrwt>
<rscale>  0 0.17789072E+04</rscale>
<asrwt>0</asrwt>
<pdfrwt beam="1">  1        2 0.22509927E+00 0.17789072E+04</pdfrwt>
<pdfrwt beam="2">  1       -1 0.83185152E-01 0.17789072E+04</pdfrwt>
<totfact> 0.20590563E+01</totfact>
</mgrwt>
</event>
<event>
12    7  0.1698542E-007  0.2447232E+04  0.7818608E-02  0.8422029E-01
          2   -1    0    0  501    0  0.00000000000E+00  0.00000000000E+00  0.30793816969E+04  0.30793816969E+04  0.00000000000E+00 0. -1.
         -1   -1    0    0    0  501 -0.00000000000E+00 -0.00000000000E+00 -0.48621310400E+03  0.48621310400E+03  0.00000000000E+00 0.  1.
         24    2    1    2    0    0 -0.90524547072E+03 -0.26188628424E+03  0.18221281624E+04  0.20528487960E+04  0.77352123163E+02 0.  0.
        254    2    1    2    0    0  0.90524547072E+03  0.26188628424E+03  0.77104043051E+03  0.15127460049E+04  0.89768777519E+03 0.  0.
         23    2    4    4    0    0  0.10705826047E+04  0.21979234926E+03  0.57981768885E+03  0.12408876215E+04  0.95696114989E+02 0.  0.
         23    2    4    4    0    0 -0.16533713402E+03  0.42093934983E+02  0.19122274166E+03  0.27185838344E+03  0.90733546549E+02 0.  0.
          4    1    3    3  502    0 -0.15274863296E+03 -0.65939509886E+02  0.36824254224E+03  0.40408258284E+03  0.00000000000E+00 0. -1.
         -3    1    3    3    0  502 -0.75249683775E+03 -0.19594677436E+03  0.14538856202E+04  0.16487662132E+04  0.00000000000E+00 0.  1.
         13    1    5    5    0    0  0.57748781724E+03  0.16335800839E+03  0.29638296325E+03  0.66934361794E+03  0.00000000000E+00 0.  1.
        -13    1    5    5    0    0  0.49309478750E+03  0.56434340869E+02  0.28343472559E+03  0.57154400352E+03  0.00000000000E+00 0. -1.
          1    1    6    6  503    0 -0.81617664045E+02  0.49427630562E+02  0.15116269358E+03  0.17875875833E+03  0.00000000000E+00 0. -1.
         -1    1    6    6    0  503 -0.83719469977E+02 -0.73336955796E+01  0.40060048075E+02  0.93099625112E+02  0.00000000000E+00 0.  1.
<mgrwt>
<rscale>  0 0.24472317E+04</rscale>
<asrwt>0</asrwt>
<pdfrwt beam="1">  1        2 0.47375102E+00 0.24472317E+04</pdfrwt>
<pdfrwt beam="2">  1       -1 0.74802018E-01 0.24472317E+04</pdfrwt>
<totfact> 0.28424216E+00</totfact>
</mgrwt>
</event>
<event>
12    7  0.1698542E-007  0.1402646E+04  0.7818608E-02  0.8951905E-01
          2   -1    0    0  501    0  0.00000000000E+00  0.00000000000E+00  0.46339919315E+03  0.46339919315E+03  0.00000000000E+00 0. -1.
         -1   -1    0    0    0  501 -0.00000000000E+00 -0.00000000000E+00 -0.10614047596E+04  0.10614047596E+04  0.00000000000E+00 0.  1.
         24    2    1    2    0    0 -0.16960833346E+02  0.13615798096E+03 -0.58772409594E+03  0.60853372731E+03  0.77891069340E+02 0.  0.
        254    2    1    2    0    0  0.16960833346E+02 -0.13615798096E+03 -0.10281470543E+02  0.91627022547E+03  0.90588009792E+03 0.  0.
         23    2    4    4    0    0  0.18142090950E+03 -0.20898145766E+03 -0.38978408543E+03  0.48663046631E+03  0.91053728313E+02 0.  0.
         23    2    4    4    0    0 -0.16446007615E+03  0.72823476696E+02  0.37950261488E+03  0.42963975916E+03  0.90651599789E+02 0.  0.
          4    1    3    3  502    0  0.10800005905E+01 -0.24309758863E+01  0.14367579938E+01  0.30232959776E+01  0.00000000000E+00 0. -1.
         -3    1    3    3    0  502 -0.18040833936E+02  0.13858895685E+03 -0.58916085393E+03  0.60551043134E+03  0.00000000000E+00 0.  1.
         13    1    5    5    0    0  0.14195692377E+03 -0.12003836666E+03 -0.30687362416E+03  0.35879297496E+03  0.00000000000E+00 0.  1.
        -13    1    5    5    0    0  0.39463985728E+02 -0.88943091003E+02 -0.82910461265E+02  0.12783749135E+03  0.00000000000E+00 0. -1.
          4    1    6    6  503    0 -0.11514755068E+03  0.96357811353E+01  0.27216273176E+03  0.29567610533E+03  0.00000000000E+00 0.  1.
         -4    1    6    6    0  503 -0.49312525470E+02  0.63187695561E+02  0.10733988313E+03  0.13396365383E+03  0.00000000000E+00 0. -1.
<mgrwt>
<rscale>  0 0.14026462E+04</rscale>
<asrwt>0</asrwt>
<pdfrwt beam="1">  1        2 0.71292185E-01 0.14026462E+04</pdfrwt>
<pdfrwt beam="2">  1       -1 0.16329304E+00 0.14026462E+04</pdfrwt>
<totfact> 0.20654372E+01</totfact>
</mgrwt>
</event>
<event>
12    7  0.1698542E-007  0.1122754E+04  0.7818608E-02  0.9183293E-01
          2   -1    0    0  501    0  0.00000000000E+00  0.00000000000E+00  0.77741905097E+03  0.77741905097E+03  0.00000000000E+00 0. -1.
         -1   -1    0    0    0  501 -0.00000000000E+00 -0.00000000000E+00 -0.40537258860E+03  0.40537258860E+03  0.00000000000E+00 0.  1.
         24    2    1    2    0    0 -0.10797048528E+03 -0.67705281520E+02  0.24694776479E+03  0.28981587424E+03  0.82270356697E+02 0.  0.
        254    2    1    2    0    0  0.10797048528E+03  0.67705281520E+02  0.12509869759E+03  0.89297576533E+03  0.87493679914E+03 0.  0.
         23    2    4    4    0    0 -0.24345570965E+03  0.28317189294E+03  0.24082494736E+03  0.45394826502E+03  0.92819009541E+02 0.  0.
         23    2    4    4    0    0  0.35142619493E+03 -0.21546661142E+03 -0.11572624977E+03  0.43902750031E+03  0.97089391907E+02 0.  0.
          4    1    3    3  502    0 -0.11946962226E+03 -0.71123214460E+02  0.23379496883E+03  0.27201395135E+03  0.00000000000E+00 0. -1.
         -3    1    3    3    0  502  0.11499136987E+02  0.34179329406E+01  0.13152795955E+02  0.17801922887E+02  0.00000000000E+00 0.  1.
         13    1    5    5    0    0 -0.99398271163E+01  0.61713312283E+02  0.47601704689E+02  0.78570066599E+02  0.00000000000E+00 0. -1.
        -13    1    5    5    0    0 -0.23351588254E+03  0.22145858066E+03  0.19322324267E+03  0.37537819842E+03  0.00000000000E+00 0.  1.
          4    1    6    6  503    0  0.10007096496E+03 -0.11324130946E+03 -0.26797715067E+02  0.15347934626E+03  0.00000000000E+00 0. -1.
         -4    1    6    6    0  503  0.25135522997E+03 -0.10222530196E+03 -0.88928534700E+02  0.28554815405E+03  0.00000000000E+00 0.  1.
<mgrwt>
<rscale>  0 0.11227544E+04</rscale>
<asrwt>0</asrwt>
<pdfrwt beam="1">  1        2 0.11960293E+00 0.11227544E+04</pdfrwt>
<pdfrwt beam="2">  1       -1 0.62365014E-01 0.11227544E+04</pdfrwt>
<totfact> 0.10563513E+02</totfact>
</mgrwt>
</event>
<event>
12    7  0.1698542E-007  0.1620245E+04  0.7818608E-02  0.8808206E-01
         -1   -1    0    0    0  501 -0.00000000000E+00  0.00000000000E+00  0.54846689629E+03  0.54846689629E+03  0.00000000000E+00 0.  1.
          2   -1    0    0  501    0  0.00000000000E+00 -0.00000000000E+00 -0.11966054836E+04  0.11966054836E+04  0.00000000000E+00 0. -1.
         24    2    1    2    0    0  0.10590764378E+03  0.52848444022E+03 -0.11157136334E+03  0.55722147548E+03  0.86806515081E+02 0.  0.
        254    2    1    2    0    0 -0.10590764378E+03 -0.52848444022E+03 -0.53656722394E+03  0.11878509044E+04  0.91245446607E+03 0.  0.
         23    2    4    4    0    0 -0.38032441500E+02  0.14542781175E+03  0.14140683624E+03  0.22511688692E+03  0.89922213080E+02 0.  0.
         23    2    4    4    0    0 -0.67875202277E+02 -0.67391225197E+03 -0.67797406017E+03  0.96273401745E+03  0.91886863302E+02 0.  0.
          4    1    3    3  502    0  0.23745921926E+01  0.16344340598E+03 -0.60794195477E+02  0.17439988490E+03  0.00000000000E+00 0. -1.
         -3    1    3    3    0  502  0.10353305158E+03  0.36504103423E+03 -0.50777167860E+02  0.38282159059E+03  0.00000000000E+00 0.  1.
         13    1    5    5    0    0  0.17763927782E+02  0.10097902271E+03  0.69754548784E+02  0.12400813374E+03  0.00000000000E+00 0.  1.
        -13    1    5    5    0    0 -0.55796369282E+02  0.44448789041E+02  0.71652287453E+02  0.10110875318E+03  0.00000000000E+00 0. -1.
          3    1    6    6  503    0  0.16236718026E+02 -0.29210778609E+03 -0.29245617387E+03  0.41366798684E+03  0.00000000000E+00 0. -1.
         -3    1    6    6    0  503 -0.84111920303E+02 -0.38180446588E+03 -0.38551788631E+03  0.54906603061E+03  0.00000000000E+00 0.  1.
<mgrwt>
<rscale>  0 0.16202450E+04</rscale>
<asrwt>0</asrwt>
<pdfrwt beam="1">  1        2 0.18409315E+00 0.16202450E+04</pdfrwt>
<pdfrwt beam="2">  1       -1 0.84379524E-01 0.16202450E+04</pdfrwt>
<totfact> 0.28903368E+01</totfact>
</mgrwt>
</event>
<event>
12    7  0.1698542E-007  0.2696174E+04  0.7818608E-02  0.8336247E-01
          2   -1    0    0  501    0  0.00000000000E+00  0.00000000000E+00  0.13359378810E+04  0.13359378810E+04  0.00000000000E+00 0. -1.
         -1   -1    0    0    0  501 -0.00000000000E+00 -0.00000000000E+00 -0.13603468079E+04  0.13603468079E+04  0.00000000000E+00 0.  1.
         24    2    1    2    0    0 -0.22641687866E+03 -0.72556648764E+03 -0.93439597969E+03  0.12072672206E+04  0.81773859343E+02 0.  0.
        254    2    1    2    0    0  0.22641687866E+03  0.72556648764E+03  0.90998705276E+03  0.14890174683E+04  0.90076925665E+03 0.  0.
         23    2    4    4    0    0  0.36513958384E+03  0.50312419736E+03  0.10406552393E+03  0.63682357009E+03  0.90850165034E+02 0.  0.
         23    2    4    4    0    0 -0.13872270517E+03  0.22244229028E+03  0.80592152882E+03  0.85219389820E+03  0.89444776637E+02 0.  0.
          4    1    3    3  502    0 -0.20362124812E+01 -0.77601517872E+02 -0.76349170934E+02  0.10888221912E+03  0.00000000000E+00 0. -1.
         -3    1    3    3    0  502 -0.22438066618E+03 -0.64796496977E+03 -0.85804680876E+03  0.10983850015E+04  0.00000000000E+00 0.  1.
         13    1    5    5    0    0  0.35940560674E+03  0.50204501254E+03  0.93111850892E+02  0.62441284544E+03  0.00000000000E+00 0. -1.
        -13    1    5    5    0    0  0.57339770955E+01  0.10791848290E+01  0.10953673042E+02  0.12410724650E+02  0.00000000000E+00 0.  1.
          1    1    6    6  503    0 -0.14550554703E+03  0.21241705172E+03  0.70492457364E+03  0.75047419849E+03  0.00000000000E+00 0. -1.
         -1    1    6    6    0  503  0.67828418640E+01  0.10025238561E+02  0.10099695518E+03  0.10171969970E+03  0.00000000000E+00 0.  1.
<mgrwt>
<rscale>  0 0.26961742E+04</rscale>
<asrwt>0</asrwt>
<pdfrwt beam="1">  1        2 0.20552890E+00 0.26961742E+04</pdfrwt>
<pdfrwt beam="2">  1       -1 0.20928413E+00 0.26961742E+04</pdfrwt>
<totfact> 0.20476904E+00</totfact>
</mgrwt>
</event>
<event>
12    7  0.1698542E-007  0.2414507E+04  0.7818608E-02  0.8434092E-01
          2   -1    0    0  501    0  0.00000000000E+00  0.00000000000E+00  0.30220255480E+04  0.30220255480E+04  0.00000000000E+00 0. -1.
         -1   -1    0    0    0  501 -0.00000000000E+00 -0.00000000000E+00 -0.48227954845E+03  0.48227954845E+03  0.00000000000E+00 0.  1.
         24    2    1    2    0    0  0.14990867450E+03  0.39753307369E+03 -0.27980128789E+03  0.51445207978E+03  0.76596516375E+02 0.  0.
        254    2    1    2    0    0 -0.14990867450E+03 -0.39753307369E+03  0.28195472874E+04  0.29898530166E+04  0.89937144704E+03 0.  0.
         23    2    4    4    0    0  0.13540094403E+03  0.11837374778E+03  0.17788378654E+04  0.17902592142E+04  0.91750438813E+02 0.  0.
         23    2    4    4    0    0 -0.28530961853E+03 -0.51590682147E+03  0.10407094220E+04  0.11995938024E+04  0.91584730092E+02 0.  0.
          2    1    3    3  502    0  0.37049030913E+01  0.98513937048E+02 -0.71765456918E+02  0.12193852101E+03  0.00000000000E+00 0. -1.
         -1    1    3    3    0  502  0.14620377141E+03  0.29901913664E+03 -0.20803583097E+03  0.39251355877E+03  0.00000000000E+00 0.  1.
         13    1    5    5    0    0  0.43805449626E+02  0.98784980570E+02  0.91592914721E+03  0.92228173164E+03  0.00000000000E+00 0.  1.
        -13    1    5    5    0    0  0.91595494407E+02  0.19588767209E+02  0.86290871817E+03  0.86797748260E+03  0.00000000000E+00 0. -1.
          1    1    6    6  503    0 -0.43201796965E+02 -0.74098172533E+02  0.94494113155E+02  0.12761689486E+03  0.00000000000E+00 0. -1.
         -1    1    6    6    0  503 -0.24210782157E+03 -0.44180864894E+03  0.94621530888E+03  0.10719769075E+04  0.00000000000E+00 0.  1.
<mgrwt>
<rscale>  0 0.24145071E+04</rscale>
<asrwt>0</asrwt>
<pdfrwt beam="1">  1        2 0.46492700E+00 0.24145071E+04</pdfrwt>
<pdfrwt beam="2">  1       -1 0.74196855E-01 0.24145071E+04</pdfrwt>
<totfact> 0.31520569E+00</totfact>
</mgrwt>
</event>
<event>
12    7  0.1698542E-007  0.2810323E+04  0.7818608E-02  0.8300071E-01
         -1   -1    0    0    0  501 -0.00000000000E+00  0.00000000000E+00  0.74262437085E+03  0.74262437085E+03  0.00000000000E+00 0.  1.
          2   -1    0    0  501    0  0.00000000000E+00 -0.00000000000E+00 -0.26587857317E+04  0.26587857317E+04  0.00000000000E+00 0. -1.
         24    2    1    2    0    0  0.69775801108E+03  0.10279306474E+03  0.40229372570E+03  0.81591249655E+03  0.80251505333E+02 0.  0.
        254    2    1    2    0    0 -0.69775801108E+03 -0.10279306474E+03 -0.23184550865E+04  0.25854976060E+04  0.90118323668E+03 0.  0.
         23    2    4    4    0    0  0.10991911053E+03 -0.63030875665E+02 -0.32005426984E+02  0.15855070171E+03  0.89771239879E+02 0.  0.
         23    2    4    4    0    0 -0.80767712161E+03 -0.39762189073E+02 -0.22864496596E+04  0.24269469043E+04  0.91081644989E+02 0.  0.
          2    1    3    3  502    0  0.21769375195E+03  0.46384054143E+02  0.87971607506E+02  0.23933460645E+03  0.00000000000E+00 0. -1.
         -1    1    3    3    0  502  0.48006425913E+03  0.56409010596E+02  0.31432211819E+03  0.57657789010E+03  0.00000000000E+00 0.  1.
         13    1    5    5    0    0  0.69116879857E+02 -0.19423551025E+01 -0.46958705281E+02  0.83582509092E+02  0.00000000000E+00 0. -1.
        -13    1    5    5    0    0  0.40802230671E+02 -0.61088520563E+02  0.14953278297E+02  0.74968192616E+02  0.00000000000E+00 0.  1.
          4    1    6    6  503    0 -0.24589129912E+02  0.14937616188E+02 -0.79936224605E+02  0.84956210434E+02  0.00000000000E+00 0. -1.
         -4    1    6    6    0  503 -0.78308799170E+03 -0.54699805262E+02 -0.22065134350E+04  0.23419906938E+04  0.00000000000E+00 0.  1.
<mgrwt>
<rscale>  0 0.28103232E+04</rscale>
<asrwt>0</asrwt>
<pdfrwt beam="1">  1        2 0.40904396E+00 0.28103232E+04</pdfrwt>
<pdfrwt beam="2">  1       -1 0.11424990E+00 0.28103232E+04</pdfrwt>
<totfact> 0.19354547E+00</totfact>
</mgrwt>
</event>
<event>
12    7  0.1698542E-007  0.1507621E+04  0.7818608E-02  0.8879401E-01
         -1   -1    0    0    0  501 -0.00000000000E+00  0.00000000000E+00  0.34038550025E+03  0.34038550025E+03  0.00000000000E+00 0.  1.
          2   -1    0    0  501    0  0.00000000000E+00 -0.00000000000E+00 -0.16693735318E+04  0.16693735318E+04  0.00000000000E+00 0. -1.
         24    2    1    2    0    0  0.38730777124E+03  0.83061465658E+02 -0.64838912265E+02  0.40439046081E+03  0.49204100515E+02 0.  0.
        254    2    1    2    0    0 -0.38730777124E+03 -0.83061465658E+02 -0.12641491193E+04  0.16053685713E+04  0.90676829291E+03 0.  0.
         23    2    4    4    0    0  0.10104502355E+02  0.35298900805E+03 -0.67145905748E+03  0.76421339839E+03  0.91986475295E+02 0.  0.
         23    2    4    4    0    0 -0.39741227359E+03 -0.43605047371E+03 -0.59269006182E+03  0.84115517287E+03  0.90465378144E+02 0.  0.
          4    1    3    3  502    0  0.18817283113E+03  0.31633491272E+02 -0.54581780585E+02  0.19846627652E+03  0.00000000000E+00 0. -1.
         -3    1    3    3    0  502  0.19913494011E+03  0.51427974386E+02 -0.10257131680E+02  0.20592418428E+03  0.00000000000E+00 0.  1.
         13    1    5    5    0    0 -0.43118442859E+01  0.29614806483E+02 -0.17862257438E+02  0.34852388798E+02  0.00000000000E+00 0.  1.
        -13    1    5    5    0    0  0.14416346641E+02  0.32337420157E+03 -0.65359680004E+03  0.72936100959E+03  0.00000000000E+00 0. -1.
          1    1    6    6  503    0 -0.17487849016E+03 -0.24259995108E+03 -0.25664438532E+03  0.39408573065E+03  0.00000000000E+00 0. -1.
         -1    1    6    6    0  503 -0.22253378343E+03 -0.19345052263E+03 -0.33604567650E+03  0.44706944222E+03  0.00000000000E+00 0.  1.
<mgrwt>
<rscale>  0 0.15076214E+04</rscale>
<asrwt>0</asrwt>
<pdfrwt beam="1">  1        2 0.25682670E+00 0.15076214E+04</pdfrwt>
<pdfrwt beam="2">  1       -1 0.52366999E-01 0.15076214E+04</pdfrwt>
<totfact> 0.41219309E+01</totfact>
</mgrwt>
</event>
<event>
12    7  0.1698542E-007  0.3070746E+04  0.7818608E-02  0.8223812E-01
          2   -1    0    0  501    0  0.00000000000E+00  0.00000000000E+00  0.37490962528E+04  0.37490962528E+04  0.00000000000E+00 0. -1.
         -1   -1    0    0    0  501 -0.00000000000E+00 -0.00000000000E+00 -0.62878376074E+03  0.62878376074E+03  0.00000000000E+00 0.  1.
         24    2    1    2    0    0  0.36949264204E+03  0.10911116270E+04  0.25648781041E+04  0.28125378037E+04  0.68700895294E+02 0.  0.
        254    2    1    2    0    0 -0.36949264204E+03 -0.10911116270E+04  0.55543438795E+03  0.15653422099E+04  0.90262920377E+03 0.  0.
         23    2    4    4    0    0 -0.54147416006E+03 -0.47792019232E+03  0.56524634344E+03  0.92166283036E+03  0.91416452804E+02 0.  0.
         23    2    4    4    0    0  0.17198151802E+03 -0.61319143471E+03 -0.98119554928E+01  0.64367937950E+03  0.92981132414E+02 0.  0.
          2    1    3    3  502    0  0.23523415818E+03  0.65608481395E+03  0.16267390384E+04  0.17697633433E+04  0.00000000000E+00 0. -1.
         -1    1    3    3    0  502  0.13425848386E+03  0.43502681308E+03  0.93813906578E+03  0.10427744604E+04  0.00000000000E+00 0.  1.
         13    1    5    5    0    0 -0.63226156398E+02 -0.63977329731E+02  0.35804496552E+02  0.96812228286E+02  0.00000000000E+00 0. -1.
        -13    1    5    5    0    0 -0.47824800367E+03 -0.41394286259E+03  0.52944184689E+03  0.82485060207E+03  0.00000000000E+00 0.  1.
          2    1    6    6  503    0  0.11626468998E+03 -0.26355605460E+03  0.17414041189E+02  0.28858711143E+03  0.00000000000E+00 0. -1.
         -2    1    6    6    0  503  0.55716828045E+02 -0.34963538011E+03 -0.27225996682E+02  0.35509226808E+03  0.00000000000E+00 0.  1.
<mgrwt>
<rscale>  0 0.30707464E+04</rscale>
<asrwt>0</asrwt>
<pdfrwt beam="1">  1        2 0.57678402E+00 0.30707464E+04</pdfrwt>
<pdfrwt beam="2">  1       -1 0.96735966E-01 0.30707464E+04</pdfrwt>
<totfact> 0.53263380E-01</totfact>
</mgrwt>
</event>
<event>
12    7  0.1698542E-007  0.1888946E+04  0.7818608E-02  0.8660378E-01
          2   -1    0    0  501    0  0.00000000000E+00  0.00000000000E+00  0.19899006564E+04  0.19899006564E+04  0.00000000000E+00 0. -1.
         -1   -1    0    0    0  501 -0.00000000000E+00 -0.00000000000E+00 -0.44827825309E+03  0.44827825309E+03  0.00000000000E+00 0.  1.
         24    2    1    2    0    0 -0.33863227623E+03  0.18623928903E+03 -0.20005440632E+03  0.44233991894E+03  0.79283965070E+02 0.  0.
        254    2    1    2    0    0  0.33863227623E+03 -0.18623928903E+03  0.17416768097E+04  0.19958389906E+04  0.89475039858E+03 0.  0.
         23    2    4    4    0    0  0.15064074853E+03  0.34195365645E+03  0.50492680567E+03  0.63487323497E+03  0.92130381071E+02 0.  0.
         23    2    4    4    0    0  0.18799152770E+03 -0.52819294548E+03  0.12367500040E+04  0.13609657556E+04  0.91370747211E+02 0.  0.
          4    1    3    3  502    0 -0.34560073652E+02  0.50998966018E+02 -0.35235754079E+02  0.70970779841E+02  0.00000000000E+00 0. -1.
         -3    1    3    3    0  502 -0.30407220258E+03  0.13524032301E+03 -0.16481865224E+03  0.37136913910E+03  0.00000000000E+00 0.  1.
         13    1    5    5    0    0  0.11675157758E+03  0.15200647202E+03  0.24043832262E+03  0.30748574827E+03  0.00000000000E+00 0.  1.
        -13    1    5    5    0    0  0.33889170948E+02  0.18994718443E+03  0.26448848305E+03  0.32738748670E+03  0.00000000000E+00 0. -1.
          2    1    6    6  503    0  0.15502341129E+03 -0.34241987403E+03  0.74976022066E+03  0.83870377170E+03  0.00000000000E+00 0. -1.
         -2    1    6    6    0  503  0.32968116407E+02 -0.18577307146E+03  0.48698978334E+03  0.52226198393E+03  0.00000000000E+00 0.  1.
<mgrwt>
<rscale>  0 0.18889459E+04</rscale>
<asrwt>0</asrwt>
<pdfrwt beam="1">  1        2 0.30613856E+00 0.18889459E+04</pdfrwt>
<pdfrwt beam="2">  1       -1 0.68965886E-01 0.18889459E+04</pdfrwt>
<totfact> 0.15368229E+01</totfact>
</mgrwt>
</event>
<event>
12    7  0.1698542E-007  0.1399363E+04  0.7818608E-02  0.8954280E-01
         -1   -1    0    0    0  501 -0.00000000000E+00  0.00000000000E+00  0.29847235559E+03  0.29847235559E+03  0.00000000000E+00 0.  1.
          2   -1    0    0  501    0  0.00000000000E+00 -0.00000000000E+00 -0.16401985299E+04  0.16401985299E+04  0.00000000000E+00 0. -1.
         24    2    1    2    0    0 -0.65503627977E+02  0.85555411116E+02  0.15107191643E+03  0.20393412342E+03  0.84592843132E+02 0.  0.
        254    2    1    2    0    0  0.65503627977E+02 -0.85555411116E+02 -0.14927980907E+04  0.17347367621E+04  0.87707185583E+03 0.  0.
         23    2    4    4    0    0  0.12729169938E+03  0.65051908670E+02 -0.15340608136E+04  0.15433128389E+04  0.89649379382E+02 0.  0.
         23    2    4    4    0    0 -0.61788071407E+02 -0.15060731979E+03  0.41262722887E+02  0.19142392318E+03  0.91870427900E+02 0.  0.
          2    1    3    3  502    0  0.51078163797E+01  0.60049845766E+01 -0.88602843106E+01  0.11859775124E+02  0.00000000000E+00 0. -1.
         -1    1    3    3    0  502 -0.70611444357E+02  0.79550426540E+02  0.15993220074E+03  0.19207434829E+03  0.00000000000E+00 0.  1.
         13    1    5    5    0    0  0.95874594108E+01  0.46225767377E+02 -0.32880018999E+03  0.33217210281E+03  0.00000000000E+00 0. -1.
        -13    1    5    5    0    0  0.11770423997E+03  0.18826141292E+02 -0.12052606236E+04  0.12111407361E+04  0.00000000000E+00 0.  1.
          4    1    6    6  503    0  0.19233421088E+02 -0.67715163295E+02  0.80807553722E+01  0.70855955531E+02  0.00000000000E+00 0. -1.
         -4    1    6    6    0  503 -0.81021492495E+02 -0.82892156491E+02  0.33181967515E+02  0.12056796764E+03  0.00000000000E+00 0.  1.
<mgrwt>
<rscale>  0 0.13993626E+04</rscale>
<asrwt>0</asrwt>
<pdfrwt beam="1">  1        2 0.25233823E+00 0.13993626E+04</pdfrwt>
<pdfrwt beam="2">  1       -1 0.45918825E-01 0.13993626E+04</pdfrwt>
<totfact> 0.55368804E+01</totfact>
</mgrwt>
</event>
<event>
12    7  0.1698542E-007  0.1008810E+04  0.7818608E-02  0.9298935E-01
          2   -1    0    0  501    0  0.00000000000E+00  0.00000000000E+00  0.22155169948E+04  0.22155169948E+04  0.00000000000E+00 0. -1.
         -1   -1    0    0    0  501 -0.00000000000E+00 -0.00000000000E+00 -0.11483743174E+03  0.11483743174E+03  0.00000000000E+00 0.  1.
         24    2    1    2    0    0  0.44173953276E+02 -0.50359418833E+02  0.29515876892E+03  0.31339630418E+03  0.81308888728E+02 0.  0.
        254    2    1    2    0    0 -0.44173953276E+02  0.50359418833E+02  0.18055207941E+04  0.20169581223E+04  0.89650840490E+03 0.  0.
         23    2    4    4    0    0  0.33459353617E+02  0.44433264765E+03  0.12143291700E+04  0.12966159983E+04  0.89814719210E+02 0.  0.
         23    2    4    4    0    0 -0.77633306894E+02 -0.39397322881E+03  0.59119162408E+03  0.72034212401E+03  0.90240810551E+02 0.  0.
          2    1    3    3  502    0  0.57788661352E+02 -0.60655046053E+02  0.27211377195E+03  0.28471822716E+03  0.00000000000E+00 0. -1.
         -1    1    3    3    0  502 -0.13614708075E+02  0.10295627220E+02  0.23044996970E+02  0.28678077013E+02  0.00000000000E+00 0.  1.
         13    1    5    5    0    0  0.14334853555E+02  0.23510476167E+02  0.13933245932E+03  0.14202733799E+03  0.00000000000E+00 0.  1.
        -13    1    5    5    0    0  0.19124500062E+02  0.42082217148E+03  0.10749967107E+04  0.11545886603E+04  0.00000000000E+00 0. -1.
          4    1    6    6  503    0 -0.72317670113E+02 -0.37019553102E+03  0.58348589639E+03  0.69478800211E+03  0.00000000000E+00 0. -1.
         -4    1    6    6    0  503 -0.53156367802E+01 -0.23777697796E+02  0.77057276867E+01  0.25554121899E+02  0.00000000000E+00 0.  1.
<mgrwt>
<rscale>  0 0.10088098E+04</rscale>
<asrwt>0</asrwt>
<pdfrwt beam="1">  1        2 0.34084874E+00 0.10088098E+04</pdfrwt>
<pdfrwt beam="2">  1       -1 0.17667299E-01 0.10088098E+04</pdfrwt>
<totfact> 0.14565468E+02</totfact>
</mgrwt>
</event>
<event>
12    7  0.1698542E-007  0.2148295E+04  0.7818608E-02  0.8540262E-01
          2   -1    0    0  501    0  0.00000000000E+00  0.00000000000E+00  0.20711318331E+04  0.20711318331E+04  0.00000000000E+00 0. -1.
         -1   -1    0    0    0  501 -0.00000000000E+00 -0.00000000000E+00 -0.55708348488E+03  0.55708348488E+03  0.00000000000E+00 0.  1.
         24    2    1    2    0    0  0.70574743420E+03  0.23386759366E+03  0.12008649235E+04  0.14148456302E+04  0.83295261177E+02 0.  0.
        254    2    1    2    0    0 -0.70574743420E+03 -0.23386759366E+03  0.31318342470E+03  0.12133696878E+04  0.90631597659E+03 0.  0.
         23    2    4    4    0    0 -0.47392783302E+03 -0.11904457126E+03  0.62562997911E+03  0.79889066485E+03  0.89633825983E+02 0.  0.
         23    2    4    4    0    0 -0.23181960118E+03 -0.11482302240E+03 -0.31244655441E+03  0.41447902291E+03  0.85119663485E+02 0.  0.
          2    1    3    3  502    0  0.52911382702E+03  0.20156688931E+03  0.95791425779E+03  0.11127400317E+04  0.00000000000E+00 0. -1.
         -1    1    3    3    0  502  0.17663360718E+03  0.32300704350E+02  0.24295066568E+03  0.30210559849E+03  0.00000000000E+00 0.  1.
         13    1    5    5    0    0 -0.27557453001E+02 -0.23863850629E+02  0.77326774535E+02  0.85488751557E+02  0.00000000000E+00 0. -1.
        -13    1    5    5    0    0 -0.44637038002E+03 -0.95180720629E+02  0.54830320457E+03  0.71340191329E+03  0.00000000000E+00 0.  1.
          4    1    6    6  503    0 -0.99984696866E+02 -0.77156639341E+02 -0.97606874772E+02  0.15961575300E+03  0.00000000000E+00 0. -1.
         -4    1    6    6    0  503 -0.13183490431E+03 -0.37666383058E+02 -0.21483967963E+03  0.25486326992E+03  0.00000000000E+00 0.  1.
<mgrwt>
<rscale>  0 0.21482955E+04</rscale>
<asrwt>0</asrwt>
<pdfrwt beam="1">  1        2 0.31863566E+00 0.21482955E+04</pdfrwt>
<pdfrwt beam="2">  1       -1 0.85705153E-01 0.21482955E+04</pdfrwt>
<totfact> 0.85673970E+00</totfact>
</mgrwt>
</event>
<event>
12    7  0.1698542E-007  0.1384838E+04  0.7818608E-02  0.8964867E-01
          2   -1    0    0  501    0  0.00000000000E+00  0.00000000000E+00  0.26954958325E+04  0.26954958325E+04  0.00000000000E+00 0. -1.
         -1   -1    0    0    0  501 -0.00000000000E+00 -0.00000000000E+00 -0.17786862367E+03  0.17786862367E+03  0.00000000000E+00 0.  1.
         24    2    1    2    0    0  0.28237354638E+03 -0.15391456427E+03  0.12173351132E+04  0.12611347869E+04  0.71635605029E+02 0.  0.
        254    2    1    2    0    0 -0.28237354638E+03  0.15391456427E+03  0.13002920956E+04  0.16122296694E+04  0.89727390465E+03 0.  0.
         23    2    4    4    0    0  0.18074830740E+03  0.70969249992E+01  0.10283726739E+04  0.10481306060E+04  0.91143260268E+02 0.  0.
         23    2    4    4    0    0 -0.46312185378E+03  0.14681763927E+03  0.27191942177E+03  0.56409906336E+03  0.90721059813E+02 0.  0.
          2    1    3    3  502    0  0.17328794863E+03 -0.95717702460E+02  0.87619294493E+03  0.89827872537E+03  0.00000000000E+00 0. -1.
         -1    1    3    3    0  502  0.10908559775E+03 -0.58196861806E+02  0.34114216831E+03  0.36285606149E+03  0.00000000000E+00 0.  1.
         13    1    5    5    0    0  0.28142177337E+02  0.13731358608E+02  0.58979886217E+02  0.66776937132E+02  0.00000000000E+00 0.  1.
        -13    1    5    5    0    0  0.15260613007E+03 -0.66344336087E+01  0.96939278765E+03  0.98135366887E+03  0.00000000000E+00 0. -1.
          3    1    6    6  503    0 -0.43782552064E+03  0.15524781837E+03  0.24120107246E+03  0.52342241927E+03  0.00000000000E+00 0. -1.
         -3    1    6    6    0  503 -0.25296333142E+02 -0.84301791068E+01  0.30718349310E+02  0.40676644092E+02  0.00000000000E+00 0.  1.
<mgrwt>
<rscale>  0 0.13848381E+04</rscale>
<asrwt>0</asrwt>
<pdfrwt beam="1">  1        2 0.41469164E+00 0.13848381E+04</pdfrwt>
<pdfrwt beam="2">  1       -1 0.27364406E-01 0.13848381E+04</pdfrwt>
<totfact> 0.35734044E+01</totfact>
</mgrwt>
</event>
<event>
12    7  0.1698542E-007  0.1216080E+04  0.7818608E-02  0.9098897E-01
          2   -1    0    0  501    0  0.00000000000E+00  0.00000000000E+00  0.62033392694E+03  0.62033392694E+03  0.00000000000E+00 0. -1.
         -1   -1    0    0    0  501 -0.00000000000E+00 -0.00000000000E+00 -0.59598963486E+03  0.59598963486E+03  0.00000000000E+00 0.  1.
         24    2    1    2    0    0  0.15107349070E+03 -0.61974836491E+02 -0.19996176978E+03  0.27130314770E+03  0.83406286511E+02 0.  0.
        254    2    1    2    0    0 -0.15107349070E+03  0.61974836491E+02  0.22430606186E+03  0.94502041409E+03  0.90337494636E+03 0.  0.
         23    2    4    4    0    0  0.13655537769E+02  0.11457514851E+03 -0.32797190942E+03  0.35905942527E+03  0.89689236478E+02 0.  0.
         23    2    4    4    0    0 -0.16472902847E+03 -0.52600312021E+02  0.55227797128E+03  0.58596098882E+03  0.91852475312E+02 0.  0.
          4    1    3    3  502    0  0.41108576191E+01  0.64194675322E+01  0.56429797181E+01  0.94842993342E+01  0.00000000000E+00 0. -1.
         -3    1    3    3    0  502  0.14696263308E+03 -0.68394304023E+02 -0.20560474950E+03  0.26181884837E+03  0.00000000000E+00 0.  1.
         13    1    5    5    0    0  0.23556384612E+02  0.12484263815E+03 -0.25722503885E+03  0.28688901716E+03  0.00000000000E+00 0. -1.
        -13    1    5    5    0    0 -0.99008468434E+01 -0.10267489636E+02 -0.70746870566E+02  0.72170408109E+02  0.00000000000E+00 0.  1.
          2    1    6    6  503    0 -0.17192103268E+03 -0.62553944241E+02  0.52713261091E+03  0.55797726378E+03  0.00000000000E+00 0. -1.
         -2    1    6    6    0  503  0.71920042126E+01  0.99536322204E+01  0.25145360370E+02  0.27983725040E+02  0.00000000000E+00 0.  1.
<mgrwt>
<rscale>  0 0.12160799E+04</rscale>
<asrwt>0</asrwt>
<pdfrwt beam="1">  1        2 0.95435989E-01 0.12160799E+04</pdfrwt>
<pdfrwt beam="2">  1       -1 0.91690713E-01 0.12160799E+04</pdfrwt>
<totfact> 0.62212471E+01</totfact>
</mgrwt>
</event>
<event>
12    7  0.1698542E-007  0.1416854E+04  0.7818608E-02  0.8941709E-01
          2   -1    0    0  501    0  0.00000000000E+00  0.00000000000E+00  0.78285372864E+03  0.78285372864E+03  0.00000000000E+00 0. -1.
         -1   -1    0    0    0  501 -0.00000000000E+00 -0.00000000000E+00 -0.64107582299E+03  0.64107582299E+03  0.00000000000E+00 0.  1.
         24    2    1    2    0    0  0.14584301493E+03 -0.12943927210E+03  0.41071759060E+03  0.46199682131E+03  0.82020811428E+02 0.  0.
        254    2    1    2    0    0 -0.14584301493E+03  0.12943927210E+03 -0.26893968494E+03  0.96193273032E+03  0.90275207746E+03 0.  0.
         23    2    4    4    0    0 -0.22632644738E+03 -0.16989408486E+03  0.22417906909E+03  0.37189336972E+03  0.89223105580E+02 0.  0.
         23    2    4    4    0    0  0.80483432446E+02  0.29933335696E+03 -0.49311875403E+03  0.59003936060E+03  0.94352000503E+02 0.  0.
          4    1    3    3  502    0  0.13154367877E+03 -0.11358942325E+03  0.40370594251E+03  0.43952791097E+03  0.00000000000E+00 0. -1.
         -3    1    3    3    0  502  0.14299336158E+02 -0.15849848845E+02  0.70116480833E+01  0.22468910338E+02  0.00000000000E+00 0.  1.
         13    1    5    5    0    0 -0.11480631237E+03 -0.45114698849E+02  0.13267579999E+03  0.18115930370E+03  0.00000000000E+00 0. -1.
        -13    1    5    5    0    0 -0.11152013501E+03 -0.12477938601E+03  0.91503269097E+02  0.19073406602E+03  0.00000000000E+00 0.  1.
          1    1    6    6  503    0 -0.96041095308E+00  0.16082919287E+02 -0.85654641087E+02  0.87156756604E+02  0.00000000000E+00 0. -1.
         -1    1    6    6    0  503  0.81443843399E+02  0.28325043767E+03 -0.40746411294E+03  0.50288260400E+03  0.00000000000E+00 0.  1.
<mgrwt>
<rscale>  0 0.14168537E+04</rscale>
<asrwt>0</asrwt>
<pdfrwt beam="1">  1        2 0.12043903E+00 0.14168537E+04</pdfrwt>
<pdfrwt beam="2">  1       -1 0.98627050E-01 0.14168537E+04</pdfrwt>
<totfact> 0.38724133E+01</totfact>
</mgrwt>
</event>
<event>
12    7  0.1698542E-007  0.2202576E+04  0.7818608E-02  0.8517357E-01
          2   -1    0    0  501    0  0.00000000000E+00  0.00000000000E+00  0.18406516904E+04  0.18406516904E+04  0.00000000000E+00 0. -1.
         -1   -1    0    0    0  501 -0.00000000000E+00 -0.00000000000E+00 -0.65891620519E+03  0.65891620519E+03  0.00000000000E+00 0.  1.
         24    2    1    2    0    0 -0.53506191307E+02 -0.65373097742E+02  0.15391260412E+04  0.15435811000E+04  0.81222454656E+02 0.  0.
        254    2    1    2    0    0  0.53506191307E+02  0.65373097742E+02 -0.35739055599E+03  0.95598679560E+03  0.88263593255E+03 0.  0.
         23    2    4    4    0    0 -0.34144776681E+03  0.24959742729E+03 -0.12178919037E+03  0.45212215408E+03  0.10342331531E+03 0.  0.
         23    2    4    4    0    0  0.39495395812E+03 -0.18422432954E+03 -0.23560136562E+03  0.50386464151E+03  0.91893094691E+02 0.  0.
          4    1    3    3  502    0 -0.51347813907E+02 -0.82096363386E+02  0.14158247556E+04  0.14191321818E+04  0.00000000000E+00 0. -1.
         -3    1    3    3    0  502 -0.21583774004E+01  0.16723265644E+02  0.12330128558E+03  0.12444891817E+03  0.00000000000E+00 0.  1.
         13    1    5    5    0    0 -0.37364121131E+02  0.75039616165E+02 -0.35511099718E+02  0.91038781545E+02  0.00000000000E+00 0.  1.
        -13    1    5    5    0    0 -0.30408364568E+03  0.17455781112E+03 -0.86278090652E+02  0.36108337254E+03  0.00000000000E+00 0. -1.
          3    1    6    6  503    0  0.24978245934E+03 -0.15099312140E+03 -0.12105492711E+03  0.31598179549E+03  0.00000000000E+00 0. -1.
         -3    1    6    6    0  503  0.14517149878E+03 -0.33231208146E+02 -0.11454643852E+03  0.18788284602E+03  0.00000000000E+00 0.  1.
<mgrwt>
<rscale>  0 0.22025760E+04</rscale>
<asrwt>0</asrwt>
<pdfrwt beam="1">  1        2 0.28317718E+00 0.22025760E+04</pdfrwt>
<pdfrwt beam="2">  1       -1 0.10137172E+00 0.22025760E+04</pdfrwt>
<totfact> 0.78722996E+00</totfact>
</mgrwt>
</event>
<event>
12    7  0.1698542E-007  0.1627834E+04  0.7818608E-02  0.8803629E-01
         -1   -1    0    0    0  501 -0.00000000000E+00  0.00000000000E+00  0.64014454278E+03  0.64014454278E+03  0.00000000000E+00 0.  1.
          2   -1    0    0  501    0  0.00000000000E+00 -0.00000000000E+00 -0.10348616207E+04  0.10348616207E+04  0.00000000000E+00 0. -1.
         24    2    1    2    0    0  0.23335470662E+03 -0.45989167518E+03  0.57935284124E+02  0.52488771666E+03  0.78713696132E+02 0.  0.
        254    2    1    2    0    0 -0.23335470662E+03  0.45989167518E+03 -0.45265236200E+03  0.11501184468E+04  0.92299702535E+03 0.  0.
         23    2    4    4    0    0 -0.69132726240E+02  0.66418626446E+03 -0.53550375650E+03  0.86075615715E+03  0.90632009237E+02 0.  0.
         23    2    4    4    0    0 -0.16422198038E+03 -0.20429458928E+03  0.82851394504E+02  0.28936228964E+03  0.90338491487E+02 0.  0.
          2    1    3    3  502    0  0.46607587523E+02 -0.40151911954E+02 -0.22195518095E+01  0.61557856188E+02  0.00000000000E+00 0. -1.
         -1    1    3    3    0  502  0.18674711909E+03 -0.41973976323E+03  0.60154835933E+02  0.46332986048E+03  0.00000000000E+00 0.  1.
         13    1    5    5    0    0 -0.41738833168E+02  0.61569519747E+03 -0.50401291942E+03  0.79677583379E+03  0.00000000000E+00 0. -1.
        -13    1    5    5    0    0 -0.27393893072E+02  0.48491066992E+02 -0.31490837089E+02  0.63980323352E+02  0.00000000000E+00 0.  1.
          3    1    6    6  503    0 -0.11553521847E+03 -0.12229091877E+03  0.85261502277E+01  0.16845222099E+03  0.00000000000E+00 0. -1.
         -3    1    6    6    0  503 -0.48686761908E+02 -0.82003670515E+02  0.74325244276E+02  0.12091006864E+03  0.00000000000E+00 0.  1.
<mgrwt>
<rscale>  0 0.16278342E+04</rscale>
<asrwt>0</asrwt>
<pdfrwt beam="1">  1        2 0.15920948E+00 0.16278342E+04</pdfrwt>
<pdfrwt beam="2">  1       -1 0.98483776E-01 0.16278342E+04</pdfrwt>
<totfact> 0.25786666E+01</totfact>
</mgrwt>
</event>
<event>
12    7  0.1698542E-007  0.1809390E+04  0.7818608E-02  0.8701322E-01
          2   -1    0    0  501    0  0.00000000000E+00  0.00000000000E+00  0.29491432968E+04  0.29491432968E+04  0.00000000000E+00 0. -1.
         -1   -1    0    0    0  501 -0.00000000000E+00 -0.00000000000E+00 -0.27752901620E+03  0.27752901620E+03  0.00000000000E+00 0.  1.
         24    2    1    2    0    0  0.29965812693E+03  0.38499837867E+03  0.17891792228E+04  0.18562896833E+04  0.81426974647E+02 0.  0.
        254    2    1    2    0    0 -0.29965812693E+03 -0.38499837867E+03  0.88243505774E+03  0.13703826297E+04  0.92802918920E+03 0.  0.
         23    2    4    4    0    0  0.26111805363E+03  0.99048662968E+02  0.32955458397E+03  0.44135053587E+03  0.90503017230E+02 0.  0.
         23    2    4    4    0    0 -0.56077618057E+03 -0.48404704164E+03  0.55288047377E+03  0.92903209382E+03  0.93018008290E+02 0.  0.
          2    1    3    3  502    0  0.25800562627E+03  0.29464226241E+03  0.13304757447E+04  0.13869198510E+04  0.00000000000E+00 0. -1.
         -1    1    3    3    0  502  0.41652500660E+02  0.90356116262E+02  0.45870347812E+03  0.46936983222E+03  0.00000000000E+00 0.  1.
         13    1    5    5    0    0  0.11444552071E+03  0.89780822614E+02  0.14444746124E+03  0.20499620088E+03  0.00000000000E+00 0.  1.
        -13    1    5    5    0    0  0.14667253293E+03  0.92678403540E+01  0.18510712273E+03  0.23635433499E+03  0.00000000000E+00 0. -1.
          1    1    6    6  503    0 -0.47694813252E+03 -0.38230175974E+03  0.41857038076E+03  0.74083420565E+03  0.00000000000E+00 0. -1.
         -1    1    6    6    0  503 -0.83828048047E+02 -0.10174528190E+03  0.13431009300E+03  0.18819788816E+03  0.00000000000E+00 0.  1.
<mgrwt>
<rscale>  0 0.18093898E+04</rscale>
<asrwt>0</asrwt>
<pdfrwt beam="1">  1        2 0.45371433E+00 0.18093898E+04</pdfrwt>
<pdfrwt beam="2">  1       -1 0.42696774E-01 0.18093898E+04</pdfrwt>
<totfact> 0.10902772E+01</totfact>
</mgrwt>
</event>
<event>
12    7  0.1698542E-007  0.1721329E+04  0.7818608E-02  0.8749292E-01
         -1   -1    0    0    0  501 -0.00000000000E+00  0.00000000000E+00  0.21159456555E+03  0.21159456555E+03  0.00000000000E+00 0.  1.
          2   -1    0    0  501    0  0.00000000000E+00 -0.00000000000E+00 -0.35007693843E+04  0.35007693843E+04  0.00000000000E+00 0. -1.
         24    2    1    2    0    0 -0.24135915422E+03 -0.26115172382E+03 -0.10236166000E+03  0.37862941177E+03  0.80173922434E+02 0.  0.
        254    2    1    2    0    0  0.24135915422E+03  0.26115172382E+03 -0.31868131587E+04  0.33337345380E+04  0.91189549697E+03 0.  0.
         23    2    4    4    0    0 -0.33316984808E+03  0.12782156968E+03 -0.97156083843E+03  0.10395093316E+04  0.96481534041E+02 0.  0.
         23    2    4    4    0    0  0.57452900230E+03  0.13333015414E+03 -0.22152523203E+04  0.22942252064E+04  0.90917274261E+02 0.  0.
          4    1    3    3  502    0 -0.16757556201E+03 -0.14654491936E+03 -0.95264009300E+02  0.24214089667E+03  0.00000000000E+00 0. -1.
         -3    1    3    3    0  502 -0.73783592211E+02 -0.11460680446E+03 -0.70976506984E+01  0.13648851510E+03  0.00000000000E+00 0.  1.
         13    1    5    5    0    0 -0.30582584796E+03  0.83275042801E+02 -0.85072152677E+03  0.90784982136E+03  0.00000000000E+00 0.  1.
        -13    1    5    5    0    0 -0.27344000124E+02  0.44546526882E+02 -0.12083931166E+03  0.13165951027E+03  0.00000000000E+00 0. -1.
          2    1    6    6  503    0  0.67054616825E+02  0.19749887536E+02 -0.39535786041E+03  0.40148999674E+03  0.00000000000E+00 0. -1.
         -2    1    6    6    0  503  0.50747438547E+03  0.11358026660E+03 -0.18198944599E+04  0.18927352097E+04  0.00000000000E+00 0.  1.
<mgrwt>
<rscale>  0 0.17213295E+04</rscale>
<asrwt>0</asrwt>
<pdfrwt beam="1">  1        2 0.53857989E+00 0.17213295E+04</pdfrwt>
<pdfrwt beam="2">  1       -1 0.32553011E-01 0.17213295E+04</pdfrwt>
<totfact> 0.78310637E+00</totfact>
</mgrwt>
</event>
<event>
12    7  0.1698542E-007  0.1228404E+04  0.7818608E-02  0.9088352E-01
          2   -1    0    0  501    0  0.00000000000E+00  0.00000000000E+00  0.22484675403E+04  0.22484675403E+04  0.00000000000E+00 0. -1.
         -1   -1    0    0    0  501 -0.00000000000E+00 -0.00000000000E+00 -0.16777828071E+03  0.16777828071E+03  0.00000000000E+00 0.  1.
         24    2    1    2    0    0 -0.74598039045E+01 -0.28027996405E+03  0.45491891648E+03  0.54050065495E+03  0.81100126428E+02 0.  0.
        254    2    1    2    0    0  0.74598039045E+01  0.28027996405E+03  0.16257703431E+04  0.18757451661E+04  0.89256832374E+03 0.  0.
         23    2    4    4    0    0  0.23004015014E+03 -0.24155475060E+03  0.78208800830E+03  0.85502243243E+03  0.90191679329E+02 0.  0.
         23    2    4    4    0    0 -0.22258034623E+03  0.52183471466E+03  0.84368233485E+03  0.10207227337E+04  0.90672691236E+02 0.  0.
          2    1    3    3  502    0 -0.25999728065E+02 -0.21878696476E+03  0.39687685565E+03  0.45393277075E+03  0.00000000000E+00 0. -1.
         -1    1    3    3    0  502  0.18539924160E+02 -0.61492999294E+02  0.58042060832E+02  0.86567884204E+02  0.00000000000E+00 0.  1.
         13    1    5    5    0    0  0.23221821974E+03 -0.22521956231E+03  0.76796733952E+03  0.83332045900E+03  0.00000000000E+00 0.  1.
        -13    1    5    5    0    0 -0.21780696004E+01 -0.16335188295E+02  0.14120668775E+02  0.21701973424E+02  0.00000000000E+00 0. -1.
          3    1    6    6  503    0 -0.41116258210E+02  0.11989362636E+03  0.12842975154E+03  0.18044176183E+03  0.00000000000E+00 0. -1.
         -3    1    6    6    0  503 -0.18146408802E+03  0.40194108830E+03  0.71525258331E+03  0.84028097184E+03  0.00000000000E+00 0.  1.
<mgrwt>
<rscale>  0 0.12284039E+04</rscale>
<asrwt>0</asrwt>
<pdfrwt beam="1">  1        2 0.34591806E+00 0.12284039E+04</pdfrwt>
<pdfrwt beam="2">  1       -1 0.25812045E-01 0.12284039E+04</pdfrwt>
<totfact> 0.72342202E+01</totfact>
</mgrwt>
</event>
<event>
12    7  0.1698542E-007  0.1208214E+04  0.7818608E-02  0.9105697E-01
          2   -1    0    0  501    0  0.00000000000E+00  0.00000000000E+00  0.19953157712E+04  0.19953157712E+04  0.00000000000E+00 0. -1.
         -1   -1    0    0    0  501 -0.00000000000E+00 -0.00000000000E+00 -0.18290105878E+03  0.18290105878E+03  0.00000000000E+00 0.  1.
         24    2    1    2    0    0  0.55153992087E+02 -0.56574472100E+02  0.85528532768E+03  0.86241128371E+03  0.77444152725E+02 0.  0.
        254    2    1    2    0    0 -0.55153992087E+02  0.56574472100E+02  0.95712938476E+03  0.13158055463E+04  0.89944702053E+03 0.  0.
         23    2    4    4    0    0  0.19562628408E+03  0.40672346614E+03  0.44328009614E+03  0.63914576760E+03  0.91194559464E+02 0.  0.
         23    2    4    4    0    0 -0.25078027616E+03 -0.35014899404E+03  0.51384928862E+03  0.67665977869E+03  0.91281431492E+02 0.  0.
          2    1    3    3  502    0  0.35489507649E+02 -0.36191840893E+02  0.78499064136E+03  0.78662549000E+03  0.00000000000E+00 0. -1.
         -1    1    3    3    0  502  0.19664484437E+02 -0.20382631207E+02  0.70294686321E+02  0.75785793709E+02  0.00000000000E+00 0.  1.
         13    1    5    5    0    0  0.15852927209E+03  0.38708279039E+03  0.40789099501E+03  0.58424282669E+03  0.00000000000E+00 0. -1.
        -13    1    5    5    0    0  0.37097011983E+02  0.19640675754E+02  0.35389101125E+02  0.54902940911E+02  0.00000000000E+00 0.  1.
          4    1    6    6  503    0 -0.16622914176E+03 -0.29701510654E+03  0.39394631574E+03  0.52061867117E+03  0.00000000000E+00 0. -1.
         -4    1    6    6    0  503 -0.84551134404E+02 -0.53133887500E+02  0.11990297288E+03  0.15604110752E+03  0.00000000000E+00 0.  1.
<mgrwt>
<rscale>  0 0.12082142E+04</rscale>
<asrwt>0</asrwt>
<pdfrwt beam="1">  1        2 0.30697164E+00 0.12082142E+04</pdfrwt>
<pdfrwt beam="2">  1       -1 0.28138626E-01 0.12082142E+04</pdfrwt>
<totfact> 0.86305666E+01</totfact>
</mgrwt>
</event>
<event>
12    7  0.1698542E-007  0.1666563E+04  0.7818608E-02  0.8780668E-01
         -1   -1    0    0    0  501 -0.00000000000E+00  0.00000000000E+00  0.41585613820E+03  0.41585613820E+03  0.00000000000E+00 0.  1.
          2   -1    0    0  501    0  0.00000000000E+00 -0.00000000000E+00 -0.16697070741E+04  0.16697070741E+04  0.00000000000E+00 0. -1.
         24    2    1    2    0    0 -0.23641254649E+03 -0.50138424742E+03 -0.20792463735E+03  0.59654715046E+03  0.73203771729E+02 0.  0.
        254    2    1    2    0    0  0.23641254649E+03  0.50138424742E+03 -0.10459262986E+04  0.14890160619E+04  0.90328841172E+03 0.  0.
         23    2    4    4    0    0 -0.33843247054E+03  0.18784361874E+03 -0.39728848467E+03  0.56257207965E+03  0.93954470509E+02 0.  0.
         23    2    4    4    0    0  0.57484501703E+03  0.31354062869E+03 -0.64863781391E+03  0.92644398223E+03  0.93877149111E+02 0.  0.
          2    1    3    3  502    0  0.21097752904E+01 -0.96120133183E+01 -0.12911847325E+02  0.16234461899E+02  0.00000000000E+00 0. -1.
         -1    1    3    3    0  502 -0.23852232179E+03 -0.49177223411E+03 -0.19501279003E+03  0.58031268856E+03  0.00000000000E+00 0.  1.
         13    1    5    5    0    0 -0.29581944059E+03  0.15331920736E+03 -0.28847753985E+03  0.44072124044E+03  0.00000000000E+00 0.  1.
        -13    1    5    5    0    0 -0.42613029951E+02  0.34524411379E+02 -0.10881094482E+03  0.12185083921E+03  0.00000000000E+00 0. -1.
          4    1    6    6  503    0  0.32441620366E+03  0.14774810789E+03 -0.40643397408E+03  0.54061442069E+03  0.00000000000E+00 0.  1.
         -4    1    6    6    0  503  0.25042881338E+03  0.16579252080E+03 -0.24220383984E+03  0.38582956153E+03  0.00000000000E+00 0. -1.
<mgrwt>
<rscale>  0 0.16665629E+04</rscale>
<asrwt>0</asrwt>
<pdfrwt beam="1">  1        2 0.25687801E+00 0.16665629E+04</pdfrwt>
<pdfrwt beam="2">  1       -1 0.63977867E-01 0.16665629E+04</pdfrwt>
<totfact> 0.27453324E+01</totfact>
</mgrwt>
</event>
<event>
12    7  0.1698542E-007  0.2328974E+04  0.7818608E-02  0.8466584E-01
         -1   -1    0    0    0  501 -0.00000000000E+00  0.00000000000E+00  0.11346347208E+04  0.11346347208E+04  0.00000000000E+00 0.  1.
          2   -1    0    0  501    0  0.00000000000E+00 -0.00000000000E+00 -0.11951243696E+04  0.11951243696E+04  0.00000000000E+00 0. -1.
         24    2    1    2    0    0  0.65449434693E+03  0.32740902308E+03  0.64310175170E+03  0.97699713089E+03  0.73375828294E+02 0.  0.
        254    2    1    2    0    0 -0.65449434693E+03 -0.32740902308E+03 -0.70359140048E+03  0.13527619595E+04  0.89407188837E+03 0.  0.
         23    2    4    4    0    0 -0.10380922236E+03  0.12465671156E+03  0.14873140450E+03  0.23804114215E+03  0.90702283812E+02 0.  0.
         23    2    4    4    0    0 -0.55068512457E+03 -0.45206573463E+03 -0.85232280498E+03  0.11147208173E+04  0.92362339743E+02 0.  0.
          4    1    3    3  502    0  0.18051575636E+03  0.58130804795E+02  0.18512669742E+03  0.26502268367E+03  0.00000000000E+00 0. -1.
         -3    1    3    3    0  502  0.47397859057E+03  0.26927821828E+03  0.45797505428E+03  0.71197444722E+03  0.00000000000E+00 0.  1.
         13    1    5    5    0    0 -0.23380576890E+02  0.30521839911E+01  0.66715947814E+02  0.70760051551E+02  0.00000000000E+00 0.  1.
        -13    1    5    5    0    0 -0.80428645471E+02  0.12160452757E+03  0.82015456683E+02  0.16728109060E+03  0.00000000000E+00 0. -1.
          1    1    6    6  503    0 -0.54159003481E+03 -0.44589683962E+03 -0.85209938773E+03  0.11037287366E+04  0.00000000000E+00 0. -1.
         -1    1    6    6    0  503 -0.90950897563E+01 -0.61688950177E+01 -0.22341724813E+00  0.10992080726E+02  0.00000000000E+00 0.  1.
<mgrwt>
<rscale>  0 0.23289737E+04</rscale>
<asrwt>0</asrwt>
<pdfrwt beam="1">  1        2 0.18386529E+00 0.23289737E+04</pdfrwt>
<pdfrwt beam="2">  1       -1 0.17455919E+00 0.23289737E+04</pdfrwt>
<totfact> 0.44798749E+00</totfact>
</mgrwt>
</event>
<event>
12    7  0.1698542E-007  0.1239050E+04  0.7818608E-02  0.9079346E-01
         -1   -1    0    0    0  501 -0.00000000000E+00  0.00000000000E+00  0.54566092982E+03  0.54566092982E+03  0.00000000000E+00 0.  1.
          2   -1    0    0  501    0  0.00000000000E+00 -0.00000000000E+00 -0.70338830487E+03  0.70338830487E+03  0.00000000000E+00 0. -1.
         24    2    1    2    0    0  0.24861051463E+03  0.99177553504E+02 -0.22143915935E+03  0.36024584845E+03  0.95385506900E+02 0.  0.
        254    2    1    2    0    0 -0.24861051463E+03 -0.99177553504E+02  0.63711784308E+02  0.88880338624E+03  0.84514430296E+03 0.  0.
         23    2    4    4    0    0  0.12616178451E+03  0.26946486785E+03 -0.10655272111E+03  0.32890797248E+03  0.91098085090E+02 0.  0.
         23    2    4    4    0    0 -0.37477229915E+03 -0.36864242135E+03  0.17026450542E+03  0.55989541376E+03  0.90229493574E+02 0.  0.
          2    1    3    3  502    0  0.23870885937E+03  0.11510192481E+03 -0.21124410174E+03  0.33890181935E+03  0.00000000000E+00 0. -1.
         -1    1    3    3    0  502  0.99016552613E+01 -0.15924371310E+02 -0.10195057607E+02  0.21344029099E+02  0.00000000000E+00 0.  1.
         13    1    5    5    0    0  0.83812539402E+02  0.24440056231E+03 -0.70238567982E+02  0.26774919804E+03  0.00000000000E+00 0.  1.
        -13    1    5    5    0    0  0.42349245110E+02  0.25064305544E+02 -0.36314153132E+02  0.61158774444E+02  0.00000000000E+00 0. -1.
          3    1    6    6  503    0 -0.20368868026E+03 -0.13852277686E+03  0.69292309474E+02  0.25588876944E+03  0.00000000000E+00 0. -1.
         -3    1    6    6    0  503 -0.17108361889E+03 -0.23011964449E+03  0.10097219595E+03  0.30400664432E+03  0.00000000000E+00 0.  1.
<mgrwt>
<rscale>  0 0.12390505E+04</rscale>
<asrwt>0</asrwt>
<pdfrwt beam="1">  1        2 0.10821359E+00 0.12390505E+04</pdfrwt>
<pdfrwt beam="2">  1       -1 0.83947836E-01 0.12390505E+04</pdfrwt>
<totfact> 0.64422935E+01</totfact>
</mgrwt>
</event>
<event>
12    7  0.1698542E-007  0.1449473E+04  0.7818608E-02  0.8918766E-01
         -1   -1    0    0    0  501 -0.00000000000E+00  0.00000000000E+00  0.33204880093E+03  0.33204880093E+03  0.00000000000E+00 0.  1.
          2   -1    0    0  501    0  0.00000000000E+00 -0.00000000000E+00 -0.15818251813E+04  0.15818251813E+04  0.00000000000E+00 0. -1.
         24    2    1    2    0    0 -0.12703022144E+03  0.12119589474E+03 -0.92203348125E+03  0.94107518346E+03  0.68202920160E+02 0.  0.
        254    2    1    2    0    0  0.12703022144E+03 -0.12119589474E+03 -0.32774289908E+03  0.97279879873E+03  0.89894214099E+03 0.  0.
         23    2    4    4    0    0 -0.21034753312E+03 -0.16101273005E+03 -0.50590400991E+03  0.57820246683E+03  0.90598242156E+02 0.  0.
         23    2    4    4    0    0  0.33737775456E+03  0.39816835302E+02  0.17816111082E+03  0.39459633190E+03  0.92497319394E+02 0.  0.
          4    1    3    3  502    0 -0.12678132930E+03  0.11262984449E+03 -0.75453617554E+03  0.77335879611E+03  0.00000000000E+00 0. -1.
         -3    1    3    3    0  502 -0.24889213629E+00  0.85660502522E+01 -0.16749730572E+03  0.16771638735E+03  0.00000000000E+00 0.  1.
         13    1    5    5    0    0 -0.94599832551E+02 -0.41474183545E+02 -0.12241731952E+03  0.16017252054E+03  0.00000000000E+00 0. -1.
        -13    1    5    5    0    0 -0.11574770057E+03 -0.11953854650E+03 -0.38348669039E+03  0.41802994629E+03  0.00000000000E+00 0.  1.
          1    1    6    6  503    0  0.10482612206E+03  0.60776046160E+01  0.10497638310E+03  0.14847725130E+03  0.00000000000E+00 0. -1.
         -1    1    6    6    0  503  0.23255163250E+03  0.33739230686E+02  0.73184727723E+02  0.24611908060E+03  0.00000000000E+00 0.  1.
<mgrwt>
<rscale>  0 0.14494732E+04</rscale>
<asrwt>0</asrwt>
<pdfrwt beam="1">  1        2 0.24335772E+00 0.14494732E+04</pdfrwt>
<pdfrwt beam="2">  1       -1 0.51084431E-01 0.14494732E+04</pdfrwt>
<totfact> 0.48597073E+01</totfact>
</mgrwt>
</event>
<event>
12    7  0.1698542E-007  0.2235643E+04  0.7818608E-02  0.8503738E-01
         -3   -1    0    0    0  501 -0.00000000000E+00  0.00000000000E+00  0.52141162723E+03  0.52141162723E+03  0.00000000000E+00 0.  1.
          2   -1    0    0  501    0  0.00000000000E+00 -0.00000000000E+00 -0.23964266641E+04  0.23964266641E+04  0.00000000000E+00 0. -1.
         24    2    1    2    0    0 -0.60949561333E+03 -0.46256605528E+03 -0.82903225631E+02  0.77360082077E+03  0.78313644445E+02 0.  0.
        254    2    1    2    0    0  0.60949561333E+03  0.46256605528E+03 -0.17921118112E+04  0.21442374705E+04  0.89478339725E+03 0.  0.
         23    2    4    4    0    0  0.18684324015E+03  0.64077856975E+03 -0.13043265888E+04  0.14683377478E+04  0.96126579705E+02 0.  0.
         23    2    4    4    0    0  0.42265237318E+03 -0.17821251447E+03 -0.48778522240E+03  0.67589972279E+03  0.92256616069E+02 0.  0.
          4    1    3    3  502    0 -0.57257031303E+02 -0.75543180845E+02 -0.97650821969E+01  0.95291639907E+02  0.00000000000E+00 0. -1.
         -3    1    3    3    0  502 -0.55223858203E+03 -0.38702287444E+03 -0.73138143434E+02  0.67830918086E+03  0.00000000000E+00 0.  1.
         13    1    5    5    0    0  0.10740981607E+02  0.87262282198E+01 -0.95798771797E+01  0.16831214799E+02  0.00000000000E+00 0.  1.
        -13    1    5    5    0    0  0.17610225854E+03  0.63205234153E+03 -0.12947467116E+04  0.14515065330E+04  0.00000000000E+00 0. -1.
          3    1    6    6  503    0  0.27115217113E+03 -0.70874653590E+02 -0.32311288333E+03  0.42772497215E+03  0.00000000000E+00 0. -1.
         -3    1    6    6    0  503  0.15150020205E+03 -0.10733786088E+03 -0.16467233907E+03  0.24817475064E+03  0.00000000000E+00 0.  1.
<mgrwt>
<rscale>  0 0.22356428E+04</rscale>
<asrwt>0</asrwt>
<pdfrwt beam="1">  1        2 0.36868102E+00 0.22356428E+04</pdfrwt>
<pdfrwt beam="2">  1       -3 0.80217174E-01 0.22356428E+04</pdfrwt>
<totfact> 0.33697017E+00</totfact>
</mgrwt>
</event>
<event>
12    7  0.1698542E-007  0.1645634E+04  0.7818608E-02  0.8792994E-01
         -1   -1    0    0    0  501 -0.00000000000E+00  0.00000000000E+00  0.25029382643E+03  0.25029382643E+03  0.00000000000E+00 0.  1.
          2   -1    0    0  501    0  0.00000000000E+00 -0.00000000000E+00 -0.27049320773E+04  0.27049320773E+04  0.00000000000E+00 0. -1.
         24    2    1    2    0    0  0.23643673567E+03 -0.50084973572E+03 -0.12098275592E+04  0.13329961494E+04  0.80269693782E+02 0.  0.
        254    2    1    2    0    0 -0.23643673567E+03  0.50084973572E+03 -0.12448106917E+04  0.16222297543E+04  0.88052423577E+03 0.  0.
         23    2    4    4    0    0  0.16032046539E+03  0.50749714093E+03 -0.36280773517E+03  0.65078668768E+03  0.92940090858E+02 0.  0.
         23    2    4    4    0    0 -0.39675720105E+03 -0.66474052116E+01 -0.88200295651E+03  0.97144306660E+03  0.91169905967E+02 0.  0.
          2    1    3    3  502    0  0.20915335837E+03 -0.47165694262E+03 -0.10755789822E+04  0.11929273011E+04  0.00000000000E+00 0. -1.
         -1    1    3    3    0  502  0.27283377300E+02 -0.29192793098E+02 -0.13424857700E+03  0.14006884833E+03  0.00000000000E+00 0.  1.
         13    1    5    5    0    0  0.47787265435E+02  0.27220063230E+03 -0.15187537558E+03  0.31534574149E+03  0.00000000000E+00 0. -1.
        -13    1    5    5    0    0  0.11253319995E+03  0.23529650862E+03 -0.21093235959E+03  0.33544094619E+03  0.00000000000E+00 0.  1.
          4    1    6    6  503    0 -0.31751909061E+03 -0.19848396941E+02 -0.77407482149E+03  0.83690152409E+03  0.00000000000E+00 0. -1.
         -4    1    6    6    0  503 -0.79238110448E+02  0.13200991730E+02 -0.10792813502E+03  0.13454154251E+03  0.00000000000E+00 0.  1.
<mgrwt>
<rscale>  0 0.16456340E+04</rscale>
<asrwt>0</asrwt>
<pdfrwt beam="1">  1        2 0.41614339E+00 0.16456340E+04</pdfrwt>
<pdfrwt beam="2">  1       -1 0.38506743E-01 0.16456340E+04</pdfrwt>
<totfact> 0.18798147E+01</totfact>
</mgrwt>
</event>
<event>
12    7  0.1698542E-007  0.1431582E+04  0.7818608E-02  0.8931270E-01
          2   -1    0    0  501    0  0.00000000000E+00  0.00000000000E+00  0.25965076285E+04  0.25965076285E+04  0.00000000000E+00 0. -1.
         -1   -1    0    0    0  501 -0.00000000000E+00 -0.00000000000E+00 -0.19732522249E+03  0.19732522249E+03  0.00000000000E+00 0.  1.
         24    2    1    2    0    0 -0.44753811236E+01  0.12836289955E+03  0.16057158342E+04  0.16127992913E+04  0.79379790202E+02 0.  0.
        254    2    1    2    0    0  0.44753811236E+01 -0.12836289955E+03  0.79346657184E+03  0.11810335596E+04  0.86530572939E+03 0.  0.
         23    2    4    4    0    0 -0.41355586397E+03 -0.26736081384E+00  0.43640640646E+03  0.60815106397E+03  0.91480276061E+02 0.  0.
         23    2    4    4    0    0  0.41803124509E+03 -0.12809553874E+03  0.35706016538E+03  0.57288249565E+03  0.97692390712E+02 0.  0.
          2    1    3    3  502    0 -0.18282739909E+02  0.39179972084E+02  0.94007533816E+03  0.94106905708E+03  0.00000000000E+00 0. -1.
         -1    1    3    3    0  502  0.13807358785E+02  0.89182927469E+02  0.66564049600E+03  0.67173023426E+03  0.00000000000E+00 0.  1.
         13    1    5    5    0    0 -0.80138269742E+02  0.32655858376E+02  0.67012289230E+02  0.10944950558E+03  0.00000000000E+00 0. -1.
        -13    1    5    5    0    0 -0.33341759423E+03 -0.32923219189E+02  0.36939411723E+03  0.49870155840E+03  0.00000000000E+00 0.  1.
          1    1    6    6  503    0  0.35327197384E+03 -0.11804650720E+03  0.34193814545E+03  0.50562610759E+03  0.00000000000E+00 0. -1.
         -1    1    6    6    0  503  0.64759271252E+02 -0.10049031536E+02  0.15122019928E+02  0.67256388058E+02  0.00000000000E+00 0.  1.
<mgrwt>
<rscale>  0 0.14315816E+04</rscale>
<asrwt>0</asrwt>
<pdfrwt beam="1">  1        2 0.39946269E+00 0.14315816E+04</pdfrwt>
<pdfrwt beam="2">  1       -1 0.30357728E-01 0.14315816E+04</pdfrwt>
<totfact> 0.33934975E+01</totfact>
</mgrwt>
</event>
<event>
12    7  0.1698542E-007  0.1167849E+04  0.7818608E-02  0.9141474E-01
         -1   -1    0    0    0  501 -0.00000000000E+00  0.00000000000E+00  0.25882576637E+03  0.25882576637E+03  0.00000000000E+00 0.  1.
          2   -1    0    0  501    0  0.00000000000E+00 -0.00000000000E+00 -0.13173631812E+04  0.13173631812E+04  0.00000000000E+00 0. -1.
         24    2    1    2    0    0 -0.11460480854E+03 -0.18605542089E+03 -0.11404895862E+03  0.26025112496E+03  0.83502103551E+02 0.  0.
        254    2    1    2    0    0  0.11460480854E+03  0.18605542089E+03 -0.94448845618E+03  0.13159378226E+04  0.88987809686E+03 0.  0.
         23    2    4    4    0    0 -0.17944133489E+03  0.45428758475E+03 -0.61198147338E+03  0.78828296003E+03  0.91062061159E+02 0.  0.
         23    2    4    4    0    0  0.29404614343E+03 -0.26823216386E+03 -0.33250698281E+03  0.52765486256E+03  0.97196358854E+02 0.  0.
          2    1    3    3  502    0 -0.49813102499E+02 -0.14400962448E+03 -0.98551117492E+02  0.18147297287E+03  0.00000000000E+00 0. -1.
         -1    1    3    3    0  502 -0.64791706039E+02 -0.42045796416E+02 -0.15497841131E+02  0.78778152094E+02  0.00000000000E+00 0.  1.
         13    1    5    5    0    0 -0.24621538958E+02  0.90561492446E+02 -0.68254677059E+02  0.11604440975E+03  0.00000000000E+00 0. -1.
        -13    1    5    5    0    0 -0.15481979594E+03  0.36372609231E+03 -0.54372679632E+03  0.67223855027E+03  0.00000000000E+00 0.  1.
          2    1    6    6  503    0  0.29878043663E+02 -0.79785816358E+02 -0.70943211861E+02  0.11086664645E+03  0.00000000000E+00 0. -1.
         -2    1    6    6    0  503  0.26416809977E+03 -0.18844634750E+03 -0.26156377094E+03  0.41678821612E+03  0.00000000000E+00 0.  1.
<mgrwt>
<rscale>  0 0.11678485E+04</rscale>
<asrwt>0</asrwt>
<pdfrwt beam="1">  1        2 0.20267125E+00 0.11678485E+04</pdfrwt>
<pdfrwt beam="2">  1       -1 0.39819350E-01 0.11678485E+04</pdfrwt>
<totfact> 0.11170647E+02</totfact>
</mgrwt>
</event>
<event>
12    7  0.1698542E-007  0.1699394E+04  0.7818608E-02  0.8761710E-01
          2   -1    0    0  501    0  0.00000000000E+00  0.00000000000E+00  0.36506993870E+04  0.36506993870E+04  0.00000000000E+00 0. -1.
         -1   -1    0    0    0  501 -0.00000000000E+00 -0.00000000000E+00 -0.19776626155E+03  0.19776626155E+03  0.00000000000E+00 0.  1.
         24    2    1    2    0    0 -0.40403564490E+03 -0.11280722604E+02  0.19942268154E+03  0.45809526322E+03  0.81913412951E+02 0.  0.
        254    2    1    2    0    0  0.40403564490E+03  0.11280722604E+02  0.32535104439E+04  0.33903703853E+04  0.86366028278E+03 0.  0.
         23    2    4    4    0    0  0.41428601537E+03  0.13028288307E+03  0.67660425024E+03  0.80923077261E+03  0.91948897483E+02 0.  0.
         23    2    4    4    0    0 -0.10250370468E+02 -0.11900216047E+03  0.25769061937E+04  0.25811396127E+04  0.87003362518E+02 0.  0.
          2    1    3    3  502    0 -0.24793603613E+03  0.26338000865E+02  0.14568330032E+03  0.28877256153E+03  0.00000000000E+00 0. -1.
         -1    1    3    3    0  502 -0.15609960877E+03 -0.37618723468E+02  0.53739381216E+02  0.16932270169E+03  0.00000000000E+00 0.  1.
         13    1    5    5    0    0  0.39113983432E+03  0.12830965307E+03  0.66761175681E+03  0.78432084946E+03  0.00000000000E+00 0. -1.
        -13    1    5    5    0    0  0.23146181044E+02  0.19732300008E+01  0.89924934379E+01  0.24909923159E+02  0.00000000000E+00 0.  1.
          2    1    6    6  503    0 -0.61897241958E+01 -0.13224711297E+03  0.24217864851E+04  0.24254025214E+04  0.00000000000E+00 0. -1.
         -2    1    6    6    0  503 -0.40606462720E+01  0.13244952503E+02  0.15511970859E+03  0.15573709131E+03  0.00000000000E+00 0.  1.
<mgrwt>
<rscale>  0 0.16993942E+04</rscale>
<asrwt>0</asrwt>
<pdfrwt beam="1">  1        2 0.56164601E+00 0.16993942E+04</pdfrwt>
<pdfrwt beam="2">  1       -1 0.30425581E-01 0.16993942E+04</pdfrwt>
<totfact> 0.69240795E+00</totfact>
</mgrwt>
</event>
<event>
12    7  0.1698542E-007  0.1482168E+04  0.7818608E-02  0.8896399E-01
          2   -1    0    0  501    0  0.00000000000E+00  0.00000000000E+00  0.24288384901E+04  0.24288384901E+04  0.00000000000E+00 0. -1.
         -1   -1    0    0    0  501 -0.00000000000E+00 -0.00000000000E+00 -0.22611844502E+03  0.22611844502E+03  0.00000000000E+00 0.  1.
         24    2    1    2    0    0 -0.32355877602E+03 -0.20513856093E+03  0.11779592359E+04  0.12412428499E+04  0.79521948485E+02 0.  0.
        254    2    1    2    0    0  0.32355877602E+03  0.20513856093E+03  0.10247608092E+04  0.14137140852E+04  0.89536623121E+03 0.  0.
         23    2    4    4    0    0  0.27468065359E+03  0.43610460299E+03  0.10349630041E+04  0.11596962291E+04  0.90056858834E+02 0.  0.
         23    2    4    4    0    0  0.48878122437E+02 -0.23096604206E+03 -0.10202194868E+02  0.25401785612E+03  0.93201947457E+02 0.  0.
          2    1    3    3  502    0 -0.26282723527E+03 -0.13103525874E+03  0.93653666887E+03  0.98150360507E+03  0.00000000000E+00 0. -1.
         -1    1    3    3    0  502 -0.60731540748E+02 -0.74103302190E+02  0.24142256704E+03  0.25973924485E+03  0.00000000000E+00 0.  1.
         13    1    5    5    0    0  0.11305757854E+03  0.10899042217E+03  0.27486280028E+03  0.31656040051E+03  0.00000000000E+00 0. -1.
        -13    1    5    5    0    0  0.16162307504E+03  0.32711418082E+03  0.76010020378E+03  0.84313582860E+03  0.00000000000E+00 0.  1.
          4    1    6    6  503    0  0.68046236785E+01  0.60329901257E+01  0.86829405402E+01  0.12573516998E+02  0.00000000000E+00 0. -1.
         -4    1    6    6    0  503  0.42073498758E+02 -0.23699903219E+03 -0.18885135408E+02  0.24144433912E+03  0.00000000000E+00 0.  1.
<mgrwt>
<rscale>  0 0.14821676E+04</rscale>
<asrwt>0</asrwt>
<pdfrwt beam="1">  1        2 0.37366744E+00 0.14821676E+04</pdfrwt>
<pdfrwt beam="2">  1       -1 0.34787455E-01 0.14821676E+04</pdfrwt>
<totfact> 0.33159662E+01</totfact>
</mgrwt>
</event>
<event>
12    7  0.1698542E-007  0.2739493E+04  0.7818608E-02  0.8322303E-01
          2   -1    0    0  501    0  0.00000000000E+00  0.00000000000E+00  0.22611674743E+04  0.22611674743E+04  0.00000000000E+00 0. -1.
         -1   -1    0    0    0  501 -0.00000000000E+00 -0.00000000000E+00 -0.82975094865E+03  0.82975094865E+03  0.00000000000E+00 0.  1.
         24    2    1    2    0    0  0.12586817736E+03 -0.10903297514E+04  0.12388580194E+04  0.16569897995E+04  0.78639929981E+02 0.  0.
        254    2    1    2    0    0 -0.12586817736E+03  0.10903297514E+04  0.19255850628E+03  0.14339286235E+04  0.90244709207E+03 0.  0.
         23    2    4    4    0    0 -0.47942296943E+03  0.37118678370E+03  0.53516493229E+02  0.61539170112E+03  0.90647221398E+02 0.  0.
         23    2    4    4    0    0  0.35355479207E+03  0.71914296771E+03  0.13904201305E+03  0.81853692235E+03  0.92208529170E+02 0.  0.
          4    1    3    3  502    0  0.75144664468E+02 -0.64868317621E+03  0.79461722280E+03  0.10285198659E+04  0.00000000000E+00 0. -1.
         -3    1    3    3    0  502  0.50723512891E+02 -0.44164657520E+03  0.44424079657E+03  0.62846993363E+03  0.00000000000E+00 0.  1.
         13    1    5    5    0    0 -0.45506293353E+03  0.37265459460E+03  0.46574898982E+02  0.59001944169E+03  0.00000000000E+00 0. -1.
        -13    1    5    5    0    0 -0.24360035902E+02 -0.14678109067E+01  0.69415942470E+01  0.25372259432E+02  0.00000000000E+00 0.  1.
          2    1    6    6  503    0  0.34554332507E+03  0.68426369653E+03  0.11431699294E+03  0.77503894790E+03  0.00000000000E+00 0. -1.
         -2    1    6    6    0  503  0.80114670016E+01  0.34879271181E+02  0.24725020111E+02  0.43497974448E+02  0.00000000000E+00 0.  1.
<mgrwt>
<rscale>  0 0.27394933E+04</rscale>
<asrwt>0</asrwt>
<pdfrwt beam="1">  1        2 0.34787192E+00 0.27394933E+04</pdfrwt>
<pdfrwt beam="2">  1       -1 0.12765399E+00 0.27394933E+04</pdfrwt>
<totfact> 0.25179587E+00</totfact>
</mgrwt>
</event>
<event>
12    7  0.1698542E-007  0.1866230E+04  0.7818608E-02  0.8671851E-01
          2   -1    0    0  501    0  0.00000000000E+00  0.00000000000E+00  0.12683545283E+04  0.12683545283E+04  0.00000000000E+00 0. -1.
         -1   -1    0    0    0  501 -0.00000000000E+00 -0.00000000000E+00 -0.68648256840E+03  0.68648256840E+03  0.00000000000E+00 0.  1.
         24    2    1    2    0    0  0.70713880848E+03  0.30259531660E+02  0.14633304691E+03  0.72738810690E+03  0.81970505263E+02 0.  0.
        254    2    1    2    0    0 -0.70713880848E+03 -0.30259531660E+02  0.43553891297E+03  0.12274489898E+04  0.90331386798E+03 0.  0.
         23    2    4    4    0    0 -0.68945442280E+03 -0.11926006970E+03  0.66184382537E+03  0.96705237260E+03  0.87078566984E+02 0.  0.
         23    2    4    4    0    0 -0.17684385674E+02  0.89000538042E+02 -0.22630491240E+03  0.26039661717E+03  0.91425661544E+02 0.  0.
          2    1    3    3  502    0  0.23007413233E+03  0.13095372838E+02  0.88701010636E+01  0.23061715862E+03  0.00000000000E+00 0. -1.
         -1    1    3    3    0  502  0.47706467614E+03  0.17164158822E+02  0.13746294585E+03  0.49677094828E+03  0.00000000000E+00 0.  1.
         13    1    5    5    0    0 -0.35636507035E+03 -0.49027653771E+02  0.28271400393E+03  0.45752265760E+03  0.00000000000E+00 0.  1.
        -13    1    5    5    0    0 -0.33308935246E+03 -0.70232415931E+02  0.37912982144E+03  0.50952971501E+03  0.00000000000E+00 0. -1.
          2    1    6    6  503    0 -0.45017338267E+02  0.24183449274E+02 -0.54307123743E+02  0.74569857534E+02  0.00000000000E+00 0. -1.
         -2    1    6    6    0  503  0.27332952592E+02  0.64817088768E+02 -0.17199778866E+03  0.18582675964E+03  0.00000000000E+00 0.  1.
<mgrwt>
<rscale>  0 0.18662296E+04</rscale>
<asrwt>0</asrwt>
<pdfrwt beam="1">  1        2 0.19513147E+00 0.18662296E+04</pdfrwt>
<pdfrwt beam="2">  1       -1 0.10561270E+00 0.18662296E+04</pdfrwt>
<totfact> 0.15514203E+01</totfact>
</mgrwt>
</event>
<event>
12    7  0.1698542E-007  0.1533668E+04  0.7818608E-02  0.8862367E-01
          2   -1    0    0  501    0  0.00000000000E+00  0.00000000000E+00  0.99496283959E+03  0.99496283959E+03  0.00000000000E+00 0. -1.
         -1   -1    0    0    0  501 -0.00000000000E+00 -0.00000000000E+00 -0.59101173847E+03  0.59101173847E+03  0.00000000000E+00 0.  1.
         24    2    1    2    0    0 -0.31933311388E+03 -0.10535957124E+03  0.48060461388E+03  0.59192922807E+03  0.79530744272E+02 0.  0.
        254    2    1    2    0    0  0.31933311388E+03  0.10535957124E+03 -0.76653512765E+02  0.99404534998E+03  0.93229615462E+03 0.  0.
         23    2    4    4    0    0  0.30306670888E+03  0.30964908725E+03 -0.40238896198E+03  0.59838606543E+03  0.91744314871E+02 0.  0.
         23    2    4    4    0    0  0.16266405000E+02 -0.20428951601E+03  0.32573544921E+03  0.39565928455E+03  0.91890610476E+02 0.  0.
          4    1    3    3  502    0 -0.29331875367E+03 -0.94295287992E+02  0.39001037866E+03  0.49702674782E+03  0.00000000000E+00 0. -1.
         -3    1    3    3    0  502 -0.26014360217E+02 -0.11064283249E+02  0.90594235226E+02  0.94902480249E+02  0.00000000000E+00 0.  1.
         13    1    5    5    0    0  0.15335402677E+03  0.16540012498E+03 -0.14766582130E+03  0.26959201333E+03  0.00000000000E+00 0. -1.
        -13    1    5    5    0    0  0.14971268211E+03  0.14424896228E+03 -0.25472314068E+03  0.32879405210E+03  0.00000000000E+00 0.  1.
          4    1    6    6  503    0 -0.27498968272E+01 -0.96365043385E+02  0.75401365061E+02  0.12238933521E+03  0.00000000000E+00 0. -1.
         -4    1    6    6    0  503  0.19016301828E+02 -0.10792447263E+03  0.25033408415E+03  0.27326994934E+03  0.00000000000E+00 0.  1.
<mgrwt>
<rscale>  0 0.15336684E+04</rscale>
<asrwt>0</asrwt>
<pdfrwt beam="1">  1        2 0.15307121E+00 0.15336684E+04</pdfrwt>
<pdfrwt beam="2">  1       -1 0.90924883E-01 0.15336684E+04</pdfrwt>
<totfact> 0.32960959E+01</totfact>
</mgrwt>
</event>
<event>
12    7  0.1698542E-007  0.1848118E+04  0.7818608E-02  0.8681121E-01
         -1   -1    0    0    0  501 -0.00000000000E+00  0.00000000000E+00  0.10874470330E+04  0.10874470330E+04  0.00000000000E+00 0.  1.
          2   -1    0    0  501    0  0.00000000000E+00 -0.00000000000E+00 -0.78521982049E+03  0.78521982049E+03  0.00000000000E+00 0. -1.
         24    2    1    2    0    0 -0.54880697632E+03 -0.40838698027E+03 -0.42132665458E+02  0.69004540913E+03  0.80115430841E+02 0.  0.
        254    2    1    2    0    0  0.54880697632E+03  0.40838698027E+03  0.34435987797E+03  0.11826214444E+04  0.90113302690E+03 0.  0.
         23    2    4    4    0    0  0.37403829480E+03 -0.23903574801E+03  0.15186278766E+03  0.47874225292E+03  0.95336790667E+02 0.  0.
         23    2    4    4    0    0  0.17476868151E+03  0.64742272828E+03  0.19249709031E+03  0.70387919143E+03  0.93222879292E+02 0.  0.
          2    1    3    3  502    0 -0.52113188127E+03 -0.37445891955E+03 -0.22628088456E+02  0.64211365855E+03  0.00000000000E+00 0. -1.
         -1    1    3    3    0  502 -0.27675095045E+02 -0.33928060721E+02 -0.19504577002E+02  0.47931750584E+02  0.00000000000E+00 0.  1.
         13    1    5    5    0    0  0.16826432354E+03 -0.59465248801E+02  0.35920941335E+02  0.18204206222E+03  0.00000000000E+00 0. -1.
        -13    1    5    5    0    0  0.20577397127E+03 -0.17957049920E+03  0.11594184633E+03  0.29670019071E+03  0.00000000000E+00 0.  1.
          4    1    6    6  503    0  0.61261155893E+02  0.38664867563E+03  0.91044435434E+02  0.40191941582E+03  0.00000000000E+00 0. -1.
         -4    1    6    6    0  503  0.11350752562E+03  0.26077405264E+03  0.10145265488E+03  0.30195977561E+03  0.00000000000E+00 0.  1.
<mgrwt>
<rscale>  0 0.18481179E+04</rscale>
<asrwt>0</asrwt>
<pdfrwt beam="1">  1        2 0.12080305E+00 0.18481179E+04</pdfrwt>
<pdfrwt beam="2">  1       -1 0.16729954E+00 0.18481179E+04</pdfrwt>
<totfact> 0.97654625E+00</totfact>
</mgrwt>
</event>
<event>
12    7  0.1698542E-007  0.1773602E+04  0.7818608E-02  0.8720465E-01
         -1   -1    0    0    0  501 -0.00000000000E+00  0.00000000000E+00  0.42035673708E+03  0.42035673708E+03  0.00000000000E+00 0.  1.
          2   -1    0    0  501    0  0.00000000000E+00 -0.00000000000E+00 -0.18708306614E+04  0.18708306614E+04  0.00000000000E+00 0. -1.
         24    2    1    2    0    0 -0.51663411963E+02 -0.17043819151E+03  0.27577406287E+03  0.33768722594E+03  0.79139393162E+02 0.  0.
        254    2    1    2    0    0  0.51663411963E+02  0.17043819151E+03 -0.17262479872E+04  0.19535001726E+04  0.89694622224E+03 0.  0.
         23    2    4    4    0    0 -0.12427384865E+03 -0.22808464745E+03 -0.14649551192E+03  0.31233873759E+03  0.92886791994E+02 0.  0.
         23    2    4    4    0    0  0.17593726062E+03  0.39852283896E+03 -0.15797524753E+04  0.16411614350E+04  0.89546633614E+02 0.  0.
          4    1    3    3  502    0 -0.14584557104E+02  0.37460553534E+00  0.50476752466E+01  0.15437896898E+02  0.00000000000E+00 0. -1.
         -3    1    3    3    0  502 -0.37078854859E+02 -0.17081279705E+03  0.27072638762E+03  0.32224932904E+03  0.00000000000E+00 0.  1.
         13    1    5    5    0    0 -0.13163249346E+03 -0.22503959593E+03 -0.12443359736E+03  0.28888345959E+03  0.00000000000E+00 0.  1.
        -13    1    5    5    0    0  0.73586448059E+01 -0.30450515172E+01 -0.22061914564E+02  0.23455278006E+02  0.00000000000E+00 0. -1.
          1    1    6    6  503    0  0.76518518435E+02  0.22633574053E+03 -0.71562879183E+03  0.75445842748E+03  0.00000000000E+00 0. -1.
         -1    1    6    6    0  503  0.99418742181E+02  0.17218709843E+03 -0.86412368349E+03  0.88670300751E+03  0.00000000000E+00 0.  1.
<mgrwt>
<rscale>  0 0.17736023E+04</rscale>
<asrwt>0</asrwt>
<pdfrwt beam="1">  1        2 0.28782010E+00 0.17736023E+04</pdfrwt>
<pdfrwt beam="2">  1       -1 0.64670269E-01 0.17736023E+04</pdfrwt>
<totfact> 0.20589659E+01</totfact>
</mgrwt>
</event>
<event>
12    7  0.1698542E-007  0.1865987E+04  0.7818608E-02  0.8671975E-01
         -1   -1    0    0    0  501 -0.00000000000E+00  0.00000000000E+00  0.68252507866E+03  0.68252507866E+03  0.00000000000E+00 0.  1.
          2   -1    0    0  501    0  0.00000000000E+00 -0.00000000000E+00 -0.12753769465E+04  0.12753769465E+04  0.00000000000E+00 0. -1.
         24    2    1    2    0    0  0.69653817036E+03  0.59499165640E+02 -0.22658256307E+03  0.73918124989E+03  0.79647277572E+02 0.  0.
        254    2    1    2    0    0 -0.69653817036E+03 -0.59499165640E+02 -0.36626930478E+03  0.12187207753E+04  0.92866654458E+03 0.  0.
         23    2    4    4    0    0 -0.38760677208E+03  0.74606809780E+02 -0.65241092164E+03  0.76803560882E+03  0.91834089049E+02 0.  0.
         23    2    4    4    0    0 -0.30893139828E+03 -0.13410597542E+03  0.28614161686E+03  0.45068516647E+03  0.88414212022E+02 0.  0.
          2    1    3    3  502    0  0.25445347564E+03  0.21265392491E+02 -0.12345851194E+03  0.28362086022E+03  0.00000000000E+00 0. -1.
         -1    1    3    3    0  502  0.44208469472E+03  0.38233773148E+02 -0.10312405114E+03  0.45556038967E+03  0.00000000000E+00 0.  1.
         13    1    5    5    0    0 -0.21500596439E+03 -0.29657603320E+01 -0.31993238995E+03  0.38547774852E+03  0.00000000000E+00 0. -1.
        -13    1    5    5    0    0 -0.17260080768E+03  0.77572570112E+02 -0.33247853168E+03  0.38255786030E+03  0.00000000000E+00 0.  1.
          1    1    6    6  503    0 -0.16467578675E+03 -0.45521833657E+02  0.19190530668E+03  0.25693967933E+03  0.00000000000E+00 0. -1.
         -1    1    6    6    0  503 -0.14425561154E+03 -0.88584141763E+02  0.94236310178E+02  0.19374548714E+03  0.00000000000E+00 0.  1.
<mgrwt>
<rscale>  0 0.18659869E+04</rscale>
<asrwt>0</asrwt>
<pdfrwt beam="1">  1        2 0.19621183E+00 0.18659869E+04</pdfrwt>
<pdfrwt beam="2">  1       -1 0.10500386E+00 0.18659869E+04</pdfrwt>
<totfact> 0.15576367E+01</totfact>
</mgrwt>
</event>
<event>
12    7  0.1698542E-007  0.1261741E+04  0.7818608E-02  0.9060468E-01
          2   -1    0    0  501    0  0.00000000000E+00  0.00000000000E+00  0.25368441821E+04  0.25368441821E+04  0.00000000000E+00 0. -1.
         -1   -1    0    0    0  501 -0.00000000000E+00 -0.00000000000E+00 -0.15688677068E+03  0.15688677068E+03  0.00000000000E+00 0.  1.
         24    2    1    2    0    0  0.16367783352E+03 -0.12943783724E+03  0.10498977193E+04  0.10731792062E+04  0.76705936381E+02 0.  0.
        254    2    1    2    0    0 -0.16367783352E+03  0.12943783724E+03  0.13300596921E+04  0.16205517466E+04  0.90198924158E+03 0.  0.
         23    2    4    4    0    0  0.23934165114E+03  0.27454011042E+03  0.10116494811E+04  0.10790852754E+04  0.91288886438E+02 0.  0.
         23    2    4    4    0    0 -0.40301948466E+03 -0.14510227318E+03  0.31841021104E+03  0.54146647122E+03  0.91222268448E+02 0.  0.
          4    1    3    3  502    0  0.53963410162E+02 -0.56710503693E+02  0.57763636648E+03  0.58291672025E+03  0.00000000000E+00 0. -1.
         -3    1    3    3    0  502  0.10971442336E+03 -0.72727333543E+02  0.47226135281E+03  0.49026248592E+03  0.00000000000E+00 0.  1.
         13    1    5    5    0    0  0.83336561205E+02  0.51905751498E+02  0.19402116883E+03  0.21744747280E+03  0.00000000000E+00 0.  1.
        -13    1    5    5    0    0  0.15600508994E+03  0.22263435892E+03  0.81762831223E+03  0.86163780257E+03  0.00000000000E+00 0. -1.
          3    1    6    6  503    0 -0.24158720243E+03 -0.92394347551E+02  0.13594042357E+03  0.29220008658E+03  0.00000000000E+00 0. -1.
         -3    1    6    6    0  503 -0.16143228223E+03 -0.52707925630E+02  0.18246978748E+03  0.24926638464E+03  0.00000000000E+00 0.  1.
<mgrwt>
<rscale>  0 0.12617405E+04</rscale>
<asrwt>0</asrwt>
<pdfrwt beam="1">  1        2 0.39028369E+00 0.12617405E+04</pdfrwt>
<pdfrwt beam="2">  1       -1 0.24136428E-01 0.12617405E+04</pdfrwt>
<totfact> 0.55495896E+01</totfact>
</mgrwt>
</event>
<event>
12    7  0.1698542E-007  0.1972960E+04  0.7818608E-02  0.8619368E-01
          2   -1    0    0  501    0  0.00000000000E+00  0.00000000000E+00  0.71910119715E+03  0.71910119715E+03  0.00000000000E+00 0. -1.
         -1   -1    0    0    0  501 -0.00000000000E+00 -0.00000000000E+00 -0.13532767517E+04  0.13532767517E+04  0.00000000000E+00 0.  1.
         24    2    1    2    0    0  0.20789012921E+03 -0.35612868033E+03  0.44343055270E+03  0.60901950073E+03  0.65024260288E+02 0.  0.
        254    2    1    2    0    0 -0.20789012921E+03  0.35612868033E+03 -0.10776061072E+04  0.14633584481E+04  0.90007615373E+03 0.  0.
         23    2    4    4    0    0 -0.74599007573E+02 -0.29530858385E+03 -0.38040868254E+03  0.49562111787E+03  0.90318077385E+02 0.  0.
         23    2    4    4    0    0 -0.13329112164E+03  0.65143726418E+03 -0.69719742471E+03  0.96773733024E+03  0.91072822783E+02 0.  0.
          4    1    3    3  502    0  0.20823570114E+03 -0.34606510624E+03  0.44218287555E+03  0.59887299189E+03  0.00000000000E+00 0. -1.
         -3    1    3    3    0  502 -0.34557193162E+00 -0.10063574087E+02  0.12476771526E+01  0.10146508840E+02  0.00000000000E+00 0.  1.
         13    1    5    5    0    0  0.14936255943E+02 -0.17897192637E+02 -0.48941987903E+02  0.54209956888E+02  0.00000000000E+00 0.  1.
        -13    1    5    5    0    0 -0.89535263516E+02 -0.27741139122E+03 -0.33146669463E+03  0.44141116098E+03  0.00000000000E+00 0. -1.
          3    1    6    6  503    0 -0.11358864642E+03  0.34174189358E+03 -0.39640200161E+03  0.53555993998E+03  0.00000000000E+00 0.  1.
         -3    1    6    6    0  503 -0.19702475217E+02  0.30969537060E+03 -0.30079542310E+03  0.43217739027E+03  0.00000000000E+00 0. -1.
<mgrwt>
<rscale>  0 0.19729601E+04</rscale>
<asrwt>0</asrwt>
<pdfrwt beam="1">  1        2 0.11063095E+00 0.19729601E+04</pdfrwt>
<pdfrwt beam="2">  1       -1 0.20819642E+00 0.19729601E+04</pdfrwt>
<totfact> 0.55640533E+00</totfact>
</mgrwt>
</event>
<event>
12    7  0.1698542E-007  0.1041829E+04  0.7818608E-02  0.9263821E-01
         -1   -1    0    0    0  501 -0.00000000000E+00  0.00000000000E+00  0.90395769349E+02  0.90395769349E+02  0.00000000000E+00 0.  1.
          2   -1    0    0  501    0  0.00000000000E+00 -0.00000000000E+00 -0.30018206860E+04  0.30018206860E+04  0.00000000000E+00 0. -1.
         24    2    1    2    0    0  0.32140620424E+02 -0.51303856324E+02 -0.83406953142E+02  0.13052361614E+03  0.80091131734E+02 0.  0.
        254    2    1    2    0    0 -0.32140620424E+02  0.51303856324E+02 -0.28280179635E+04  0.29616928392E+04  0.87765241795E+03 0.  0.
         23    2    4    4    0    0 -0.30203239873E+03  0.31144768563E+03 -0.10078687779E+04  0.11011282432E+04  0.91982083968E+02 0.  0.
         23    2    4    4    0    0  0.26989177830E+03 -0.26014382930E+03 -0.18201491856E+04  0.18605645960E+04  0.90780912519E+02 0.  0.
          4    1    3    3  502    0  0.43949122440E+01 -0.27297724882E+02 -0.89193389745E+02  0.93380628674E+02  0.00000000000E+00 0. -1.
         -3    1    3    3    0  502  0.27745708180E+02 -0.24006131442E+02  0.57864366029E+01  0.37142987464E+02  0.00000000000E+00 0.  1.
         13    1    5    5    0    0 -0.10435820721E+03  0.83724525882E+02 -0.21957253556E+03  0.25712356956E+03  0.00000000000E+00 0.  1.
        -13    1    5    5    0    0 -0.19767419151E+03  0.22772315975E+03 -0.78829624229E+03  0.84400467362E+03  0.00000000000E+00 0. -1.
          3    1    6    6  503    0  0.68367852937E+02 -0.12591987385E+03 -0.71101158655E+03  0.72530507660E+03  0.00000000000E+00 0. -1.
         -3    1    6    6    0  503  0.20152392536E+03 -0.13422395546E+03 -0.11091375991E+04  0.11352595194E+04  0.00000000000E+00 0.  1.
<mgrwt>
<rscale>  0 0.10418290E+04</rscale>
<asrwt>0</asrwt>
<pdfrwt beam="1">  1        2 0.46181855E+00 0.10418290E+04</pdfrwt>
<pdfrwt beam="2">  1       -1 0.13907042E-01 0.10418290E+04</pdfrwt>
<totfact> 0.74934856E+01</totfact>
</mgrwt>
</event>
<event>
12    7  0.1698542E-007  0.1746007E+04  0.7818608E-02  0.8735551E-01
         -1   -1    0    0    0  501 -0.00000000000E+00  0.00000000000E+00  0.42047541032E+03  0.42047541032E+03  0.00000000000E+00 0.  1.
          2   -1    0    0  501    0  0.00000000000E+00 -0.00000000000E+00 -0.18125564180E+04  0.18125564180E+04  0.00000000000E+00 0. -1.
         24    2    1    2    0    0  0.52441019847E+02  0.79486555092E+02  0.29409489946E+03  0.31908832261E+03  0.79103569667E+02 0.  0.
        254    2    1    2    0    0 -0.52441019847E+02 -0.79486555092E+02 -0.16861759071E+04  0.19139435057E+04  0.90051228769E+03 0.  0.
         23    2    4    4    0    0  0.37794111947E+03 -0.64164872679E+02 -0.11747474017E+04  0.12390576022E+04  0.90970671108E+02 0.  0.
         23    2    4    4    0    0 -0.43038213931E+03 -0.15321682413E+02 -0.51142850545E+03  0.67488590357E+03  0.91914780418E+02 0.  0.
          2    1    3    3  502    0  0.30913287456E+02  0.33259542378E+02  0.41886266355E+02  0.61776110347E+02  0.00000000000E+00 0. -1.
         -1    1    3    3    0  502  0.21527732392E+02  0.46227012714E+02  0.25220863310E+03  0.25731221226E+03  0.00000000000E+00 0.  1.
         13    1    5    5    0    0  0.17231471060E+03 -0.70213741961E+02 -0.62368413410E+03  0.65084885202E+03  0.00000000000E+00 0. -1.
        -13    1    5    5    0    0  0.20562640886E+03  0.60488692816E+01 -0.55106326759E+03  0.58820875013E+03  0.00000000000E+00 0.  1.
          2    1    6    6  503    0 -0.27780692923E+03  0.79758310362E+01 -0.26436314699E+03  0.38357291001E+03  0.00000000000E+00 0. -1.
         -2    1    6    6    0  503 -0.15257521009E+03 -0.23297513449E+02 -0.24706535846E+03  0.29131299356E+03  0.00000000000E+00 0.  1.
<mgrwt>
<rscale>  0 0.17460073E+04</rscale>
<asrwt>0</asrwt>
<pdfrwt beam="1">  1        2 0.27885483E+00 0.17460073E+04</pdfrwt>
<pdfrwt beam="2">  1       -1 0.64688526E-01 0.17460073E+04</pdfrwt>
<totfact> 0.22218872E+01</totfact>
</mgrwt>
</event>
<event>
12    7  0.1698542E-007  0.1808712E+04  0.7818608E-02  0.8701680E-01
          2   -1    0    0  501    0  0.00000000000E+00  0.00000000000E+00  0.31404974188E+04  0.31404974188E+04  0.00000000000E+00 0. -1.
         -1   -1    0    0    0  501 -0.00000000000E+00 -0.00000000000E+00 -0.26042378535E+03  0.26042378535E+03  0.00000000000E+00 0.  1.
         24    2    1    2    0    0  0.49283735020E+03  0.21348170061E+03  0.31098539343E+03  0.62662153979E+03  0.86484385560E+02 0.  0.
        254    2    1    2    0    0 -0.49283735020E+03 -0.21348170061E+03  0.25690882400E+04  0.27742996643E+04  0.89892221712E+03 0.  0.
         23    2    4    4    0    0  0.40375480832E+02 -0.32644243140E+03  0.35448548786E+03  0.49178400960E+03  0.89424328485E+02 0.  0.
         23    2    4    4    0    0 -0.53321283103E+03  0.11296073079E+03  0.22146027521E+04  0.22825156547E+04  0.91303419912E+02 0.  0.
          2    1    3    3  502    0  0.13035939453E+02  0.71787753449E+01 -0.55843889324E+01  0.15895154376E+02  0.00000000000E+00 0. -1.
         -1    1    3    3    0  502  0.47980141075E+03  0.20630292527E+03  0.31656978237E+03  0.61072638541E+03  0.00000000000E+00 0.  1.
         13    1    5    5    0    0 -0.92051186867E+01 -0.24580269995E+03  0.26398254527E+03  0.36081918701E+03  0.00000000000E+00 0.  1.
        -13    1    5    5    0    0  0.49580599519E+02 -0.80639731459E+02  0.90502942591E+02  0.13096482259E+03  0.00000000000E+00 0. -1.
          3    1    6    6  503    0 -0.20903282278E+03  0.13028169329E+02  0.98182908048E+03  0.10039187205E+04  0.00000000000E+00 0. -1.
         -3    1    6    6    0  503 -0.32418000825E+03  0.99932561462E+02  0.12327736716E+04  0.12785969342E+04  0.00000000000E+00 0.  1.
<mgrwt>
<rscale>  0 0.18087125E+04</rscale>
<asrwt>0</asrwt>
<pdfrwt beam="1">  1        2 0.48315342E+00 0.18087125E+04</pdfrwt>
<pdfrwt beam="2">  1       -1 0.40065200E-01 0.18087125E+04</pdfrwt>
<totfact> 0.92891931E+00</totfact>
</mgrwt>
</event>
<event>
12    7  0.1698542E-007  0.1621924E+04  0.7818608E-02  0.8807191E-01
          2   -1    0    0  501    0  0.00000000000E+00  0.00000000000E+00  0.15558546163E+04  0.15558546163E+04  0.00000000000E+00 0. -1.
         -1   -1    0    0    0  501 -0.00000000000E+00 -0.00000000000E+00 -0.42269978013E+03  0.42269978013E+03  0.00000000000E+00 0.  1.
         24    2    1    2    0    0 -0.37748901790E+03  0.36188114075E+03  0.20561608412E+03  0.56760625719E+03  0.80268116224E+02 0.  0.
        254    2    1    2    0    0  0.37748901790E+03 -0.36188114075E+03  0.92753875200E+03  0.14109481392E+04  0.92573786591E+03 0.  0.
         23    2    4    4    0    0  0.12048289600E+03  0.10644316669E+03  0.84182942889E+03  0.86214388583E+03  0.93643027355E+02 0.  0.
         23    2    4    4    0    0  0.25700612190E+03 -0.46832430745E+03  0.85709323116E+02  0.54880425337E+03  0.91979436853E+02 0.  0.
          2    1    3    3  502    0 -0.35365007725E+03  0.35503566969E+03  0.20824614600E+03  0.54266487008E+03  0.00000000000E+00 0. -1.
         -1    1    3    3    0  502 -0.23838940652E+02  0.68454710625E+01 -0.26300618853E+01  0.24941387110E+02  0.00000000000E+00 0.  1.
         13    1    5    5    0    0  0.78147548376E+02  0.48103522224E+02  0.25705608412E+03  0.27294471703E+03  0.00000000000E+00 0. -1.
        -13    1    5    5    0    0  0.42335347625E+02  0.58339644471E+02  0.58477334476E+03  0.58919916880E+03  0.00000000000E+00 0.  1.
          1    1    6    6  503    0  0.24700347523E+03 -0.47087206311E+03  0.83377018915E+02  0.53822202099E+03  0.00000000000E+00 0. -1.
         -1    1    6    6    0  503  0.10002646668E+02  0.25477556594E+01  0.23323042014E+01  0.10582232380E+02  0.00000000000E+00 0.  1.
<mgrwt>
<rscale>  0 0.16219240E+04</rscale>
<asrwt>0</asrwt>
<pdfrwt beam="1">  1        2 0.23936225E+00 0.16219240E+04</pdfrwt>
<pdfrwt beam="2">  1       -1 0.65030736E-01 0.16219240E+04</pdfrwt>
<totfact> 0.30872817E+01</totfact>
</mgrwt>
</event>
<event>
12    7  0.1698542E-007  0.1601053E+04  0.7818608E-02  0.8819902E-01
          2   -1    0    0  501    0  0.00000000000E+00  0.00000000000E+00  0.15478488919E+04  0.15478488919E+04  0.00000000000E+00 0. -1.
         -1   -1    0    0    0  501 -0.00000000000E+00 -0.00000000000E+00 -0.41402134275E+03  0.41402134275E+03  0.00000000000E+00 0.  1.
         24    2    1    2    0    0  0.63168973299E+02  0.34890406957E+03 -0.11596721571E+03  0.38365308329E+03  0.89537278550E+02 0.  0.
        254    2    1    2    0    0 -0.63168973299E+02 -0.34890406957E+03  0.12497947648E+04  0.15782171513E+04  0.89613506437E+03 0.  0.
         23    2    4    4    0    0  0.78173574684E+02 -0.32680543539E+03  0.32057250458E+02  0.34882866748E+03  0.87982223031E+02 0.  0.
         23    2    4    4    0    0 -0.14134254798E+03 -0.22098634181E+02  0.12177375144E+04  0.12293884839E+04  0.89695734576E+02 0.  0.
          2    1    3    3  502    0 -0.14376253774E+02  0.20003644990E+02  0.42299877629E+01  0.24994304990E+02  0.00000000000E+00 0. -1.
         -1    1    3    3    0  502  0.77545227073E+02  0.32890042458E+03 -0.12019720348E+03  0.35865877830E+03  0.00000000000E+00 0.  1.
         13    1    5    5    0    0  0.24248848511E+02 -0.24583837507E+02  0.23398866047E+02  0.41711852668E+02  0.00000000000E+00 0. -1.
        -13    1    5    5    0    0  0.53924726173E+02 -0.30222159788E+03  0.86583844105E+01  0.30711681481E+03  0.00000000000E+00 0.  1.
          1    1    6    6  503    0  0.16153165483E+01 -0.23659280926E+02  0.25397234508E+03  0.25507709205E+03  0.00000000000E+00 0. -1.
         -1    1    6    6    0  503 -0.14295786453E+03  0.15606467453E+01  0.96376516931E+03  0.97431139181E+03  0.00000000000E+00 0.  1.
<mgrwt>
<rscale>  0 0.16010527E+04</rscale>
<asrwt>0</asrwt>
<pdfrwt beam="1">  1        2 0.23813060E+00 0.16010527E+04</pdfrwt>
<pdfrwt beam="2">  1       -1 0.63695592E-01 0.16010527E+04</pdfrwt>
<totfact> 0.32578529E+01</totfact>
</mgrwt>
</event>
<event>
12    7  0.1698542E-007  0.1302424E+04  0.7818608E-02  0.9027645E-01
          2   -1    0    0  501    0  0.00000000000E+00  0.00000000000E+00  0.20175567351E+04  0.20175567351E+04  0.00000000000E+00 0. -1.
         -1   -1    0    0    0  501 -0.00000000000E+00 -0.00000000000E+00 -0.21019343642E+03  0.21019343642E+03  0.00000000000E+00 0.  1.
         24    2    1    2    0    0  0.51334545427E+02 -0.32892241201E+03  0.40843686458E+03  0.53282832261E+03  0.79121175142E+02 0.  0.
        254    2    1    2    0    0 -0.51334545427E+02  0.32892241201E+03  0.13989264341E+04  0.16949218489E+04  0.89718432731E+03 0.  0.
         23    2    4    4    0    0 -0.32913914998E+03  0.13651225214E+03  0.14943648144E+03  0.39726290968E+03  0.92295083210E+02 0.  0.
         23    2    4    4    0    0  0.27780460456E+03  0.19241015987E+03  0.12494899526E+04  0.12976589392E+04  0.92176530720E+02 0.  0.
          4    1    3    3  502    0  0.60807374391E+02 -0.24243715400E+03  0.25918509870E+03  0.36006975131E+03  0.00000000000E+00 0. -1.
         -3    1    3    3    0  502 -0.94728289639E+01 -0.86485258013E+02  0.14925176587E+03  0.17275857130E+03  0.00000000000E+00 0.  1.
         13    1    5    5    0    0 -0.30299868440E+02 -0.14092204127E+02  0.14887885722E+02  0.36583075129E+02  0.00000000000E+00 0. -1.
        -13    1    5    5    0    0 -0.29883928154E+03  0.15060445627E+03  0.13454859572E+03  0.36067983455E+03  0.00000000000E+00 0.  1.
          3    1    6    6  503    0  0.53430067108E+02  0.49764577746E+02  0.42888222676E+03  0.43505315733E+03  0.00000000000E+00 0. -1.
         -3    1    6    6    0  503  0.22437453745E+03  0.14264558212E+03  0.82060772586E+03  0.86260578186E+03  0.00000000000E+00 0.  1.
<mgrwt>
<rscale>  0 0.13024242E+04</rscale>
<asrwt>0</asrwt>
<pdfrwt beam="1">  1        2 0.31039333E+00 0.13024242E+04</pdfrwt>
<pdfrwt beam="2">  1       -1 0.32337453E-01 0.13024242E+04</pdfrwt>
<totfact> 0.65238401E+01</totfact>
</mgrwt>
</event>
<event>
12    7  0.1698542E-007  0.1935415E+04  0.7818608E-02  0.8637426E-01
          2   -1    0    0  501    0  0.00000000000E+00  0.00000000000E+00  0.83578892437E+03  0.83578892437E+03  0.00000000000E+00 0. -1.
         -3   -1    0    0    0  501 -0.00000000000E+00 -0.00000000000E+00 -0.11204479424E+04  0.11204479424E+04  0.00000000000E+00 0.  1.
         24    2    1    2    0    0  0.57797679918E+03 -0.37773320409E+03 -0.41431352508E+03  0.80932043546E+03  0.81266944834E+02 0.  0.
        254    2    1    2    0    0 -0.57797679918E+03  0.37773320409E+03  0.12965450706E+03  0.11469164313E+04  0.90656905711E+03 0.  0.
         23    2    4    4    0    0  0.18477693518E+03  0.30225362715E+03  0.84721302106E+02  0.37419543064E+03  0.85701519139E+02 0.  0.
         23    2    4    4    0    0 -0.76275373437E+03  0.75479576937E+02  0.44933204959E+02  0.77272100066E+03  0.87110998863E+02 0.  0.
          4    1    3    3  502    0  0.92041502354E+02 -0.96259882815E+02 -0.91405442090E+02  0.16153191028E+03  0.00000000000E+00 0. -1.
         -3    1    3    3    0  502  0.48593529683E+03 -0.28147332127E+03 -0.32290808299E+03  0.64778852518E+03  0.00000000000E+00 0.  1.
         13    1    5    5    0    0  0.94264387917E+02  0.13895888247E+03  0.83406513182E+02  0.18748864576E+03  0.00000000000E+00 0. -1.
        -13    1    5    5    0    0  0.90512547265E+02  0.16329474468E+03  0.13147889233E+01  0.18670678488E+03  0.00000000000E+00 0.  1.
          2    1    6    6  503    0 -0.26631438062E+03  0.66664971989E+02  0.46337357143E+01  0.27457064541E+03  0.00000000000E+00 0. -1.
         -2    1    6    6    0  503 -0.49643935375E+03  0.88146049477E+01  0.40299469245E+02  0.49815035524E+03  0.00000000000E+00 0.  1.
<mgrwt>
<rscale>  0 0.19354152E+04</rscale>
<asrwt>0</asrwt>
<pdfrwt beam="1">  1        2 0.12858291E+00 0.19354152E+04</pdfrwt>
<pdfrwt beam="2">  1       -3 0.17237661E+00 0.19354152E+04</pdfrwt>
<totfact> 0.42524629E+00</totfact>
</mgrwt>
</event>
<event>
12    7  0.1698542E-007  0.2288966E+04  0.7818608E-02  0.8482284E-01
         -1   -1    0    0    0  501 -0.00000000000E+00  0.00000000000E+00  0.11833233439E+04  0.11833233439E+04  0.00000000000E+00 0.  1.
          2   -1    0    0  501    0  0.00000000000E+00 -0.00000000000E+00 -0.11069178858E+04  0.11069178858E+04  0.00000000000E+00 0. -1.
         24    2    1    2    0    0 -0.54423938273E+03  0.70475086091E+02  0.85333374724E+03  0.10177025921E+04  0.79855107750E+02 0.  0.
        254    2    1    2    0    0  0.54423938273E+03 -0.70475086091E+02 -0.77692828907E+03  0.12725386376E+04  0.84532465621E+03 0.  0.
         23    2    4    4    0    0  0.65270474942E+03 -0.25352101361E+03 -0.35042936365E+03  0.78869107842E+03  0.94532978510E+02 0.  0.
         23    2    4    4    0    0 -0.10846536669E+03  0.18304592752E+03 -0.42649892542E+03  0.48384755919E+03  0.83286132064E+02 0.  0.
          2    1    3    3  502    0 -0.65705419716E+02 -0.15757713107E+02  0.12236942793E+03  0.13978477956E+03  0.00000000000E+00 0. -1.
         -1    1    3    3    0  502 -0.47853396301E+03  0.86232799198E+02  0.73096431931E+03  0.87791781250E+03  0.00000000000E+00 0.  1.
         13    1    5    5    0    0  0.42268727037E+03 -0.18106782368E+03 -0.18203026166E+03  0.49455545843E+03  0.00000000000E+00 0.  1.
        -13    1    5    5    0    0  0.23001747905E+03 -0.72453189933E+02 -0.16839910199E+03  0.29413562000E+03  0.00000000000E+00 0. -1.
          1    1    6    6  503    0 -0.49321249069E+01 -0.83950014096E+00 -0.65516732746E+02  0.65707479683E+02  0.00000000000E+00 0. -1.
         -1    1    6    6    0  503 -0.10353324178E+03  0.18388542766E+03 -0.36098219268E+03  0.41814007951E+03  0.00000000000E+00 0.  1.
<mgrwt>
<rscale>  0 0.22889664E+04</rscale>
<asrwt>0</asrwt>
<pdfrwt beam="1">  1        2 0.17029506E+00 0.22889664E+04</pdfrwt>
<pdfrwt beam="2">  1       -1 0.18204974E+00 0.22889664E+04</pdfrwt>
<totfact> 0.44902464E+00</totfact>
</mgrwt>
</event>
<event>
12    7  0.1698542E-007  0.1499997E+04  0.7818608E-02  0.8884455E-01
         -1   -1    0    0    0  501 -0.00000000000E+00  0.00000000000E+00  0.30422689673E+03  0.30422689673E+03  0.00000000000E+00 0.  1.
          2   -1    0    0  501    0  0.00000000000E+00 -0.00000000000E+00 -0.18489422360E+04  0.18489422360E+04  0.00000000000E+00 0. -1.
         24    2    1    2    0    0  0.40739192315E+03  0.23873842740E+03 -0.43245587649E+03  0.64597547862E+03  0.85451846704E+02 0.  0.
        254    2    1    2    0    0 -0.40739192315E+03 -0.23873842740E+03 -0.11122594628E+04  0.15071936541E+04  0.90085924688E+03 0.  0.
         23    2    4    4    0    0 -0.36755236981E+03  0.29027355505E+03 -0.56631336452E+03  0.74059365542E+03  0.91731424766E+02 0.  0.
         23    2    4    4    0    0 -0.39839553336E+02 -0.52901198246E+03 -0.54594609830E+03  0.76659999872E+03  0.90429797101E+02 0.  0.
          2    1    3    3  502    0  0.99334725639E+02  0.59241982843E+02 -0.15915149124E+03  0.19673890671E+03  0.00000000000E+00 0. -1.
         -1    1    3    3    0  502  0.30805719751E+03  0.17949644456E+03 -0.27330438524E+03  0.44923657191E+03  0.00000000000E+00 0.  1.
         13    1    5    5    0    0 -0.28008934682E+03  0.17052533289E+03 -0.41220173614E+03  0.52672497817E+03  0.00000000000E+00 0.  1.
        -13    1    5    5    0    0 -0.87463022996E+02  0.11974822216E+03 -0.15411162839E+03  0.21386867724E+03  0.00000000000E+00 0. -1.
          2    1    6    6  503    0 -0.64854772090E+02 -0.38361487084E+03 -0.36897768687E+03  0.53620056323E+03  0.00000000000E+00 0.  1.
         -2    1    6    6    0  503  0.25015218754E+02 -0.14539711161E+03 -0.17696841143E+03  0.23039943550E+03  0.00000000000E+00 0. -1.
<mgrwt>
<rscale>  0 0.14999973E+04</rscale>
<asrwt>0</asrwt>
<pdfrwt beam="1">  1        2 0.28445265E+00 0.14999973E+04</pdfrwt>
<pdfrwt beam="2">  1       -1 0.46804138E-01 0.14999973E+04</pdfrwt>
<totfact> 0.40587435E+01</totfact>
</mgrwt>
</event>
<event>
12    7  0.1698542E-007  0.1744350E+04  0.7818608E-02  0.8736466E-01
         -1   -1    0    0    0  501 -0.00000000000E+00  0.00000000000E+00  0.47951188806E+03  0.47951188806E+03  0.00000000000E+00 0.  1.
          2   -1    0    0  501    0  0.00000000000E+00 -0.00000000000E+00 -0.15863828514E+04  0.15863828514E+04  0.00000000000E+00 0. -1.
         24    2    1    2    0    0  0.33838628115E+03  0.23420914886E+02  0.16868413803E+03  0.38732672632E+03  0.80708363728E+02 0.  0.
        254    2    1    2    0    0 -0.33838628115E+03 -0.23420914886E+02 -0.12755551014E+04  0.16785680132E+04  0.10370612053E+04 0.  0.
         23    2    4    4    0    0 -0.16628946819E+03 -0.18392143451E+03  0.97870204860E+02  0.28232582453E+03  0.93005445507E+02 0.  0.
         23    2    4    4    0    0 -0.17209681296E+03  0.16050051962E+03 -0.13734253063E+04  0.13962421886E+04  0.88416331342E+02 0.  0.
          4    1    3    3  502    0  0.55229966653E+02  0.25173207609E+01 -0.32787164334E+01  0.55384439166E+02  0.00000000000E+00 0. -1.
         -3    1    3    3    0  502  0.28315631450E+03  0.20903594125E+02  0.17196285447E+03  0.33194228716E+03  0.00000000000E+00 0.  1.
         13    1    5    5    0    0 -0.15112944872E+03 -0.10890179411E+03  0.84838345717E+02  0.20468819198E+03  0.00000000000E+00 0. -1.
        -13    1    5    5    0    0 -0.15160019473E+02 -0.75019640396E+02  0.13031859142E+02  0.77637632552E+02  0.00000000000E+00 0.  1.
          3    1    6    6  503    0 -0.12073166476E+02  0.57363896077E+02 -0.41190976092E+03  0.41606012674E+03  0.00000000000E+00 0. -1.
         -3    1    6    6    0  503 -0.16002364648E+03  0.10313662354E+03 -0.96151554534E+03  0.98018206190E+03  0.00000000000E+00 0.  1.
<mgrwt>
<rscale>  0 0.17443502E+04</rscale>
<asrwt>0</asrwt>
<pdfrwt beam="1">  1        2 0.24405890E+00 0.17443502E+04</pdfrwt>
<pdfrwt beam="2">  1       -1 0.73771060E-01 0.17443502E+04</pdfrwt>
<totfact> 0.22692066E+01</totfact>
</mgrwt>
</event>
<event>
12    7  0.1698542E-007  0.5132691E+04  0.7818608E-02  0.7808358E-01
         -1   -1    0    0    0  501 -0.00000000000E+00  0.00000000000E+00  0.32682571093E+04  0.32682571093E+04  0.00000000000E+00 0.  1.
          2   -1    0    0  501    0  0.00000000000E+00 -0.00000000000E+00 -0.20151807948E+04  0.20151807948E+04  0.00000000000E+00 0. -1.
         24    2    1    2    0    0 -0.72083433277E+03  0.15302641359E+04 -0.12697319639E+04  0.21165771516E+04  0.79806751775E+02 0.  0.
        254    2    1    2    0    0  0.72083433277E+03 -0.15302641359E+04  0.25228082784E+04  0.31668607524E+04  0.89617797032E+03 0.  0.
         23    2    4    4    0    0  0.68362613047E+03 -0.15715094799E+04  0.20114617162E+04  0.26441161717E+04  0.91571622048E+02 0.  0.
         23    2    4    4    0    0  0.37208202296E+02  0.41245343941E+02  0.51134656222E+03  0.52274458074E+03  0.93278943402E+02 0.  0.
          4    1    3    3  502    0 -0.71464351256E+03  0.15116829216E+04 -0.12642423801E+04  0.20962369620E+04  0.00000000000E+00 0. -1.
         -3    1    3    3    0  502 -0.61908202104E+01  0.18581214381E+02 -0.54895838180E+01  0.20340189607E+02  0.00000000000E+00 0.  1.
         13    1    5    5    0    0  0.29355120379E+03 -0.57277043541E+03  0.72756234499E+03  0.97138316166E+03  0.00000000000E+00 0. -1.
        -13    1    5    5    0    0  0.39007492668E+03 -0.99873904448E+03  0.12838993712E+04  0.16727330100E+04  0.00000000000E+00 0.  1.
          1    1    6    6  503    0  0.33365490678E+02 -0.25003016449E+02  0.17316537447E+03  0.17811415922E+03  0.00000000000E+00 0. -1.
         -1    1    6    6    0  503  0.38427116175E+01  0.66248360391E+02  0.33818118776E+03  0.34463042152E+03  0.00000000000E+00 0.  1.
<mgrwt>
<rscale>  0 0.51326909E+04</rscale>
<asrwt>0</asrwt>
<pdfrwt beam="1">  1        2 0.31002781E+00 0.51326909E+04</pdfrwt>
<pdfrwt beam="2">  1       -1 0.50280879E+00 0.51326909E+04</pdfrwt>
<totfact> 0.77403562E-03</totfact>
</mgrwt>
</event>
<event>
12    7  0.1698542E-007  0.2014440E+04  0.7818608E-02  0.8599899E-01
          2   -1    0    0  501    0  0.00000000000E+00  0.00000000000E+00  0.16696877487E+04  0.16696877487E+04  0.00000000000E+00 0. -1.
         -1   -1    0    0    0  501 -0.00000000000E+00 -0.00000000000E+00 -0.60759395317E+03  0.60759395317E+03  0.00000000000E+00 0.  1.
         24    2    1    2    0    0 -0.74043681927E+03  0.27616285691E+03  0.57222613426E+03  0.97899715355E+03  0.80498888615E+02 0.  0.
        254    2    1    2    0    0  0.74043681927E+03 -0.27616285691E+03  0.48986766131E+03  0.12982845484E+04  0.90612352140E+03 0.  0.
         23    2    4    4    0    0  0.94137200156E+03 -0.25794045199E+03  0.37706794950E+03  0.10503632676E+04  0.91478048420E+02 0.  0.
         23    2    4    4    0    0 -0.20093518229E+03 -0.18222404915E+02  0.11279971181E+03  0.24792128073E+03  0.89633603819E+02 0.  0.
          2    1    3    3  502    0 -0.72262274502E+03  0.28115596804E+03  0.55353216378E+03  0.95269626131E+03  0.00000000000E+00 0. -1.
         -1    1    3    3    0  502 -0.17814074250E+02 -0.49931111335E+01  0.18693970480E+02  0.26300892237E+02  0.00000000000E+00 0.  1.
         13    1    5    5    0    0  0.68039558577E+03 -0.19210881652E+03  0.31582797120E+03  0.77433278241E+03  0.00000000000E+00 0. -1.
        -13    1    5    5    0    0  0.26097641578E+03 -0.65831635469E+02  0.61239978302E+02  0.27603048521E+03  0.00000000000E+00 0.  1.
          2    1    6    6  503    0 -0.16424550731E+03  0.65357276355E+01  0.51387277896E+02  0.17222065711E+03  0.00000000000E+00 0. -1.
         -2    1    6    6    0  503 -0.36689674980E+02 -0.24758132551E+02  0.61412433909E+02  0.75700623619E+02  0.00000000000E+00 0.  1.
<mgrwt>
<rscale>  0 0.20144401E+04</rscale>
<asrwt>0</asrwt>
<pdfrwt beam="1">  1        2 0.25687504E+00 0.20144401E+04</pdfrwt>
<pdfrwt beam="2">  1       -1 0.93475993E-01 0.20144401E+04</pdfrwt>
<totfact> 0.11965064E+01</totfact>
</mgrwt>
</event>
<event>
12    7  0.1698542E-007  0.1654909E+04  0.7818608E-02  0.8787508E-01
         -3   -1    0    0    0  501 -0.00000000000E+00  0.00000000000E+00  0.78213167581E+03  0.78213167581E+03  0.00000000000E+00 0.  1.
          2   -1    0    0  501    0  0.00000000000E+00 -0.00000000000E+00 -0.87540372626E+03  0.87540372626E+03  0.00000000000E+00 0. -1.
         24    2    1    2    0    0 -0.19698419630E+03  0.23684093531E+03  0.45948031484E+03  0.55890562297E+03  0.79730379620E+02 0.  0.
        254    2    1    2    0    0  0.19698419630E+03 -0.23684093531E+03 -0.55275236529E+03  0.10986297791E+04  0.89808452385E+03 0.  0.
         23    2    4    4    0    0  0.34790615145E+02  0.33239278799E+03 -0.25166620934E+03  0.42812255353E+03  0.90871819126E+02 0.  0.
         23    2    4    4    0    0  0.16219358115E+03 -0.56923372330E+03 -0.30108615595E+03  0.67050722557E+03  0.92699928410E+02 0.  0.
          4    1    3    3  502    0 -0.13307888282E+03  0.10504986770E+03  0.21363762407E+03  0.27273888277E+03  0.00000000000E+00 0. -1.
         -3    1    3    3    0  502 -0.63905313477E+02  0.13179106760E+03  0.24584269078E+03  0.28616674020E+03  0.00000000000E+00 0.  1.
         13    1    5    5    0    0 -0.92908487232E+01  0.23815112630E+02  0.28243214760E+01  0.25718791795E+02  0.00000000000E+00 0.  1.
        -13    1    5    5    0    0  0.44081463868E+02  0.30857767536E+03 -0.25449053081E+03  0.40240376174E+03  0.00000000000E+00 0. -1.
          1    1    6    6  503    0  0.12002390968E+03 -0.40285568895E+03 -0.16544558884E+03  0.45174183765E+03  0.00000000000E+00 0. -1.
         -1    1    6    6    0  503  0.42169671468E+02 -0.16637803435E+03 -0.13564056712E+03  0.21876538792E+03  0.00000000000E+00 0.  1.
<mgrwt>
<rscale>  0 0.16549090E+04</rscale>
<asrwt>0</asrwt>
<pdfrwt beam="1">  1        2 0.13467750E+00 0.16549090E+04</pdfrwt>
<pdfrwt beam="2">  1       -3 0.12032795E+00 0.16549090E+04</pdfrwt>
<totfact> 0.10331584E+01</totfact>
</mgrwt>
</event>
<event>
12    7  0.1698542E-007  0.1200552E+04  0.7818608E-02  0.9112373E-01
         -1   -1    0    0    0  501 -0.00000000000E+00  0.00000000000E+00  0.48433602981E+03  0.48433602981E+03  0.00000000000E+00 0.  1.
          2   -1    0    0  501    0  0.00000000000E+00 -0.00000000000E+00 -0.74396964313E+03  0.74396964313E+03  0.00000000000E+00 0. -1.
         24    2    1    2    0    0  0.22009353479E+03  0.23300183756E+02 -0.19042835290E+03  0.30259723323E+03  0.79486258883E+02 0.  0.
        254    2    1    2    0    0 -0.22009353479E+03 -0.23300183756E+02 -0.69205260422E+02  0.92570843971E+03  0.89619344154E+03 0.  0.
         23    2    4    4    0    0  0.64055602618E+01  0.26540779295E+03 -0.35398881850E+03  0.45226610877E+03  0.93563998202E+02 0.  0.
         23    2    4    4    0    0 -0.22649909505E+03 -0.28870797671E+03  0.28478355807E+03  0.47344233094E+03  0.91606931538E+02 0.  0.
          2    1    3    3  502    0  0.14393632122E+03  0.15378754435E+02 -0.72255200396E+02  0.16178684940E+03  0.00000000000E+00 0. -1.
         -1    1    3    3    0  502  0.76157213564E+02  0.79214293212E+01 -0.11817315251E+03  0.14081038383E+03  0.00000000000E+00 0.  1.
         13    1    5    5    0    0  0.33470383366E+02  0.67668201524E+02 -0.14382747758E+03  0.16243643485E+03  0.00000000000E+00 0.  1.
        -13    1    5    5    0    0 -0.27064823104E+02  0.19773959143E+03 -0.21016134091E+03  0.28982967391E+03  0.00000000000E+00 0. -1.
          1    1    6    6  503    0 -0.22226762995E+03 -0.27119253439E+03  0.23928723209E+03  0.42450756115E+03  0.00000000000E+00 0. -1.
         -1    1    6    6    0  503 -0.42314651028E+01 -0.17515442315E+02  0.45496325988E+02  0.48934769794E+02  0.00000000000E+00 0.  1.
<mgrwt>
<rscale>  0 0.12005520E+04</rscale>
<asrwt>0</asrwt>
<pdfrwt beam="1">  1        2 0.11445687E+00 0.12005520E+04</pdfrwt>
<pdfrwt beam="2">  1       -1 0.74513235E-01 0.12005520E+04</pdfrwt>
<totfact> 0.77419441E+01</totfact>
</mgrwt>
</event>
<event>
12    7  0.1698542E-007  0.1368187E+04  0.7818608E-02  0.8977174E-01
         -1   -1    0    0    0  501 -0.00000000000E+00  0.00000000000E+00  0.13394463380E+04  0.13394463380E+04  0.00000000000E+00 0.  1.
          2   -1    0    0  501    0  0.00000000000E+00 -0.00000000000E+00 -0.34938598054E+03  0.34938598054E+03  0.00000000000E+00 0. -1.
         24    2    1    2    0    0  0.25571539922E+03 -0.27434222877E+02  0.64212039663E+03  0.69664142494E+03  0.82750644650E+02 0.  0.
        254    2    1    2    0    0 -0.25571539922E+03  0.27434222877E+02  0.34793996085E+03  0.99219089362E+03  0.89288159968E+03 0.  0.
         23    2    4    4    0    0  0.18729726319E+03  0.18199847015E+03  0.42616707206E+03  0.50758185421E+03  0.88415255911E+02 0.  0.
         23    2    4    4    0    0 -0.44301266242E+03 -0.15456424727E+03 -0.78227111210E+02  0.48460903941E+03  0.92607313734E+02 0.  0.
          2    1    3    3  502    0  0.24420554105E+02 -0.94562674830E+01  0.20865257788E+02  0.33483480107E+02  0.00000000000E+00 0. -1.
         -1    1    3    3    0  502  0.23129484512E+03 -0.17977955394E+02  0.62125513885E+03  0.66315794484E+03  0.00000000000E+00 0.  1.
         13    1    5    5    0    0  0.37884628664E+01 -0.40710992194E+01 -0.20420292156E+01  0.59242031583E+01  0.00000000000E+00 0. -1.
        -13    1    5    5    0    0  0.18350880032E+03  0.18606956937E+03  0.42820910128E+03  0.50165765105E+03  0.00000000000E+00 0.  1.
          4    1    6    6  503    0 -0.23915107825E+02 -0.20378369749E+02  0.14953171429E+02  0.34796661790E+02  0.00000000000E+00 0. -1.
         -4    1    6    6    0  503 -0.41909755459E+03 -0.13418587752E+03 -0.93180282639E+02  0.44981237762E+03  0.00000000000E+00 0.  1.
<mgrwt>
<rscale>  0 0.13681868E+04</rscale>
<asrwt>0</asrwt>
<pdfrwt beam="1">  1        2 0.53751690E-01 0.13681868E+04</pdfrwt>
<pdfrwt beam="2">  1       -1 0.20606867E+00 0.13681868E+04</pdfrwt>
<totfact> 0.14139505E+01</totfact>
</mgrwt>
</event>
<event>
12    7  0.1698542E-007  0.1292965E+04  0.7818608E-02  0.9035163E-01
         -1   -1    0    0    0  501 -0.00000000000E+00  0.00000000000E+00  0.41341073835E+03  0.41341073835E+03  0.00000000000E+00 0.  1.
          2   -1    0    0  501    0  0.00000000000E+00 -0.00000000000E+00 -0.10109541517E+04  0.10109541517E+04  0.00000000000E+00 0. -1.
         24    2    1    2    0    0  0.25644551692E+03 -0.19989177999E+03 -0.13624474992E+03  0.36174518868E+03  0.81092063723E+02 0.  0.
        254    2    1    2    0    0 -0.25644551692E+03  0.19989177999E+03 -0.46129866341E+03  0.10626197013E+04  0.90035723242E+03 0.  0.
         23    2    4    4    0    0 -0.56282558515E+03  0.21894791967E+03 -0.41902849777E+03  0.74063704896E+03  0.90815888043E+02 0.  0.
         23    2    4    4    0    0  0.30638006824E+03 -0.19056139685E+02 -0.42270165638E+02  0.32198265239E+03  0.87488164132E+02 0.  0.
          2    1    3    3  502    0  0.11606788669E+02 -0.37699538988E+02 -0.29514210773E+02  0.49265215119E+02  0.00000000000E+00 0. -1.
         -1    1    3    3    0  502  0.24483872825E+03 -0.16219224100E+03 -0.10673053915E+03  0.31247997356E+03  0.00000000000E+00 0.  1.
         13    1    5    5    0    0 -0.35913197183E+03  0.99059292978E+02 -0.22837593242E+03  0.43697149017E+03  0.00000000000E+00 0.  1.
        -13    1    5    5    0    0 -0.20369361332E+03  0.11988862669E+03 -0.19065256536E+03  0.30366555879E+03  0.00000000000E+00 0. -1.
          1    1    6    6  503    0  0.63582485816E+02 -0.39130030641E+02  0.33542007419E+00  0.74659254665E+02  0.00000000000E+00 0. -1.
         -1    1    6    6    0  503  0.24279758242E+03  0.20073890955E+02 -0.42605585712E+02  0.24732339772E+03  0.00000000000E+00 0.  1.
<mgrwt>
<rscale>  0 0.12929645E+04</rscale>
<asrwt>0</asrwt>
<pdfrwt beam="1">  1        2 0.15553141E+00 0.12929645E+04</pdfrwt>
<pdfrwt beam="2">  1       -1 0.63601652E-01 0.12929645E+04</pdfrwt>
<totfact> 0.69517700E+01</totfact>
</mgrwt>
</event>
<event>
12    7  0.1698542E-007  0.1393731E+04  0.7818608E-02  0.8958369E-01
          2   -1    0    0  501    0  0.00000000000E+00  0.00000000000E+00  0.82702231728E+03  0.82702231728E+03  0.00000000000E+00 0. -1.
         -1   -1    0    0    0  501 -0.00000000000E+00 -0.00000000000E+00 -0.58719296832E+03  0.58719296832E+03  0.00000000000E+00 0.  1.
         24    2    1    2    0    0  0.16766744524E+03 -0.20278743529E+03  0.41278807079E+03  0.49596083939E+03  0.79674630311E+02 0.  0.
        254    2    1    2    0    0 -0.16766744524E+03  0.20278743529E+03 -0.17295872183E+03  0.91825444621E+03  0.86257833988E+03 0.  0.
         23    2    4    4    0    0 -0.85690613956E+02  0.45086693203E+03  0.15229573823E+03  0.49208428633E+03  0.91263800369E+02 0.  0.
         23    2    4    4    0    0 -0.81976831286E+02 -0.24807949673E+03 -0.32525446006E+03  0.42617015988E+03  0.86987952135E+02 0.  0.
          2    1    3    3  502    0  0.10732722732E+03 -0.17993098243E+03  0.33182809827E+03  0.39243366186E+03  0.00000000000E+00 0. -1.
         -1    1    3    3    0  502  0.60340217920E+02 -0.22856452866E+02  0.80959972518E+02  0.10352717752E+03  0.00000000000E+00 0.  1.
         13    1    5    5    0    0 -0.38431221421E+02  0.17283889249E+03  0.10579833397E+03  0.20626082762E+03  0.00000000000E+00 0.  1.
        -13    1    5    5    0    0 -0.47259392535E+02  0.27802803953E+03  0.46497404258E+02  0.28582345872E+03  0.00000000000E+00 0. -1.
          1    1    6    6  503    0 -0.44322010528E+02 -0.22541465289E+03 -0.28908343207E+03  0.36924983014E+03  0.00000000000E+00 0. -1.
         -1    1    6    6    0  503 -0.37654820758E+02 -0.22664843841E+02 -0.36171027983E+02  0.56920329742E+02  0.00000000000E+00 0.  1.
<mgrwt>
<rscale>  0 0.13937312E+04</rscale>
<asrwt>0</asrwt>
<pdfrwt beam="1">  1        2 0.12723420E+00 0.13937312E+04</pdfrwt>
<pdfrwt beam="2">  1       -1 0.90337380E-01 0.13937312E+04</pdfrwt>
<totfact> 0.43889245E+01</totfact>
</mgrwt>
</event>
<event>
12    7  0.1698542E-007  0.1255514E+04  0.7818608E-02  0.9065607E-01
         -1   -1    0    0    0  501 -0.00000000000E+00  0.00000000000E+00  0.32578575627E+03  0.32578575627E+03  0.00000000000E+00 0.  1.
          2   -1    0    0  501    0  0.00000000000E+00 -0.00000000000E+00 -0.12096251647E+04  0.12096251647E+04  0.00000000000E+00 0. -1.
         24    2    1    2    0    0  0.13670522501E+03 -0.11253915362E+03  0.61765166772E+02  0.20472522025E+03  0.82122471572E+02 0.  0.
        254    2    1    2    0    0 -0.13670522501E+03  0.11253915362E+03 -0.94560457517E+03  0.13306857007E+04  0.91934924909E+03 0.  0.
         23    2    4    4    0    0  0.17301652060E+02  0.13270925023E+03 -0.10889900411E+04  0.11007836105E+04  0.88961538604E+02 0.  0.
         23    2    4    4    0    0 -0.15400687707E+03 -0.20170096604E+02  0.14338546590E+03  0.22990209019E+03  0.90391527592E+02 0.  0.
          2    1    3    3  502    0  0.83955891734E+01 -0.45283108833E+02  0.33938323182E+02  0.57208877314E+02  0.00000000000E+00 0. -1.
         -1    1    3    3    0  502  0.12830963583E+03 -0.67256044792E+02  0.27826843589E+02  0.14751634294E+03  0.00000000000E+00 0.  1.
         13    1    5    5    0    0 -0.33375303267E+02  0.58244831026E+02 -0.58152594604E+03  0.58538773230E+03  0.00000000000E+00 0. -1.
        -13    1    5    5    0    0  0.50676955326E+02  0.74464419203E+02 -0.50746409503E+03  0.51539587821E+03  0.00000000000E+00 0.  1.
          3    1    6    6  503    0 -0.26183401425E+02 -0.27495250468E+02  0.76608594952E+02  0.85501088467E+02  0.00000000000E+00 0. -1.
         -3    1    6    6    0  503 -0.12782347564E+03  0.73251538641E+01  0.66776870945E+02  0.14440100172E+03  0.00000000000E+00 0.  1.
<mgrwt>
<rscale>  0 0.12555137E+04</rscale>
<asrwt>0</asrwt>
<pdfrwt beam="1">  1        2 0.18609618E+00 0.12555137E+04</pdfrwt>
<pdfrwt beam="2">  1       -1 0.50120886E-01 0.12555137E+04</pdfrwt>
<totfact> 0.83681162E+01</totfact>
</mgrwt>
</event>
<event>
12    7  0.1698542E-007  0.1083185E+04  0.7818608E-02  0.9221738E-01
          2   -1    0    0  501    0  0.00000000000E+00  0.00000000000E+00  0.64846544100E+03  0.64846544100E+03  0.00000000000E+00 0. -1.
         -1   -1    0    0    0  501 -0.00000000000E+00 -0.00000000000E+00 -0.45233278973E+03  0.45233278973E+03  0.00000000000E+00 0.  1.
         24    2    1    2    0    0 -0.52039837281E+02 -0.10099244229E+03 -0.65507565011E+02  0.15336952851E+03  0.79519514193E+02 0.  0.
        254    2    1    2    0    0  0.52039837281E+02  0.10099244229E+03  0.26164021627E+03  0.94742870222E+03  0.90346993583E+03 0.  0.
         23    2    4    4    0    0  0.36672182559E+02  0.75237418950E+02 -0.32848571380E+03  0.35086875795E+03  0.90556628421E+02 0.  0.
         23    2    4    4    0    0  0.15367654722E+02  0.25755023345E+02  0.59012593008E+03  0.59655994426E+03  0.82071113731E+02 0.  0.
          4    1    3    3  502    0 -0.87691346903E+01 -0.56293557587E+02  0.74849137295E+01  0.57462042103E+02  0.00000000000E+00 0. -1.
         -3    1    3    3    0  502 -0.43270702590E+02 -0.44698884707E+02 -0.72992478741E+02  0.95907486410E+02  0.00000000000E+00 0.  1.
         13    1    5    5    0    0  0.14751542019E+02  0.73176363382E+02 -0.31769899059E+03  0.32635109433E+03  0.00000000000E+00 0. -1.
        -13    1    5    5    0    0  0.21920640540E+02  0.20610555673E+01 -0.10786723212E+02  0.24517663620E+02  0.00000000000E+00 0.  1.
          4    1    6    6  503    0  0.30476906362E+02  0.17489449705E+02  0.56503758763E+03  0.56612913554E+03  0.00000000000E+00 0. -1.
         -4    1    6    6    0  503 -0.15109251640E+02  0.82655736403E+01  0.25088342447E+02  0.30430808722E+02  0.00000000000E+00 0.  1.
<mgrwt>
<rscale>  0 0.10831845E+04</rscale>
<asrwt>0</asrwt>
<pdfrwt beam="1">  1        2 0.99763914E-01 0.10831845E+04</pdfrwt>
<pdfrwt beam="2">  1       -1 0.69589660E-01 0.10831845E+04</pdfrwt>
<totfact> 0.10696272E+02</totfact>
</mgrwt>
</event>
<event>
12    7  0.1698542E-007  0.2173016E+04  0.7818608E-02  0.8529744E-01
          2   -1    0    0  501    0  0.00000000000E+00  0.00000000000E+00  0.19933034198E+04  0.19933034198E+04  0.00000000000E+00 0. -1.
         -1   -1    0    0    0  501 -0.00000000000E+00 -0.00000000000E+00 -0.59223284714E+03  0.59223284714E+03  0.00000000000E+00 0.  1.
         24    2    1    2    0    0  0.11477224208E+03  0.79943218739E+03  0.10308090849E+04  0.13120031946E+04  0.80749757852E+02 0.  0.
        254    2    1    2    0    0 -0.11477224208E+03 -0.79943218739E+03  0.37026148783E+03  0.12735330724E+04  0.91242995746E+03 0.  0.
         23    2    4    4    0    0  0.30586945591E+03 -0.56680770444E+03 -0.15071316642E+02  0.65094637698E+03  0.93150111346E+02 0.  0.
         23    2    4    4    0    0 -0.42064169799E+03 -0.23262448295E+03  0.38533280447E+03  0.62258669540E+03  0.89884564437E+02 0.  0.
          4    1    3    3  502    0  0.10650098924E+03  0.79420368962E+03  0.10230640078E+04  0.12995237302E+04  0.00000000000E+00 0. -1.
         -3    1    3    3    0  502  0.82712528395E+01  0.52284977733E+01  0.77450770277E+01  0.12479464358E+02  0.00000000000E+00 0.  1.
         13    1    5    5    0    0  0.31171826680E+03 -0.54711564178E+03 -0.19266168277E+02  0.62998014935E+03  0.00000000000E+00 0.  1.
        -13    1    5    5    0    0 -0.58488108894E+01 -0.19692062663E+02  0.41948516352E+01  0.20966227629E+02  0.00000000000E+00 0. -1.
          4    1    6    6  503    0 -0.11208379016E+03 -0.57635367353E+02  0.15442628722E+03  0.19932909916E+03  0.00000000000E+00 0. -1.
         -4    1    6    6    0  503 -0.30855790783E+03 -0.17498911560E+03  0.23090651725E+03  0.42325759624E+03  0.00000000000E+00 0.  1.
<mgrwt>
<rscale>  0 0.21730161E+04</rscale>
<asrwt>0</asrwt>
<pdfrwt beam="1">  1        2 0.30666206E+00 0.21730161E+04</pdfrwt>
<pdfrwt beam="2">  1       -1 0.91112746E-01 0.21730161E+04</pdfrwt>
<totfact> 0.82596695E+00</totfact>
</mgrwt>
</event>
<event>
12    7  0.1698542E-007  0.1892923E+04  0.7818608E-02  0.8658387E-01
         -1   -1    0    0    0  501 -0.00000000000E+00  0.00000000000E+00  0.38363111152E+03  0.38363111152E+03  0.00000000000E+00 0.  1.
          2   -1    0    0  501    0  0.00000000000E+00 -0.00000000000E+00 -0.23350289359E+04  0.23350289359E+04  0.00000000000E+00 0. -1.
         24    2    1    2    0    0 -0.85752750924E+02  0.29242508902E+02 -0.17962980779E+04  0.18001771259E+04  0.75777577768E+02 0.  0.
        254    2    1    2    0    0  0.85752750924E+02 -0.29242508902E+02 -0.15509974646E+03  0.91848292151E+03  0.90074762677E+03 0.  0.
         23    2    4    4    0    0 -0.33483027622E+03 -0.47197839769E+02 -0.30232791068E+03  0.46283327903E+03  0.92051771543E+02 0.  0.
         23    2    4    4    0    0  0.42058302715E+03  0.17955330867E+02  0.14722816422E+03  0.45564964248E+03  0.93423700003E+02 0.  0.
          4    1    3    3  502    0 -0.50994023612E+02  0.39613433716E+02 -0.15368211950E+04  0.15381771679E+04  0.00000000000E+00 0. -1.
         -3    1    3    3    0  502 -0.34758727312E+02 -0.10370924814E+02 -0.25947688296E+03  0.26199995801E+03  0.00000000000E+00 0.  1.
         13    1    5    5    0    0 -0.30515601933E+03 -0.28019201869E+02 -0.23278693187E+03  0.38483116747E+03  0.00000000000E+00 0. -1.
        -13    1    5    5    0    0 -0.29674256898E+02 -0.19178637900E+02 -0.69540978809E+02  0.78002111561E+02  0.00000000000E+00 0.  1.
          4    1    6    6  503    0  0.17861290241E+03  0.39186452177E+02  0.99240926398E+02  0.20805506102E+03  0.00000000000E+00 0.  1.
         -4    1    6    6    0  503  0.24197012474E+03 -0.21231121310E+02  0.47987237823E+02  0.24759458147E+03  0.00000000000E+00 0. -1.
<mgrwt>
<rscale>  0 0.18929234E+04</rscale>
<asrwt>0</asrwt>
<pdfrwt beam="1">  1        2 0.35923522E+00 0.18929234E+04</pdfrwt>
<pdfrwt beam="2">  1       -1 0.59020171E-01 0.18929234E+04</pdfrwt>
<totfact> 0.13449199E+01</totfact>
</mgrwt>
</event>
<event>
12    7  0.1698542E-007  0.1223094E+04  0.7818608E-02  0.9092879E-01
          2   -1    0    0  501    0  0.00000000000E+00  0.00000000000E+00  0.66500738634E+03  0.66500738634E+03  0.00000000000E+00 0. -1.
         -3   -1    0    0    0  501 -0.00000000000E+00 -0.00000000000E+00 -0.56238411892E+03  0.56238411892E+03  0.00000000000E+00 0.  1.
         24    2    1    2    0    0 -0.75975329814E+02  0.12043986613E+03  0.25141940300E+03  0.30062130441E+03  0.82966501455E+02 0.  0.
        254    2    1    2    0    0  0.75975329814E+02 -0.12043986613E+03 -0.14879613559E+03  0.92677020085E+03  0.90359543111E+03 0.  0.
         23    2    4    4    0    0 -0.34989316440E+03  0.12056526314E+02  0.13981700965E+03  0.38698071937E+03  0.87376739761E+02 0.  0.
         23    2    4    4    0    0  0.42586849422E+03 -0.13249639245E+03 -0.28861314523E+03  0.53978948149E+03  0.95686301752E+02 0.  0.
          4    1    3    3  502    0 -0.70066933994E+02  0.62769264031E+02  0.20770402614E+03  0.22801385532E+03  0.00000000000E+00 0. -1.
         -3    1    3    3    0  502 -0.59083958197E+01  0.57670602101E+02  0.43715376862E+02  0.72607449081E+02  0.00000000000E+00 0.  1.
         13    1    5    5    0    0 -0.22928973683E+03  0.44000651673E+02  0.11294356539E+03  0.25935706994E+03  0.00000000000E+00 0.  1.
        -13    1    5    5    0    0 -0.12060342757E+03 -0.31944125360E+02  0.26873444259E+02  0.12762364943E+03  0.00000000000E+00 0. -1.
          3    1    6    6  503    0  0.69824151009E+02  0.64263215109E+01 -0.20905888266E+02  0.73169432392E+02  0.00000000000E+00 0. -1.
         -3    1    6    6    0  503  0.35604434321E+03 -0.13892271396E+03 -0.26770725697E+03  0.46662004910E+03  0.00000000000E+00 0.  1.
<mgrwt>
<rscale>  0 0.12230938E+04</rscale>
<asrwt>0</asrwt>
<pdfrwt beam="1">  1        2 0.10230883E+00 0.12230938E+04</pdfrwt>
<pdfrwt beam="2">  1       -3 0.86520633E-01 0.12230938E+04</pdfrwt>
<totfact> 0.33191620E+01</totfact>
</mgrwt>
</event>
<event>
12    7  0.1698542E-007  0.1347021E+04  0.7818608E-02  0.8993086E-01
          2   -1    0    0  501    0  0.00000000000E+00  0.00000000000E+00  0.20477272714E+04  0.20477272714E+04  0.00000000000E+00 0. -1.
         -1   -1    0    0    0  501 -0.00000000000E+00 -0.00000000000E+00 -0.22152180202E+03  0.22152180202E+03  0.00000000000E+00 0.  1.
         24    2    1    2    0    0 -0.43345228087E+02 -0.11986362648E+03  0.96870378708E+03  0.98045158193E+03  0.81560895463E+02 0.  0.
        254    2    1    2    0    0  0.43345228087E+02  0.11986362648E+03  0.85750168236E+03  0.12887974915E+04  0.95364759801E+03 0.  0.
         23    2    4    4    0    0 -0.30872553981E+03 -0.21775452416E+03  0.13391655776E+03  0.41127617690E+03  0.92119257015E+02 0.  0.
         23    2    4    4    0    0  0.35207076790E+03  0.33761815064E+03  0.72358512459E+03  0.87752131464E+03  0.92349249342E+02 0.  0.
          4    1    3    3  502    0 -0.57198996006E+02 -0.98576119921E+02  0.90029446022E+03  0.90747952686E+03  0.00000000000E+00 0. -1.
         -3    1    3    3    0  502  0.13853767919E+02 -0.21287506559E+02  0.68409326855E+02  0.72972055075E+02  0.00000000000E+00 0.  1.
         13    1    5    5    0    0 -0.23323468622E+03 -0.11168970386E+03  0.85177111091E+02  0.27226485094E+03  0.00000000000E+00 0.  1.
        -13    1    5    5    0    0 -0.75490853598E+02 -0.10606482030E+03  0.48739446674E+02  0.13901132596E+03  0.00000000000E+00 0. -1.
          3    1    6    6  503    0  0.27492092013E+03  0.28004672976E+03  0.51226482293E+03  0.64530840068E+03  0.00000000000E+00 0. -1.
         -3    1    6    6    0  503  0.77149847770E+02  0.57571420878E+02  0.21132030166E+03  0.23221291395E+03  0.00000000000E+00 0.  1.
<mgrwt>
<rscale>  0 0.13470208E+04</rscale>
<asrwt>0</asrwt>
<pdfrwt beam="1">  1        2 0.31503495E+00 0.13470208E+04</pdfrwt>
<pdfrwt beam="2">  1       -1 0.34080279E-01 0.13470208E+04</pdfrwt>
<totfact> 0.56978101E+01</totfact>
</mgrwt>
</event>
<event>
12    7  0.1698542E-007  0.3077663E+04  0.7818608E-02  0.8221895E-01
         -1   -1    0    0    0  501 -0.00000000000E+00  0.00000000000E+00  0.95346369095E+03  0.95346369095E+03  0.00000000000E+00 0.  1.
          2   -1    0    0  501    0  0.00000000000E+00 -0.00000000000E+00 -0.24835784943E+04  0.24835784943E+04  0.00000000000E+00 0. -1.
         24    2    1    2    0    0 -0.40179951065E+03  0.30324545005E+02  0.80776803943E+03  0.90617105760E+03  0.79336973168E+02 0.  0.
        254    2    1    2    0    0  0.40179951065E+03 -0.30324545005E+02 -0.23378828428E+04  0.25308711277E+04  0.88161786132E+03 0.  0.
         23    2    4    4    0    0  0.39937856763E+03 -0.96014619424E+01 -0.23883981245E+04  0.24232791267E+04  0.90778280227E+02 0.  0.
         23    2    4    4    0    0  0.24209430123E+01 -0.20723083062E+02  0.50515281724E+02  0.10759200099E+03  0.92676522666E+02 0.  0.
          2    1    3    3  502    0 -0.14982057451E+03  0.42720033483E+02  0.35909306723E+03  0.39143203336E+03  0.00000000000E+00 0. -1.
         -1    1    3    3    0  502 -0.25197893614E+03 -0.12395488479E+02  0.44867497220E+03  0.51473902424E+03  0.00000000000E+00 0.  1.
         13    1    5    5    0    0  0.17436332449E+03 -0.92126701337E+01 -0.78608545507E+03  0.80524392881E+03  0.00000000000E+00 0. -1.
        -13    1    5    5    0    0  0.22501524315E+03 -0.38879180867E+00 -0.16023126695E+04  0.16180351979E+04  0.00000000000E+00 0.  1.
          1    1    6    6  503    0  0.66015898399E+01 -0.33940412125E+02 -0.17097464926E+02  0.38572734807E+02  0.00000000000E+00 0. -1.
         -1    1    6    6    0  503 -0.41806468276E+01  0.13217329062E+02  0.67612746649E+02  0.69019266186E+02  0.00000000000E+00 0.  1.
<mgrwt>
<rscale>  0 0.30776627E+04</rscale>
<asrwt>0</asrwt>
<pdfrwt beam="1">  1        2 0.38208900E+00 0.30776627E+04</pdfrwt>
<pdfrwt beam="2">  1       -1 0.14668672E+00 0.30776627E+04</pdfrwt>
<totfact> 0.12741435E+00</totfact>
</mgrwt>
</event>
<event>
12    7  0.1698542E-007  0.1805386E+04  0.7818608E-02  0.8703440E-01
          2   -1    0    0  501    0  0.00000000000E+00  0.00000000000E+00  0.27978615090E+04  0.27978615090E+04  0.00000000000E+00 0. -1.
         -1   -1    0    0    0  501 -0.00000000000E+00 -0.00000000000E+00 -0.29124211183E+03  0.29124211183E+03  0.00000000000E+00 0.  1.
         24    2    1    2    0    0  0.27903858435E+03  0.26372427888E+03  0.18961802335E+04  0.19363558021E+04  0.81001775941E+02 0.  0.
        254    2    1    2    0    0 -0.27903858435E+03 -0.26372427888E+03  0.61043916367E+03  0.11527478187E+04  0.89932115183E+03 0.  0.
         23    2    4    4    0    0  0.20008438752E+03  0.40865200985E+02 -0.94700390209E+02  0.24281711610E+03  0.91039887871E+02 0.  0.
         23    2    4    4    0    0 -0.47912297187E+03 -0.30458947987E+03  0.70513955388E+03  0.90993070259E+03  0.91752491238E+02 0.  0.
          4    1    3    3  502    0  0.27299032912E+03  0.26647150095E+03  0.18018020427E+04  0.18417441140E+04  0.00000000000E+00 0. -1.
         -3    1    3    3    0  502  0.60482552294E+01 -0.27472220692E+01  0.94378190766E+02  0.94611688034E+02  0.00000000000E+00 0.  1.
         13    1    5    5    0    0  0.19028902152E+03  0.47560942403E+02 -0.58438169698E+02  0.20466307589E+03  0.00000000000E+00 0. -1.
        -13    1    5    5    0    0  0.97953660022E+01 -0.66957414176E+01 -0.36262220511E+02  0.38154040214E+02  0.00000000000E+00 0.  1.
          3    1    6    6  503    0 -0.40019821014E+03 -0.29142539670E+03  0.60365420313E+03  0.78069569372E+03  0.00000000000E+00 0. -1.
         -3    1    6    6    0  503 -0.78924761733E+02 -0.13164083169E+02  0.10148535075E+03  0.12923500887E+03  0.00000000000E+00 0.  1.
<mgrwt>
<rscale>  0 0.18053865E+04</rscale>
<asrwt>0</asrwt>
<pdfrwt beam="1">  1        2 0.43044021E+00 0.18053865E+04</pdfrwt>
<pdfrwt beam="2">  1       -1 0.44806481E-01 0.18053865E+04</pdfrwt>
<totfact> 0.12333638E+01</totfact>
</mgrwt>
</event>
<event>
12    7  0.1698542E-007  0.1807675E+04  0.7818608E-02  0.8702229E-01
          2   -1    0    0  501    0  0.00000000000E+00  0.00000000000E+00  0.17630814035E+04  0.17630814035E+04  0.00000000000E+00 0. -1.
         -1   -1    0    0    0  501 -0.00000000000E+00 -0.00000000000E+00 -0.46334918109E+03  0.46334918109E+03  0.00000000000E+00 0.  1.
         24    2    1    2    0    0  0.51243758255E+03 -0.36381138115E+03  0.18301794235E+03  0.65983460210E+03  0.83277475028E+02 0.  0.
        254    2    1    2    0    0 -0.51243758255E+03  0.36381138115E+03  0.11167142801E+04  0.15665959825E+04  0.90123315074E+03 0.  0.
         23    2    4    4    0    0  0.14977368741E+03 -0.28321364993E+02  0.62380757237E+03  0.64838341159E+03  0.89615310802E+02 0.  0.
         23    2    4    4    0    0 -0.66221126996E+03  0.39213274614E+03  0.49290670770E+03  0.91821257090E+03  0.88687350852E+02 0.  0.
          4    1    3    3  502    0  0.48774725038E+03 -0.36211920439E+03  0.16583301493E+03  0.62970492081E+03  0.00000000000E+00 0. -1.
         -3    1    3    3    0  502  0.24690332164E+02 -0.16921767551E+01  0.17184927416E+02  0.30129681293E+02  0.00000000000E+00 0.  1.
         13    1    5    5    0    0  0.92675973957E+02  0.17713272952E+02  0.24499684723E+03  0.26253771413E+03  0.00000000000E+00 0. -1.
        -13    1    5    5    0    0  0.57097713458E+02 -0.46034637945E+02  0.37881072514E+03  0.38584569746E+03  0.00000000000E+00 0.  1.
          1    1    6    6  503    0 -0.39625492183E+03  0.19086085594E+03  0.30696675831E+03  0.53635288768E+03  0.00000000000E+00 0. -1.
         -1    1    6    6    0  503 -0.26595634813E+03  0.20127189020E+03  0.18593994939E+03  0.38185968323E+03  0.00000000000E+00 0.  1.
<mgrwt>
<rscale>  0 0.18076751E+04</rscale>
<asrwt>0</asrwt>
<pdfrwt beam="1">  1        2 0.27124329E+00 0.18076751E+04</pdfrwt>
<pdfrwt beam="2">  1       -1 0.71284490E-01 0.18076751E+04</pdfrwt>
<totfact> 0.19317899E+01</totfact>
</mgrwt>
</event>
<event>
12    7  0.1698542E-007  0.1506480E+04  0.7818608E-02  0.8880155E-01
         -1   -1    0    0    0  501 -0.00000000000E+00  0.00000000000E+00  0.28094868838E+03  0.28094868838E+03  0.00000000000E+00 0.  1.
          2   -1    0    0  501    0  0.00000000000E+00 -0.00000000000E+00 -0.20194819178E+04  0.20194819178E+04  0.00000000000E+00 0. -1.
         24    2    1    2    0    0 -0.44569464989E+03 -0.36024918148E+02 -0.83155587763E+03  0.94758183924E+03  0.80527316855E+02 0.  0.
        254    2    1    2    0    0  0.44569464989E+03  0.36024918148E+02 -0.90697735174E+03  0.13528487669E+04  0.89869369302E+03 0.  0.
         23    2    4    4    0    0 -0.24021312496E+03 -0.92473015504E+02 -0.40773214641E+03  0.49062100897E+03  0.90608317624E+02 0.  0.
         23    2    4    4    0    0  0.68590777486E+03  0.12849793365E+03 -0.49924520533E+03  0.86222775793E+03  0.84910169869E+02 0.  0.
          2    1    3    3  502    0 -0.34898920997E+03 -0.24992900643E+02 -0.71274808631E+03  0.79399492964E+03  0.00000000000E+00 0. -1.
         -1    1    3    3    0  502 -0.96705439923E+02 -0.11032017505E+02 -0.11880779133E+03  0.15358690960E+03  0.00000000000E+00 0.  1.
         13    1    5    5    0    0 -0.16813671143E+03 -0.38495269780E+02 -0.19934285413E+03  0.26360844641E+03  0.00000000000E+00 0.  1.
        -13    1    5    5    0    0 -0.72076413529E+02 -0.53977745724E+02 -0.20838929228E+03  0.22701256255E+03  0.00000000000E+00 0. -1.
          1    1    6    6  503    0  0.42820509953E+03  0.96329621293E+02 -0.26640820768E+03  0.51343191985E+03  0.00000000000E+00 0. -1.
         -1    1    6    6    0  503  0.25770267532E+03  0.32168312359E+02 -0.23283699765E+03  0.34879583808E+03  0.00000000000E+00 0.  1.
<mgrwt>
<rscale>  0 0.15064804E+04</rscale>
<asrwt>0</asrwt>
<pdfrwt beam="1">  1        2 0.31068954E+00 0.15064804E+04</pdfrwt>
<pdfrwt beam="2">  1       -1 0.43222874E-01 0.15064804E+04</pdfrwt>
<totfact> 0.37859585E+01</totfact>
</mgrwt>
</event>
<event>
12    7  0.1698542E-007  0.1930714E+04  0.7818608E-02  0.8639718E-01
         -1   -1    0    0    0  501 -0.00000000000E+00  0.00000000000E+00  0.73584711657E+03  0.73584711657E+03  0.00000000000E+00 0.  1.
          2   -1    0    0  501    0  0.00000000000E+00 -0.00000000000E+00 -0.12664501619E+04  0.12664501619E+04  0.00000000000E+00 0. -1.
         24    2    1    2    0    0  0.39689378589E+03 -0.64263314416E+03 -0.22023121218E+03  0.78997503791E+03  0.71110747776E+02 0.  0.
        254    2    1    2    0    0 -0.39689378589E+03  0.64263314416E+03 -0.31037183310E+03  0.12123222405E+04  0.89604269140E+03 0.  0.
         23    2    4    4    0    0 -0.32426367825E+03  0.84344544458E+03 -0.35615285977E+03  0.97579417888E+03  0.93713761073E+02 0.  0.
         23    2    4    4    0    0 -0.72630107634E+02 -0.20081230042E+03  0.45781026663E+02  0.23652806163E+03  0.90823504673E+02 0.  0.
          4    1    3    3  502    0  0.21438011372E+02 -0.71012450082E+02 -0.30869496259E+02  0.80344770817E+02  0.00000000000E+00 0. -1.
         -3    1    3    3    0  502  0.37545577451E+03 -0.57162069408E+03 -0.18936171592E+03  0.70963026709E+03  0.00000000000E+00 0.  1.
         13    1    5    5    0    0 -0.29172404875E+03  0.65220970789E+03 -0.27796678540E+03  0.76664591402E+03  0.00000000000E+00 0.  1.
        -13    1    5    5    0    0 -0.32539629498E+02  0.19123573668E+03 -0.78186074365E+02  0.20914826487E+03  0.00000000000E+00 0. -1.
          3    1    6    6  503    0  0.79444895988E+00 -0.19177273517E+02 -0.22022139111E+02  0.29212558596E+02  0.00000000000E+00 0. -1.
         -3    1    6    6    0  503 -0.73424556594E+02 -0.18163502690E+03  0.67803165774E+02  0.20731550303E+03  0.00000000000E+00 0.  1.
<mgrwt>
<rscale>  0 0.19307135E+04</rscale>
<asrwt>0</asrwt>
<pdfrwt beam="1">  1        2 0.19483848E+00 0.19307135E+04</pdfrwt>
<pdfrwt beam="2">  1       -1 0.11320725E+00 0.19307135E+04</pdfrwt>
<totfact> 0.13131687E+01</totfact>
</mgrwt>
</event>
<event>
12    7  0.1698542E-007  0.1630493E+04  0.7818608E-02  0.8802031E-01
          2   -1    0    0  501    0  0.00000000000E+00  0.00000000000E+00  0.10322721202E+04  0.10322721202E+04  0.00000000000E+00 0. -1.
         -1   -1    0    0    0  501 -0.00000000000E+00 -0.00000000000E+00 -0.64384813872E+03  0.64384813872E+03  0.00000000000E+00 0.  1.
         24    2    1    2    0    0 -0.21582799577E+03  0.16461401929E+02  0.67564276107E+03  0.71409825000E+03  0.81181700828E+02 0.  0.
        254    2    1    2    0    0  0.21582799577E+03 -0.16461401929E+02 -0.28721877955E+03  0.96202200897E+03  0.89226622535E+03 0.  0.
         23    2    4    4    0    0 -0.71457217379E+02 -0.40687042872E+03 -0.15796138606E+03  0.45168708690E+03  0.91759170159E+02 0.  0.
         23    2    4    4    0    0  0.28728521314E+03  0.39040902679E+03 -0.12925739349E+03  0.51033492206E+03  0.93713697074E+02 0.  0.
          2    1    3    3  502    0 -0.19901043692E+03  0.63867373919E+00  0.52053469284E+03  0.55728083437E+03  0.00000000000E+00 0. -1.
         -1    1    3    3    0  502 -0.16817558847E+02  0.15822728190E+02  0.15510806823E+03  0.15681741563E+03  0.00000000000E+00 0.  1.
         13    1    5    5    0    0 -0.53372198923E+01 -0.18986392380E+03 -0.11108698341E+03  0.22003889056E+03  0.00000000000E+00 0.  1.
        -13    1    5    5    0    0 -0.66119997487E+02 -0.21700650492E+03 -0.46874402651E+02  0.23164819634E+03  0.00000000000E+00 0. -1.
          1    1    6    6  503    0  0.19668320256E+03  0.19068143997E+03 -0.82437643072E+02  0.28607631624E+03  0.00000000000E+00 0. -1.
         -1    1    6    6    0  503  0.90602010583E+02  0.19972758681E+03 -0.46819750416E+02  0.22425860582E+03  0.00000000000E+00 0.  1.
<mgrwt>
<rscale>  0 0.16304925E+04</rscale>
<asrwt>0</asrwt>
<pdfrwt beam="1">  1        2 0.15881109E+00 0.16304925E+04</pdfrwt>
<pdfrwt beam="2">  1       -1 0.99053560E-01 0.16304925E+04</pdfrwt>
<totfact> 0.25541268E+01</totfact>
</mgrwt>
</event>
<event>
12    7  0.1900170E-007  0.1562461E+04  0.7818608E-02  0.8843947E-01
          2   -1    0    0  501    0  0.00000000000E+00  0.00000000000E+00  0.18906505359E+04  0.18906505359E+04  0.00000000000E+00 0. -1.
         -1   -1    0    0    0  501 -0.00000000000E+00 -0.00000000000E+00 -0.32281004027E+03  0.32281004027E+03  0.00000000000E+00 0.  1.
         24    2    1    2    0    0  0.24173572425E+02 -0.29401398785E+03  0.11320901335E+04  0.11725499970E+04  0.78846930431E+02 0.  0.
        254    2    1    2    0    0 -0.24173572425E+02  0.29401398785E+03  0.43575036217E+03  0.10409105792E+04  0.89810237120E+03 0.  0.
         23    2    4    4    0    0  0.16382831120E+03 -0.24360589648E+03 -0.16267477699E+02  0.30803414099E+03  0.91852342568E+02 0.  0.
         23    2    4    4    0    0 -0.18800188363E+03  0.53761988433E+03  0.45201783987E+03  0.73287643823E+03  0.91694590239E+02 0.  0.
          2    1    3    3  502    0 -0.39552952782E+01 -0.24061480486E+03  0.81581515531E+03  0.85056774939E+03  0.00000000000E+00 0. -1.
         -1    1    3    3    0  502  0.28128867703E+02 -0.53399182989E+02  0.31627497819E+03  0.32198224761E+03  0.00000000000E+00 0.  1.
         13    1    5    5    0    0  0.28752844636E+01  0.46577427177E+01  0.95810123090E+01  0.11034383754E+02  0.00000000000E+00 0.  1.
        -13    1    5    5    0    0  0.16095302674E+03 -0.24826363920E+03 -0.25848490008E+02  0.29699975724E+03  0.00000000000E+00 0. -1.
          2    1    6    6  503    0 -0.18901707803E+03  0.52154180803E+03  0.45374860018E+03  0.71667363945E+03  0.00000000000E+00 0. -1.
         -2    1    6    6    0  503  0.10151944048E+01  0.16078076298E+02 -0.17307603121E+01  0.16202798783E+02  0.00000000000E+00 0.  1.
<mgrwt>
<rscale>  0 0.15624608E+04</rscale>
<asrwt>0</asrwt>
<pdfrwt beam="1">  1        2 0.29086930E+00 0.15624608E+04</pdfrwt>
<pdfrwt beam="2">  1       -1 0.49663085E-01 0.15624608E+04</pdfrwt>
<totfact> 0.34231087E+01</totfact>
</mgrwt>
</event>
<event>
12    7  0.1698542E-007  0.1915524E+04  0.7818608E-02  0.8647167E-01
         -1   -1    0    0    0  501 -0.00000000000E+00  0.00000000000E+00  0.30386274261E+03  0.30386274261E+03  0.00000000000E+00 0.  1.
          2   -1    0    0  501    0  0.00000000000E+00 -0.00000000000E+00 -0.30188239970E+04  0.30188239970E+04  0.00000000000E+00 0. -1.
         24    2    1    2    0    0  0.54031634535E+03 -0.54039759376E+02 -0.19475837158E+04  0.20228385320E+04  0.62700460319E+02 0.  0.
        254    2    1    2    0    0 -0.54031634535E+03  0.54039759376E+02 -0.76737753857E+03  0.12998482076E+04  0.89770542358E+03 0.  0.
         23    2    4    4    0    0 -0.10862013592E+02  0.30770646918E+03  0.11124411542E+02  0.32070108079E+03  0.89017841871E+02 0.  0.
         23    2    4    4    0    0 -0.52945433176E+03 -0.25366670980E+03 -0.77850195011E+03  0.97914712684E+03  0.89415438195E+02 0.  0.
          2    1    3    3  502    0  0.37359169041E+03 -0.19605520989E+02 -0.12500086580E+04  0.13047899343E+04  0.00000000000E+00 0. -1.
         -1    1    3    3    0  502  0.16672465495E+03 -0.34434238387E+02 -0.69757505783E+03  0.71804859769E+03  0.00000000000E+00 0.  1.
         13    1    5    5    0    0  0.62588833700E+00  0.28482864661E+03  0.33381064811E+02  0.28677873902E+03  0.00000000000E+00 0. -1.
        -13    1    5    5    0    0 -0.11487901929E+02  0.22877822569E+02 -0.22256653268E+02  0.33922341767E+02  0.00000000000E+00 0.  1.
          1    1    6    6  503    0 -0.43210036006E+03 -0.16617122677E+03 -0.60454191994E+03  0.76144240146E+03  0.00000000000E+00 0. -1.
         -1    1    6    6    0  503 -0.97353971697E+02 -0.87495483028E+02 -0.17396003017E+03  0.21770472538E+03  0.00000000000E+00 0.  1.
<mgrwt>
<rscale>  0 0.19155241E+04</rscale>
<asrwt>0</asrwt>
<pdfrwt beam="1">  1        2 0.46443447E+00 0.19155241E+04</pdfrwt>
<pdfrwt beam="2">  1       -1 0.46748113E-01 0.19155241E+04</pdfrwt>
<totfact> 0.82511224E+00</totfact>
</mgrwt>
</event>
<event>
12    7  0.1698542E-007  0.1421763E+04  0.7818608E-02  0.8938214E-01
         -1   -1    0    0    0  501 -0.00000000000E+00  0.00000000000E+00  0.19720537899E+03  0.19720537899E+03  0.00000000000E+00 0.  1.
          2   -1    0    0  501    0  0.00000000000E+00 -0.00000000000E+00 -0.25625688825E+04  0.25625688825E+04  0.00000000000E+00 0. -1.
         24    2    1    2    0    0 -0.21268426884E+03  0.28050527146E+03 -0.11614375553E+04  0.12162191612E+04  0.79586729841E+02 0.  0.
        254    2    1    2    0    0  0.21268426884E+03 -0.28050527146E+03 -0.12039259482E+04  0.15435551003E+04  0.89955925512E+03 0.  0.
         23    2    4    4    0    0  0.45267755404E+03 -0.48276232152E+02 -0.24646349301E+03  0.52537324085E+03  0.89583627408E+02 0.  0.
         23    2    4    4    0    0 -0.23999328520E+03 -0.23222903931E+03 -0.95746245521E+03  0.10181818595E+04  0.91830508127E+02 0.  0.
          4    1    3    3  502    0 -0.12099633356E+03  0.16550252262E+03 -0.80347597326E+03  0.82921941447E+03  0.00000000000E+00 0. -1.
         -3    1    3    3    0  502 -0.91687935282E+02  0.11500274885E+03 -0.35796158208E+03  0.38699974672E+03  0.00000000000E+00 0.  1.
         13    1    5    5    0    0  0.36014584402E+03 -0.37872677696E+02 -0.15201941200E+03  0.39274580877E+03  0.00000000000E+00 0. -1.
        -13    1    5    5    0    0  0.92531710013E+02 -0.10403554456E+02 -0.94444081005E+02  0.13262743208E+03  0.00000000000E+00 0.  1.
          4    1    6    6  503    0 -0.16684211189E+03 -0.98568079428E+02 -0.55311363742E+03  0.58607734343E+03  0.00000000000E+00 0. -1.
         -4    1    6    6    0  503 -0.73151173308E+02 -0.13366095988E+03 -0.40434881779E+03  0.43210451606E+03  0.00000000000E+00 0.  1.
<mgrwt>
<rscale>  0 0.14217628E+04</rscale>
<asrwt>0</asrwt>
<pdfrwt beam="1">  1        2 0.39424135E+00 0.14217628E+04</pdfrwt>
<pdfrwt beam="2">  1       -1 0.30339290E-01 0.14217628E+04</pdfrwt>
<totfact> 0.35582187E+01</totfact>
</mgrwt>
</event>
<event>
12    7  0.1698542E-007  0.1073366E+04  0.7818608E-02  0.9231547E-01
          2   -1    0    0  501    0  0.00000000000E+00  0.00000000000E+00  0.96318087205E+03  0.96318087205E+03  0.00000000000E+00 0. -1.
         -1   -1    0    0    0  501 -0.00000000000E+00 -0.00000000000E+00 -0.29903891575E+03  0.29903891575E+03  0.00000000000E+00 0.  1.
         24    2    1    2    0    0  0.12122976359E+03  0.87346998832E+02  0.81423687435E+02  0.18747411129E+03  0.78680186479E+02 0.  0.
        254    2    1    2    0    0 -0.12122976359E+03 -0.87346998832E+02  0.58271826887E+03  0.10747456765E+04  0.89061301052E+03 0.  0.
         23    2    4    4    0    0  0.19967597087E+03 -0.20283445748E+01  0.68208516570E+03  0.71646318104E+03  0.90579848712E+02 0.  0.
         23    2    4    4    0    0 -0.32090573446E+03 -0.85318654257E+02 -0.99366896833E+02  0.35828249547E+03  0.90734795960E+02 0.  0.
          4    1    3    3  502    0  0.10102526509E+03  0.38570202301E+02  0.80255849952E+02  0.13466538584E+03  0.00000000000E+00 0. -1.
         -3    1    3    3    0  502  0.20204498498E+02  0.48776796530E+02  0.11678374836E+01  0.52808725451E+02  0.00000000000E+00 0.  1.
         13    1    5    5    0    0  0.18612003580E+03  0.30586857622E+01  0.67527693620E+03  0.70046339223E+03  0.00000000000E+00 0. -1.
        -13    1    5    5    0    0  0.13555935065E+02 -0.50870303369E+01  0.68082295007E+01  0.15999788813E+02  0.00000000000E+00 0.  1.
          3    1    6    6  503    0 -0.23242329935E+03 -0.89473345588E+02 -0.10328024960E+03  0.26961617090E+03  0.00000000000E+00 0. -1.
         -3    1    6    6    0  503 -0.88482435109E+02  0.41546913314E+01  0.39133527641E+01  0.88666324570E+02  0.00000000000E+00 0.  1.
<mgrwt>
<rscale>  0 0.10733659E+04</rscale>
<asrwt>0</asrwt>
<pdfrwt beam="1">  1        2 0.14818167E+00 0.10733659E+04</pdfrwt>
<pdfrwt beam="2">  1       -1 0.46005988E-01 0.10733659E+04</pdfrwt>
<totfact> 0.14175281E+02</totfact>
</mgrwt>
</event>
<event>
12    7  0.1698542E-007  0.1273767E+04  0.7818608E-02  0.9050631E-01
          2   -1    0    0  501    0  0.00000000000E+00  0.00000000000E+00  0.20216318064E+04  0.20216318064E+04  0.00000000000E+00 0. -1.
         -1   -1    0    0    0  501 -0.00000000000E+00 -0.00000000000E+00 -0.20064008962E+03  0.20064008962E+03  0.00000000000E+00 0.  1.
         24    2    1    2    0    0 -0.60155996148E+00  0.13912472055E+02  0.96686611821E+03  0.97028767873E+03  0.80213279499E+02 0.  0.
        254    2    1    2    0    0  0.60155996148E+00 -0.13912472055E+02  0.85412559859E+03  0.12519842173E+04  0.91528139031E+03 0.  0.
         23    2    4    4    0    0 -0.36978788885E+03 -0.91356824348E+02  0.75550200512E+03  0.85079110153E+03  0.89292029836E+02 0.  0.
         23    2    4    4    0    0  0.37038944881E+03  0.77444352292E+02  0.98623593465E+02  0.40119311577E+03  0.89684622221E+02 0.  0.
          4    1    3    3  502    0  0.36944872992E+01  0.64113131911E+00  0.94007582230E+03  0.94008330054E+03  0.00000000000E+00 0. -1.
         -3    1    3    3    0  502 -0.42960472607E+01  0.13271340736E+02  0.26790295908E+02  0.30204378190E+02  0.00000000000E+00 0.  1.
         13    1    5    5    0    0 -0.34091235348E+03 -0.87099961682E+02  0.73571989636E+03  0.81553136174E+03  0.00000000000E+00 0.  1.
        -13    1    5    5    0    0 -0.28875535370E+02 -0.42568626656E+01  0.19782108766E+02  0.35259739787E+02  0.00000000000E+00 0. -1.
          3    1    6    6  503    0  0.27132577813E+03  0.20659462251E+02  0.90310477956E+02  0.28670624982E+03  0.00000000000E+00 0. -1.
         -3    1    6    6    0  503  0.99063670687E+02  0.56784890042E+02  0.83131155093E+01  0.11448686596E+03  0.00000000000E+00 0.  1.
<mgrwt>
<rscale>  0 0.12737667E+04</rscale>
<asrwt>0</asrwt>
<pdfrwt beam="1">  1        2 0.31102026E+00 0.12737667E+04</pdfrwt>
<pdfrwt beam="2">  1       -1 0.30867708E-01 0.12737667E+04</pdfrwt>
<totfact> 0.70614454E+01</totfact>
</mgrwt>
</event>
<event>
12    7  0.1698542E-007  0.2470108E+04  0.7818608E-02  0.8413713E-01
          2   -1    0    0  501    0  0.00000000000E+00  0.00000000000E+00  0.25084290491E+04  0.25084290491E+04  0.00000000000E+00 0. -1.
         -1   -1    0    0    0  501 -0.00000000000E+00 -0.00000000000E+00 -0.60809302919E+03  0.60809302919E+03  0.00000000000E+00 0.  1.
         24    2    1    2    0    0  0.68882358046E+03  0.57603491261E+03  0.99236725213E+02  0.90700299245E+03  0.80699164490E+02 0.  0.
        254    2    1    2    0    0 -0.68882358046E+03 -0.57603491261E+03  0.18010992947E+04  0.22095190859E+04  0.91198781561E+03 0.  0.
         23    2    4    4    0    0 -0.86786333954E+03 -0.27252263310E+03  0.13590234101E+04  0.16378531247E+04  0.90348588138E+02 0.  0.
         23    2    4    4    0    0  0.17903975909E+03 -0.30351227951E+03  0.44207588465E+03  0.57166596114E+03  0.84828911284E+02 0.  0.
          4    1    3    3  502    0  0.27151211603E+03  0.27334583241E+03  0.24100904328E+02  0.38602801302E+03  0.00000000000E+00 0. -1.
         -3    1    3    3    0  502  0.41731146443E+03  0.30268908019E+03  0.75135820885E+02  0.52097497943E+03  0.00000000000E+00 0.  1.
         13    1    5    5    0    0 -0.56715661289E+03 -0.13262979858E+03  0.86950498778E+03  0.10465640022E+04  0.00000000000E+00 0. -1.
        -13    1    5    5    0    0 -0.30070672665E+03 -0.13989283452E+03  0.48951842229E+03  0.59128912248E+03  0.00000000000E+00 0.  1.
          1    1    6    6  503    0  0.40344880621E+02 -0.14663961012E+03  0.20682083063E+03  0.25672113397E+03  0.00000000000E+00 0. -1.
         -1    1    6    6    0  503  0.13869487847E+03 -0.15687266939E+03  0.23525505402E+03  0.31494482717E+03  0.00000000000E+00 0.  1.
<mgrwt>
<rscale>  0 0.24701079E+04</rscale>
<asrwt>0</asrwt>
<pdfrwt beam="1">  1        2 0.38591216E+00 0.24701079E+04</pdfrwt>
<pdfrwt beam="2">  1       -1 0.93552775E-01 0.24701079E+04</pdfrwt>
<totfact> 0.38788652E+00</totfact>
</mgrwt>
</event>
<event>
12    7  0.1698542E-007  0.2362414E+04  0.7818608E-02  0.8453711E-01
         -1   -1    0    0    0  501 -0.00000000000E+00  0.00000000000E+00  0.26740745513E+04  0.26740745513E+04  0.00000000000E+00 0.  1.
          2   -1    0    0  501    0  0.00000000000E+00 -0.00000000000E+00 -0.52176913476E+03  0.52176913476E+03  0.00000000000E+00 0. -1.
         24    2    1    2    0    0 -0.90298868812E+03 -0.42266330471E+03  0.10929478449E+04  0.14820744557E+04  0.89313270943E+02 0.  0.
        254    2    1    2    0    0  0.90298868812E+03  0.42266330471E+03  0.10593575717E+04  0.17137692304E+04  0.90594352503E+03 0.  0.
         23    2    4    4    0    0 -0.17308117692E+03  0.57299793473E+02  0.21047625329E+03  0.29241742571E+03  0.89259943544E+02 0.  0.
         23    2    4    4    0    0  0.10760698650E+04  0.36536351124E+03  0.84888131836E+03  0.14213518047E+04  0.90689637439E+02 0.  0.
          2    1    3    3  502    0 -0.18488947248E+03 -0.63141649015E+02  0.17347959899E+03  0.26127792892E+03  0.00000000000E+00 0. -1.
         -1    1    3    3    0  502 -0.71809921564E+03 -0.35952165570E+03  0.91946824594E+03  0.12207965267E+04  0.00000000000E+00 0.  1.
         13    1    5    5    0    0 -0.55800056157E+02  0.48023873687E+01  0.14127070652E+02  0.57760568875E+02  0.00000000000E+00 0.  1.
        -13    1    5    5    0    0 -0.11728112076E+03  0.52497406104E+02  0.19634918264E+03  0.23465685683E+03  0.00000000000E+00 0. -1.
          3    1    6    6  503    0  0.85643036796E+03  0.32323701160E+03  0.70514226070E+03  0.11555002158E+04  0.00000000000E+00 0. -1.
         -3    1    6    6    0  503  0.21963949708E+03  0.42126499644E+02  0.14373905766E+03  0.26585158895E+03  0.00000000000E+00 0.  1.
<mgrwt>
<rscale>  0 0.23624137E+04</rscale>
<asrwt>0</asrwt>
<pdfrwt beam="1">  1        2 0.80272176E-01 0.23624137E+04</pdfrwt>
<pdfrwt beam="2">  1       -1 0.41139608E+00 0.23624137E+04</pdfrwt>
<totfact> 0.36058851E-01</totfact>
</mgrwt>
</event>
<event>
12    7  0.1698542E-007  0.1193956E+04  0.7818608E-02  0.9118163E-01
          2   -1    0    0  501    0  0.00000000000E+00  0.00000000000E+00  0.25769139073E+04  0.25769139073E+04  0.00000000000E+00 0. -1.
         -1   -1    0    0    0  501 -0.00000000000E+00 -0.00000000000E+00 -0.13829838075E+03  0.13829838075E+03  0.00000000000E+00 0.  1.
         24    2    1    2    0    0  0.17868701703E+03  0.13401084230E+03  0.28698383179E+03  0.37219927644E+03  0.79275631596E+02 0.  0.
        254    2    1    2    0    0 -0.17868701703E+03 -0.13401084230E+03  0.21516316948E+04  0.23430130116E+04  0.90016835466E+03 0.  0.
         23    2    4    4    0    0  0.10336924309E+03 -0.37384074823E+02 -0.25554342961E+02  0.14356480939E+03  0.88741538104E+02 0.  0.
         23    2    4    4    0    0 -0.28205626012E+03 -0.96626767479E+02  0.21771860378E+04  0.21994482023E+04  0.92416910114E+02 0.  0.
          4    1    3    3  502    0  0.22892694485E+02  0.59398834525E+02  0.65767513582E+02  0.91529573617E+02  0.00000000000E+00 0. -1.
         -3    1    3    3    0  502  0.15579432255E+03  0.74612007777E+02  0.22121631821E+03  0.28066970282E+03  0.00000000000E+00 0.  1.
         13    1    5    5    0    0  0.76648996179E+02  0.18778621700E+02 -0.17693466772E+02  0.80874990044E+02  0.00000000000E+00 0. -1.
        -13    1    5    5    0    0  0.26720246910E+02 -0.56162696523E+02 -0.78608761888E+01  0.62689819350E+02  0.00000000000E+00 0.  1.
          2    1    6    6  503    0 -0.25147820787E+03 -0.11117361268E+03  0.18187642690E+04  0.18394304356E+04  0.00000000000E+00 0. -1.
         -2    1    6    6    0  503 -0.30578052252E+02  0.14546845205E+02  0.35842176877E+03  0.36001776666E+03  0.00000000000E+00 0.  1.
<mgrwt>
<rscale>  0 0.11939565E+04</rscale>
<asrwt>0</asrwt>
<pdfrwt beam="1">  1        2 0.39644826E+00 0.11939565E+04</pdfrwt>
<pdfrwt beam="2">  1       -1 0.21276676E-01 0.11939565E+04</pdfrwt>
<totfact> 0.65565395E+01</totfact>
</mgrwt>
</event>
<event>
12    7  0.1698542E-007  0.1719179E+04  0.7818608E-02  0.8750501E-01
         -1   -1    0    0    0  501 -0.00000000000E+00  0.00000000000E+00  0.16988534288E+04  0.16988534288E+04  0.00000000000E+00 0.  1.
          2   -1    0    0  501    0  0.00000000000E+00 -0.00000000000E+00 -0.43493689680E+03  0.43493689680E+03  0.00000000000E+00 0. -1.
         24    2    1    2    0    0 -0.41968462857E+03 -0.16230191618E+03 -0.69794725446E+02  0.46347132999E+03  0.86355489537E+02 0.  0.
        254    2    1    2    0    0  0.41968462857E+03  0.16230191618E+03  0.13337112574E+04  0.16703189956E+04  0.89927900529E+03 0.  0.
         23    2    4    4    0    0  0.49966133813E+02  0.40902062847E+03  0.23812736199E+03  0.48445627582E+03  0.90546969075E+02 0.  0.
         23    2    4    4    0    0  0.36971849475E+03 -0.24671871229E+03  0.10955838954E+04  0.11858627198E+04  0.91675677420E+02 0.  0.
          4    1    3    3  502    0 -0.34401715536E+03 -0.95155754645E+02 -0.58123158662E+02  0.36163617407E+03  0.00000000000E+00 0. -1.
         -3    1    3    3    0  502 -0.75667473206E+02 -0.67146161530E+02 -0.11671566784E+02  0.10183515592E+03  0.00000000000E+00 0.  1.
         13    1    5    5    0    0  0.27872129025E+02  0.16227208211E+03  0.46008795276E+02  0.17095582310E+03  0.00000000000E+00 0. -1.
        -13    1    5    5    0    0  0.22094004788E+02  0.24674854636E+03  0.19211856671E+03  0.31350045272E+03  0.00000000000E+00 0.  1.
          1    1    6    6  503    0  0.31758088558E+03 -0.21355271401E+03  0.10117859244E+04  0.10817454124E+04  0.00000000000E+00 0. -1.
         -1    1    6    6    0  503  0.52137609178E+02 -0.33165998278E+02  0.83797971043E+02  0.10411730732E+03  0.00000000000E+00 0.  1.
<mgrwt>
<rscale>  0 0.17191789E+04</rscale>
<asrwt>0</asrwt>
<pdfrwt beam="1">  1        2 0.66913370E-01 0.17191789E+04</pdfrwt>
<pdfrwt beam="2">  1       -1 0.26136206E+00 0.17191789E+04</pdfrwt>
<totfact> 0.46198836E+00</totfact>
</mgrwt>
</event>
<event>
12    7  0.1698542E-007  0.2545173E+04  0.7818608E-02  0.8387067E-01
          2   -1    0    0  501    0  0.00000000000E+00  0.00000000000E+00  0.22876803553E+04  0.22876803553E+04  0.00000000000E+00 0. -1.
         -1   -1    0    0    0  501 -0.00000000000E+00 -0.00000000000E+00 -0.70791200069E+03  0.70791200069E+03  0.00000000000E+00 0.  1.
         24    2    1    2    0    0 -0.84149769219E+03 -0.54629457762E+03  0.12590226602E+04  0.16127714987E+04  0.96631862300E+02 0.  0.
        254    2    1    2    0    0  0.84149769219E+03  0.54629457762E+03  0.32074569448E+03  0.13828208573E+04  0.89596852140E+03 0.  0.
         23    2    4    4    0    0  0.92524203961E+03  0.32618205618E+03  0.46786801848E+03  0.10904996037E+04  0.88438324302E+02 0.  0.
         23    2    4    4    0    0 -0.83744347417E+02  0.22011252144E+03 -0.14712232401E+03  0.29232125365E+03  0.91346041477E+02 0.  0.
          2    1    3    3  502    0 -0.83480752851E+03 -0.52716029938E+03  0.12390765234E+04  0.15843333682E+04  0.00000000000E+00 0. -1.
         -1    1    3    3    0  502 -0.66901636827E+01 -0.19134278241E+02  0.19946136816E+02  0.28438130526E+02  0.00000000000E+00 0.  1.
         13    1    5    5    0    0  0.74493308239E+03  0.24239839132E+03  0.33911996315E+03  0.85363026350E+03  0.00000000000E+00 0. -1.
        -13    1    5    5    0    0  0.18030895722E+03  0.83783664867E+02  0.12874805534E+03  0.23686934015E+03  0.00000000000E+00 0.  1.
          2    1    6    6  503    0 -0.83068651383E+02  0.16746265077E+03 -0.14987246579E+03  0.23959527593E+03  0.00000000000E+00 0. -1.
         -2    1    6    6    0  503 -0.67569603454E+00  0.52649870666E+02  0.27501417818E+01  0.52725977716E+02  0.00000000000E+00 0.  1.
<mgrwt>
<rscale>  0 0.25451730E+04</rscale>
<asrwt>0</asrwt>
<pdfrwt beam="1">  1        2 0.35195082E+00 0.25451730E+04</pdfrwt>
<pdfrwt beam="2">  1       -1 0.10890954E+00 0.25451730E+04</pdfrwt>
<totfact> 0.36377999E+00</totfact>
</mgrwt>
</event>
<event>
12    7  0.1698542E-007  0.1995235E+04  0.7818608E-02  0.8608852E-01
         -1   -1    0    0    0  501 -0.00000000000E+00  0.00000000000E+00  0.10791156866E+04  0.10791156866E+04  0.00000000000E+00 0.  1.
          2   -1    0    0  501    0  0.00000000000E+00 -0.00000000000E+00 -0.92227444358E+03  0.92227444358E+03  0.00000000000E+00 0. -1.
         24    2    1    2    0    0  0.20045250889E+03 -0.20566816989E+03  0.79641559844E+03  0.85036858290E+03  0.79801735058E+02 0.  0.
        254    2    1    2    0    0 -0.20045250889E+03  0.20566816989E+03 -0.63957435544E+03  0.11510215473E+04  0.91286069128E+03 0.  0.
         23    2    4    4    0    0 -0.38351861645E+03 -0.20303192437E+03 -0.50951560972E+03  0.67547811193E+03  0.91411332296E+02 0.  0.
         23    2    4    4    0    0  0.18306610756E+03  0.40870009426E+03 -0.13005874572E+03  0.47554343532E+03  0.93152105469E+02 0.  0.
          2    1    3    3  502    0  0.33645918291E+02 -0.76714244794E+02  0.17193286740E+03  0.19125384719E+03  0.00000000000E+00 0. -1.
         -1    1    3    3    0  502  0.16680659060E+03 -0.12895392510E+03  0.62448273104E+03  0.65911473571E+03  0.00000000000E+00 0.  1.
         13    1    5    5    0    0 -0.21027583756E+03 -0.83547857870E+02 -0.20502935798E+03  0.30534113718E+03  0.00000000000E+00 0. -1.
        -13    1    5    5    0    0 -0.17324277889E+03 -0.11948406650E+03 -0.30448625174E+03  0.37013697476E+03  0.00000000000E+00 0.  1.
          4    1    6    6  503    0  0.67779061491E+02  0.75080528487E+02 -0.57340868201E+01  0.10131123672E+03  0.00000000000E+00 0. -1.
         -4    1    6    6    0  503  0.11528704607E+03  0.33361956578E+03 -0.12432465890E+03  0.37423219860E+03  0.00000000000E+00 0.  1.
<mgrwt>
<rscale>  0 0.19952351E+04</rscale>
<asrwt>0</asrwt>
<pdfrwt beam="1">  1        2 0.14188838E+00 0.19952351E+04</pdfrwt>
<pdfrwt beam="2">  1       -1 0.16601780E+00 0.19952351E+04</pdfrwt>
<totfact> 0.79100400E+00</totfact>
</mgrwt>
</event>
<event>
12    7  0.1698542E-007  0.3341962E+04  0.7818608E-02  0.8152299E-01
          2   -1    0    0  501    0  0.00000000000E+00  0.00000000000E+00  0.26960250002E+04  0.26960250002E+04  0.00000000000E+00 0. -1.
         -1   -1    0    0    0  501 -0.00000000000E+00 -0.00000000000E+00 -0.10356648253E+04  0.10356648253E+04  0.00000000000E+00 0.  1.
         24    2    1    2    0    0  0.65096382450E+03 -0.74894811868E+03  0.21035915608E+04  0.23272826595E+04  0.80435919987E+02 0.  0.
        254    2    1    2    0    0 -0.65096382450E+03  0.74894811868E+03 -0.44323138597E+03  0.14044071660E+04  0.88951011305E+03 0.  0.
         23    2    4    4    0    0 -0.30169481740E+02  0.63519826789E+03 -0.26638913587E+02  0.64275785330E+03  0.89671562377E+02 0.  0.
         23    2    4    4    0    0 -0.62079434276E+03  0.11374985078E+03 -0.41659247238E+03  0.76164931273E+03  0.90750994366E+02 0.  0.
          4    1    3    3  502    0  0.53787170562E+03 -0.59198376548E+03  0.17530875521E+04  0.19269319437E+04  0.00000000000E+00 0. -1.
         -3    1    3    3    0  502  0.11309211888E+03 -0.15696435319E+03  0.35050400877E+03  0.40035071586E+03  0.00000000000E+00 0.  1.
         13    1    5    5    0    0 -0.16197881914E+02  0.48054671734E+02 -0.22386517309E+02  0.55432652933E+02  0.00000000000E+00 0.  1.
        -13    1    5    5    0    0 -0.13971599826E+02  0.58714359616E+03 -0.42523962781E+01  0.58732520037E+03  0.00000000000E+00 0. -1.
          1    1    6    6  503    0 -0.53692081762E+03  0.66899062010E+02 -0.36410391527E+03  0.65217414086E+03  0.00000000000E+00 0. -1.
         -1    1    6    6    0  503 -0.83873525141E+02  0.46850788770E+02 -0.52488557109E+02  0.10947517187E+03  0.00000000000E+00 0.  1.
<mgrwt>
<rscale>  0 0.33419625E+04</rscale>
<asrwt>0</asrwt>
<pdfrwt beam="1">  1        2 0.41477308E+00 0.33419625E+04</pdfrwt>
<pdfrwt beam="2">  1       -1 0.15933305E+00 0.33419625E+04</pdfrwt>
<totfact> 0.74627480E-01</totfact>
</mgrwt>
</event>
<event>
12    7  0.1698542E-007  0.1226139E+04  0.7818608E-02  0.9090280E-01
         -1   -1    0    0    0  501 -0.00000000000E+00  0.00000000000E+00  0.60217842915E+03  0.60217842915E+03  0.00000000000E+00 0.  1.
          2   -1    0    0  501    0  0.00000000000E+00 -0.00000000000E+00 -0.62415749798E+03  0.62415749798E+03  0.00000000000E+00 0. -1.
         24    2    1    2    0    0  0.21894079797E+03  0.14389756006E+02  0.15947245344E+03  0.28204452847E+03  0.77301452389E+02 0.  0.
        254    2    1    2    0    0 -0.21894079797E+03 -0.14389756006E+02 -0.18145152227E+03  0.94429139865E+03  0.90034407453E+03 0.  0.
         23    2    4    4    0    0 -0.32660243689E+03 -0.15790133710E+03 -0.46490353701E+03  0.59680074365E+03  0.91835967107E+02 0.  0.
         23    2    4    4    0    0  0.10766163892E+03  0.14351158109E+03  0.28345201474E+03  0.34749065500E+03  0.90653782319E+02 0.  0.
          2    1    3    3  502    0  0.94810679636E+01  0.15863297671E+02 -0.48686051166E+00  0.18487073751E+02  0.00000000000E+00 0. -1.
         -1    1    3    3    0  502  0.20945973001E+03 -0.14735416644E+01  0.15995931395E+03  0.26355745472E+03  0.00000000000E+00 0.  1.
         13    1    5    5    0    0 -0.22399728772E+03 -0.84836022584E+02 -0.24030057614E+03  0.33928793455E+03  0.00000000000E+00 0. -1.
        -13    1    5    5    0    0 -0.10260514917E+03 -0.73065314512E+02 -0.22460296087E+03  0.25751280910E+03  0.00000000000E+00 0.  1.
          4    1    6    6  503    0  0.10115955819E+01  0.57039672579E+01  0.77475037532E+02  0.77691312311E+02  0.00000000000E+00 0.  1.
         -4    1    6    6    0  503  0.10665004334E+03  0.13780761383E+03  0.20597697721E+03  0.26979934269E+03  0.00000000000E+00 0. -1.
<mgrwt>
<rscale>  0 0.12261390E+04</rscale>
<asrwt>0</asrwt>
<pdfrwt beam="1">  1        2 0.96024230E-01 0.12261390E+04</pdfrwt>
<pdfrwt beam="2">  1       -1 0.92642835E-01 0.12261390E+04</pdfrwt>
<totfact> 0.60300469E+01</totfact>
</mgrwt>
</event>
<event>
12    7  0.1698542E-007  0.1861949E+04  0.7818608E-02  0.8674032E-01
         -1   -1    0    0    0  501 -0.00000000000E+00  0.00000000000E+00  0.55182977857E+03  0.55182977857E+03  0.00000000000E+00 0.  1.
          2   -1    0    0  501    0  0.00000000000E+00 -0.00000000000E+00 -0.15706169294E+04  0.15706169294E+04  0.00000000000E+00 0. -1.
         24    2    1    2    0    0 -0.15642161809E+03 -0.12124187886E+03 -0.11803818368E+04  0.11995147379E+04  0.79793545986E+02 0.  0.
        254    2    1    2    0    0  0.15642161809E+03  0.12124187886E+03  0.16159468599E+03  0.92293197005E+03  0.88686146777E+03 0.  0.
         23    2    4    4    0    0 -0.35215827619E+03  0.12647559816E+03  0.12868981254E+03  0.40596121429E+03  0.90729880628E+02 0.  0.
         23    2    4    4    0    0  0.50857989428E+03 -0.52337193057E+01  0.32904873448E+02  0.51697075576E+03  0.86574424266E+02 0.  0.
          2    1    3    3  502    0 -0.11457350538E+03 -0.12685887530E+03 -0.92385922024E+03  0.93954037763E+03  0.00000000000E+00 0. -1.
         -1    1    3    3    0  502 -0.41848112713E+02  0.56169964452E+01 -0.25652261657E+03  0.25997436027E+03  0.00000000000E+00 0.  1.
         13    1    5    5    0    0 -0.62818262883E+02  0.33035690890E+02 -0.10169228980E+02  0.71700099319E+02  0.00000000000E+00 0. -1.
        -13    1    5    5    0    0 -0.28934001330E+03  0.93439907274E+02  0.13885904152E+03  0.33426111497E+03  0.00000000000E+00 0.  1.
          3    1    6    6  503    0  0.12158662171E+03  0.31808111429E+02  0.24928953010E+02  0.12812694966E+03  0.00000000000E+00 0. -1.
         -3    1    6    6    0  503  0.38699327257E+03 -0.37041830734E+02  0.79759204372E+01  0.38884380610E+03  0.00000000000E+00 0.  1.
<mgrwt>
<rscale>  0 0.18619486E+04</rscale>
<asrwt>0</asrwt>
<pdfrwt beam="1">  1        2 0.24163337E+00 0.18619486E+04</pdfrwt>
<pdfrwt beam="2">  1       -1 0.84896889E-01 0.18619486E+04</pdfrwt>
<totfact> 0.17016938E+01</totfact>
</mgrwt>
</event>
<event>
12    7  0.1698542E-007  0.2148100E+04  0.7818608E-02  0.8540346E-01
          2   -1    0    0  501    0  0.00000000000E+00  0.00000000000E+00  0.17381776346E+04  0.17381776346E+04  0.00000000000E+00 0. -1.
         -1   -1    0    0    0  501 -0.00000000000E+00 -0.00000000000E+00 -0.66367381831E+03  0.66367381831E+03  0.00000000000E+00 0.  1.
         24    2    1    2    0    0  0.61699421318E+03 -0.49208691423E+02  0.11411982216E+04  0.13008550218E+04  0.82383568308E+02 0.  0.
        254    2    1    2    0    0 -0.61699421318E+03  0.49208691423E+02 -0.66694405329E+02  0.11009964311E+04  0.90809781588E+03 0.  0.
         23    2    4    4    0    0 -0.19986817358E+03  0.45095686903E+02 -0.46544682216E+03  0.51665373975E+03  0.91156101006E+02 0.  0.
         23    2    4    4    0    0 -0.41712603960E+03  0.41130045206E+01  0.39875241683E+03  0.58434269136E+03  0.91879493323E+02 0.  0.
          4    1    3    3  502    0  0.31550611361E+03 -0.49305677816E+02  0.65641777187E+03  0.72997222469E+03  0.00000000000E+00 0. -1.
         -3    1    3    3    0  502  0.30148809957E+03  0.96986392229E-01  0.48478044977E+03  0.57088279713E+03  0.00000000000E+00 0.  1.
         13    1    5    5    0    0 -0.12561081903E+03  0.71694459842E+02 -0.32086758002E+03  0.35195763572E+03  0.00000000000E+00 0. -1.
        -13    1    5    5    0    0 -0.74257354550E+02 -0.26598772939E+02 -0.14457924214E+03  0.16469610403E+03  0.00000000000E+00 0.  1.
          3    1    6    6  503    0 -0.39019970614E+03  0.27684120084E+02  0.36050496668E+03  0.53196433356E+03  0.00000000000E+00 0. -1.
         -3    1    6    6    0  503 -0.26926333460E+02 -0.23571115564E+02  0.38247450151E+02  0.52378357798E+02  0.00000000000E+00 0.  1.
<mgrwt>
<rscale>  0 0.21480996E+04</rscale>
<asrwt>0</asrwt>
<pdfrwt beam="1">  1        2 0.26741194E+00 0.21480996E+04</pdfrwt>
<pdfrwt beam="2">  1       -1 0.10210367E+00 0.21480996E+04</pdfrwt>
<totfact> 0.88683009E+00</totfact>
</mgrwt>
</event>
<event>
12    7  0.1698542E-007  0.1515348E+04  0.7818608E-02  0.8874311E-01
          2   -1    0    0  501    0  0.00000000000E+00  0.00000000000E+00  0.68637789333E+03  0.68637789333E+03  0.00000000000E+00 0. -1.
         -1   -1    0    0    0  501 -0.00000000000E+00 -0.00000000000E+00 -0.83637560297E+03  0.83637560297E+03  0.00000000000E+00 0.  1.
         24    2    1    2    0    0 -0.33522507577E+03 -0.69934170561E+01  0.31103739779E+03  0.46447288872E+03  0.81031118868E+02 0.  0.
        254    2    1    2    0    0  0.33522507577E+03  0.69934170561E+01 -0.46103510743E+03  0.10582806076E+04  0.89161634955E+03 0.  0.
         23    2    4    4    0    0  0.29361075677E+03  0.39314978825E+03 -0.42826533788E+03  0.65792027444E+03  0.93133535351E+02 0.  0.
         23    2    4    4    0    0  0.41614319002E+02 -0.38615637119E+03 -0.32769769551E+02  0.40036033313E+03  0.91466081106E+02 0.  0.
          2    1    3    3  502    0 -0.20003755058E+03  0.31241767803E+01  0.23649239854E+03  0.30976351736E+03  0.00000000000E+00 0. -1.
         -1    1    3    3    0  502 -0.13518752520E+03 -0.10117593836E+02  0.74544999254E+02  0.15470937136E+03  0.00000000000E+00 0.  1.
         13    1    5    5    0    0  0.48668462778E+02  0.10704212556E+03 -0.14480774285E+03  0.18653664065E+03  0.00000000000E+00 0.  1.
        -13    1    5    5    0    0  0.24494229399E+03  0.28610766269E+03 -0.28345759502E+03  0.47138363380E+03  0.00000000000E+00 0. -1.
          4    1    6    6  503    0 -0.15013068610E+02 -0.26322072065E+03 -0.19869443491E+02  0.26439617015E+03  0.00000000000E+00 0. -1.
         -4    1    6    6    0  503  0.56627387613E+02 -0.12293565055E+03 -0.12900326060E+02  0.13596416298E+03  0.00000000000E+00 0.  1.
<mgrwt>
<rscale>  0 0.15153478E+04</rscale>
<asrwt>0</asrwt>
<pdfrwt beam="1">  1        2 0.10559660E+00 0.15153478E+04</pdfrwt>
<pdfrwt beam="2">  1       -1 0.12867317E+00 0.15153478E+04</pdfrwt>
<totfact> 0.24104050E+01</totfact>
</mgrwt>
</event>
<event>
12    7  0.1698542E-007  0.2069141E+04  0.7818608E-02  0.8574960E-01
         -1   -1    0    0    0  501 -0.00000000000E+00  0.00000000000E+00  0.61965130662E+03  0.61965130662E+03  0.00000000000E+00 0.  1.
          2   -1    0    0  501    0  0.00000000000E+00 -0.00000000000E+00 -0.17273200737E+04  0.17273200737E+04  0.00000000000E+00 0. -1.
         24    2    1    2    0    0 -0.59282073101E+03 -0.58288025106E+03 -0.57450595791E+03  0.10132750774E+04  0.74050527983E+02 0.  0.
        254    2    1    2    0    0  0.59282073101E+03  0.58288025106E+03 -0.53316280918E+03  0.13336963029E+04  0.89626862102E+03 0.  0.
         23    2    4    4    0    0  0.56461727646E+03  0.65307760165E+02  0.12117364668E+02  0.57568926617E+03  0.90628517809E+02 0.  0.
         23    2    4    4    0    0  0.28203454552E+02  0.51757249090E+03 -0.54528017385E+03  0.75800703671E+03  0.92560691030E+02 0.  0.
          4    1    3    3  502    0 -0.45879175383E+02 -0.74184507419E+02 -0.71131293859E+02  0.11255176960E+03  0.00000000000E+00 0. -1.
         -1    1    3    3    0  502 -0.54694155563E+03 -0.50869574365E+03 -0.50337466405E+03  0.90072330784E+03  0.00000000000E+00 0.  1.
         13    1    5    5    0    0  0.41752623004E+03  0.87722649745E+02  0.36134721611E+01  0.42665732530E+03  0.00000000000E+00 0. -1.
        -13    1    5    5    0    0  0.14709104642E+03 -0.22414889580E+02  0.85038925068E+01  0.14903194087E+03  0.00000000000E+00 0.  1.
          1    1    6    6  503    0  0.11336714084E+02  0.34726085354E+03 -0.42437113540E+03  0.54846101233E+03  0.00000000000E+00 0. -1.
         -1    1    6    6    0  503  0.16866740468E+02  0.17031163736E+03 -0.12090903845E+03  0.20954602438E+03  0.00000000000E+00 0.  1.
<mgrwt>
<rscale>  0 0.20691410E+04</rscale>
<asrwt>0</asrwt>
<pdfrwt beam="1">  1        2 0.26574155E+00 0.20691410E+04</pdfrwt>
<pdfrwt beam="2">  1       -1 0.95330970E-01 0.20691410E+04</pdfrwt>
<totfact> 0.10584737E+01</totfact>
</mgrwt>
</event>
<event>
12    7  0.1698542E-007  0.1075438E+04  0.7818608E-02  0.9229468E-01
          4   -1    0    0  501    0  0.00000000000E+00  0.00000000000E+00  0.12766744854E+04  0.12766744854E+04  0.00000000000E+00 0. -1.
         -3   -1    0    0    0  501 -0.00000000000E+00 -0.00000000000E+00 -0.22648037483E+03  0.22648037483E+03  0.00000000000E+00 0.  1.
         24    2    1    2    0    0  0.14483107790E+03  0.73283831407E+02  0.14791854302E+03  0.23401747118E+03  0.80856170947E+02 0.  0.
        254    2    1    2    0    0 -0.14483107790E+03 -0.73283831407E+02  0.90227556754E+03  0.12691373890E+04  0.87764568671E+03 0.  0.
         23    2    4    4    0    0  0.20872475517E+03 -0.34071972752E+03  0.26438935105E+03  0.48757345099E+03  0.90389075820E+02 0.  0.
         23    2    4    4    0    0 -0.35355583307E+03  0.26743589611E+03  0.63788621649E+03  0.78156393805E+03  0.86137555312E+02 0.  0.
          4    1    3    3  502    0 -0.95424756856E+01 -0.13358784694E+00  0.32710086994E+01  0.10088418401E+02  0.00000000000E+00 0. -1.
         -3    1    3    3    0  502  0.15437355359E+03  0.73417419254E+02  0.14464753432E+03  0.22392905278E+03  0.00000000000E+00 0.  1.
         13    1    5    5    0    0  0.20293070163E+03 -0.26970727081E+03  0.20570713901E+03  0.39526991871E+03  0.00000000000E+00 0.  1.
        -13    1    5    5    0    0  0.57940535398E+01 -0.71012456702E+02  0.58682212036E+02  0.92303532287E+02  0.00000000000E+00 0. -1.
          4    1    6    6  503    0 -0.15287267621E+02  0.58468852238E+01  0.38650697940E+01  0.16817413078E+02  0.00000000000E+00 0. -1.
         -4    1    6    6    0  503 -0.33826856545E+03  0.26158901088E+03  0.63402114670E+03  0.76474652497E+03  0.00000000000E+00 0.  1.
<mgrwt>
<rscale>  0 0.10754380E+04</rscale>
<asrwt>0</asrwt>
<pdfrwt beam="1">  1        4 0.19641146E+00 0.10754380E+04</pdfrwt>
<pdfrwt beam="2">  1       -3 0.34843135E-01 0.10754380E+04</pdfrwt>
<totfact> 0.25744183E+00</totfact>
</mgrwt>
</event>
<event>
12    7  0.1698542E-007  0.2231924E+04  0.7818608E-02  0.8505257E-01
          2   -1    0    0  501    0  0.00000000000E+00  0.00000000000E+00  0.22086335120E+04  0.22086335120E+04  0.00000000000E+00 0. -1.
         -1   -1    0    0    0  501 -0.00000000000E+00 -0.00000000000E+00 -0.56386477732E+03  0.56386477732E+03  0.00000000000E+00 0.  1.
         24    2    1    2    0    0  0.89240978494E+03 -0.16913947290E+03  0.80207867469E+03  0.12143061220E+04  0.78776722500E+02 0.  0.
        254    2    1    2    0    0 -0.89240978494E+03  0.16913947290E+03  0.84269005994E+03  0.15581921673E+04  0.94489835825E+03 0.  0.
         23    2    4    4    0    0 -0.41690959828E+03  0.19020325258E+03 -0.11789818587E+03  0.48192308032E+03  0.91427472282E+02 0.  0.
         23    2    4    4    0    0 -0.47550018667E+03 -0.21063779679E+02  0.96058824581E+03  0.10762690869E+04  0.95295640892E+02 0.  0.
          4    1    3    3  502    0  0.87282822068E+02 -0.85181902249E+01  0.10887158775E+03  0.13979940347E+03  0.00000000000E+00 0. -1.
         -3    1    3    3    0  502  0.80512696288E+03 -0.16062128268E+03  0.69320708694E+03  0.10745067185E+04  0.00000000000E+00 0.  1.
         13    1    5    5    0    0 -0.23699216247E+03  0.96860956886E+02 -0.11118428413E+03  0.27912232996E+03  0.00000000000E+00 0. -1.
        -13    1    5    5    0    0 -0.17991743581E+03  0.93342295693E+02 -0.67139017356E+01  0.20280075037E+03  0.00000000000E+00 0.  1.
          4    1    6    6  503    0 -0.34951091718E+03 -0.41191644187E+02  0.77372675126E+03  0.85000454022E+03  0.00000000000E+00 0. -1.
         -4    1    6    6    0  503 -0.12598926949E+03  0.20127864508E+02  0.18686149455E+03  0.22626454671E+03  0.00000000000E+00 0.  1.
<mgrwt>
<rscale>  0 0.22319235E+04</rscale>
<asrwt>0</asrwt>
<pdfrwt beam="1">  1        2 0.33978977E+00 0.22319235E+04</pdfrwt>
<pdfrwt beam="2">  1       -1 0.86748429E-01 0.22319235E+04</pdfrwt>
<totfact> 0.69376276E+00</totfact>
</mgrwt>
</event>
<event>
12    7  0.1698542E-007  0.3055724E+04  0.7818608E-02  0.8227995E-01
         -1   -1    0    0    0  501 -0.00000000000E+00  0.00000000000E+00  0.10068971436E+04  0.10068971436E+04  0.00000000000E+00 0.  1.
          2   -1    0    0  501    0  0.00000000000E+00 -0.00000000000E+00 -0.23183727407E+04  0.23183727407E+04  0.00000000000E+00 0. -1.
         24    2    1    2    0    0 -0.85944197294E+03 -0.35743620938E+03 -0.17262928219E+04  0.19641979833E+04  0.10763671324E+03 0.  0.
        254    2    1    2    0    0  0.85944197294E+03  0.35743620938E+03  0.41481722485E+03  0.13610719010E+04  0.90224289473E+03 0.  0.
         23    2    4    4    0    0  0.84294081508E+03 -0.77861938233E+02  0.25797436066E+03  0.88976319917E+03  0.92282613140E+02 0.  0.
         23    2    4    4    0    0  0.16501157866E+02  0.43529814761E+03  0.15684286419E+03  0.47130870186E+03  0.88178471714E+02 0.  0.
          2    1    3    3  502    0 -0.37788229436E+03 -0.21056260722E+03 -0.84230877498E+03  0.94689794189E+03  0.00000000000E+00 0. -1.
         -1    1    3    3    0  502 -0.48155967858E+03 -0.14687360216E+03 -0.88398404695E+03  0.10173000414E+04  0.00000000000E+00 0.  1.
         13    1    5    5    0    0  0.97263597371E+02  0.10075309124E+02  0.67975851491E+01  0.98020030562E+02  0.00000000000E+00 0. -1.
        -13    1    5    5    0    0  0.74567721770E+03 -0.87937247357E+02  0.25117677552E+03  0.79174316861E+03  0.00000000000E+00 0.  1.
          4    1    6    6  503    0  0.10349568216E+02  0.34901622270E+02 -0.96051812700E+01  0.37649652143E+02  0.00000000000E+00 0. -1.
         -4    1    6    6    0  503  0.61515896503E+01  0.40039652534E+03  0.16644804546E+03  0.43365904971E+03  0.00000000000E+00 0.  1.
<mgrwt>
<rscale>  0 0.30557244E+04</rscale>
<asrwt>0</asrwt>
<pdfrwt beam="1">  1        2 0.35667273E+00 0.30557244E+04</pdfrwt>
<pdfrwt beam="2">  1       -1 0.15490725E+00 0.30557244E+04</pdfrwt>
<totfact> 0.13703528E+00</totfact>
</mgrwt>
</event>
<event>
12    7  0.1698542E-007  0.2150706E+04  0.7818608E-02  0.8539230E-01
          2   -1    0    0  501    0  0.00000000000E+00  0.00000000000E+00  0.17257582911E+04  0.17257582911E+04  0.00000000000E+00 0. -1.
         -1   -1    0    0    0  501 -0.00000000000E+00 -0.00000000000E+00 -0.67007289231E+03  0.67007289231E+03  0.00000000000E+00 0.  1.
         24    2    1    2    0    0 -0.36608371482E+03 -0.10193939630E+02 -0.44489976999E+03  0.58142333189E+03  0.77434377774E+02 0.  0.
        254    2    1    2    0    0  0.36608371482E+03  0.10193939630E+02  0.15005851688E+04  0.18144078515E+04  0.95194474642E+03 0.  0.
         23    2    4    4    0    0  0.64256038736E+03 -0.97978157014E+02  0.72070864969E+03  0.97492615328E+03  0.92609264942E+02 0.  0.
         23    2    4    4    0    0 -0.27647667253E+03  0.10817209664E+03  0.77987651911E+03  0.83948169826E+03  0.91550989647E+02 0.  0.
          4    1    3    3  502    0 -0.53050200972E+02  0.25928448600E+02 -0.64066024042E+02  0.87126710637E+02  0.00000000000E+00 0. -1.
         -3    1    3    3    0  502 -0.31303351385E+03 -0.36122388230E+02 -0.38083374595E+03  0.49429662125E+03  0.00000000000E+00 0.  1.
         13    1    5    5    0    0  0.10383230765E+03  0.18125647203E+01  0.16181127477E+03  0.19226887982E+03  0.00000000000E+00 0.  1.
        -13    1    5    5    0    0  0.53872807971E+03 -0.99790721734E+02  0.55889737492E+03  0.78265727346E+03  0.00000000000E+00 0. -1.
          2    1    6    6  503    0 -0.19444156980E+03  0.11299340923E+03  0.62368095833E+03  0.66298791270E+03  0.00000000000E+00 0. -1.
         -2    1    6    6    0  503 -0.82035102731E+02 -0.48213125875E+01  0.15619556078E+03  0.17649378556E+03  0.00000000000E+00 0.  1.
<mgrwt>
<rscale>  0 0.21507058E+04</rscale>
<asrwt>0</asrwt>
<pdfrwt beam="1">  1        2 0.26550127E+00 0.21507058E+04</pdfrwt>
<pdfrwt beam="2">  1       -1 0.10308814E+00 0.21507058E+04</pdfrwt>
<totfact> 0.88107721E+00</totfact>
</mgrwt>
</event>
<event>
12    7  0.1698542E-007  0.4105107E+04  0.7818608E-02  0.7983672E-01
         -1   -1    0    0    0  501 -0.00000000000E+00  0.00000000000E+00  0.26911873814E+04  0.26911873814E+04  0.00000000000E+00 0.  1.
          2   -1    0    0  501    0  0.00000000000E+00 -0.00000000000E+00 -0.15654709452E+04  0.15654709452E+04  0.00000000000E+00 0. -1.
         24    2    1    2    0    0 -0.85068645180E+03 -0.17438392768E+04  0.30398061440E+03  0.19654897339E+04  0.78120532001E+02 0.  0.
        254    2    1    2    0    0  0.85068645180E+03  0.17438392768E+04  0.82173582182E+03  0.22911685927E+04  0.89975602063E+03 0.  0.
         23    2    4    4    0    0  0.83199531601E+03  0.17929945132E+04  0.88458063292E+03  0.21674411611E+04  0.90954715263E+02 0.  0.
         23    2    4    4    0    0  0.18691135792E+02 -0.49155236439E+02 -0.62844811098E+02  0.12372743161E+03  0.92700653853E+02 0.  0.
          2    1    3    3  502    0 -0.46613593103E+03 -0.97865398977E+03  0.20769259982E+03  0.11037130759E+04  0.00000000000E+00 0. -1.
         -1    1    3    3    0  502 -0.38455052077E+03 -0.76518528700E+03  0.96288014583E+02  0.86177665797E+03  0.00000000000E+00 0.  1.
         13    1    5    5    0    0  0.43507402215E+02  0.56879578034E+02  0.39503576037E+02  0.81784552114E+02  0.00000000000E+00 0.  1.
        -13    1    5    5    0    0  0.78848791379E+03  0.17361149352E+04  0.84507705688E+03  0.20856566089E+04  0.00000000000E+00 0. -1.
          4    1    6    6  503    0  0.97320345181E+01 -0.49266569253E+02  0.92624495493E+01  0.51065647098E+02  0.00000000000E+00 0. -1.
         -4    1    6    6    0  503  0.89591012735E+01  0.11133281488E+00 -0.72107260648E+02  0.72661784514E+02  0.00000000000E+00 0.  1.
<mgrwt>
<rscale>  0 0.41051069E+04</rscale>
<asrwt>0</asrwt>
<pdfrwt beam="1">  1        2 0.24084168E+00 0.41051069E+04</pdfrwt>
<pdfrwt beam="2">  1       -1 0.41402883E+00 0.41051069E+04</pdfrwt>
<totfact> 0.59512598E-02</totfact>
</mgrwt>
</event>
<event>
12    7  0.1698542E-007  0.1609168E+04  0.7818608E-02  0.8814935E-01
         -1   -1    0    0    0  501 -0.00000000000E+00  0.00000000000E+00  0.25018126855E+03  0.25018126855E+03  0.00000000000E+00 0.  1.
          2   -1    0    0  501    0  0.00000000000E+00 -0.00000000000E+00 -0.25875466835E+04  0.25875466835E+04  0.00000000000E+00 0. -1.
         24    2    1    2    0    0 -0.11226813876E+03 -0.34735008116E+03 -0.15436322251E+04  0.15881832961E+04  0.79180311988E+02 0.  0.
        254    2    1    2    0    0  0.11226813876E+03  0.34735008116E+03 -0.79373318980E+03  0.12495446559E+04  0.89336065316E+03 0.  0.
         23    2    4    4    0    0  0.14450048930E+03  0.42275629202E+03 -0.94472113316E+03  0.10490688508E+04  0.91892113526E+02 0.  0.
         23    2    4    4    0    0 -0.32232350536E+02 -0.75406210861E+02  0.15098794335E+03  0.20047580505E+03  0.10328682546E+03 0.  0.
          4    1    3    3  502    0 -0.12023492969E+03 -0.29930144523E+03 -0.12746490127E+04  0.13148261858E+04  0.00000000000E+00 0. -1.
         -3    1    3    3    0  502  0.79667909300E+01 -0.48048635935E+02 -0.26898321242E+03  0.27335711027E+03  0.00000000000E+00 0.  1.
         13    1    5    5    0    0  0.13729847096E+03  0.39874918637E+03 -0.92685528633E+03  0.10182890089E+04  0.00000000000E+00 0. -1.
        -13    1    5    5    0    0  0.72020183418E+01  0.24007105653E+02 -0.17865846824E+02  0.30779841987E+02  0.00000000000E+00 0.  1.
          3    1    6    6  503    0 -0.67863678368E+02 -0.30178320145E+02  0.82767417040E+02  0.11120546377E+03  0.00000000000E+00 0. -1.
         -3    1    6    6    0  503  0.35631327833E+02 -0.45227890717E+02  0.68220526314E+02  0.89270341281E+02  0.00000000000E+00 0.  1.
<mgrwt>
<rscale>  0 0.16091684E+04</rscale>
<asrwt>0</asrwt>
<pdfrwt beam="1">  1        2 0.39808413E+00 0.16091684E+04</pdfrwt>
<pdfrwt beam="2">  1       -1 0.38489424E-01 0.16091684E+04</pdfrwt>
<totfact> 0.22127455E+01</totfact>
</mgrwt>
</event>
<event>
12    7  0.1698542E-007  0.1841345E+04  0.7818608E-02  0.8684617E-01
          2   -1    0    0  501    0  0.00000000000E+00  0.00000000000E+00  0.92854619297E+03  0.92854619297E+03  0.00000000000E+00 0. -1.
         -1   -1    0    0    0  501 -0.00000000000E+00 -0.00000000000E+00 -0.91286548814E+03  0.91286548814E+03  0.00000000000E+00 0.  1.
         24    2    1    2    0    0 -0.47704368363E+02 -0.70284005833E+03 -0.21545852667E+03  0.74108459059E+03  0.80772144574E+02 0.  0.
        254    2    1    2    0    0  0.47704368363E+02  0.70284005833E+03  0.23113923150E+03  0.11003270905E+04  0.81304028648E+03 0.  0.
         23    2    4    4    0    0 -0.98965026932E+02  0.82366506512E+03  0.79697408300E+02  0.83865604349E+03  0.93669986275E+02 0.  0.
         23    2    4    4    0    0  0.14666939530E+03 -0.12082500679E+03  0.15144182320E+03  0.26167104703E+03  0.97090253159E+02 0.  0.
          4    1    3    3  502    0 -0.35587412921E+02 -0.26469698342E+03 -0.11845279996E+03  0.29216779906E+03  0.00000000000E+00 0. -1.
         -3    1    3    3    0  502 -0.12116955442E+02 -0.43814307490E+03 -0.97005726707E+02  0.44891679152E+03  0.00000000000E+00 0.  1.
         13    1    5    5    0    0 -0.36758603395E+02  0.18605104161E+03 -0.18439067280E+02  0.19054181748E+03  0.00000000000E+00 0.  1.
        -13    1    5    5    0    0 -0.62206423537E+02  0.63761402352E+03  0.98136475580E+02  0.64811422601E+03  0.00000000000E+00 0. -1.
          1    1    6    6  503    0  0.13192479084E+03 -0.78126256244E+02  0.70013362041E+02  0.16855187100E+03  0.00000000000E+00 0. -1.
         -1    1    6    6    0  503  0.14744604456E+02 -0.42698750550E+02  0.81428461154E+02  0.93119176033E+02  0.00000000000E+00 0.  1.
<mgrwt>
<rscale>  0 0.18413449E+04</rscale>
<asrwt>0</asrwt>
<pdfrwt beam="1">  1        2 0.14285326E+00 0.18413449E+04</pdfrwt>
<pdfrwt beam="2">  1       -1 0.14044084E+00 0.18413449E+04</pdfrwt>
<totfact> 0.12523008E+01</totfact>
</mgrwt>
</event>
<event>
12    7  0.1698542E-007  0.2920705E+04  0.7818608E-02  0.8266744E-01
         -1   -1    0    0    0  501 -0.00000000000E+00  0.00000000000E+00  0.14067067364E+04  0.14067067364E+04  0.00000000000E+00 0.  1.
          2   -1    0    0  501    0  0.00000000000E+00 -0.00000000000E+00 -0.15160443778E+04  0.15160443778E+04  0.00000000000E+00 0. -1.
         24    2    1    2    0    0  0.52070062422E+03 -0.52262010454E+02  0.11639913537E+04  0.12781990782E+04  0.71109452734E+02 0.  0.
        254    2    1    2    0    0 -0.52070062422E+03  0.52262010454E+02 -0.12733289951E+04  0.16445520359E+04  0.89962448346E+03 0.  0.
         23    2    4    4    0    0 -0.15926808858E+03  0.23970174617E+03  0.26961388356E+01  0.30263232584E+03  0.93572454944E+02 0.  0.
         23    2    4    4    0    0 -0.36143253565E+03 -0.18743973572E+03 -0.12760251339E+04  0.13419197101E+04  0.82105014899E+02 0.  0.
          2    1    3    3  502    0  0.11120025035E+03 -0.39256594917E+02  0.28376395935E+03  0.30729230473E+03  0.00000000000E+00 0. -1.
         -1    1    3    3    0  502  0.40950037387E+03 -0.13005415537E+02  0.88022739436E+03  0.97090677350E+03  0.00000000000E+00 0.  1.
         13    1    5    5    0    0  0.84727188908E+01  0.29083091039E+02 -0.12907715276E+02  0.32927530478E+02  0.00000000000E+00 0. -1.
        -13    1    5    5    0    0 -0.16774080747E+03  0.21061865513E+03  0.15603854111E+02  0.26970479537E+03  0.00000000000E+00 0.  1.
          1    1    6    6  503    0 -0.64260908210E+02 -0.65641549231E+02 -0.34676443657E+03  0.35872531522E+03  0.00000000000E+00 0. -1.
         -1    1    6    6    0  503 -0.29717162743E+03 -0.12179818649E+03 -0.92926069735E+03  0.98319439483E+03  0.00000000000E+00 0.  1.
<mgrwt>
<rscale>  0 0.29207053E+04</rscale>
<asrwt>0</asrwt>
<pdfrwt beam="1">  1        2 0.23323760E+00 0.29207053E+04</pdfrwt>
<pdfrwt beam="2">  1       -1 0.21641642E+00 0.29207053E+04</pdfrwt>
<totfact> 0.14187908E+00</totfact>
</mgrwt>
</event>
<event>
12    7  0.1698542E-007  0.1350437E+04  0.7818608E-02  0.8990497E-01
          2   -1    0    0  501    0  0.00000000000E+00  0.00000000000E+00  0.85021875996E+02  0.85021875996E+02  0.00000000000E+00 0. -1.
         -1   -1    0    0    0  501 -0.00000000000E+00 -0.00000000000E+00 -0.53623846205E+04  0.53623846205E+04  0.00000000000E+00 0.  1.
         24    2    1    2    0    0 -0.44798638531E+02  0.25679446099E+03 -0.42654551616E+03  0.50598175220E+03  0.78269681183E+02 0.  0.
        254    2    1    2    0    0  0.44798638531E+02 -0.25679446099E+03 -0.48508172283E+04  0.49414247443E+04  0.90515214607E+03 0.  0.
         23    2    4    4    0    0 -0.25829373943E+03 -0.15128318178E+03 -0.41822598557E+04  0.41939599542E+04  0.91653367574E+02 0.  0.
         23    2    4    4    0    0  0.30309237796E+03 -0.10551127922E+03 -0.66855737261E+03  0.74746479007E+03  0.93472093767E+02 0.  0.
          4    1    3    3  502    0 -0.41140574688E+02  0.99261110620E+02 -0.11842187150E+03  0.15990326644E+03  0.00000000000E+00 0. -1.
         -3    1    3    3    0  502 -0.36580638428E+01  0.15753335037E+03 -0.30812364466E+03  0.34607848576E+03  0.00000000000E+00 0.  1.
         13    1    5    5    0    0 -0.30985057017E+02  0.25666268423E+01 -0.79084320621E+03  0.79145412889E+03  0.00000000000E+00 0. -1.
        -13    1    5    5    0    0 -0.22730868242E+03 -0.15384980862E+03 -0.33914166495E+04  0.34025058253E+04  0.00000000000E+00 0.  1.
          2    1    6    6  503    0  0.18013103073E+03 -0.93537272724E+02 -0.48961023948E+03  0.53001376985E+03  0.00000000000E+00 0. -1.
         -2    1    6    6    0  503  0.12296134723E+03 -0.11974006492E+02 -0.17894713312E+03  0.21745102023E+03  0.00000000000E+00 0.  1.
<mgrwt>
<rscale>  0 0.13504370E+04</rscale>
<asrwt>0</asrwt>
<pdfrwt beam="1">  1        2 0.13080291E-01 0.13504370E+04</pdfrwt>
<pdfrwt beam="2">  1       -1 0.82498212E+00 0.13504370E+04</pdfrwt>
<totfact> 0.26797537E-02</totfact>
</mgrwt>
</event>
<event>
12    7  0.1698542E-007  0.1640757E+04  0.7818608E-02  0.8795893E-01
          2   -1    0    0  501    0  0.00000000000E+00  0.00000000000E+00  0.73063022438E+03  0.73063022438E+03  0.00000000000E+00 0. -1.
         -1   -1    0    0    0  501 -0.00000000000E+00 -0.00000000000E+00 -0.92115149010E+03  0.92115149010E+03  0.00000000000E+00 0.  1.
         24    2    1    2    0    0  0.29097256742E+02  0.13587396096E+03  0.48968413041E+03  0.51501959058E+03  0.78398006921E+02 0.  0.
        254    2    1    2    0    0 -0.29097256742E+02 -0.13587396096E+03 -0.68020539613E+03  0.11367621239E+04  0.90013352443E+03 0.  0.
         23    2    4    4    0    0  0.26490012354E+02  0.24899447785E+03 -0.68741302124E+03  0.73718955689E+03  0.90619039213E+02 0.  0.
         23    2    4    4    0    0 -0.55587269096E+02 -0.38486843880E+03  0.72076251095E+01  0.39957256701E+03  0.91611280837E+02 0.  0.
          4    1    3    3  502    0  0.45162174703E+02  0.13500649412E+03  0.45571364890E+03  0.47743199021E+03  0.00000000000E+00 0. -1.
         -3    1    3    3    0  502 -0.16064917961E+02  0.86746683788E+00  0.33970481510E+02  0.37587600373E+02  0.00000000000E+00 0.  1.
         13    1    5    5    0    0 -0.10275223973E+02 -0.34969183282E+01 -0.21943002879E+02  0.24480687099E+02  0.00000000000E+00 0.  1.
        -13    1    5    5    0    0  0.36765236327E+02  0.25249139618E+03 -0.66547001836E+03  0.71270886979E+03  0.00000000000E+00 0. -1.
          2    1    6    6  503    0 -0.61719235631E+02 -0.36301950836E+03 -0.14024253589E+02  0.36849573564E+03  0.00000000000E+00 0. -1.
         -2    1    6    6    0  503  0.61319665350E+01 -0.21848930447E+02  0.21231878698E+02  0.31076831376E+02  0.00000000000E+00 0.  1.
<mgrwt>
<rscale>  0 0.16407573E+04</rscale>
<asrwt>0</asrwt>
<pdfrwt beam="1">  1        2 0.11240465E+00 0.16407573E+04</pdfrwt>
<pdfrwt beam="2">  1       -1 0.14171561E+00 0.16407573E+04</pdfrwt>
<totfact> 0.17192329E+01</totfact>
</mgrwt>
</event>
<event>
12    7  0.1698542E-007  0.2398150E+04  0.7818608E-02  0.8440196E-01
         -1   -1    0    0    0  501 -0.00000000000E+00  0.00000000000E+00  0.96501489439E+03  0.96501489439E+03  0.00000000000E+00 0.  1.
          2   -1    0    0  501    0  0.00000000000E+00 -0.00000000000E+00 -0.14899056676E+04  0.14899056676E+04  0.00000000000E+00 0. -1.
         24    2    1    2    0    0 -0.23347924679E+03  0.14269969700E+03  0.78975163525E+03  0.83955378336E+03  0.79165318027E+02 0.  0.
        254    2    1    2    0    0  0.23347924679E+03 -0.14269969700E+03 -0.13146424085E+04  0.16153667787E+04  0.89791391860E+03 0.  0.
         23    2    4    4    0    0 -0.16031987730E+02  0.34096565787E+03 -0.31369237625E+03  0.47257854889E+03  0.91722262697E+02 0.  0.
         23    2    4    4    0    0  0.24951123452E+03 -0.48366535488E+03 -0.10009500322E+04  0.11427882298E+04  0.88746489605E+02 0.  0.
          4    1    3    3  502    0 -0.35434002435E+01  0.57715870416E+01  0.91867291278E+02  0.92116589760E+02  0.00000000000E+00 0. -1.
         -3    1    3    3    0  502 -0.22993584655E+03  0.13692810996E+03  0.69788434397E+03  0.74743719360E+03  0.00000000000E+00 0.  1.
         13    1    5    5    0    0  0.11031842389E+02  0.15190213160E+00 -0.14805432164E+02  0.18464166439E+02  0.00000000000E+00 0.  1.
        -13    1    5    5    0    0 -0.27063830118E+02  0.34081375574E+03 -0.29888694409E+03  0.45411438245E+03  0.00000000000E+00 0. -1.
          1    1    6    6  503    0  0.24394304050E+03 -0.45014211830E+03 -0.89010499195E+03  0.10268510264E+04  0.00000000000E+00 0. -1.
         -1    1    6    6    0  503  0.55681940173E+01 -0.33523236575E+02 -0.11084504030E+03  0.11593720341E+03  0.00000000000E+00 0.  1.
<mgrwt>
<rscale>  0 0.23981503E+04</rscale>
<asrwt>0</asrwt>
<pdfrwt beam="1">  1        2 0.22921626E+00 0.23981503E+04</pdfrwt>
<pdfrwt beam="2">  1       -1 0.14846383E+00 0.23981503E+04</pdfrwt>
<totfact> 0.47267503E+00</totfact>
</mgrwt>
</event>
<event>
12    7  0.1698542E-007  0.2887075E+04  0.7818608E-02  0.8276734E-01
          2   -1    0    0  501    0  0.00000000000E+00  0.00000000000E+00  0.41926614711E+04  0.41926614711E+04  0.00000000000E+00 0. -1.
         -1   -1    0    0    0  501 -0.00000000000E+00 -0.00000000000E+00 -0.49701130606E+03  0.49701130606E+03  0.00000000000E+00 0.  1.
         24    2    1    2    0    0  0.53345522547E+03  0.44003314695E+03  0.34437267749E+04  0.35133781468E+04  0.79801340887E+02 0.  0.
        254    2    1    2    0    0 -0.53345522547E+03 -0.44003314695E+03  0.25192339012E+03  0.11762946304E+04  0.91760558790E+03 0.  0.
         23    2    4    4    0    0 -0.32015568311E+03 -0.71369557558E+03  0.14159413050E+03  0.79990732842E+03  0.89116778661E+02 0.  0.
         23    2    4    4    0    0 -0.21329954237E+03  0.27366242863E+03  0.11032925963E+03  0.37638730195E+03  0.95430791276E+02 0.  0.
          4    1    3    3  502    0  0.47869752133E+03  0.37769028464E+03  0.31315867842E+04  0.31903976328E+04  0.00000000000E+00 0. -1.
         -3    1    3    3    0  502  0.54757704145E+02  0.62342862310E+02  0.31213999073E+03  0.32298051405E+03  0.00000000000E+00 0.  1.
         13    1    5    5    0    0 -0.25242164841E+03 -0.62728873489E+03  0.13768350627E+03  0.69004680522E+03  0.00000000000E+00 0.  1.
        -13    1    5    5    0    0 -0.67734034696E+02 -0.86406840696E+02  0.39106242303E+01  0.10986052320E+03  0.00000000000E+00 0. -1.
          2    1    6    6  503    0 -0.32486455394E+02  0.85213008737E+02 -0.40260114194E+01  0.91284365639E+02  0.00000000000E+00 0. -1.
         -2    1    6    6    0  503 -0.18081308697E+03  0.18844941989E+03  0.11435527104E+03  0.28510293631E+03  0.00000000000E+00 0.  1.
<mgrwt>
<rscale>  0 0.28870748E+04</rscale>
<asrwt>0</asrwt>
<pdfrwt beam="1">  1        2 0.64502482E+00 0.28870748E+04</pdfrwt>
<pdfrwt beam="2">  1       -1 0.76463281E-01 0.28870748E+04</pdfrwt>
<totfact> 0.39784836E-01</totfact>
</mgrwt>
</event>
<event>
12    7  0.1698542E-007  0.1960111E+04  0.7818608E-02  0.8625500E-01
          2   -1    0    0  501    0  0.00000000000E+00  0.00000000000E+00  0.12066266067E+04  0.12066266067E+04  0.00000000000E+00 0. -1.
         -1   -1    0    0    0  501 -0.00000000000E+00 -0.00000000000E+00 -0.79602823623E+03  0.79602823623E+03  0.00000000000E+00 0.  1.
         24    2    1    2    0    0 -0.40119762263E+03  0.60787914226E+03  0.42770162531E+03  0.84826696152E+03  0.78431968730E+02 0.  0.
        254    2    1    2    0    0  0.40119762263E+03 -0.60787914226E+03 -0.17103254856E+02  0.11543878814E+04  0.89545646201E+03 0.  0.
         23    2    4    4    0    0  0.62535879867E+03 -0.39653077215E+03 -0.21596556090E+03  0.77663804287E+03  0.90637993169E+02 0.  0.
         23    2    4    4    0    0 -0.22416117604E+03 -0.21134837011E+03  0.19886230605E+03  0.37774983851E+03  0.90732338996E+02 0.  0.
          2    1    3    3  502    0 -0.14994212754E+03  0.26710651166E+03  0.21669795668E+03  0.37521531767E+03  0.00000000000E+00 0. -1.
         -1    1    3    3    0  502 -0.25125549509E+03  0.34077263060E+03  0.21100366863E+03  0.47305164386E+03  0.00000000000E+00 0.  1.
         13    1    5    5    0    0  0.59785842451E+03 -0.38475913347E+03 -0.18734155018E+03  0.73523543370E+03  0.00000000000E+00 0. -1.
        -13    1    5    5    0    0  0.27500374157E+02 -0.11771638679E+02 -0.28624010727E+02  0.41402609170E+02  0.00000000000E+00 0.  1.
          4    1    6    6  503    0 -0.22562206266E+03 -0.17701962374E+03  0.17918128895E+03  0.33815262332E+03  0.00000000000E+00 0. -1.
         -4    1    6    6    0  503  0.14608866228E+01 -0.34328746372E+02  0.19681017099E+02  0.39597215195E+02  0.00000000000E+00 0.  1.
<mgrwt>
<rscale>  0 0.19601111E+04</rscale>
<asrwt>0</asrwt>
<pdfrwt beam="1">  1        2 0.18563486E+00 0.19601111E+04</pdfrwt>
<pdfrwt beam="2">  1       -1 0.12246588E+00 0.19601111E+04</pdfrwt>
<totfact> 0.11745450E+01</totfact>
</mgrwt>
</event>
<event>
12    7  0.1698542E-007  0.1745371E+04  0.7818608E-02  0.8735902E-01
         -1   -1    0    0    0  501 -0.00000000000E+00  0.00000000000E+00  0.24620913214E+03  0.24620913214E+03  0.00000000000E+00 0.  1.
          2   -1    0    0  501    0  0.00000000000E+00 -0.00000000000E+00 -0.30932246789E+04  0.30932246789E+04  0.00000000000E+00 0. -1.
         24    2    1    2    0    0 -0.37815616339E+03  0.35142330540E+03 -0.31823747493E+03  0.61166177861E+03  0.79715854533E+02 0.  0.
        254    2    1    2    0    0  0.37815616339E+03 -0.35142330540E+03 -0.25287780718E+04  0.27277720324E+04  0.88290503505E+03 0.  0.
         23    2    4    4    0    0  0.41582328810E+03 -0.60602852678E+03 -0.20070660609E+04  0.21395694786E+04  0.96248628284E+02 0.  0.
         23    2    4    4    0    0 -0.37667124710E+02  0.25460522138E+03 -0.52171201090E+03  0.58820255388E+03  0.86926354113E+02 0.  0.
          4    1    3    3  502    0 -0.13451699646E+03  0.12565842325E+03 -0.15929314593E+03  0.24343206036E+03  0.00000000000E+00 0. -1.
         -3    1    3    3    0  502 -0.24363916694E+03  0.22576488215E+03 -0.15894432900E+03  0.36822971825E+03  0.00000000000E+00 0.  1.
         13    1    5    5    0    0  0.34221734272E+02 -0.10348008426E+03 -0.34192407825E+03  0.35887509000E+03  0.00000000000E+00 0.  1.
        -13    1    5    5    0    0  0.38160155383E+03 -0.50254844252E+03 -0.16651419827E+04  0.17806943886E+04  0.00000000000E+00 0. -1.
          4    1    6    6  503    0  0.49009321446E+01  0.17059756167E+03 -0.39527334796E+03  0.43054450036E+03  0.00000000000E+00 0. -1.
         -4    1    6    6    0  503 -0.42568056854E+02  0.84007659707E+02 -0.12643866294E+03  0.15765805352E+03  0.00000000000E+00 0.  1.
<mgrwt>
<rscale>  0 0.17453712E+04</rscale>
<asrwt>0</asrwt>
<pdfrwt beam="1">  1        2 0.47588074E+00 0.17453712E+04</pdfrwt>
<pdfrwt beam="2">  1       -1 0.37878327E-01 0.17453712E+04</pdfrwt>
<totfact> 0.11095692E+01</totfact>
</mgrwt>
</event>
<event>
12    7  0.1698542E-007  0.1764421E+04  0.7818608E-02  0.8725452E-01
         -1   -1    0    0    0  501 -0.00000000000E+00  0.00000000000E+00  0.36496013065E+03  0.36496013065E+03  0.00000000000E+00 0.  1.
          2   -1    0    0  501    0  0.00000000000E+00 -0.00000000000E+00 -0.21325490988E+04  0.21325490988E+04  0.00000000000E+00 0. -1.
         24    2    1    2    0    0 -0.67912921295E+02 -0.56954141704E+03 -0.23525462519E+03  0.62512207427E+03  0.80270034625E+02 0.  0.
        254    2    1    2    0    0  0.67912921295E+02  0.56954141704E+03 -0.15323343430E+04  0.18723871552E+04  0.91038207896E+03 0.  0.
         23    2    4    4    0    0  0.19201512548E+03  0.99100060837E+02 -0.13076503209E+04  0.13286756240E+04  0.93482198424E+02 0.  0.
         23    2    4    4    0    0 -0.12410220419E+03  0.47044135621E+03 -0.22468402208E+03  0.54371153127E+03  0.91776319065E+02 0.  0.
          2    1    3    3  502    0  0.84880626706E+01 -0.19902917299E+03 -0.10376570931E+03  0.22461518501E+03  0.00000000000E+00 0. -1.
         -1    1    3    3    0  502 -0.76400983965E+02 -0.37051224405E+03 -0.13148891588E+03  0.40050688926E+03  0.00000000000E+00 0.  1.
         13    1    5    5    0    0  0.17069865237E+03  0.43888043847E+02 -0.97794621405E+03  0.99370165940E+03  0.00000000000E+00 0.  1.
        -13    1    5    5    0    0  0.21316473117E+02  0.55212016990E+02 -0.32970410686E+03  0.33497396455E+03  0.00000000000E+00 0. -1.
          1    1    6    6  503    0 -0.49224519339E+01  0.11547582009E+03 -0.87375106119E+02  0.14489066474E+03  0.00000000000E+00 0. -1.
         -1    1    6    6    0  503 -0.11917975226E+03  0.35496553612E+03 -0.13730891596E+03  0.39882086653E+03  0.00000000000E+00 0.  1.
<mgrwt>
<rscale>  0 0.17644210E+04</rscale>
<asrwt>0</asrwt>
<pdfrwt beam="1">  1        2 0.32808447E+00 0.17644210E+04</pdfrwt>
<pdfrwt beam="2">  1       -1 0.56147713E-01 0.17644210E+04</pdfrwt>
<totfact> 0.19500686E+01</totfact>
</mgrwt>
</event>
<event>
12    7  0.1698542E-007  0.1717984E+04  0.7818608E-02  0.8751173E-01
          2   -1    0    0  501    0  0.00000000000E+00  0.00000000000E+00  0.18059131867E+04  0.18059131867E+04  0.00000000000E+00 0. -1.
         -1   -1    0    0    0  501 -0.00000000000E+00 -0.00000000000E+00 -0.40858410539E+03  0.40858410539E+03  0.00000000000E+00 0.  1.
         24    2    1    2    0    0  0.15463420912E+03 -0.22392926842E+03  0.12384648832E+04  0.12705868326E+04  0.80867647319E+02 0.  0.
        254    2    1    2    0    0 -0.15463420912E+03  0.22392926842E+03  0.15886419806E+03  0.94391045943E+03  0.88976011718E+03 0.  0.
         23    2    4    4    0    0 -0.24025395675E+03 -0.94386061276E+02 -0.27703908141E+03  0.38902611678E+03  0.89218689836E+02 0.  0.
         23    2    4    4    0    0  0.85619747625E+02  0.31831532969E+03  0.43590327947E+03  0.55488434265E+03  0.96070673812E+02 0.  0.
          4    1    3    3  502    0  0.14485357687E+03 -0.22111749828E+03  0.12274469187E+04  0.12555880873E+04  0.00000000000E+00 0. -1.
         -3    1    3    3    0  502  0.97806322590E+01 -0.28117701360E+01  0.11017964514E+02  0.14998745304E+02  0.00000000000E+00 0.  1.
         13    1    5    5    0    0 -0.51155123714E+02 -0.40942801648E+02 -0.12291610689E+03  0.13928937153E+03  0.00000000000E+00 0.  1.
        -13    1    5    5    0    0 -0.18909883304E+03 -0.53443259629E+02 -0.15412297452E+03  0.24973674525E+03  0.00000000000E+00 0. -1.
          2    1    6    6  503    0  0.85434677253E+02  0.13656207272E+03  0.18982489656E+03  0.24896139287E+03  0.00000000000E+00 0. -1.
         -2    1    6    6    0  503  0.18507037237E+00  0.18175325698E+03  0.24607838290E+03  0.30592294978E+03  0.00000000000E+00 0.  1.
<mgrwt>
<rscale>  0 0.17179842E+04</rscale>
<asrwt>0</asrwt>
<pdfrwt beam="1">  1        2 0.27783279E+00 0.17179842E+04</pdfrwt>
<pdfrwt beam="2">  1       -1 0.62859094E-01 0.17179842E+04</pdfrwt>
<totfact> 0.23792158E+01</totfact>
</mgrwt>
</event>
<event>
12    7  0.1698542E-007  0.3429140E+04  0.7818608E-02  0.8130791E-01
          2   -1    0    0  501    0  0.00000000000E+00  0.00000000000E+00  0.18929868787E+04  0.18929868787E+04  0.00000000000E+00 0. -1.
         -1   -1    0    0    0  501 -0.00000000000E+00 -0.00000000000E+00 -0.15529688994E+04  0.15529688994E+04  0.00000000000E+00 0.  1.
         24    2    1    2    0    0 -0.24896340034E+03 -0.15885478390E+04 -0.12747165302E+03  0.16150726957E+04  0.82120512703E+02 0.  0.
        254    2    1    2    0    0  0.24896340034E+03  0.15885478390E+04  0.46748963239E+03  0.18308830824E+04  0.74035079100E+03 0.  0.
         23    2    4    4    0    0 -0.99699003881E+02  0.10937454648E+03 -0.10689124844E+03  0.20366451305E+03  0.90281848069E+02 0.  0.
         23    2    4    4    0    0  0.34866240422E+03  0.14791732925E+04  0.57438088083E+03  0.16272185694E+04  0.91693919858E+02 0.  0.
          2    1    3    3  502    0 -0.78260980075E+02 -0.34269461790E+03 -0.51696449919E+02  0.35529833249E+03  0.00000000000E+00 0. -1.
         -1    1    3    3    0  502 -0.17070242026E+03 -0.12458532211E+04 -0.75775203103E+02  0.12597743632E+04  0.00000000000E+00 0.  1.
         13    1    5    5    0    0  0.44364243027E+01  0.56267605171E+02 -0.33296818315E+02  0.65531697385E+02  0.00000000000E+00 0.  1.
        -13    1    5    5    0    0 -0.10413542818E+03  0.53106941305E+02 -0.73594430122E+02  0.13813281566E+03  0.00000000000E+00 0. -1.
          4    1    6    6  503    0  0.67605306369E+02  0.29507547317E+03  0.15416842820E+03  0.33971740693E+03  0.00000000000E+00 0.  1.
         -4    1    6    6    0  503  0.28105709785E+03  0.11840978193E+04  0.42021245263E+03  0.12875011625E+04  0.00000000000E+00 0. -1.
<mgrwt>
<rscale>  0 0.34291397E+04</rscale>
<asrwt>0</asrwt>
<pdfrwt beam="1">  1        2 0.29122875E+00 0.34291397E+04</pdfrwt>
<pdfrwt beam="2">  1       -1 0.23891829E+00 0.34291397E+04</pdfrwt>
<totfact> 0.59373716E-01</totfact>
</mgrwt>
</event>
<event>
12    7  0.1698542E-007  0.1835004E+04  0.7818608E-02  0.8687903E-01
         -1   -1    0    0    0  501 -0.00000000000E+00  0.00000000000E+00  0.51863486124E+03  0.51863486124E+03  0.00000000000E+00 0.  1.
          2   -1    0    0  501    0  0.00000000000E+00 -0.00000000000E+00 -0.16231272480E+04  0.16231272480E+04  0.00000000000E+00 0. -1.
         24    2    1    2    0    0  0.26516956625E+03 -0.67176325946E+03 -0.42988260671E+03  0.84375424960E+03  0.74440597439E+02 0.  0.
        254    2    1    2    0    0 -0.26516956625E+03  0.67176325946E+03 -0.67460978005E+03  0.12980078596E+04  0.84151367947E+03 0.  0.
         23    2    4    4    0    0  0.10262959076E+03 -0.12016612040E+03 -0.28176907404E+03  0.33602224252E+03  0.92435961566E+02 0.  0.
         23    2    4    4    0    0 -0.36779915701E+03  0.79192937985E+03 -0.39284070601E+03  0.96198561712E+03  0.93081387429E+02 0.  0.
          2    1    3    3  502    0  0.17687536181E+03 -0.47860347722E+03 -0.26547694789E+03  0.57517318425E+03  0.00000000000E+00 0. -1.
         -1    1    3    3    0  502  0.88294204430E+02 -0.19315978224E+03 -0.16440565882E+03  0.26858106535E+03  0.00000000000E+00 0.  1.
         13    1    5    5    0    0  0.94773543327E+01 -0.22431101372E+01  0.59563281125E+01  0.11416200455E+02  0.00000000000E+00 0. -1.
        -13    1    5    5    0    0  0.93152236428E+02 -0.11792301026E+03 -0.28772540215E+03  0.32460604206E+03  0.00000000000E+00 0.  1.
          4    1    6    6  503    0  0.15358946122E+01  0.33512389447E+00  0.26724960579E+01  0.31005669585E+01  0.00000000000E+00 0. -1.
         -4    1    6    6    0  503 -0.36933505162E+03  0.79159425596E+03 -0.39551320207E+03  0.95888505016E+03  0.00000000000E+00 0.  1.
<mgrwt>
<rscale>  0 0.18350045E+04</rscale>
<asrwt>0</asrwt>
<pdfrwt beam="1">  1        2 0.24971188E+00 0.18350045E+04</pdfrwt>
<pdfrwt beam="2">  1       -1 0.79789980E-01 0.18350045E+04</pdfrwt>
<totfact> 0.18210213E+01</totfact>
</mgrwt>
</event>
<event>
12    7  0.1698542E-007  0.1781536E+04  0.7818608E-02  0.8716180E-01
          2   -1    0    0  501    0  0.00000000000E+00  0.00000000000E+00  0.13575025963E+04  0.13575025963E+04  0.00000000000E+00 0. -1.
         -1   -1    0    0    0  501 -0.00000000000E+00 -0.00000000000E+00 -0.58450571027E+03  0.58450571027E+03  0.00000000000E+00 0.  1.
         24    2    1    2    0    0  0.26251505511E+03 -0.29012697082E+03 -0.29064306528E+03  0.49392824263E+03  0.80024397047E+02 0.  0.
        254    2    1    2    0    0 -0.26251505511E+03  0.29012697082E+03  0.10636399513E+04  0.14480800639E+04  0.90139786565E+03 0.  0.
         23    2    4    4    0    0 -0.56115514377E+03  0.71206905362E+02  0.80330777537E+03  0.98674918270E+03  0.91679053507E+02 0.  0.
         23    2    4    4    0    0  0.29864008866E+03  0.21892006545E+03  0.26033217593E+03  0.46133088122E+03  0.89114771673E+02 0.  0.
          2    1    3    3  502    0  0.77613960719E+02 -0.39093226588E+02 -0.75549582732E+02  0.11515184199E+03  0.00000000000E+00 0. -1.
         -1    1    3    3    0  502  0.18490109439E+03 -0.25103374423E+03 -0.21509348255E+03  0.37877640064E+03  0.00000000000E+00 0.  1.
         13    1    5    5    0    0 -0.51917328306E+03  0.51145269194E+02  0.69620355196E+03  0.86997478249E+03  0.00000000000E+00 0. -1.
        -13    1    5    5    0    0 -0.41981860713E+02  0.20061636168E+02  0.10710422340E+03  0.11677440021E+03  0.00000000000E+00 0.  1.
          4    1    6    6  503    0  0.10319451723E+03  0.93950040898E+02  0.14854889163E+03  0.20381975316E+03  0.00000000000E+00 0.  1.
         -4    1    6    6    0  503  0.19544557143E+03  0.12497002456E+03  0.11178328430E+03  0.25751112807E+03  0.00000000000E+00 0. -1.
<mgrwt>
<rscale>  0 0.17815364E+04</rscale>
<asrwt>0</asrwt>
<pdfrwt beam="1">  1        2 0.20884655E+00 0.17815364E+04</pdfrwt>
<pdfrwt beam="2">  1       -1 0.89923956E-01 0.17815364E+04</pdfrwt>
<totfact> 0.19965773E+01</totfact>
</mgrwt>
</event>
<event>
12    7  0.1698542E-007  0.2133131E+04  0.7818608E-02  0.8546788E-01
         -1   -1    0    0    0  501 -0.00000000000E+00  0.00000000000E+00  0.14224681147E+04  0.14224681147E+04  0.00000000000E+00 0.  1.
          2   -1    0    0  501    0  0.00000000000E+00 -0.00000000000E+00 -0.79971000825E+03  0.79971000825E+03  0.00000000000E+00 0. -1.
         24    2    1    2    0    0  0.47573823797E+03 -0.44679272123E+03 -0.35006084035E+03  0.74487096250E+03  0.79621303810E+02 0.  0.
        254    2    1    2    0    0 -0.47573823797E+03  0.44679272123E+03  0.97281894677E+03  0.14773071604E+04  0.90006062920E+03 0.  0.
         23    2    4    4    0    0 -0.48847925239E+03  0.56668642119E+03  0.10623368129E+04  0.13026213274E+04  0.92289427902E+02 0.  0.
         23    2    4    4    0    0  0.12741014427E+02 -0.11989369996E+03 -0.89517866150E+02  0.17468583303E+03  0.89246059653E+02 0.  0.
          2    1    3    3  502    0  0.36932462522E+03 -0.35509994900E+03 -0.30988510626E+03  0.59876993216E+03  0.00000000000E+00 0. -1.
         -1    1    3    3    0  502  0.10641361275E+03 -0.91692772229E+02 -0.40175734084E+02  0.14610103034E+03  0.00000000000E+00 0.  1.
         13    1    5    5    0    0 -0.30799189039E+03  0.35775155174E+03  0.59121863158E+03  0.75656106670E+03  0.00000000000E+00 0.  1.
        -13    1    5    5    0    0 -0.18048736200E+03  0.20893486945E+03  0.47111818133E+03  0.54606026068E+03  0.00000000000E+00 0. -1.
          1    1    6    6  503    0  0.77888744294E+01 -0.82313027006E+02 -0.10508155109E+03  0.13370951110E+03  0.00000000000E+00 0. -1.
         -1    1    6    6    0  503  0.49521399975E+01 -0.37580672954E+02  0.15563684938E+02  0.40976321932E+02  0.00000000000E+00 0.  1.
<mgrwt>
<rscale>  0 0.21331310E+04</rscale>
<asrwt>0</asrwt>
<pdfrwt beam="1">  1        2 0.12303231E+00 0.21331310E+04</pdfrwt>
<pdfrwt beam="2">  1       -1 0.21884125E+00 0.21331310E+04</pdfrwt>
<totfact> 0.40488416E+00</totfact>
</mgrwt>
</event>
<event>
12    7  0.1698542E-007  0.1110450E+04  0.7818608E-02  0.9195066E-01
         -1   -1    0    0    0  501 -0.00000000000E+00  0.00000000000E+00  0.91625104516E+03  0.91625104516E+03  0.00000000000E+00 0.  1.
          2   -1    0    0  501    0  0.00000000000E+00 -0.00000000000E+00 -0.33645258690E+03  0.33645258690E+03  0.00000000000E+00 0. -1.
         24    2    1    2    0    0  0.20858376294E+02  0.16382715487E+03  0.39485440066E+02  0.18960505197E+03  0.84359748826E+02 0.  0.
        254    2    1    2    0    0 -0.20858376294E+02 -0.16382715487E+03  0.54031301819E+03  0.10630985801E+04  0.90053652054E+03 0.  0.
         23    2    4    4    0    0  0.20897733436E+03 -0.46380844817E+03  0.23705282445E+03  0.57033392967E+03  0.10147387292E+03 0.  0.
         23    2    4    4    0    0 -0.22983571065E+03  0.29998129330E+03  0.30326019374E+03  0.49276465042E+03  0.89649458295E+02 0.  0.
          2    1    3    3  502    0  0.14950684843E+02  0.60852847039E+02 -0.25548384842E+02  0.67670613549E+02  0.00000000000E+00 0. -1.
         -1    1    3    3    0  502  0.59076914507E+01  0.10297430783E+03  0.65033824908E+02  0.12193443842E+03  0.00000000000E+00 0.  1.
         13    1    5    5    0    0  0.86091324321E+02 -0.21024605915E+03  0.51496433596E+02  0.23295279390E+03  0.00000000000E+00 0.  1.
        -13    1    5    5    0    0  0.12288601004E+03 -0.25356238901E+03  0.18555639085E+03  0.33738113577E+03  0.00000000000E+00 0. -1.
          1    1    6    6  503    0 -0.14641665124E+03  0.15693704526E+03  0.12050317330E+03  0.24614647410E+03  0.00000000000E+00 0. -1.
         -1    1    6    6    0  503 -0.83419059407E+02  0.14304424805E+03  0.18275702044E+03  0.24661817632E+03  0.00000000000E+00 0.  1.
<mgrwt>
<rscale>  0 0.11104504E+04</rscale>
<asrwt>0</asrwt>
<pdfrwt beam="1">  1        2 0.51761937E-01 0.11104504E+04</pdfrwt>
<pdfrwt beam="2">  1       -1 0.14096170E+00 0.11104504E+04</pdfrwt>
<totfact> 0.45202667E+01</totfact>
</mgrwt>
</event>
<event>
12    7  0.1698542E-007  0.1327607E+04  0.7818608E-02  0.9007954E-01
          2   -1    0    0  501    0  0.00000000000E+00  0.00000000000E+00  0.40804979020E+03  0.40804979020E+03  0.00000000000E+00 0. -1.
         -1   -1    0    0    0  501 -0.00000000000E+00 -0.00000000000E+00 -0.10798566371E+04  0.10798566371E+04  0.00000000000E+00 0.  1.
         24    2    1    2    0    0  0.29061200986E+03  0.56665237484E+02  0.27552229866E+02  0.30846938834E+03  0.82024074244E+02 0.  0.
        254    2    1    2    0    0 -0.29061200986E+03 -0.56665237484E+02 -0.69935907671E+03  0.11794370389E+04  0.90238701297E+03 0.  0.
         23    2    4    4    0    0 -0.30292133310E+03  0.38080578928E+03 -0.43867957498E+03  0.66192738204E+03  0.94518285996E+02 0.  0.
         23    2    4    4    0    0  0.12309323237E+02 -0.43747102677E+03 -0.26067950173E+03  0.51750965688E+03  0.91268963212E+02 0.  0.
          2    1    3    3  502    0  0.26215765314E+03  0.47325813330E+02  0.49994420163E+02  0.27104577059E+03  0.00000000000E+00 0. -1.
         -3    1    3    3    0  502  0.28454356722E+02  0.93394241536E+01 -0.22442190297E+02  0.37423617748E+02  0.00000000000E+00 0.  1.
         13    1    5    5    0    0 -0.26521474979E+01  0.60917786134E+01 -0.31973050331E+02  0.32656080605E+02  0.00000000000E+00 0. -1.
        -13    1    5    5    0    0 -0.30026918560E+03  0.37471401067E+03 -0.40670652465E+03  0.62927130143E+03  0.00000000000E+00 0.  1.
          1    1    6    6  503    0 -0.24265662663E+02 -0.19946222955E+03 -0.15851125693E+03  0.25592933004E+03  0.00000000000E+00 0. -1.
         -1    1    6    6    0  503  0.36574985899E+02 -0.23800879721E+03 -0.10216824481E+03  0.26158032684E+03  0.00000000000E+00 0.  1.
<mgrwt>
<rscale>  0 0.13276073E+04</rscale>
<asrwt>0</asrwt>
<pdfrwt beam="1">  1        2 0.62776892E-01 0.13276073E+04</pdfrwt>
<pdfrwt beam="2">  1       -1 0.16613179E+00 0.13276073E+04</pdfrwt>
<totfact> 0.22874312E+01</totfact>
</mgrwt>
</event>
<event>
12    7  0.1698542E-007  0.1661530E+04  0.7818608E-02  0.8783614E-01
          2   -1    0    0  501    0  0.00000000000E+00  0.00000000000E+00  0.12741111645E+04  0.12741111645E+04  0.00000000000E+00 0. -1.
         -1   -1    0    0    0  501 -0.00000000000E+00 -0.00000000000E+00 -0.54168800007E+03  0.54168800007E+03  0.00000000000E+00 0.  1.
         24    2    1    2    0    0 -0.70412634921E+02  0.51243694936E+03 -0.39782087436E+02  0.52497600557E+03  0.80421550076E+02 0.  0.
        254    2    1    2    0    0  0.70412634921E+02 -0.51243694936E+03  0.77220525183E+03  0.12908231590E+04  0.89575326434E+03 0.  0.
         23    2    4    4    0    0  0.14397438351E+03  0.69722872349E+02  0.66201435057E+03  0.68703707862E+03  0.90371704663E+02 0.  0.
         23    2    4    4    0    0 -0.73561748593E+02 -0.58215982171E+03  0.11019090127E+03  0.60378608036E+03  0.89967812286E+02 0.  0.
          4    1    3    3  502    0 -0.55065882755E+02  0.42770461951E+03 -0.27596762941E+01  0.43124367683E+03  0.00000000000E+00 0. -1.
         -3    1    3    3    0  502 -0.15346752166E+02  0.84732329849E+02 -0.37022411142E+02  0.93732328737E+02  0.00000000000E+00 0.  1.
         13    1    5    5    0    0  0.13831395270E+03  0.33444044711E+02  0.57961125867E+03  0.59682364632E+03  0.00000000000E+00 0.  1.
        -13    1    5    5    0    0  0.56604308165E+01  0.36278827638E+02  0.82403091899E+02  0.90213432294E+02  0.00000000000E+00 0. -1.
          4    1    6    6  503    0  0.74302067467E+01 -0.23964456098E+03  0.68573517828E+02  0.24937331639E+03  0.00000000000E+00 0. -1.
         -4    1    6    6    0  503 -0.80991955340E+02 -0.34251526073E+03  0.41617383440E+02  0.35441276397E+03  0.00000000000E+00 0.  1.
<mgrwt>
<rscale>  0 0.16615303E+04</rscale>
<asrwt>0</asrwt>
<pdfrwt beam="1">  1        2 0.19601710E+00 0.16615303E+04</pdfrwt>
<pdfrwt beam="2">  1       -1 0.83336616E-01 0.16615303E+04</pdfrwt>
<totfact> 0.26618588E+01</totfact>
</mgrwt>
</event>
<event>
12    7  0.1698542E-007  0.1138611E+04  0.7818608E-02  0.9168355E-01
          2   -1    0    0  501    0  0.00000000000E+00  0.00000000000E+00  0.85344658388E+03  0.85344658388E+03  0.00000000000E+00 0. -1.
         -1   -1    0    0    0  501 -0.00000000000E+00 -0.00000000000E+00 -0.37976468230E+03  0.37976468230E+03  0.00000000000E+00 0.  1.
         24    2    1    2    0    0 -0.14771506315E+03 -0.59017534106E+02  0.21500337943E+03  0.27890512232E+03  0.79112608844E+02 0.  0.
        254    2    1    2    0    0  0.14771506315E+03  0.59017534106E+02  0.25867852215E+03  0.95430614386E+03  0.90470040852E+03 0.  0.
         23    2    4    4    0    0  0.45208053331E+03  0.21840604598E+03  0.30788845269E+03  0.59551905708E+03  0.88145553059E+02 0.  0.
         23    2    4    4    0    0 -0.30436547016E+03 -0.15938851188E+03 -0.49209930543E+02  0.35878708677E+03  0.90903901046E+02 0.  0.
          4    1    3    3  502    0 -0.80100951857E+02 -0.21508388763E+02  0.50414422617E+02  0.97058679588E+02  0.00000000000E+00 0. -1.
         -3    1    3    3    0  502 -0.67614111291E+02 -0.37509145343E+02  0.16458895681E+03  0.18184644273E+03  0.00000000000E+00 0.  1.
         13    1    5    5    0    0  0.38299610505E+03  0.20453530518E+03  0.29212506586E+03  0.52331420930E+03  0.00000000000E+00 0.  1.
        -13    1    5    5    0    0  0.69084428268E+02  0.13870740798E+02  0.15763386831E+02  0.72204847786E+02  0.00000000000E+00 0. -1.
          4    1    6    6  503    0 -0.44137881674E+02  0.52279366321E+01  0.91586380639E+01  0.45380222248E+02  0.00000000000E+00 0. -1.
         -4    1    6    6    0  503 -0.26022758849E+03 -0.16461644851E+03 -0.58368568607E+02  0.31340686453E+03  0.00000000000E+00 0.  1.
<mgrwt>
<rscale>  0 0.11386112E+04</rscale>
<asrwt>0</asrwt>
<pdfrwt beam="1">  1        2 0.13129947E+00 0.11386112E+04</pdfrwt>
<pdfrwt beam="2">  1       -1 0.58425336E-01 0.11386112E+04</pdfrwt>
<totfact> 0.10592596E+02</totfact>
</mgrwt>
</event>
<event>
12    7  0.1698542E-007  0.3242541E+04  0.7818608E-02  0.8177672E-01
         -1   -1    0    0    0  501 -0.00000000000E+00  0.00000000000E+00  0.94842687986E+03  0.94842687986E+03  0.00000000000E+00 0.  1.
          2   -1    0    0  501    0  0.00000000000E+00 -0.00000000000E+00 -0.27714508960E+04  0.27714508960E+04  0.00000000000E+00 0. -1.
         24    2    1    2    0    0 -0.10128842169E+04 -0.10207783352E+04 -0.13096724933E+04  0.19465564390E+04  0.76922584728E+02 0.  0.
        254    2    1    2    0    0  0.10128842169E+04  0.10207783352E+04 -0.51335152286E+03  0.17733213368E+04  0.90178485849E+03 0.  0.
         23    2    4    4    0    0  0.99258459651E+03  0.42422330476E+03 -0.23957979603E+03  0.11094515539E+04  0.91075124164E+02 0.  0.
         23    2    4    4    0    0  0.20299620431E+02  0.59655503047E+03 -0.27377172683E+03  0.66386978293E+03  0.97376338534E+02 0.  0.
          2    1    3    3  502    0 -0.28330169367E+03 -0.30137002612E+03 -0.42194801059E+03  0.59086704589E+03  0.00000000000E+00 0. -1.
         -1    1    3    3    0  502 -0.72958252328E+03 -0.71940830912E+03 -0.88772448269E+03  0.13556893931E+04  0.00000000000E+00 0.  1.
         13    1    5    5    0    0  0.17716910130E+03  0.55721901728E+02 -0.71349675938E+02  0.19895878227E+03  0.00000000000E+00 0. -1.
        -13    1    5    5    0    0  0.81541549522E+03  0.36850140304E+03 -0.16823012009E+03  0.91049277163E+03  0.00000000000E+00 0.  1.
          3    1    6    6  503    0  0.48629400964E+02  0.24871587411E+03 -0.14435803065E+03  0.29165672577E+03  0.00000000000E+00 0. -1.
         -3    1    6    6    0  503 -0.28329780534E+02  0.34783915636E+03 -0.12941369618E+03  0.37221305716E+03  0.00000000000E+00 0.  1.
<mgrwt>
<rscale>  0 0.32425413E+04</rscale>
<asrwt>0</asrwt>
<pdfrwt beam="1">  1        2 0.42637706E+00 0.32425413E+04</pdfrwt>
<pdfrwt beam="2">  1       -1 0.14591183E+00 0.32425413E+04</pdfrwt>
<totfact> 0.86148050E-01</totfact>
</mgrwt>
</event>
<event>
12    7  0.1698542E-007  0.2103935E+04  0.7818608E-02  0.8559512E-01
          2   -1    0    0  501    0  0.00000000000E+00  0.00000000000E+00  0.20156470690E+04  0.20156470690E+04  0.00000000000E+00 0. -1.
         -1   -1    0    0    0  501 -0.00000000000E+00 -0.00000000000E+00 -0.54902241348E+03  0.54902241348E+03  0.00000000000E+00 0.  1.
         24    2    1    2    0    0  0.57368460759E+03  0.43354420515E+03  0.11765079964E+04  0.13812037025E+04  0.80485994364E+02 0.  0.
        254    2    1    2    0    0 -0.57368460759E+03 -0.43354420515E+03  0.29011665914E+03  0.11834657800E+04  0.89406317998E+03 0.  0.
         23    2    4    4    0    0 -0.35883138819E+03 -0.59869370284E+03  0.46848479907E+03  0.84600925453E+03  0.95181599137E+02 0.  0.
         23    2    4    4    0    0 -0.21485321940E+03  0.16514949769E+03 -0.17836813993E+03  0.33745652551E+03  0.92873305063E+02 0.  0.
          2    1    3    3  502    0  0.45237668616E+03  0.32779507904E+03  0.97028531552E+03  0.11196195218E+04  0.00000000000E+00 0. -1.
         -1    1    3    3    0  502  0.12130792144E+03  0.10574912611E+03  0.20622268087E+03  0.26158418068E+03  0.00000000000E+00 0.  1.
         13    1    5    5    0    0 -0.30945608503E+03 -0.48565435733E+03  0.34415180829E+03  0.67086786367E+03  0.00000000000E+00 0.  1.
        -13    1    5    5    0    0 -0.49375303161E+02 -0.11303934551E+03  0.12433299077E+03  0.17514139085E+03  0.00000000000E+00 0. -1.
          3    1    6    6  503    0  0.25553225769E+01  0.16876967625E+02 -0.32166163480E+02  0.36414609468E+02  0.00000000000E+00 0. -1.
         -3    1    6    6    0  503 -0.21740854198E+03  0.14827253006E+03 -0.14620197645E+03  0.30104191604E+03  0.00000000000E+00 0.  1.
<mgrwt>
<rscale>  0 0.21039348E+04</rscale>
<asrwt>0</asrwt>
<pdfrwt beam="1">  1        2 0.31009954E+00 0.21039348E+04</pdfrwt>
<pdfrwt beam="2">  1       -1 0.84464988E-01 0.21039348E+04</pdfrwt>
<totfact> 0.95316041E+00</totfact>
</mgrwt>
</event>
<event>
12    7  0.1698542E-007  0.1337465E+04  0.7818608E-02  0.9000371E-01
          2   -1    0    0  501    0  0.00000000000E+00  0.00000000000E+00  0.12927816332E+04  0.12927816332E+04  0.00000000000E+00 0. -1.
         -1   -1    0    0    0  501 -0.00000000000E+00 -0.00000000000E+00 -0.34592324408E+03  0.34592324408E+03  0.00000000000E+00 0.  1.
         24    2    1    2    0    0 -0.26269215123E+03 -0.19002152681E+03  0.41266733616E+03  0.53087744760E+03  0.80132309748E+02 0.  0.
        254    2    1    2    0    0  0.26269215123E+03  0.19002152681E+03  0.53419105295E+03  0.11078274297E+04  0.91477111121E+03 0.  0.
         23    2    4    4    0    0 -0.92720840701E+02  0.38166795333E+03 -0.34482507617E+02  0.40469067209E+03  0.91202608772E+02 0.  0.
         23    2    4    4    0    0  0.35541299193E+03 -0.19164642652E+03  0.56867356057E+03  0.70313675757E+03  0.89246477446E+02 0.  0.
          2    1    3    3  502    0 -0.21480169747E+03 -0.18826003713E+03  0.36238675459E+03  0.46141713310E+03  0.00000000000E+00 0. -1.
         -3    1    3    3    0  502 -0.47890453754E+02 -0.17614896786E+01  0.50280581579E+02  0.69460314501E+02  0.00000000000E+00 0.  1.
         13    1    5    5    0    0 -0.51202487368E+02  0.34193482970E+03 -0.30227716709E+02  0.34706604175E+03  0.00000000000E+00 0.  1.
        -13    1    5    5    0    0 -0.41518353334E+02  0.39733123629E+02 -0.42547909080E+01  0.57624630346E+02  0.00000000000E+00 0. -1.
          4    1    6    6  503    0  0.19137591378E+03 -0.84879731068E+02  0.22281324829E+03  0.30573690117E+03  0.00000000000E+00 0. -1.
         -4    1    6    6    0  503  0.16403707815E+03 -0.10676669545E+03  0.34586031228E+03  0.39739985641E+03  0.00000000000E+00 0.  1.
<mgrwt>
<rscale>  0 0.13374651E+04</rscale>
<asrwt>0</asrwt>
<pdfrwt beam="1">  1        2 0.19888948E+00 0.13374651E+04</pdfrwt>
<pdfrwt beam="2">  1       -1 0.53218961E-01 0.13374651E+04</pdfrwt>
<totfact> 0.66234144E+01</totfact>
</mgrwt>
</event>
<event>
12    7  0.1698542E-007  0.1839312E+04  0.7818608E-02  0.8685669E-01
          2   -1    0    0  501    0  0.00000000000E+00  0.00000000000E+00  0.29881668765E+04  0.29881668765E+04  0.00000000000E+00 0. -1.
         -1   -1    0    0    0  501 -0.00000000000E+00 -0.00000000000E+00 -0.28303884934E+03  0.28303884934E+03  0.00000000000E+00 0.  1.
         24    2    1    2    0    0  0.11947701709E+03  0.23625347980E+03  0.21882942698E+04  0.22056632283E+04  0.78917686407E+02 0.  0.
        254    2    1    2    0    0 -0.11947701709E+03 -0.23625347980E+03  0.51683375744E+03  0.10655424976E+04  0.89340540462E+03 0.  0.
         23    2    4    4    0    0  0.14991281347E+03 -0.29571624726E+02 -0.19987226942E+03  0.26743513898E+03  0.90687909032E+02 0.  0.
         23    2    4    4    0    0 -0.26938983056E+03 -0.20668185507E+03  0.71670602686E+03  0.79810735861E+03  0.89551978790E+02 0.  0.
          4    1    3    3  502    0  0.64716404516E+02  0.19221303561E+03  0.17592280893E+04  0.17708804404E+04  0.00000000000E+00 0. -1.
         -3    1    3    3    0  502  0.54760612571E+02  0.44040444187E+02  0.42906618044E+03  0.43478278785E+03  0.00000000000E+00 0.  1.
         13    1    5    5    0    0  0.67904299517E+01 -0.33750046350E+02 -0.41910299841E+02  0.54236968945E+02  0.00000000000E+00 0.  1.
        -13    1    5    5    0    0  0.14312238352E+03  0.41784216240E+01 -0.15796196958E+03  0.21319817003E+03  0.00000000000E+00 0. -1.
          2    1    6    6  503    0 -0.13623558649E+03 -0.15781899902E+03  0.39931743678E+03  0.45046796422E+03  0.00000000000E+00 0. -1.
         -2    1    6    6    0  503 -0.13315424407E+03 -0.48862856060E+02  0.31738859008E+03  0.34763939438E+03  0.00000000000E+00 0.  1.
<mgrwt>
<rscale>  0 0.18393122E+04</rscale>
<asrwt>0</asrwt>
<pdfrwt beam="1">  1        2 0.45971796E+00 0.18393122E+04</pdfrwt>
<pdfrwt beam="2">  1       -1 0.43544440E-01 0.18393122E+04</pdfrwt>
<totfact> 0.99149393E+00</totfact>
</mgrwt>
</event>
<event>
12    7  0.1698542E-007  0.1833823E+04  0.7818608E-02  0.8688517E-01
         -1   -1    0    0    0  501 -0.00000000000E+00  0.00000000000E+00  0.17406741092E+04  0.17406741092E+04  0.00000000000E+00 0.  1.
          2   -1    0    0  501    0  0.00000000000E+00 -0.00000000000E+00 -0.48298925683E+03  0.48298925683E+03  0.00000000000E+00 0. -1.
         24    2    1    2    0    0 -0.36122862871E+03  0.44930633752E+03  0.95982295871E+01  0.58234399081E+03  0.81670621878E+02 0.  0.
        254    2    1    2    0    0  0.36122862871E+03 -0.44930633752E+03  0.12480866227E+04  0.16413193752E+04  0.89657501992E+03 0.  0.
         23    2    4    4    0    0  0.47096412944E+03  0.85753320997E+02  0.76369656085E+03  0.90562445824E+03  0.88104364358E+02 0.  0.
         23    2    4    4    0    0 -0.10973550073E+03 -0.53505965852E+03  0.48439006190E+03  0.73569491695E+03  0.91008573620E+02 0.  0.
          4    1    3    3  502    0 -0.10815425949E+03  0.15535559971E+03 -0.32921908657E+02  0.19213682177E+03  0.00000000000E+00 0. -1.
         -3    1    3    3    0  502 -0.25307436922E+03  0.29395073781E+03  0.42520138244E+02  0.39020716904E+03  0.00000000000E+00 0.  1.
         13    1    5    5    0    0  0.18550550902E+03  0.77593396383E+02  0.32427844304E+03  0.38156197093E+03  0.00000000000E+00 0.  1.
        -13    1    5    5    0    0  0.28545862042E+03  0.81599246137E+01  0.43941811781E+03  0.52406248731E+03  0.00000000000E+00 0. -1.
          3    1    6    6  503    0 -0.11317935531E+03 -0.33436735394E+03  0.30972820097E+03  0.46961968903E+03  0.00000000000E+00 0. -1.
         -3    1    6    6    0  503  0.34438545831E+01 -0.20069230458E+03  0.17466186093E+03  0.26607522792E+03  0.00000000000E+00 0.  1.
<mgrwt>
<rscale>  0 0.18338232E+04</rscale>
<asrwt>0</asrwt>
<pdfrwt beam="1">  1        2 0.74306040E-01 0.18338232E+04</pdfrwt>
<pdfrwt beam="2">  1       -1 0.26779601E+00 0.18338232E+04</pdfrwt>
<totfact> 0.36845074E+00</totfact>
</mgrwt>
</event>
<event>
12    7  0.1698542E-007  0.1674542E+04  0.7818608E-02  0.8776019E-01
          2   -1    0    0  501    0  0.00000000000E+00  0.00000000000E+00  0.25816550270E+04  0.25816550270E+04  0.00000000000E+00 0. -1.
         -1   -1    0    0    0  501 -0.00000000000E+00 -0.00000000000E+00 -0.27154003988E+03  0.27154003988E+03  0.00000000000E+00 0.  1.
         24    2    1    2    0    0  0.52394116037E+01 -0.20632082554E+03  0.17936763158E+04  0.18073428966E+04  0.81350387277E+02 0.  0.
        254    2    1    2    0    0 -0.52394116037E+01  0.20632082554E+03  0.51643867135E+03  0.10458521703E+04  0.88572124644E+03 0.  0.
         23    2    4    4    0    0 -0.28945307605E+03 -0.19469985114E+03  0.38685863440E+03  0.52899725843E+03  0.92126983825E+02 0.  0.
         23    2    4    4    0    0  0.28421366445E+03  0.40102067667E+03  0.12958003695E+03  0.51685491188E+03  0.93557596044E+02 0.  0.
          2    1    3    3  502    0  0.12207882535E+02 -0.16205708963E+03  0.10690264440E+04  0.10813089617E+04  0.00000000000E+00 0. -1.
         -1    1    3    3    0  502 -0.69684709313E+01 -0.44263735907E+02  0.72464987179E+03  0.72603393487E+03  0.00000000000E+00 0.  1.
         13    1    5    5    0    0 -0.27825220528E+03 -0.16188089848E+03  0.32124559337E+03  0.45478395563E+03  0.00000000000E+00 0. -1.
        -13    1    5    5    0    0 -0.11200870768E+02 -0.32818952658E+02  0.65613041032E+02  0.74213302803E+02  0.00000000000E+00 0.  1.
          4    1    6    6  503    0  0.71424460203E+02  0.51413050764E+02  0.45357911512E+02  0.99005532375E+02  0.00000000000E+00 0.  1.
         -4    1    6    6    0  503  0.21278920424E+03  0.34960762591E+03  0.84222125436E+02  0.41784937950E+03  0.00000000000E+00 0. -1.
<mgrwt>
<rscale>  0 0.16745420E+04</rscale>
<asrwt>0</asrwt>
<pdfrwt beam="1">  1        2 0.39717768E+00 0.16745420E+04</pdfrwt>
<pdfrwt beam="2">  1       -1 0.41775392E-01 0.16745420E+04</pdfrwt>
<totfact> 0.19086964E+01</totfact>
</mgrwt>
</event>
<event>
12    7  0.1698542E-007  0.2510814E+04  0.7818608E-02  0.8399143E-01
          2   -1    0    0  501    0  0.00000000000E+00  0.00000000000E+00  0.13112196280E+04  0.13112196280E+04  0.00000000000E+00 0. -1.
         -1   -1    0    0    0  501 -0.00000000000E+00 -0.00000000000E+00 -0.12019704523E+04  0.12019704523E+04  0.00000000000E+00 0.  1.
         24    2    1    2    0    0  0.11122313468E+04 -0.22322549525E+03 -0.12693181860E+03  0.11442354874E+04  0.79214731357E+02 0.  0.
        254    2    1    2    0    0 -0.11122313468E+04  0.22322549525E+03  0.23618099421E+03  0.13689545929E+04  0.72894926084E+03 0.  0.
         23    2    4    4    0    0 -0.31968627065E+03  0.30908598984E+03  0.32920990542E+03  0.56120206139E+03  0.93995378245E+02 0.  0.
         23    2    4    4    0    0 -0.79254507611E+03 -0.85860494588E+02 -0.93028911213E+02  0.80775253148E+03  0.91159484349E+02 0.  0.
          2    1    3    3  502    0  0.63308214134E+03 -0.15208673454E+03 -0.42022499329E+02  0.65244866691E+03  0.00000000000E+00 0. -1.
         -1    1    3    3    0  502  0.47914920542E+03 -0.71138760709E+02 -0.84909319270E+02  0.49178682051E+03  0.00000000000E+00 0.  1.
         13    1    5    5    0    0 -0.23552350760E+03  0.17625443830E+03  0.24493696483E+03  0.38279376483E+03  0.00000000000E+00 0. -1.
        -13    1    5    5    0    0 -0.84162763045E+02  0.13283155153E+03  0.84272940597E+02  0.17840829657E+03  0.00000000000E+00 0.  1.
          3    1    6    6  503    0 -0.62500757474E+03 -0.10040290970E+03 -0.91340006185E+02  0.63957658610E+03  0.00000000000E+00 0. -1.
         -3    1    6    6    0  503 -0.16753750137E+03  0.14542415111E+02 -0.16889050277E+01  0.16817594538E+03  0.00000000000E+00 0.  1.
<mgrwt>
<rscale>  0 0.25108144E+04</rscale>
<asrwt>0</asrwt>
<pdfrwt beam="1">  1        2 0.20172610E+00 0.25108144E+04</pdfrwt>
<pdfrwt beam="2">  1       -1 0.18491853E+00 0.25108144E+04</pdfrwt>
<totfact> 0.31734057E+00</totfact>
</mgrwt>
</event>
<event>
12    7  0.1698542E-007  0.2085579E+04  0.7818608E-02  0.8567622E-01
          2   -1    0    0  501    0  0.00000000000E+00  0.00000000000E+00  0.20335819501E+04  0.20335819501E+04  0.00000000000E+00 0. -1.
         -1   -1    0    0    0  501 -0.00000000000E+00 -0.00000000000E+00 -0.53472661334E+03  0.53472661334E+03  0.00000000000E+00 0.  1.
         24    2    1    2    0    0 -0.15066716354E+03 -0.21970152272E+03 -0.38429791378E+03  0.47443956263E+03  0.80241253709E+02 0.  0.
        254    2    1    2    0    0  0.15066716354E+03  0.21970152272E+03  0.18831532505E+04  0.20938690008E+04  0.87581497719E+03 0.  0.
         23    2    4    4    0    0  0.43649742622E+03  0.96918874246E+02  0.15982580266E+04  0.16625114424E+04  0.97940315284E+02 0.  0.
         23    2    4    4    0    0 -0.28583026268E+03  0.12278264847E+03  0.28489522390E+03  0.43135755834E+03  0.90163943475E+02 0.  0.
          2    1    3    3  502    0 -0.71499262412E+02 -0.40892052237E+02 -0.12420304682E+03  0.14903255114E+03  0.00000000000E+00 0. -1.
         -1    1    3    3    0  502 -0.79167901130E+02 -0.17880947048E+03 -0.26009486696E+03  0.32540701148E+03  0.00000000000E+00 0.  1.
         13    1    5    5    0    0  0.11235769014E+03 -0.12606896885E+02  0.32594703757E+03  0.34499950099E+03  0.00000000000E+00 0. -1.
        -13    1    5    5    0    0  0.32413973609E+03  0.10952577113E+03  0.12723109890E+04  0.13175119414E+04  0.00000000000E+00 0.  1.
          1    1    6    6  503    0 -0.15166352689E+02  0.88533676649E+01  0.56984069022E+02  0.59628722066E+02  0.00000000000E+00 0. -1.
         -1    1    6    6    0  503 -0.27066390999E+03  0.11392928081E+03  0.22791115488E+03  0.37172883627E+03  0.00000000000E+00 0.  1.
<mgrwt>
<rscale>  0 0.20855794E+04</rscale>
<asrwt>0</asrwt>
<pdfrwt beam="1">  1        2 0.31285876E+00 0.20855794E+04</pdfrwt>
<pdfrwt beam="2">  1       -1 0.82265634E-01 0.20855794E+04</pdfrwt>
<totfact> 0.98757170E+00</totfact>
</mgrwt>
</event>
<event>
12    7  0.1698542E-007  0.1909754E+04  0.7818608E-02  0.8650016E-01
          2   -1    0    0  501    0  0.00000000000E+00  0.00000000000E+00  0.56070710295E+03  0.56070710295E+03  0.00000000000E+00 0. -1.
         -1   -1    0    0    0  501 -0.00000000000E+00 -0.00000000000E+00 -0.16261440659E+04  0.16261440659E+04  0.00000000000E+00 0.  1.
         24    2    1    2    0    0 -0.29986677638E+03 -0.65537238660E+03 -0.57038671890E+03  0.92254482080E+03  0.79466273314E+02 0.  0.
        254    2    1    2    0    0  0.29986677638E+03  0.65537238660E+03 -0.49505024401E+03  0.12643063480E+04  0.91321560917E+03 0.  0.
         23    2    4    4    0    0  0.55102053694E+03  0.38868753387E+03 -0.52176962179E+02  0.68231086803E+03  0.90133535015E+02 0.  0.
         23    2    4    4    0    0 -0.25115376056E+03  0.26668485273E+03 -0.44287328183E+03  0.58199547998E+03  0.91558576005E+02 0.  0.
          4    1    3    3  502    0 -0.23102562936E+03 -0.49466512805E+03 -0.47338754930E+03  0.72260791731E+03  0.00000000000E+00 0. -1.
         -3    1    3    3    0  502 -0.68841147023E+02 -0.16070725855E+03 -0.96999169602E+02  0.19993690349E+03  0.00000000000E+00 0.  1.
         13    1    5    5    0    0  0.29876467354E+03  0.18586145374E+03  0.13131001843E+02  0.35210400928E+03  0.00000000000E+00 0. -1.
        -13    1    5    5    0    0  0.25225586340E+03  0.20282608014E+03 -0.65307964022E+02  0.33020685875E+03  0.00000000000E+00 0.  1.
          3    1    6    6  503    0 -0.25284989927E+03  0.27227101574E+03 -0.43349720512E+03  0.57095043955E+03  0.00000000000E+00 0. -1.
         -3    1    6    6    0  503  0.16961387134E+01 -0.55861630074E+01 -0.93760767135E+01  0.11045040435E+02  0.00000000000E+00 0.  1.
<mgrwt>
<rscale>  0 0.19097545E+04</rscale>
<asrwt>0</asrwt>
<pdfrwt beam="1">  1        2 0.86262632E-01 0.19097545E+04</pdfrwt>
<pdfrwt beam="2">  1       -1 0.25017601E+00 0.19097545E+04</pdfrwt>
<totfact> 0.39993818E+00</totfact>
</mgrwt>
</event>
<event>
12    7  0.1698542E-007  0.1799860E+04  0.7818608E-02  0.8706374E-01
         -1   -1    0    0    0  501 -0.00000000000E+00  0.00000000000E+00  0.42187312447E+03  0.42187312447E+03  0.00000000000E+00 0.  1.
          2   -1    0    0  501    0  0.00000000000E+00 -0.00000000000E+00 -0.19197093526E+04  0.19197093526E+04  0.00000000000E+00 0. -1.
         24    2    1    2    0    0 -0.31704219762E+03  0.46054128614E+03 -0.10589459354E+04  0.12001580489E+04  0.79992604876E+02 0.  0.
        254    2    1    2    0    0  0.31704219762E+03 -0.46054128614E+03 -0.43889029272E+03  0.11414244282E+04  0.89309070364E+03 0.  0.
         23    2    4    4    0    0 -0.16677166939E+03  0.18437144672E+02  0.14510440073E+03  0.23961378321E+03  0.90591169425E+02 0.  0.
         23    2    4    4    0    0  0.48381386701E+03 -0.47897843081E+03 -0.58399469345E+03  0.90181064499E+03  0.93361889167E+02 0.  0.
          4    1    3    3  502    0 -0.23510483596E+03  0.37055760177E+03 -0.88543887738E+03  0.98822529097E+03  0.00000000000E+00 0. -1.
         -3    1    3    3    0  502 -0.81937361661E+02  0.89983684368E+02 -0.17350705805E+03  0.21193275792E+03  0.00000000000E+00 0.  1.
         13    1    5    5    0    0 -0.40549726864E+02 -0.23427729010E+02  0.77206602914E+02  0.90299492627E+02  0.00000000000E+00 0.  1.
        -13    1    5    5    0    0 -0.12622194253E+03  0.41864873682E+02  0.67897797813E+02  0.14931429058E+03  0.00000000000E+00 0. -1.
          2    1    6    6  503    0  0.48199328608E+03 -0.45829103466E+03 -0.55556059873E+03  0.86660012644E+03  0.00000000000E+00 0. -1.
         -2    1    6    6    0  503  0.18205809278E+01 -0.20687396152E+02 -0.28434094716E+02  0.35210518553E+02  0.00000000000E+00 0.  1.
<mgrwt>
<rscale>  0 0.17998598E+04</rscale>
<asrwt>0</asrwt>
<pdfrwt beam="1">  1        2 0.29533989E+00 0.17998598E+04</pdfrwt>
<pdfrwt beam="2">  1       -1 0.64903560E-01 0.17998598E+04</pdfrwt>
<totfact> 0.19161340E+01</totfact>
</mgrwt>
</event>
<event>
12    7  0.1698542E-007  0.1146290E+04  0.7818608E-02  0.9161213E-01
         -1   -1    0    0    0  501 -0.00000000000E+00  0.00000000000E+00  0.98382093232E+02  0.98382093232E+02  0.00000000000E+00 0.  1.
          2   -1    0    0  501    0  0.00000000000E+00 -0.00000000000E+00 -0.33389705870E+04  0.33389705870E+04  0.00000000000E+00 0. -1.
         24    2    1    2    0    0 -0.12805721514E+03  0.15077989344E+03 -0.85600005276E+03  0.88169935993E+03  0.74326606095E+02 0.  0.
        254    2    1    2    0    0  0.12805721514E+03 -0.15077989344E+03 -0.23845884411E+04  0.25556533203E+04  0.89775755855E+03 0.  0.
         23    2    4    4    0    0 -0.71902204745E+02  0.18180827309E+03 -0.19660698725E+04  0.19779055325E+04  0.91953122527E+02 0.  0.
         23    2    4    4    0    0  0.19995941988E+03 -0.33258816654E+03 -0.41851856855E+03  0.57774778784E+03  0.89644051701E+02 0.  0.
          2    1    3    3  502    0 -0.11366822102E+03  0.14161390434E+03 -0.64687670456E+03  0.67188126427E+03  0.00000000000E+00 0. -1.
         -1    1    3    3    0  502 -0.14388994115E+02  0.91659891051E+01 -0.20912334820E+03  0.20981809567E+03  0.00000000000E+00 0.  1.
         13    1    5    5    0    0 -0.84034634045E+02  0.14930137917E+03 -0.13451052543E+04  0.13559722957E+04  0.00000000000E+00 0. -1.
        -13    1    5    5    0    0  0.12132429301E+02  0.32506893921E+02 -0.62096461815E+03  0.62193323676E+03  0.00000000000E+00 0.  1.
          1    1    6    6  503    0  0.17932341006E+03 -0.25820896971E+03 -0.37425025722E+03  0.48876580534E+03  0.00000000000E+00 0. -1.
         -1    1    6    6    0  503  0.20636009820E+02 -0.74379196823E+02 -0.44268311336E+02  0.88981982501E+02  0.00000000000E+00 0.  1.
<mgrwt>
<rscale>  0 0.11462895E+04</rscale>
<asrwt>0</asrwt>
<pdfrwt beam="1">  1        2 0.51368777E+00 0.11462895E+04</pdfrwt>
<pdfrwt beam="2">  1       -1 0.15135707E-01 0.11462895E+04</pdfrwt>
<totfact> 0.39303652E+01</totfact>
</mgrwt>
</event>
<event>
12    7  0.1698542E-007  0.1585839E+04  0.7818608E-02  0.8829295E-01
         -1   -1    0    0    0  501 -0.00000000000E+00  0.00000000000E+00  0.49257322141E+03  0.49257322141E+03  0.00000000000E+00 0.  1.
          2   -1    0    0  501    0  0.00000000000E+00 -0.00000000000E+00 -0.12764017776E+04  0.12764017776E+04  0.00000000000E+00 0. -1.
         24    2    1    2    0    0  0.83777981639E+02  0.84531298570E+01  0.31393055067E+03  0.33493783568E+03  0.80874949853E+02 0.  0.
        254    2    1    2    0    0 -0.83777981639E+02 -0.84531298570E+01 -0.10977591068E+04  0.14340371633E+04  0.91885653042E+03 0.  0.
         23    2    4    4    0    0  0.12756763503E+03 -0.29679142022E+03 -0.99668634761E+03  0.10517063939E+04  0.91345579518E+02 0.  0.
         23    2    4    4    0    0 -0.21134561667E+03  0.28833829036E+03 -0.10107275922E+03  0.38233076938E+03  0.90306008554E+02 0.  0.
          4    1    3    3  502    0  0.96399453682E+02  0.21205243159E+02  0.26030778265E+03  0.27839299329E+03  0.00000000000E+00 0. -1.
         -3    1    3    3    0  502 -0.12621472042E+02 -0.12752113302E+02  0.53622768018E+02  0.56544842382E+02  0.00000000000E+00 0.  1.
         13    1    5    5    0    0  0.71412134395E+02 -0.22858059998E+03 -0.61624537137E+03  0.66114078786E+03  0.00000000000E+00 0. -1.
        -13    1    5    5    0    0  0.56155500631E+02 -0.68210820243E+02 -0.38044097624E+03  0.39056560608E+03  0.00000000000E+00 0.  1.
          2    1    6    6  503    0 -0.15359577646E+03  0.24724245463E+03 -0.10943287961E+03  0.31095988335E+03  0.00000000000E+00 0. -1.
         -2    1    6    6    0  503 -0.57749840205E+02  0.41095835737E+02  0.83601203854E+01  0.71370886022E+02  0.00000000000E+00 0.  1.
<mgrwt>
<rscale>  0 0.15858390E+04</rscale>
<asrwt>0</asrwt>
<pdfrwt beam="1">  1        2 0.19636950E+00 0.15858390E+04</pdfrwt>
<pdfrwt beam="2">  1       -1 0.75780496E-01 0.15858390E+04</pdfrwt>
<totfact> 0.32677263E+01</totfact>
</mgrwt>
</event>
<event>
12    7  0.1698542E-007  0.2808521E+04  0.7818608E-02  0.8300628E-01
          2   -1    0    0  501    0  0.00000000000E+00  0.00000000000E+00  0.10673209259E+04  0.10673209259E+04  0.00000000000E+00 0. -1.
         -1   -1    0    0    0  501 -0.00000000000E+00 -0.00000000000E+00 -0.18475678587E+04  0.18475678587E+04  0.00000000000E+00 0.  1.
         24    2    1    2    0    0 -0.11650271824E+04 -0.31451987524E+03  0.83250702866E+02  0.12121071430E+04  0.77858581675E+02 0.  0.
        254    2    1    2    0    0  0.11650271824E+04  0.31451987524E+03 -0.86349763570E+03  0.17027816416E+04  0.83524012379E+03 0.  0.
         23    2    4    4    0    0  0.54843404818E+03 -0.26150496126E+03 -0.29636176383E+03  0.68204913601E+03  0.90531645825E+02 0.  0.
         23    2    4    4    0    0  0.61659313425E+03  0.57602483650E+03 -0.56713587187E+03  0.10207325056E+04  0.90884791586E+02 0.  0.
          2    1    3    3  502    0 -0.70605339407E+03 -0.17026967115E+03  0.17303574981E+02  0.72650022016E+03  0.00000000000E+00 0. -1.
         -1    1    3    3    0  502 -0.45897378837E+03 -0.14425020409E+03  0.65947127884E+02  0.48560692279E+03  0.00000000000E+00 0.  1.
         13    1    5    5    0    0  0.49786548829E+03 -0.21070781645E+03 -0.27870205835E+03  0.60822912267E+03  0.00000000000E+00 0. -1.
        -13    1    5    5    0    0  0.50568559898E+02 -0.50797144812E+02 -0.17659705486E+02  0.73820013337E+02  0.00000000000E+00 0.  1.
          2    1    6    6  503    0  0.99981806890E+02  0.61502650591E+02 -0.10496966714E+03  0.15747243809E+03  0.00000000000E+00 0.  1.
         -2    1    6    6    0  503  0.51661132736E+03  0.51452218591E+03 -0.46216620474E+03  0.86326006751E+03  0.00000000000E+00 0. -1.
<mgrwt>
<rscale>  0 0.28085212E+04</rscale>
<asrwt>0</asrwt>
<pdfrwt beam="1">  1        2 0.16420322E+00 0.28085212E+04</pdfrwt>
<pdfrwt beam="2">  1       -1 0.28424121E+00 0.28085212E+04</pdfrwt>
<totfact> 0.94517976E-01</totfact>
</mgrwt>
</event>
<event>
12    7  0.1698542E-007  0.1524940E+04  0.7818608E-02  0.8868035E-01
         -1   -1    0    0    0  501 -0.00000000000E+00  0.00000000000E+00  0.24424092222E+03  0.24424092222E+03  0.00000000000E+00 0.  1.
          2   -1    0    0  501    0  0.00000000000E+00 -0.00000000000E+00 -0.23802761061E+04  0.23802761061E+04  0.00000000000E+00 0. -1.
         24    2    1    2    0    0  0.36368479708E+03 -0.28461365675E+03 -0.10779270179E+04  0.11754294115E+04  0.80225184757E+02 0.  0.
        254    2    1    2    0    0 -0.36368479708E+03  0.28461365675E+03 -0.10581081660E+04  0.14490876168E+04  0.87577991817E+03 0.  0.
         23    2    4    4    0    0 -0.24199613273E+03  0.34290687345E+03 -0.55408426696E+02  0.43297889167E+03  0.90848086248E+02 0.  0.
         23    2    4    4    0    0 -0.12168866435E+03 -0.58293216696E+02 -0.10026997393E+04  0.10161087251E+04  0.94148521076E+02 0.  0.
          4    1    3    3  502    0  0.21668580861E+03 -0.13942514781E+03 -0.67743481161E+03  0.72478275053E+03  0.00000000000E+00 0. -1.
         -3    1    3    3    0  502  0.14699898847E+03 -0.14518850894E+03 -0.40049220629E+03  0.45064666097E+03  0.00000000000E+00 0.  1.
         13    1    5    5    0    0 -0.10550210728E+03  0.20182270035E+03  0.43632846765E+01  0.22777650289E+03  0.00000000000E+00 0.  1.
        -13    1    5    5    0    0 -0.13649402545E+03  0.14108417310E+03 -0.59771711372E+02  0.20520238878E+03  0.00000000000E+00 0. -1.
          1    1    6    6  503    0  0.11924908660E+02  0.65851863744E+01 -0.14543508219E+03  0.14607166480E+03  0.00000000000E+00 0. -1.
         -1    1    6    6    0  503 -0.13361357301E+03 -0.64878403070E+02 -0.85726465707E+03  0.87003706033E+03  0.00000000000E+00 0.  1.
<mgrwt>
<rscale>  0 0.15249404E+04</rscale>
<asrwt>0</asrwt>
<pdfrwt beam="1">  1        2 0.36619632E+00 0.15249404E+04</pdfrwt>
<pdfrwt beam="2">  1       -1 0.37575527E-01 0.15249404E+04</pdfrwt>
<totfact> 0.30649981E+01</totfact>
</mgrwt>
</event>
<event>
12    7  0.1698542E-007  0.2563848E+04  0.7818608E-02  0.8380586E-01
          2   -1    0    0  501    0  0.00000000000E+00  0.00000000000E+00  0.18102903237E+04  0.18102903237E+04  0.00000000000E+00 0. -1.
         -1   -1    0    0    0  501 -0.00000000000E+00 -0.00000000000E+00 -0.90777069446E+03  0.90777069446E+03  0.00000000000E+00 0.  1.
         24    2    1    2    0    0  0.63826981059E+03 -0.68118553704E+02 -0.55019595597E+03  0.84961515625E+03  0.84272387543E+02 0.  0.
        254    2    1    2    0    0 -0.63826981059E+03  0.68118553704E+02  0.14527155852E+04  0.18684458619E+04  0.98421485403E+03 0.  0.
         23    2    4    4    0    0  0.71092061619E+02 -0.30911080186E+03  0.65563304511E+03  0.73305027318E+03  0.83092984796E+02 0.  0.
         23    2    4    4    0    0 -0.70936187221E+03  0.37722935556E+03  0.79708254008E+03  0.11353955887E+04  0.91029197026E+02 0.  0.
          2    1    3    3  502    0  0.20232426029E+03  0.11142637481E+02 -0.20157669193E+03  0.28581887167E+03  0.00000000000E+00 0. -1.
         -1    1    3    3    0  502  0.43594555030E+03 -0.79261191185E+02 -0.34861926404E+03  0.56379628459E+03  0.00000000000E+00 0.  1.
         13    1    5    5    0    0  0.72889742513E+02 -0.16054043990E+03  0.30607834620E+03  0.35322811527E+03  0.00000000000E+00 0. -1.
        -13    1    5    5    0    0 -0.17976808939E+01 -0.14857036196E+03  0.34955469891E+03  0.37982215791E+03  0.00000000000E+00 0.  1.
          4    1    6    6  503    0 -0.25499745417E+02  0.36429108510E+02  0.41817689800E+02  0.61041265906E+02  0.00000000000E+00 0.  1.
         -4    1    6    6    0  503 -0.68386212679E+03  0.34080024705E+03  0.75526485028E+03  0.10743543228E+04  0.00000000000E+00 0. -1.
<mgrwt>
<rscale>  0 0.25638475E+04</rscale>
<asrwt>0</asrwt>
<pdfrwt beam="1">  1        2 0.27850620E+00 0.25638475E+04</pdfrwt>
<pdfrwt beam="2">  1       -1 0.13965703E+00 0.25638475E+04</pdfrwt>
<totfact> 0.36278959E+00</totfact>
</mgrwt>
</event>
<event>
12    7  0.1698542E-007  0.1800700E+04  0.7818608E-02  0.8705927E-01
         -1   -1    0    0    0  501 -0.00000000000E+00  0.00000000000E+00  0.30215131392E+03  0.30215131392E+03  0.00000000000E+00 0.  1.
          2   -1    0    0  501    0  0.00000000000E+00 -0.00000000000E+00 -0.26828620266E+04  0.26828620266E+04  0.00000000000E+00 0. -1.
         24    2    1    2    0    0  0.37045673722E+02  0.49408817408E+03 -0.13989126651E+03  0.52126005812E+03  0.81528988907E+02 0.  0.
        254    2    1    2    0    0 -0.37045673722E+02 -0.49408817408E+03 -0.22408194461E+04  0.24637532824E+04  0.89627726763E+03 0.  0.
         23    2    4    4    0    0  0.37509749495E+03 -0.44733828965E+03 -0.14582220303E+04  0.15733550157E+04  0.90690901455E+02 0.  0.
         23    2    4    4    0    0 -0.41214316867E+03 -0.46749884437E+02 -0.78259741579E+03  0.89039826664E+03  0.91119783018E+02 0.  0.
          2    1    3    3  502    0  0.93121456813E+01  0.13436252722E+03 -0.76643125936E+02  0.15496507197E+03  0.00000000000E+00 0. -1.
         -1    1    3    3    0  502  0.27733528040E+02  0.35972564686E+03 -0.63248140570E+02  0.36629498614E+03  0.00000000000E+00 0.  1.
         13    1    5    5    0    0  0.14924631410E+03 -0.23935669394E+03 -0.63898801509E+03  0.69847818337E+03  0.00000000000E+00 0. -1.
        -13    1    5    5    0    0  0.22585118085E+03 -0.20798159571E+03 -0.81923401525E+03  0.87487683236E+03  0.00000000000E+00 0.  1.
          3    1    6    6  503    0 -0.14352164521E+03  0.27031065609E+02 -0.27643136884E+03  0.31263947740E+03  0.00000000000E+00 0. -1.
         -3    1    6    6    0  503 -0.26862152346E+03 -0.73780950046E+02 -0.50616604695E+03  0.57775878924E+03  0.00000000000E+00 0.  1.
<mgrwt>
<rscale>  0 0.18007002E+04</rscale>
<asrwt>0</asrwt>
<pdfrwt beam="1">  1        2 0.41274802E+00 0.18007002E+04</pdfrwt>
<pdfrwt beam="2">  1       -1 0.46484816E-01 0.18007002E+04</pdfrwt>
<totfact> 0.13491601E+01</totfact>
</mgrwt>
</event>
<event>
12    7  0.1698542E-007  0.1954740E+04  0.7818608E-02  0.8628078E-01
         -1   -1    0    0    0  501 -0.00000000000E+00  0.00000000000E+00  0.37337192666E+03  0.37337192666E+03  0.00000000000E+00 0.  1.
          2   -1    0    0  501    0  0.00000000000E+00 -0.00000000000E+00 -0.25584474744E+04  0.25584474744E+04  0.00000000000E+00 0. -1.
         24    2    1    2    0    0  0.43398034143E+03  0.25137018272E+03  0.12093566019E+02  0.50787585250E+03  0.79156311836E+02 0.  0.
        254    2    1    2    0    0 -0.43398034143E+03 -0.25137018272E+03 -0.21971691137E+04  0.24239435485E+04  0.89242607906E+03 0.  0.
         23    2    4    4    0    0 -0.61837137757E+02 -0.19902240581E+03 -0.37919171484E+02  0.23037267208E+03  0.90553602102E+02 0.  0.
         23    2    4    4    0    0 -0.37214320368E+03 -0.52347776908E+02 -0.21592499423E+04  0.21935708765E+04  0.90343915735E+02 0.  0.
          4    1    3    3  502    0  0.10204319167E+03  0.70616397284E+02 -0.29735897841E+02  0.12760764927E+03  0.00000000000E+00 0. -1.
         -3    1    3    3    0  502  0.33193714976E+03  0.18075378543E+03  0.41829463860E+02  0.38026820323E+03  0.00000000000E+00 0.  1.
         13    1    5    5    0    0 -0.12962220560E+02  0.54125393342E+01 -0.12206925969E+02  0.18609776610E+02  0.00000000000E+00 0. -1.
        -13    1    5    5    0    0 -0.48874917197E+02 -0.20443494514E+03 -0.25712245515E+02  0.21176289547E+03  0.00000000000E+00 0.  1.
          3    1    6    6  503    0 -0.20519860070E+02  0.17954800563E+02 -0.12264902073E+03  0.12564323223E+03  0.00000000000E+00 0. -1.
         -3    1    6    6    0  503 -0.35162334361E+03 -0.70302577470E+02 -0.20366009215E+04  0.20679276442E+04  0.00000000000E+00 0.  1.
<mgrwt>
<rscale>  0 0.19547404E+04</rscale>
<asrwt>0</asrwt>
<pdfrwt beam="1">  1        2 0.39360729E+00 0.19547404E+04</pdfrwt>
<pdfrwt beam="2">  1       -1 0.57441837E-01 0.19547404E+04</pdfrwt>
<totfact> 0.10495820E+01</totfact>
</mgrwt>
</event>
<event>
12    7  0.1698542E-007  0.1391514E+04  0.7818608E-02  0.8959984E-01
          2   -1    0    0  501    0  0.00000000000E+00  0.00000000000E+00  0.15479186004E+04  0.15479186004E+04  0.00000000000E+00 0. -1.
         -1   -1    0    0    0  501 -0.00000000000E+00 -0.00000000000E+00 -0.31272808749E+03  0.31272808749E+03  0.00000000000E+00 0.  1.
         24    2    1    2    0    0  0.38785518268E+03  0.99540854764E+02  0.27259159015E+03  0.49080833715E+03  0.79035588792E+02 0.  0.
        254    2    1    2    0    0 -0.38785518268E+03 -0.99540854764E+02  0.96259892275E+03  0.13698383507E+04  0.88854960276E+03 0.  0.
         23    2    4    4    0    0 -0.50935609785E+03  0.14833358171E+03  0.93077337040E+03  0.10757053537E+04  0.96728770366E+02 0.  0.
         23    2    4    4    0    0  0.12150091517E+03 -0.24787443647E+03  0.31825552342E+02  0.29413299704E+03  0.96421706705E+02 0.  0.
          4    1    3    3  502    0  0.23409343311E+03  0.23015561582E+02  0.17581883000E+03  0.29366939317E+03  0.00000000000E+00 0. -1.
         -3    1    3    3    0  502  0.15376174957E+03  0.76525293182E+02  0.96772760146E+02  0.19713894398E+03  0.00000000000E+00 0.  1.
         13    1    5    5    0    0 -0.33382050938E+03  0.13490719169E+03  0.67792854339E+03  0.76760874981E+03  0.00000000000E+00 0. -1.
        -13    1    5    5    0    0 -0.17553558847E+03  0.13426390021E+02  0.25284482702E+03  0.30809660388E+03  0.00000000000E+00 0.  1.
          1    1    6    6  503    0  0.10264679267E+02 -0.82992591570E+02 -0.24994403646E+02  0.87280319142E+02  0.00000000000E+00 0. -1.
         -1    1    6    6    0  503  0.11123623590E+03 -0.16488184490E+03  0.56819955988E+02  0.20685267790E+03  0.00000000000E+00 0.  1.
<mgrwt>
<rscale>  0 0.13915137E+04</rscale>
<asrwt>0</asrwt>
<pdfrwt beam="1">  1        2 0.23814132E+00 0.13915137E+04</pdfrwt>
<pdfrwt beam="2">  1       -1 0.48112015E-01 0.13915137E+04</pdfrwt>
<totfact> 0.57152905E+01</totfact>
</mgrwt>
</event>
<event>
12    7  0.1698542E-007  0.2212570E+04  0.7818608E-02  0.8513214E-01
         -1   -1    0    0    0  501 -0.00000000000E+00  0.00000000000E+00  0.14111188485E+04  0.14111188485E+04  0.00000000000E+00 0.  1.
          2   -1    0    0  501    0  0.00000000000E+00 -0.00000000000E+00 -0.86730253844E+03  0.86730253844E+03  0.00000000000E+00 0. -1.
         24    2    1    2    0    0  0.71698211395E+03 -0.54059036143E+03  0.78945802907E+01  0.90153857638E+03  0.80051169332E+02 0.  0.
        254    2    1    2    0    0 -0.71698211395E+03  0.54059036143E+03  0.53592172982E+03  0.13768828106E+04  0.89570803449E+03 0.  0.
         23    2    4    4    0    0 -0.78051265943E+03  0.75444099980E+02  0.35599232803E+03  0.86577039022E+03  0.89084270229E+02 0.  0.
         23    2    4    4    0    0  0.63530545485E+02  0.46514626145E+03  0.17992940179E+03  0.51111242039E+03  0.92000771160E+02 0.  0.
          4    1    3    3  502    0  0.44964791180E+03 -0.29488017643E+03 -0.12583072832E+02  0.53786233997E+03  0.00000000000E+00 0. -1.
         -3    1    3    3    0  502  0.26733420215E+03 -0.24571018500E+03  0.20477653122E+02  0.36367623641E+03  0.00000000000E+00 0.  1.
         13    1    5    5    0    0 -0.54726505751E+03  0.22000112471E+02  0.27706251346E+03  0.61379694075E+03  0.00000000000E+00 0.  1.
        -13    1    5    5    0    0 -0.23324760193E+03  0.53443987509E+02  0.78929814574E+02  0.25197344946E+03  0.00000000000E+00 0. -1.
          3    1    6    6  503    0  0.83841391748E+02  0.42322582100E+03  0.15637948940E+03  0.45891613530E+03  0.00000000000E+00 0. -1.
         -3    1    6    6    0  503 -0.20310846263E+02  0.41920440448E+02  0.23549912395E+02  0.52196285088E+02  0.00000000000E+00 0.  1.
<mgrwt>
<rscale>  0 0.22125704E+04</rscale>
<asrwt>0</asrwt>
<pdfrwt beam="1">  1        2 0.13343116E+00 0.22125704E+04</pdfrwt>
<pdfrwt beam="2">  1       -1 0.21709521E+00 0.22125704E+04</pdfrwt>
<totfact> 0.37012652E+00</totfact>
</mgrwt>
</event>
<event>
12    7  0.1700020E-007  0.2672552E+04  0.7818608E-02  0.8343966E-01
         -1   -1    0    0    0  501 -0.00000000000E+00  0.00000000000E+00  0.12833878388E+04  0.12833878388E+04  0.00000000000E+00 0.  1.
          2   -1    0    0  501    0  0.00000000000E+00 -0.00000000000E+00 -0.13913439972E+04  0.13913439972E+04  0.00000000000E+00 0. -1.
         24    2    1    2    0    0  0.39027886848E+03  0.10929391472E+04 -0.25426390201E+03  0.11907378375E+04  0.79830390017E+02 0.  0.
        254    2    1    2    0    0 -0.39027886848E+03 -0.10929391472E+04  0.14630774355E+03  0.14839939985E+04  0.91323526937E+03 0.  0.
         23    2    4    4    0    0  0.77610174237E+02 -0.97440537407E+03  0.14462931034E+03  0.99272500977E+03  0.95373662309E+02 0.  0.
         23    2    4    4    0    0 -0.46788904272E+03 -0.11853377309E+03  0.16784332096E+01  0.49126898874E+03  0.91498581932E+02 0.  0.
          4    1    3    3  502    0  0.31864202022E+03  0.91338862024E+03 -0.18191783551E+03  0.98433002977E+03  0.00000000000E+00 0. -1.
         -3    1    3    3    0  502  0.71636848265E+02  0.17955052692E+03 -0.72346066501E+02  0.20640780772E+03  0.00000000000E+00 0.  1.
         13    1    5    5    0    0  0.69047083279E+02 -0.94471634127E+03  0.15560968577E+03  0.95993272654E+03  0.00000000000E+00 0. -1.
        -13    1    5    5    0    0  0.85630909586E+01 -0.29689032798E+02 -0.10980375430E+02  0.32792283236E+02  0.00000000000E+00 0.  1.
          2    1    6    6  503    0 -0.44125327526E+03 -0.11661247588E+03  0.23170275317E+02  0.45698991686E+03  0.00000000000E+00 0. -1.
         -2    1    6    6    0  503 -0.26635767465E+02 -0.19212972065E+01 -0.21491842108E+02  0.34279071875E+02  0.00000000000E+00 0.  1.
<mgrwt>
<rscale>  0 0.26725523E+04</rscale>
<asrwt>0</asrwt>
<pdfrwt beam="1">  1        2 0.21405292E+00 0.26725523E+04</pdfrwt>
<pdfrwt beam="2">  1       -1 0.19744428E+00 0.26725523E+04</pdfrwt>
<totfact> 0.22982165E+00</totfact>
</mgrwt>
</event>
<event>
12    7  0.1698542E-007  0.1241434E+04  0.7818608E-02  0.9077343E-01
          2   -1    0    0  501    0  0.00000000000E+00  0.00000000000E+00  0.87263371168E+03  0.87263371168E+03  0.00000000000E+00 0. -1.
         -1   -1    0    0    0  501 -0.00000000000E+00 -0.00000000000E+00 -0.44152498332E+03  0.44152498332E+03  0.00000000000E+00 0.  1.
         24    2    1    2    0    0 -0.13042217788E+03  0.16651474840E+03  0.30042341677E+03  0.37584524703E+03  0.79172687553E+02 0.  0.
        254    2    1    2    0    0  0.13042217788E+03 -0.16651474840E+03  0.13068531159E+03  0.93831344796E+03  0.90477420943E+03 0.  0.
         23    2    4    4    0    0 -0.15424935499E+03 -0.20371240344E+02 -0.32730189011E+03  0.37278849810E+03  0.87389279086E+02 0.  0.
         23    2    4    4    0    0  0.28467153287E+03 -0.14614350805E+03  0.45798720170E+03  0.56552494987E+03  0.87580736639E+02 0.  0.
          2    1    3    3  502    0 -0.35156384502E+02  0.61355419837E+02  0.45486739946E+02  0.84080333167E+02  0.00000000000E+00 0. -1.
         -1    1    3    3    0  502 -0.95265793382E+02  0.10515932856E+03  0.25493667682E+03  0.29176491386E+03  0.00000000000E+00 0.  1.
         13    1    5    5    0    0 -0.40019497430E+01  0.23095248920E+01 -0.95568305352E+02  0.95679937786E+02  0.00000000000E+00 0.  1.
        -13    1    5    5    0    0 -0.15024740524E+03 -0.22680765236E+02 -0.23173358475E+03  0.27710856031E+03  0.00000000000E+00 0. -1.
          3    1    6    6  503    0  0.23640962215E+03 -0.11962990473E+03  0.31099339155E+03  0.40855564264E+03  0.00000000000E+00 0. -1.
         -3    1    6    6    0  503  0.48261910722E+02 -0.26513603325E+02  0.14699381015E+03  0.15696930722E+03  0.00000000000E+00 0.  1.
<mgrwt>
<rscale>  0 0.12414340E+04</rscale>
<asrwt>0</asrwt>
<pdfrwt beam="1">  1        2 0.13425134E+00 0.12414340E+04</pdfrwt>
<pdfrwt beam="2">  1       -1 0.67926921E-01 0.12414340E+04</pdfrwt>
<totfact> 0.75459958E+01</totfact>
</mgrwt>
</event>
<event>
12    7  0.1698542E-007  0.1548828E+04  0.7818608E-02  0.8852617E-01
          2   -1    0    0  501    0  0.00000000000E+00  0.00000000000E+00  0.33090264840E+04  0.33090264840E+04  0.00000000000E+00 0. -1.
         -1   -1    0    0    0  501 -0.00000000000E+00 -0.00000000000E+00 -0.18123668222E+03  0.18123668222E+03  0.00000000000E+00 0.  1.
         24    2    1    2    0    0  0.39307026359E+03 -0.13055424669E+03  0.37781004428E+03  0.56636119130E+03  0.80473138432E+02 0.  0.
        254    2    1    2    0    0 -0.39307026359E+03  0.13055424669E+03  0.27499797575E+04  0.29239019749E+04  0.90292051077E+03 0.  0.
         23    2    4    4    0    0 -0.53415971562E+03  0.34453469989E+03  0.13167198390E+04  0.14650742695E+04  0.93062988155E+02 0.  0.
         23    2    4    4    0    0  0.14108945203E+03 -0.21398045320E+03  0.14332599185E+04  0.14588277053E+04  0.90831778631E+02 0.  0.
          2    1    3    3  502    0  0.12463890288E+03 -0.42792755282E+02  0.17311970887E+03  0.21756955121E+03  0.00000000000E+00 0. -1.
         -1    1    3    3    0  502  0.26843136071E+03 -0.87761491408E+02  0.20469033541E+03  0.34879164009E+03  0.00000000000E+00 0.  1.
         13    1    5    5    0    0 -0.46271310836E+03  0.30828390832E+03  0.12099696330E+04  0.13316038831E+04  0.00000000000E+00 0. -1.
        -13    1    5    5    0    0 -0.71446607260E+02  0.36250791576E+02  0.10675020594E+03  0.13347038640E+03  0.00000000000E+00 0.  1.
          3    1    6    6  503    0  0.15286198470E+03 -0.19574211072E+03  0.12627808369E+04  0.12869721063E+04  0.00000000000E+00 0. -1.
         -3    1    6    6    0  503 -0.11772532673E+02 -0.18238342478E+02  0.17047908159E+03  0.17185559904E+03  0.00000000000E+00 0.  1.
<mgrwt>
<rscale>  0 0.15488279E+04</rscale>
<asrwt>0</asrwt>
<pdfrwt beam="1">  1        2 0.50908095E+00 0.15488279E+04</pdfrwt>
<pdfrwt beam="2">  1       -1 0.27882569E-01 0.15488279E+04</pdfrwt>
<totfact> 0.14109895E+01</totfact>
</mgrwt>
</event>
<event>
12    7  0.1698542E-007  0.2715329E+04  0.7818608E-02  0.8330048E-01
         -1   -1    0    0    0  501 -0.00000000000E+00  0.00000000000E+00  0.95578042502E+03  0.95578042502E+03  0.00000000000E+00 0.  1.
          2   -1    0    0  501    0  0.00000000000E+00 -0.00000000000E+00 -0.19285323339E+04  0.19285323339E+04  0.00000000000E+00 0. -1.
         24    2    1    2    0    0 -0.52058528330E+03  0.20983513670E+02 -0.15818773354E+04  0.16675065495E+04  0.82418708453E+02 0.  0.
        254    2    1    2    0    0  0.52058528330E+03 -0.20983513670E+02  0.60912542649E+03  0.12168062094E+04  0.91549670726E+03 0.  0.
         23    2    4    4    0    0 -0.24417617691E+03 -0.79840468081E+02  0.94990423358E+02  0.28905045600E+03  0.92360596963E+02 0.  0.
         23    2    4    4    0    0  0.76476146021E+03  0.58856954412E+02  0.51413500314E+03  0.92775575340E+03  0.89842664728E+02 0.  0.
          2    1    3    3  502    0 -0.95554428821E+02 -0.75416373707E+01 -0.20631338502E+03  0.22749228119E+03  0.00000000000E+00 0. -1.
         -1    1    3    3    0  502 -0.42503085448E+03  0.28525151040E+02 -0.13755639504E+04  0.14400142683E+04  0.00000000000E+00 0.  1.
         13    1    5    5    0    0 -0.24699009251E+03 -0.88677455462E+02  0.96592550112E+02  0.27963890581E+03  0.00000000000E+00 0.  1.
        -13    1    5    5    0    0  0.28139155966E+01  0.88369873802E+01 -0.16021267539E+01  0.94115501953E+01  0.00000000000E+00 0. -1.
          3    1    6    6  503    0  0.31760802260E+03 -0.19566284031E+02  0.20538015857E+03  0.37873302605E+03  0.00000000000E+00 0. -1.
         -3    1    6    6    0  503  0.44715343762E+03  0.78423238443E+02  0.30875484457E+03  0.54902272735E+03  0.00000000000E+00 0.  1.
<mgrwt>
<rscale>  0 0.27153294E+04</rscale>
<asrwt>0</asrwt>
<pdfrwt beam="1">  1        2 0.29669728E+00 0.27153294E+04</pdfrwt>
<pdfrwt beam="2">  1       -1 0.14704314E+00 0.27153294E+04</pdfrwt>
<totfact> 0.26866868E+00</totfact>
</mgrwt>
</event>
<event>
12    7  0.1698542E-007  0.2085508E+04  0.7818608E-02  0.8567654E-01
         -1   -1    0    0    0  501 -0.00000000000E+00  0.00000000000E+00  0.96600169183E+03  0.96600169183E+03  0.00000000000E+00 0.  1.
          2   -1    0    0  501    0  0.00000000000E+00 -0.00000000000E+00 -0.11256048936E+04  0.11256048936E+04  0.00000000000E+00 0. -1.
         24    2    1    2    0    0 -0.13937295478E+03  0.29059147508E+03 -0.84037004968E+03  0.90340510704E+03  0.77786509759E+02 0.  0.
        254    2    1    2    0    0  0.13937295478E+03 -0.29059147508E+03  0.68076684793E+03  0.11882014784E+04  0.91897281029E+03 0.  0.
         23    2    4    4    0    0 -0.36132608460E+02  0.94257695002E+02 -0.17994813665E+03  0.22488524424E+03  0.89453690428E+02 0.  0.
         23    2    4    4    0    0  0.17550556324E+03 -0.38484917008E+03  0.86071498458E+03  0.96331623414E+03  0.90756794934E+02 0.  0.
          2    1    3    3  502    0 -0.14048257136E+03  0.28626494895E+03 -0.84047912506E+03  0.89893722446E+03  0.00000000000E+00 0. -1.
         -1    1    3    3    0  502  0.11096165783E+01  0.43265261292E+01  0.10907537685E+00  0.44678825785E+01  0.00000000000E+00 0.  1.
         13    1    5    5    0    0  0.27967067034E+02  0.16119909184E+02 -0.59146346650E+02  0.67381738124E+02  0.00000000000E+00 0. -1.
        -13    1    5    5    0    0 -0.64099675494E+02  0.78137785818E+02 -0.12080179000E+03  0.15750350611E+03  0.00000000000E+00 0.  1.
          4    1    6    6  503    0  0.14473411630E+03 -0.32139633587E+03  0.62808445058E+03  0.72023166148E+03  0.00000000000E+00 0.  1.
         -4    1    6    6    0  503  0.30771446940E+02 -0.63452834217E+02  0.23263053400E+03  0.24308457266E+03  0.00000000000E+00 0. -1.
<mgrwt>
<rscale>  0 0.20855083E+04</rscale>
<asrwt>0</asrwt>
<pdfrwt beam="1">  1        2 0.17316998E+00 0.20855083E+04</pdfrwt>
<pdfrwt beam="2">  1       -1 0.14861565E+00 0.20855083E+04</pdfrwt>
<totfact> 0.79077445E+00</totfact>
</mgrwt>
</event>
<event>
12    7  0.1698542E-007  0.1478531E+04  0.7818608E-02  0.8898856E-01
         -1   -1    0    0    0  501 -0.00000000000E+00  0.00000000000E+00  0.51979928693E+03  0.51979928693E+03  0.00000000000E+00 0.  1.
          2   -1    0    0  501    0  0.00000000000E+00 -0.00000000000E+00 -0.10513937798E+04  0.10513937798E+04  0.00000000000E+00 0. -1.
         24    2    1    2    0    0  0.34158263656E+02 -0.35272515397E+03 -0.48113537617E+03  0.60278308650E+03  0.79210971217E+02 0.  0.
        254    2    1    2    0    0 -0.34158263656E+02  0.35272515397E+03 -0.50459116682E+02  0.96840998021E+03  0.89982773134E+03 0.  0.
         23    2    4    4    0    0 -0.83359223893E+02  0.58823704542E+03  0.17643052371E+03  0.62626226353E+03  0.90028391148E+02 0.  0.
         23    2    4    4    0    0  0.49200960237E+02 -0.23551189145E+03 -0.22688964039E+03  0.34214771668E+03  0.87747168651E+02 0.  0.
          4    1    3    3  502    0  0.59762959745E+02 -0.24201991396E+03 -0.33973850183E+03  0.42138758850E+03  0.00000000000E+00 0. -1.
         -3    1    3    3    0  502 -0.25604696089E+02 -0.11070524001E+03 -0.14139687433E+03  0.18139549801E+03  0.00000000000E+00 0.  1.
         13    1    5    5    0    0 -0.12867154232E+02  0.32848750617E+03  0.65760143142E+02  0.33525214659E+03  0.00000000000E+00 0. -1.
        -13    1    5    5    0    0 -0.70492069661E+02  0.25974953925E+03  0.11067038057E+03  0.29101011694E+03  0.00000000000E+00 0.  1.
          3    1    6    6  503    0  0.91235069821E+01 -0.13674236479E+03 -0.73940479333E+02  0.15572060619E+03  0.00000000000E+00 0. -1.
         -3    1    6    6    0  503  0.40077453255E+02 -0.98769526667E+02 -0.15294916106E+03  0.18642711049E+03  0.00000000000E+00 0.  1.
<mgrwt>
<rscale>  0 0.14785313E+04</rscale>
<asrwt>0</asrwt>
<pdfrwt beam="1">  1        2 0.16175289E+00 0.14785313E+04</pdfrwt>
<pdfrwt beam="2">  1       -1 0.79969121E-01 0.14785313E+04</pdfrwt>
<totfact> 0.40269491E+01</totfact>
</mgrwt>
</event>
<event>
12    7  0.1698542E-007  0.1417952E+04  0.7818608E-02  0.8940926E-01
          2   -1    0    0  501    0  0.00000000000E+00  0.00000000000E+00  0.25492830069E+04  0.25492830069E+04  0.00000000000E+00 0. -1.
         -1   -1    0    0    0  501 -0.00000000000E+00 -0.00000000000E+00 -0.19717180704E+03  0.19717180704E+03  0.00000000000E+00 0.  1.
         24    2    1    2    0    0  0.21876842995E+03  0.12449127112E+03  0.13022199325E+04  0.13287668331E+04  0.80540930765E+02 0.  0.
        254    2    1    2    0    0 -0.21876842995E+03 -0.12449127112E+03  0.10498912673E+04  0.14176879808E+04  0.91880892205E+03 0.  0.
         23    2    4    4    0    0 -0.13342939734E+03 -0.50895158164E+03  0.71596400547E+03  0.89315446312E+03  0.91023740419E+02 0.  0.
         23    2    4    4    0    0 -0.85339032606E+02  0.38446031052E+03  0.33392726183E+03  0.52453351769E+03  0.92387846260E+02 0.  0.
          2    1    3    3  502    0  0.20648691361E+03  0.12405114658E+03  0.10949928977E+04  0.11211757126E+04  0.00000000000E+00 0. -1.
         -1    1    3    3    0  502  0.12281516336E+02  0.44012453735E+00  0.20722703483E+03  0.20759112052E+03  0.00000000000E+00 0.  1.
         13    1    5    5    0    0 -0.44286004583E+01 -0.24741749228E+02  0.77830652715E+02  0.81788612648E+02  0.00000000000E+00 0. -1.
        -13    1    5    5    0    0 -0.12900079689E+03 -0.48420983241E+03  0.63813335276E+03  0.81136585047E+03  0.00000000000E+00 0.  1.
          1    1    6    6  503    0 -0.59347543716E+02  0.86562523520E+02  0.98701101518E+02  0.14407327602E+03  0.00000000000E+00 0. -1.
         -1    1    6    6    0  503 -0.25991488890E+02  0.29789778700E+03  0.23522616031E+03  0.38046024167E+03  0.00000000000E+00 0.  1.
<mgrwt>
<rscale>  0 0.14179517E+04</rscale>
<asrwt>0</asrwt>
<pdfrwt beam="1">  1        2 0.39219736E+00 0.14179517E+04</pdfrwt>
<pdfrwt beam="2">  1       -1 0.30334126E-01 0.14179517E+04</pdfrwt>
<totfact> 0.36242163E+01</totfact>
</mgrwt>
</event>
<event>
12    7  0.1698542E-007  0.2829187E+04  0.7818608E-02  0.8294264E-01
         -1   -1    0    0    0  501 -0.00000000000E+00  0.00000000000E+00  0.17414837939E+04  0.17414837939E+04  0.00000000000E+00 0.  1.
          2   -1    0    0  501    0  0.00000000000E+00 -0.00000000000E+00 -0.11490630981E+04  0.11490630981E+04  0.00000000000E+00 0. -1.
         24    2    1    2    0    0 -0.11801849311E+04  0.45736339719E+03  0.14964534672E+03  0.12772085020E+04  0.82765204425E+02 0.  0.
        254    2    1    2    0    0  0.11801849311E+04 -0.45736339719E+03  0.44277534915E+03  0.16133383900E+04  0.89710255936E+03 0.  0.
         23    2    4    4    0    0  0.96536676148E+03 -0.71366329954E+03  0.38389831932E+03  0.12636545500E+04  0.90535147054E+02 0.  0.
         23    2    4    4    0    0  0.21481816967E+03  0.25629990235E+03  0.58877029831E+02  0.34968384000E+03  0.83521238926E+02 0.  0.
          2    1    3    3  502    0 -0.88381098397E+03  0.31835260496E+03  0.82295415605E+02  0.94299669771E+03  0.00000000000E+00 0. -1.
         -3    1    3    3    0  502 -0.29637394718E+03  0.13901079223E+03  0.67349931114E+02  0.33421180431E+03  0.00000000000E+00 0.  1.
         13    1    5    5    0    0  0.26313769150E+01  0.15097739419E+01  0.51288886968E+01  0.59589479850E+01  0.00000000000E+00 0.  1.
        -13    1    5    5    0    0  0.96273538456E+03 -0.71517307348E+03  0.37876943063E+03  0.12576956020E+04  0.00000000000E+00 0. -1.
          1    1    6    6  503    0  0.16240364430E+03  0.18799937174E+03  0.57141937843E+01  0.24849820817E+03  0.00000000000E+00 0. -1.
         -1    1    6    6    0  503  0.52414525368E+02  0.68300530618E+02  0.53162836047E+02  0.10118563183E+03  0.00000000000E+00 0.  1.
<mgrwt>
<rscale>  0 0.28291870E+04</rscale>
<asrwt>0</asrwt>
<pdfrwt beam="1">  1        2 0.17677894E+00 0.28291870E+04</pdfrwt>
<pdfrwt beam="2">  1       -1 0.26792058E+00 0.28291870E+04</pdfrwt>
<totfact> 0.10717347E+00</totfact>
</mgrwt>
</event>
<event>
12    7  0.1698542E-007  0.1620700E+04  0.7818608E-02  0.8807931E-01
         -1   -1    0    0    0  501 -0.00000000000E+00  0.00000000000E+00  0.31453210081E+03  0.31453210081E+03  0.00000000000E+00 0.  1.
          2   -1    0    0  501    0  0.00000000000E+00 -0.00000000000E+00 -0.20877575215E+04  0.20877575215E+04  0.00000000000E+00 0. -1.
         24    2    1    2    0    0 -0.27535209345E+03  0.43694622412E+03 -0.32753761428E+03  0.61699688480E+03  0.81630196277E+02 0.  0.
        254    2    1    2    0    0  0.27535209345E+03 -0.43694622412E+03 -0.14456878064E+04  0.17852927375E+04  0.91132658625E+03 0.  0.
         23    2    4    4    0    0 -0.25380393090E+03  0.99843870986E+02 -0.40057583092E+03  0.49330744510E+03  0.92228006373E+02 0.  0.
         23    2    4    4    0    0  0.52915602435E+03 -0.53679009511E+03 -0.10451119754E+04  0.12919852924E+04  0.93900213736E+02 0.  0.
          4    1    3    3  502    0 -0.21086761884E+03  0.38601449570E+03 -0.28846603263E+03  0.52600855083E+03  0.00000000000E+00 0. -1.
         -3    1    3    3    0  502 -0.64484474616E+02  0.50931728423E+02 -0.39071581650E+02  0.90988333974E+02  0.00000000000E+00 0.  1.
         13    1    5    5    0    0 -0.14791906579E+03  0.81413006289E+02 -0.30894129822E+03  0.35206938714E+03  0.00000000000E+00 0.  1.
        -13    1    5    5    0    0 -0.10588486511E+03  0.18430864697E+02 -0.91634532707E+02  0.14123805796E+03  0.00000000000E+00 0. -1.
          3    1    6    6  503    0  0.32587874240E+02 -0.44084361684E+02 -0.42054624966E+02  0.69094080597E+02  0.00000000000E+00 0. -1.
         -3    1    6    6    0  503  0.49656815011E+03 -0.49270573343E+03 -0.10030573505E+04  0.12228912118E+04  0.00000000000E+00 0.  1.
<mgrwt>
<rscale>  0 0.16206996E+04</rscale>
<asrwt>0</asrwt>
<pdfrwt beam="1">  1        2 0.32119348E+00 0.16206996E+04</pdfrwt>
<pdfrwt beam="2">  1       -1 0.48389552E-01 0.16206996E+04</pdfrwt>
<totfact> 0.27815626E+01</totfact>
</mgrwt>
</event>
<event>
12    7  0.1698542E-007  0.1939049E+04  0.7818608E-02  0.8635660E-01
          2   -1    0    0  501    0  0.00000000000E+00  0.00000000000E+00  0.35382821479E+04  0.35382821479E+04  0.00000000000E+00 0. -1.
         -1   -1    0    0    0  501 -0.00000000000E+00 -0.00000000000E+00 -0.26565924598E+03  0.26565924598E+03  0.00000000000E+00 0.  1.
         24    2    1    2    0    0 -0.41445973475E+03  0.46579778067E+03  0.20252284879E+04  0.21207286111E+04  0.84823167145E+02 0.  0.
        254    2    1    2    0    0  0.41445973475E+03 -0.46579778067E+03  0.12473944141E+04  0.16832127828E+04  0.94258580708E+03 0.  0.
         23    2    4    4    0    0  0.17009011297E+03 -0.52444232445E+03  0.12961340632E+04  0.14116864248E+04  0.94470385551E+02 0.  0.
         23    2    4    4    0    0  0.24436962178E+03  0.58644543782E+02 -0.48739649165E+02  0.27152635804E+03  0.90527979901E+02 0.  0.
          4    1    3    3  502    0 -0.31973105957E+03  0.33524555112E+03  0.16080845824E+04  0.16734854508E+04  0.00000000000E+00 0. -1.
         -3    1    3    3    0  502 -0.94728675174E+02  0.13055222955E+03  0.41714390549E+03  0.44724316029E+03  0.00000000000E+00 0.  1.
         13    1    5    5    0    0 -0.65691584280E+01 -0.11024852016E+02  0.12378724748E+02  0.17830704720E+02  0.00000000000E+00 0.  1.
        -13    1    5    5    0    0  0.17665927140E+03 -0.51341747243E+03  0.12837553385E+04  0.13938557200E+04  0.00000000000E+00 0. -1.
          2    1    6    6  503    0  0.23978647512E+03  0.41878314331E+02 -0.60145808942E+02  0.25073664510E+03  0.00000000000E+00 0. -1.
         -2    1    6    6    0  503  0.45831466597E+01  0.16766229451E+02  0.11406159776E+02  0.20789712941E+02  0.00000000000E+00 0.  1.
<mgrwt>
<rscale>  0 0.19390486E+04</rscale>
<asrwt>0</asrwt>
<pdfrwt beam="1">  1        2 0.54435107E+00 0.19390486E+04</pdfrwt>
<pdfrwt beam="2">  1       -1 0.40870656E-01 0.19390486E+04</pdfrwt>
<totfact> 0.47859177E+00</totfact>
</mgrwt>
</event>
<event>
12    7  0.1698542E-007  0.1286583E+04  0.7818608E-02  0.9040273E-01
         -1   -1    0    0    0  501 -0.00000000000E+00  0.00000000000E+00  0.27639819408E+03  0.27639819408E+03  0.00000000000E+00 0.  1.
          2   -1    0    0  501    0  0.00000000000E+00 -0.00000000000E+00 -0.14972018668E+04  0.14972018668E+04  0.00000000000E+00 0. -1.
         24    2    1    2    0    0 -0.15671983557E+03 -0.18469467930E+03 -0.26188159327E+02  0.25616912239E+03  0.79142707532E+02 0.  0.
        254    2    1    2    0    0  0.15671983557E+03  0.18469467930E+03 -0.11946155134E+04  0.15174309385E+04  0.90377939613E+03 0.  0.
         23    2    4    4    0    0 -0.20902053798E+03  0.28709198436E+03 -0.10293245082E+04  0.10929924218E+04  0.94932072023E+02 0.  0.
         23    2    4    4    0    0  0.36574037356E+03 -0.10239730505E+03 -0.16529100525E+03  0.42443851669E+03  0.92605124581E+02 0.  0.
          4    1    3    3  502    0  0.95802560186E+00  0.27258259180E+01  0.83353869199E+01  0.88219394179E+01  0.00000000000E+00 0. -1.
         -3    1    3    3    0  502 -0.15767786117E+03 -0.18742050522E+03 -0.34523546247E+02  0.24734718298E+03  0.00000000000E+00 0.  1.
         13    1    5    5    0    0 -0.13315984597E+03  0.24961417444E+03 -0.80101902162E+03  0.84951177370E+03  0.00000000000E+00 0.  1.
        -13    1    5    5    0    0 -0.75860692011E+02  0.37477809912E+02 -0.22830548656E+03  0.24348064814E+03  0.00000000000E+00 0. -1.
          3    1    6    6  503    0  0.12107639495E+03  0.31890905535E+01 -0.77865661868E+02  0.14398862806E+03  0.00000000000E+00 0. -1.
         -3    1    6    6    0  503  0.24466397860E+03 -0.10558639561E+03 -0.87425343386E+02  0.28044988862E+03  0.00000000000E+00 0.  1.
<mgrwt>
<rscale>  0 0.12865829E+04</rscale>
<asrwt>0</asrwt>
<pdfrwt beam="1">  1        2 0.23033875E+00 0.12865829E+04</pdfrwt>
<pdfrwt beam="2">  1       -1 0.42522799E-01 0.12865829E+04</pdfrwt>
<totfact> 0.77477392E+01</totfact>
</mgrwt>
</event>
<event>
12    7  0.1698542E-007  0.3912545E+04  0.7818608E-02  0.8022425E-01
          2   -1    0    0  501    0  0.00000000000E+00  0.00000000000E+00  0.37796203512E+04  0.37796203512E+04  0.00000000000E+00 0. -1.
         -1   -1    0    0    0  501 -0.00000000000E+00 -0.00000000000E+00 -0.10125361914E+04  0.10125361914E+04  0.00000000000E+00 0.  1.
         24    2    1    2    0    0 -0.11986802915E+04  0.12158791265E+04  0.43506982455E+03  0.17638539999E+04  0.81845519726E+02 0.  0.
        254    2    1    2    0    0  0.11986802915E+04 -0.12158791265E+04  0.23320143352E+04  0.30283025427E+04  0.90395184550E+03 0.  0.
         23    2    4    4    0    0 -0.98390131245E+02 -0.28217473715E+03  0.24076553335E+03  0.39444453801E+03  0.91187999770E+02 0.  0.
         23    2    4    4    0    0  0.12970704228E+04 -0.93370438937E+03  0.20912488019E+04  0.26338580047E+04  0.98442213113E+02 0.  0.
          2    1    3    3  502    0 -0.97347357511E+03  0.10137670288E+04  0.33177383702E+03  0.14441081223E+04  0.00000000000E+00 0. -1.
         -1    1    3    3    0  502 -0.22520671641E+03  0.20211209776E+03  0.10329598753E+03  0.31974587756E+03  0.00000000000E+00 0.  1.
         13    1    5    5    0    0 -0.97443401132E+02 -0.19121625769E+03  0.12922553688E+03  0.25051569414E+03  0.00000000000E+00 0.  1.
        -13    1    5    5    0    0 -0.94673011331E+00 -0.90958479461E+02  0.11153999648E+03  0.14392884387E+03  0.00000000000E+00 0. -1.
          3    1    6    6  503    0  0.17046737985E+03 -0.85161819226E+02  0.26414006874E+03  0.32570176382E+03  0.00000000000E+00 0. -1.
         -3    1    6    6    0  503  0.11266030429E+04 -0.84854257015E+03  0.18271087331E+04  0.23081562409E+04  0.00000000000E+00 0.  1.
<mgrwt>
<rscale>  0 0.39125452E+04</rscale>
<asrwt>0</asrwt>
<pdfrwt beam="1">  1        2 0.58148005E+00 0.39125452E+04</pdfrwt>
<pdfrwt beam="2">  1       -1 0.15577480E+00 0.39125452E+04</pdfrwt>
<totfact> 0.14400951E-01</totfact>
</mgrwt>
</event>
<event>
12    7  0.1698542E-007  0.1621459E+04  0.7818608E-02  0.8807473E-01
         -1   -1    0    0    0  501 -0.00000000000E+00  0.00000000000E+00  0.42453142846E+03  0.42453142846E+03  0.00000000000E+00 0.  1.
          2   -1    0    0  501    0  0.00000000000E+00 -0.00000000000E+00 -0.15482527384E+04  0.15482527384E+04  0.00000000000E+00 0. -1.
         24    2    1    2    0    0  0.31182721584E+03 -0.30953507083E+03  0.23520590396E+02  0.44877350313E+03  0.88296468361E+02 0.  0.
        254    2    1    2    0    0 -0.31182721584E+03  0.30953507083E+03 -0.11472419003E+04  0.15240106637E+04  0.90188488878E+03 0.  0.
         23    2    4    4    0    0  0.17899361202E+03  0.37105794204E+03 -0.82492701650E+03  0.92664082779E+03  0.91847328060E+02 0.  0.
         23    2    4    4    0    0 -0.49082082787E+03 -0.61522871208E+02 -0.32231488379E+03  0.59736983589E+03  0.90959814044E+02 0.  0.
          4    1    3    3  502    0  0.12871974304E+03 -0.96443720196E+02  0.44939750649E+02  0.16700222933E+03  0.00000000000E+00 0. -1.
         -3    1    3    3    0  502  0.18310747280E+03 -0.21309135064E+03 -0.21419160253E+02  0.28177127380E+03  0.00000000000E+00 0.  1.
         13    1    5    5    0    0  0.16124806364E+03  0.23602709096E+03 -0.56518335931E+03  0.63335768357E+03  0.00000000000E+00 0. -1.
        -13    1    5    5    0    0  0.17745548379E+02  0.13503085108E+03 -0.25974365719E+03  0.29328314422E+03  0.00000000000E+00 0.  1.
          3    1    6    6  503    0 -0.45406111375E+03 -0.31267216329E+02 -0.28663700540E+03  0.53787536354E+03  0.00000000000E+00 0. -1.
         -3    1    6    6    0  503 -0.36759714115E+02 -0.30255654880E+02 -0.35677878387E+02  0.59494472350E+02  0.00000000000E+00 0.  1.
<mgrwt>
<rscale>  0 0.16214585E+04</rscale>
<asrwt>0</asrwt>
<pdfrwt beam="1">  1        2 0.23819273E+00 0.16214585E+04</pdfrwt>
<pdfrwt beam="2">  1       -1 0.65312526E-01 0.16214585E+04</pdfrwt>
<totfact> 0.30908356E+01</totfact>
</mgrwt>
</event>
<event>
12    7  0.1698542E-007  0.1630125E+04  0.7818608E-02  0.8802252E-01
         -1   -1    0    0    0  501 -0.00000000000E+00  0.00000000000E+00  0.53172513718E+03  0.53172513718E+03  0.00000000000E+00 0.  1.
          2   -1    0    0  501    0  0.00000000000E+00 -0.00000000000E+00 -0.12493797567E+04  0.12493797567E+04  0.00000000000E+00 0. -1.
         24    2    1    2    0    0  0.38408831086E+03 -0.41167151163E+02  0.19586188907E+03  0.44046168752E+03  0.80162670286E+02 0.  0.
        254    2    1    2    0    0 -0.38408831086E+03  0.41167151163E+02 -0.91351650860E+03  0.13406432064E+04  0.90199403014E+03 0.  0.
         23    2    4    4    0    0 -0.45056800542E+03  0.10965527371E+03 -0.60047365709E+02  0.47658132909E+03  0.92131810745E+02 0.  0.
         23    2    4    4    0    0  0.66479694554E+02 -0.68488122545E+02 -0.85346914289E+03  0.86406187727E+03  0.95305703769E+02 0.  0.
          4    1    3    3  502    0  0.18334597650E+02 -0.14634858943E+02 -0.24029208919E+01  0.23581997288E+02  0.00000000000E+00 0. -1.
         -3    1    3    3    0  502  0.36575371322E+03 -0.26532292220E+02  0.19826480996E+03  0.41687969023E+03  0.00000000000E+00 0.  1.
         13    1    5    5    0    0 -0.40234590256E+03  0.95926544559E+02 -0.23039866221E+02  0.41426436329E+03  0.00000000000E+00 0. -1.
        -13    1    5    5    0    0 -0.48222102861E+02  0.13728729149E+02 -0.37007499489E+02  0.62316965802E+02  0.00000000000E+00 0.  1.
          1    1    6    6  503    0  0.72658765328E+02 -0.36696306869E+02 -0.77367976567E+03  0.77795005941E+03  0.00000000000E+00 0. -1.
         -1    1    6    6    0  503 -0.61790707732E+01 -0.31791815676E+02 -0.79789377219E+02  0.86111817869E+02  0.00000000000E+00 0.  1.
<mgrwt>
<rscale>  0 0.16301247E+04</rscale>
<asrwt>0</asrwt>
<pdfrwt beam="1">  1        2 0.19221227E+00 0.16301247E+04</pdfrwt>
<pdfrwt beam="2">  1       -1 0.81803868E-01 0.16301247E+04</pdfrwt>
<totfact> 0.28720484E+01</totfact>
</mgrwt>
</event>
<event>
12    7  0.1698542E-007  0.1736802E+04  0.7818608E-02  0.8740649E-01
          2   -1    0    0  501    0  0.00000000000E+00  0.00000000000E+00  0.66428136184E+03  0.66428136184E+03  0.00000000000E+00 0. -1.
         -1   -1    0    0    0  501 -0.00000000000E+00 -0.00000000000E+00 -0.11352420036E+04  0.11352420036E+04  0.00000000000E+00 0.  1.
         24    2    1    2    0    0 -0.21291724351E+03  0.25495463354E+03  0.38143922873E+03  0.51260135719E+03  0.83238503278E+02 0.  0.
        254    2    1    2    0    0  0.21291724351E+03 -0.25495463354E+03 -0.85239987053E+03  0.12869220083E+04  0.90512269798E+03 0.  0.
         23    2    4    4    0    0 -0.52056918678E+01 -0.56493229115E+03 -0.55143830885E+03  0.79436002681E+03  0.88023013530E+02 0.  0.
         23    2    4    4    0    0  0.21812293537E+03  0.30997765760E+03 -0.30096156168E+03  0.49256198149E+03  0.91518745894E+02 0.  0.
          4    1    3    3  502    0 -0.14313931599E+03  0.13310884795E+03  0.27007798061E+03  0.33339007903E+03  0.00000000000E+00 0. -1.
         -3    1    3    3    0  502 -0.69777927522E+02  0.12184578560E+03  0.11136124812E+03  0.17921127816E+03  0.00000000000E+00 0.  1.
         13    1    5    5    0    0 -0.36286983822E+02 -0.11113390384E+03 -0.11375303519E+03  0.16311726700E+03  0.00000000000E+00 0.  1.
        -13    1    5    5    0    0  0.31081291954E+02 -0.45379838731E+03 -0.43768527366E+03  0.63124275981E+03  0.00000000000E+00 0. -1.
          2    1    6    6  503    0  0.10286473252E+03  0.21105893968E+03 -0.21319143859E+03  0.31713974633E+03  0.00000000000E+00 0. -1.
         -2    1    6    6    0  503  0.11525820285E+03  0.98918717927E+02 -0.87770123089E+02  0.17542223516E+03  0.00000000000E+00 0.  1.
<mgrwt>
<rscale>  0 0.17368018E+04</rscale>
<asrwt>0</asrwt>
<pdfrwt beam="1">  1        2 0.10219713E+00 0.17368018E+04</pdfrwt>
<pdfrwt beam="2">  1       -1 0.17465262E+00 0.17368018E+04</pdfrwt>
<totfact> 0.10788196E+01</totfact>
</mgrwt>
</event>
<event>
12    7  0.1698542E-007  0.1489520E+04  0.7818608E-02  0.8891452E-01
          2   -1    0    0  501    0  0.00000000000E+00  0.00000000000E+00  0.57402694113E+03  0.57402694113E+03  0.00000000000E+00 0. -1.
         -1   -1    0    0    0  501 -0.00000000000E+00 -0.00000000000E+00 -0.96627380045E+03  0.96627380045E+03  0.00000000000E+00 0.  1.
         24    2    1    2    0    0  0.12254969515E+02 -0.46863031732E+03 -0.62313342629E+02  0.48059289220E+03  0.85568783889E+02 0.  0.
        254    2    1    2    0    0 -0.12254969515E+02  0.46863031732E+03 -0.32993351669E+03  0.10597078494E+04  0.89126878213E+03 0.  0.
         23    2    4    4    0    0 -0.28680364703E+03  0.60125172013E+03 -0.12694127385E+03  0.68443220752E+03  0.92592638816E+02 0.  0.
         23    2    4    4    0    0  0.27454867752E+03 -0.13262140281E+03 -0.20299224284E+03  0.37527564186E+03  0.81612155428E+02 0.  0.
          2    1    3    3  502    0  0.24988256227E+02 -0.27345654055E+03  0.23073898063E+01  0.27460556543E+03  0.00000000000E+00 0. -1.
         -1    1    3    3    0  502 -0.12733286712E+02 -0.19517377677E+03 -0.64620732436E+02  0.20598732677E+03  0.00000000000E+00 0.  1.
         13    1    5    5    0    0 -0.17896600410E+03  0.36025269359E+03 -0.12203527937E+03  0.42036108677E+03  0.00000000000E+00 0. -1.
        -13    1    5    5    0    0 -0.10783764293E+03  0.24099902655E+03 -0.49059944831E+01  0.26407112074E+03  0.00000000000E+00 0.  1.
          4    1    6    6  503    0  0.27021339699E+03 -0.11592133012E+03 -0.17433999503E+03  0.34182958993E+03  0.00000000000E+00 0. -1.
         -4    1    6    6    0  503  0.43352805313E+01 -0.16700072697E+02 -0.28652247807E+02  0.33446051931E+02  0.00000000000E+00 0.  1.
<mgrwt>
<rscale>  0 0.14895196E+04</rscale>
<asrwt>0</asrwt>
<pdfrwt beam="1">  1        2 0.88311837E-01 0.14895196E+04</pdfrwt>
<pdfrwt beam="2">  1       -1 0.14865751E+00 0.14895196E+04</pdfrwt>
<totfact> 0.20666302E+01</totfact>
</mgrwt>
</event>
<event>
12    7  0.1698542E-007  0.1861095E+04  0.7818608E-02  0.8674468E-01
          2   -1    0    0  501    0  0.00000000000E+00  0.00000000000E+00  0.56240581587E+03  0.56240581587E+03  0.00000000000E+00 0. -1.
         -1   -1    0    0    0  501 -0.00000000000E+00 -0.00000000000E+00 -0.15396690287E+04  0.15396690287E+04  0.00000000000E+00 0.  1.
         24    2    1    2    0    0 -0.48800434126E+03  0.77618966787E+02  0.19790106011E+03  0.53832021276E+03  0.80317375291E+02 0.  0.
        254    2    1    2    0    0  0.48800434126E+03 -0.77618966787E+02 -0.11751642730E+04  0.15637546318E+04  0.90561831864E+03 0.  0.
         23    2    4    4    0    0  0.77885602135E+02  0.29095546792E+03 -0.65381753091E+02  0.32136512942E+03  0.90991875685E+02 0.  0.
         23    2    4    4    0    0  0.41011873913E+03 -0.36857443470E+03 -0.11097825199E+04  0.12423895024E+04  0.88712683448E+02 0.  0.
          2    1    3    3  502    0 -0.31168466236E+03  0.27890555958E+02  0.89602632726E+02  0.32550552016E+03  0.00000000000E+00 0. -1.
         -1    1    3    3    0  502 -0.17631967890E+03  0.49728410829E+02  0.10829842739E+03  0.21281469260E+03  0.00000000000E+00 0.  1.
         13    1    5    5    0    0  0.67713194086E+02  0.20250125886E+03 -0.46229830411E+01  0.21357248995E+03  0.00000000000E+00 0. -1.
        -13    1    5    5    0    0  0.10172408049E+02  0.88454209056E+02 -0.60758770050E+02  0.10779263947E+03  0.00000000000E+00 0.  1.
          1    1    6    6  503    0  0.13664023838E+03 -0.97637135237E+02 -0.42220036465E+03  0.45437507946E+03  0.00000000000E+00 0. -1.
         -1    1    6    6    0  503  0.27347850075E+03 -0.27093729947E+03 -0.68758215522E+03  0.78801442296E+03  0.00000000000E+00 0.  1.
<mgrwt>
<rscale>  0 0.18610952E+04</rscale>
<asrwt>0</asrwt>
<pdfrwt beam="1">  1        2 0.86523973E-01 0.18610952E+04</pdfrwt>
<pdfrwt beam="2">  1       -1 0.23687216E+00 0.18610952E+04</pdfrwt>
<totfact> 0.48906941E+00</totfact>
</mgrwt>
</event>
<event>
12    7  0.1698542E-007  0.4028092E+04  0.7818608E-02  0.7998903E-01
         -1   -1    0    0    0  501 -0.00000000000E+00  0.00000000000E+00  0.20108605990E+04  0.20108605990E+04  0.00000000000E+00 0.  1.
          2   -1    0    0  501    0  0.00000000000E+00 -0.00000000000E+00 -0.20172367444E+04  0.20172367444E+04  0.00000000000E+00 0. -1.
         24    2    1    2    0    0  0.10763011387E+04  0.14630506334E+04  0.59642755339E+03  0.19133440636E+04  0.78856719536E+02 0.  0.
        254    2    1    2    0    0 -0.10763011387E+04 -0.14630506334E+04 -0.60280369873E+03  0.21147532797E+04  0.89992657360E+03 0.  0.
         23    2    4    4    0    0 -0.11145355107E+04 -0.12676751200E+04 -0.75213651293E+03  0.18502995031E+04  0.93323644958E+02 0.  0.
         23    2    4    4    0    0  0.38234371992E+02 -0.19537551342E+03  0.14933281420E+03  0.26445377663E+03  0.89454190111E+02 0.  0.
          4    1    3    3  502    0  0.75920799655E+03  0.98990353470E+03  0.43751433168E+03  0.13220153480E+04  0.00000000000E+00 0. -1.
         -3    1    3    3    0  502  0.31709314213E+03  0.47314709874E+03  0.15891322172E+03  0.59132871558E+03  0.00000000000E+00 0.  1.
         13    1    5    5    0    0 -0.41775565100E+03 -0.41637792051E+03 -0.23881193020E+03  0.63633442044E+03  0.00000000000E+00 0. -1.
        -13    1    5    5    0    0 -0.69677985967E+03 -0.85129719951E+03 -0.51332458273E+03  0.12139650827E+04  0.00000000000E+00 0.  1.
          4    1    6    6  503    0  0.27916822602E+02 -0.13348351358E+03  0.46673459948E+02  0.14413746649E+03  0.00000000000E+00 0. -1.
         -4    1    6    6    0  503  0.10317549390E+02 -0.61891999840E+02  0.10265935425E+03  0.12031631014E+03  0.00000000000E+00 0.  1.
<mgrwt>
<rscale>  0 0.40280923E+04</rscale>
<asrwt>0</asrwt>
<pdfrwt beam="1">  1        2 0.31034411E+00 0.40280923E+04</pdfrwt>
<pdfrwt beam="2">  1       -1 0.30936317E+00 0.40280923E+04</pdfrwt>
<totfact> 0.16800478E-01</totfact>
</mgrwt>
</event>
<event>
12    7  0.1698542E-007  0.3354159E+04  0.7818608E-02  0.8149250E-01
         -3   -1    0    0    0  501 -0.00000000000E+00  0.00000000000E+00  0.62657478851E+03  0.62657478851E+03  0.00000000000E+00 0.  1.
          2   -1    0    0  501    0  0.00000000000E+00 -0.00000000000E+00 -0.44888439378E+04  0.44888439378E+04  0.00000000000E+00 0. -1.
         24    2    1    2    0    0 -0.83890840023E+03  0.12497764023E+04 -0.23824399880E+04  0.28192926419E+04  0.81745606511E+02 0.  0.
        254    2    1    2    0    0  0.83890840023E+03 -0.12497764023E+04 -0.14798291613E+04  0.22961260844E+04  0.90365496138E+03 0.  0.
         23    2    4    4    0    0  0.42582276990E+03 -0.43306239864E+02 -0.18098903119E+03  0.47362870006E+03  0.91469417484E+02 0.  0.
         23    2    4    4    0    0  0.41308563033E+03 -0.12064701625E+04 -0.12988401301E+04  0.18224973844E+04  0.91110052098E+02 0.  0.
          2    1    3    3  502    0 -0.72843050198E+03  0.11272854618E+04 -0.21026756387E+04  0.24945196632E+04  0.00000000000E+00 0. -1.
         -1    1    3    3    0  502 -0.11047789825E+03  0.12249094058E+03 -0.27976434934E+03  0.32477297869E+03  0.00000000000E+00 0.  1.
         13    1    5    5    0    0  0.30228869249E+02  0.10731544772E+02 -0.37529624237E+02  0.49370267213E+02  0.00000000000E+00 0. -1.
        -13    1    5    5    0    0  0.39559390065E+03 -0.54037784637E+02 -0.14345940696E+03  0.42425843285E+03  0.00000000000E+00 0.  1.
          2    1    6    6  503    0  0.11042439346E+03 -0.25017545991E+03 -0.23785158940E+03  0.36242887025E+03  0.00000000000E+00 0. -1.
         -2    1    6    6    0  503  0.30266123687E+03 -0.95629470258E+03 -0.10609885407E+04  0.14600685141E+04  0.00000000000E+00 0.  1.
<mgrwt>
<rscale>  0 0.33541595E+04</rscale>
<asrwt>0</asrwt>
<pdfrwt beam="1">  1        2 0.69059136E+00 0.33541595E+04</pdfrwt>
<pdfrwt beam="2">  1       -3 0.96396124E-01 0.33541595E+04</pdfrwt>
<totfact> 0.63935637E-02</totfact>
</mgrwt>
</event>
<event>
12    7  0.1698542E-007  0.1591761E+04  0.7818608E-02  0.8825626E-01
          2   -1    0    0  501    0  0.00000000000E+00  0.00000000000E+00  0.57152692788E+03  0.57152692788E+03  0.00000000000E+00 0. -1.
         -1   -1    0    0    0  501 -0.00000000000E+00 -0.00000000000E+00 -0.11083039293E+04  0.11083039293E+04  0.00000000000E+00 0.  1.
         24    2    1    2    0    0 -0.25008789067E+03 -0.46024975587E+03 -0.31427158002E+03  0.61644040038E+03  0.82815157847E+02 0.  0.
        254    2    1    2    0    0  0.25008789067E+03  0.46024975587E+03 -0.22250542145E+03  0.10633904568E+04  0.89828548373E+03 0.  0.
         23    2    4    4    0    0 -0.12020616253E+03  0.14663209976E+03 -0.46714355551E+03  0.51226466769E+03  0.90782675224E+02 0.  0.
         23    2    4    4    0    0  0.37029405320E+03  0.31361765611E+03  0.24463813406E+03  0.55112578915E+03  0.91750197644E+02 0.  0.
          2    1    3    3  502    0 -0.21923289378E+03 -0.33834051788E+03 -0.22003625649E+03  0.45929655118E+03  0.00000000000E+00 0. -1.
         -1    1    3    3    0  502 -0.30854996895E+02 -0.12190923799E+03 -0.94235323522E+02  0.15714384920E+03  0.00000000000E+00 0.  1.
         13    1    5    5    0    0 -0.50716924603E+02  0.11109629390E+03 -0.35669587379E+03  0.37702326100E+03  0.00000000000E+00 0. -1.
        -13    1    5    5    0    0 -0.69489237925E+02  0.35535805864E+02 -0.11044768172E+03  0.13524140669E+03  0.00000000000E+00 0.  1.
          4    1    6    6  503    0  0.57525378520E+02  0.13216092504E+02  0.42071089585E+02  0.72483176350E+02  0.00000000000E+00 0.  1.
         -4    1    6    6    0  503  0.31276867468E+03  0.30040156361E+03  0.20256704448E+03  0.47864261280E+03  0.00000000000E+00 0. -1.
<mgrwt>
<rscale>  0 0.15917607E+04</rscale>
<asrwt>0</asrwt>
<pdfrwt beam="1">  1        2 0.87927220E-01 0.15917607E+04</pdfrwt>
<pdfrwt beam="2">  1       -1 0.17050830E+00 0.15917607E+04</pdfrwt>
<totfact> 0.14065671E+01</totfact>
</mgrwt>
</event>
<event>
12    7  0.1698542E-007  0.1881946E+04  0.7818608E-02  0.8663895E-01
          2   -1    0    0  501    0  0.00000000000E+00  0.00000000000E+00  0.43127660133E+03  0.43127660133E+03  0.00000000000E+00 0. -1.
         -1   -1    0    0    0  501 -0.00000000000E+00 -0.00000000000E+00 -0.20530452504E+04  0.20530452504E+04  0.00000000000E+00 0.  1.
         24    2    1    2    0    0 -0.49359440946E+02  0.68503509089E+02  0.32160083947E+03  0.34195146064E+03  0.79841194354E+02 0.  0.
        254    2    1    2    0    0  0.49359440946E+02 -0.68503509089E+02 -0.19433694886E+04  0.21423703911E+04  0.89773985013E+03 0.  0.
         23    2    4    4    0    0 -0.19007352615E+03 -0.38370673492E+03 -0.62611256074E+03  0.76408810946E+03  0.91950511318E+02 0.  0.
         23    2    4    4    0    0  0.23943296709E+03  0.31520322584E+03 -0.13172569278E+04  0.13782822817E+04  0.88402572091E+02 0.  0.
          4    1    3    3  502    0 -0.56703309344E+02  0.81646472963E+02  0.29606945168E+03  0.31231159449E+03  0.00000000000E+00 0. -1.
         -3    1    3    3    0  502  0.73438683977E+01 -0.13142963874E+02  0.25531387794E+02  0.29639866146E+02  0.00000000000E+00 0.  1.
         13    1    5    5    0    0 -0.14725346850E+03 -0.35219011793E+03 -0.51645209061E+03  0.64221820672E+03  0.00000000000E+00 0. -1.
        -13    1    5    5    0    0 -0.42820057641E+02 -0.31516616998E+02 -0.10966047014E+03  0.12186990274E+03  0.00000000000E+00 0.  1.
          3    1    6    6  503    0  0.21611336316E+03  0.27213286714E+03 -0.12307838323E+04  0.12789019216E+04  0.00000000000E+00 0. -1.
         -3    1    6    6    0  503  0.23319603936E+02  0.43070358693E+02 -0.86473095500E+02  0.99380360087E+02  0.00000000000E+00 0.  1.
<mgrwt>
<rscale>  0 0.18819462E+04</rscale>
<asrwt>0</asrwt>
<pdfrwt beam="1">  1        2 0.66350247E-01 0.18819462E+04</pdfrwt>
<pdfrwt beam="2">  1       -1 0.31585311E+00 0.18819462E+04</pdfrwt>
<totfact> 0.20413292E+00</totfact>
</mgrwt>
</event>
<event>
12    7  0.1698542E-007  0.2470100E+04  0.7818608E-02  0.8413716E-01
          2   -1    0    0  501    0  0.00000000000E+00  0.00000000000E+00  0.10010092790E+04  0.10010092790E+04  0.00000000000E+00 0. -1.
         -1   -1    0    0    0  501 -0.00000000000E+00 -0.00000000000E+00 -0.15238107983E+04  0.15238107983E+04  0.00000000000E+00 0.  1.
         24    2    1    2    0    0  0.16960445696E+03  0.96728838365E+03 -0.65686436383E+03  0.11841843204E+04  0.80057624100E+02 0.  0.
        254    2    1    2    0    0 -0.16960445696E+03 -0.96728838365E+03  0.13406284455E+03  0.13406357570E+04  0.90272858470E+03 0.  0.
         23    2    4    4    0    0 -0.44327898586E+03 -0.91910227878E+03  0.19533809163E+03  0.10428989356E+04  0.90752198790E+02 0.  0.
         23    2    4    4    0    0  0.27367452890E+03 -0.48186104870E+02 -0.61275247086E+02  0.29773682142E+03  0.87595150855E+02 0.  0.
          4    1    3    3  502    0  0.89012472793E+02  0.62591906278E+03 -0.38300944989E+03  0.73918477540E+03  0.00000000000E+00 0. -1.
         -3    1    3    3    0  502  0.80591984171E+02  0.34136932087E+03 -0.27385491394E+03  0.44499954497E+03  0.00000000000E+00 0.  1.
         13    1    5    5    0    0 -0.43779963927E+03 -0.87681873841E+03  0.17454732072E+03  0.99546290305E+03  0.00000000000E+00 0.  1.
        -13    1    5    5    0    0 -0.54793465884E+01 -0.42283540367E+02  0.20790770917E+02  0.47436032510E+02  0.00000000000E+00 0. -1.
          2    1    6    6  503    0  0.16624121092E+03 -0.14487963534E+02 -0.77481536331E+02  0.18398214524E+03  0.00000000000E+00 0. -1.
         -2    1    6    6    0  503  0.10743331798E+03 -0.33698141336E+02  0.16206289244E+02  0.11375467618E+03  0.00000000000E+00 0.  1.
<mgrwt>
<rscale>  0 0.24701002E+04</rscale>
<asrwt>0</asrwt>
<pdfrwt beam="1">  1        2 0.15400143E+00 0.24701002E+04</pdfrwt>
<pdfrwt beam="2">  1       -1 0.23443243E+00 0.24701002E+04</pdfrwt>
<totfact> 0.22617467E+00</totfact>
</mgrwt>
</event>
<event>
12    7  0.1881459E-007  0.1965455E+04  0.7818608E-02  0.8622944E-01
         -1   -1    0    0    0  501 -0.00000000000E+00  0.00000000000E+00  0.50181788255E+03  0.50181788255E+03  0.00000000000E+00 0.  1.
          2   -1    0    0  501    0  0.00000000000E+00 -0.00000000000E+00 -0.19245097911E+04  0.19245097911E+04  0.00000000000E+00 0. -1.
         24    2    1    2    0    0 -0.65986994236E+03  0.39692187781E+03 -0.77902604243E+03  0.10981690036E+04  0.78219357126E+02 0.  0.
        254    2    1    2    0    0  0.65986994236E+03 -0.39692187781E+03 -0.64366586608E+03  0.13281586700E+04  0.86989906747E+03 0.  0.
         23    2    4    4    0    0  0.87043380012E+02  0.20953209091E+03 -0.37398956921E+03  0.44662942608E+03  0.90163181134E+02 0.  0.
         23    2    4    4    0    0  0.57282656234E+03 -0.60645396872E+03 -0.26967629687E+03  0.88152924390E+03  0.91933759095E+02 0.  0.
          2    1    3    3  502    0 -0.63883902771E+03  0.38656178705E+03 -0.73210267176E+03  0.10457148945E+04  0.00000000000E+00 0. -1.
         -1    1    3    3    0  502 -0.21030914647E+02  0.10360090760E+02 -0.46923370675E+02  0.52454109152E+02  0.00000000000E+00 0.  1.
         13    1    5    5    0    0  0.23316067792E+02  0.15263066363E+02 -0.10880494565E+02  0.29916306157E+02  0.00000000000E+00 0.  1.
        -13    1    5    5    0    0  0.63727312219E+02  0.19426902455E+03 -0.36310907465E+03  0.41671311992E+03  0.00000000000E+00 0. -1.
          3    1    6    6  503    0  0.25047760538E+03 -0.22311701730E+03 -0.72029208051E+02  0.34308663777E+03  0.00000000000E+00 0. -1.
         -3    1    6    6    0  503  0.32234895697E+03 -0.38333695142E+03 -0.19764708881E+03  0.53844260613E+03  0.00000000000E+00 0.  1.
<mgrwt>
<rscale>  0 0.19654551E+04</rscale>
<asrwt>0</asrwt>
<pdfrwt beam="1">  1        2 0.29607843E+00 0.19654551E+04</pdfrwt>
<pdfrwt beam="2">  1       -1 0.77202752E-01 0.19654551E+04</pdfrwt>
<totfact> 0.13132889E+01</totfact>
</mgrwt>
</event>
<event>
12    7  0.1698542E-007  0.1260855E+04  0.7818608E-02  0.9061197E-01
         -1   -1    0    0    0  501 -0.00000000000E+00  0.00000000000E+00  0.14613044578E+03  0.14613044578E+03  0.00000000000E+00 0.  1.
          2   -1    0    0  501    0  0.00000000000E+00 -0.00000000000E+00 -0.27197517553E+04  0.27197517553E+04  0.00000000000E+00 0. -1.
         24    2    1    2    0    0 -0.93666931097E+02  0.57581616251E+02 -0.12221749221E+04  0.12296510768E+04  0.79000595803E+02 0.  0.
        254    2    1    2    0    0  0.93666931097E+02 -0.57581616251E+02 -0.13514463874E+04  0.16362311242E+04  0.91583613011E+03 0.  0.
         23    2    4    4    0    0  0.47776183755E+03 -0.54835787124E+02 -0.97459206705E+03  0.10906924619E+04  0.92287660653E+02 0.  0.
         23    2    4    4    0    0 -0.38409490645E+03 -0.27458291269E+01 -0.37685432035E+03  0.54553866229E+03  0.89759771314E+02 0.  0.
          2    1    3    3  502    0 -0.75449318795E+02  0.76535627124E+02 -0.89704741037E+03  0.90346242776E+03  0.00000000000E+00 0. -1.
         -1    1    3    3    0  502 -0.18217612302E+02 -0.18954010873E+02 -0.32512751170E+03  0.32618864908E+03  0.00000000000E+00 0.  1.
         13    1    5    5    0    0  0.44139318651E+03 -0.41625268555E+02 -0.93770999859E+03  0.10372370267E+04  0.00000000000E+00 0. -1.
        -13    1    5    5    0    0  0.36368651040E+02 -0.13210518568E+02 -0.36882068469E+02  0.53455435214E+02  0.00000000000E+00 0.  1.
          1    1    6    6  503    0 -0.23355453526E+03  0.39785830111E+02 -0.24670351624E+03  0.34204277239E+03  0.00000000000E+00 0. -1.
         -1    1    6    6    0  503 -0.15054037119E+03 -0.42531659238E+02 -0.13015080411E+03  0.20349588990E+03  0.00000000000E+00 0.  1.
<mgrwt>
<rscale>  0 0.12608545E+04</rscale>
<asrwt>0</asrwt>
<pdfrwt beam="1">  1        2 0.41842332E+00 0.12608545E+04</pdfrwt>
<pdfrwt beam="2">  1       -1 0.22481608E-01 0.12608545E+04</pdfrwt>
<totfact> 0.48971571E+01</totfact>
</mgrwt>
</event>
<event>
12    7  0.1698542E-007  0.2544177E+04  0.7818608E-02  0.8387414E-01
         -1   -1    0    0    0  501 -0.00000000000E+00  0.00000000000E+00  0.71601997675E+03  0.71601997675E+03  0.00000000000E+00 0.  1.
          2   -1    0    0  501    0  0.00000000000E+00 -0.00000000000E+00 -0.22600063833E+04  0.22600063833E+04  0.00000000000E+00 0. -1.
         24    2    1    2    0    0  0.77728955486E+03  0.66240113469E+03 -0.11926128540E+04  0.15721857234E+04  0.80549449495E+02 0.  0.
        254    2    1    2    0    0 -0.77728955486E+03 -0.66240113469E+03 -0.35137355253E+03  0.14038406367E+04  0.89685608905E+03 0.  0.
         23    2    4    4    0    0 -0.96191925039E+02  0.20550443292E+03 -0.12461109078E+03  0.27395926743E+03  0.89670496118E+02 0.  0.
         23    2    4    4    0    0 -0.68109762982E+03 -0.86790556761E+03 -0.22676246176E+03  0.11298813693E+04  0.89758781779E+02 0.  0.
          2    1    3    3  502    0  0.67297217674E+03  0.60618944181E+03 -0.10641245194E+04  0.13973969310E+04  0.00000000000E+00 0. -1.
         -1    1    3    3    0  502  0.10431737811E+03  0.56211692886E+02 -0.12848833466E+03  0.17478879237E+03  0.00000000000E+00 0.  1.
         13    1    5    5    0    0 -0.61335539881E+02  0.14245313422E+03 -0.35032551620E+02  0.15900384767E+03  0.00000000000E+00 0.  1.
        -13    1    5    5    0    0 -0.34856385158E+02  0.63051298697E+02 -0.89578539158E+02  0.11495541976E+03  0.00000000000E+00 0. -1.
          3    1    6    6  503    0 -0.50062881392E+03 -0.62445719824E+03 -0.12412737606E+03  0.80992814944E+03  0.00000000000E+00 0. -1.
         -3    1    6    6    0  503 -0.18046881590E+03 -0.24344836937E+03 -0.10263508569E+03  0.31995321982E+03  0.00000000000E+00 0.  1.
<mgrwt>
<rscale>  0 0.25441774E+04</rscale>
<asrwt>0</asrwt>
<pdfrwt beam="1">  1        2 0.34769329E+00 0.25441774E+04</pdfrwt>
<pdfrwt beam="2">  1       -1 0.11015692E+00 0.25441774E+04</pdfrwt>
<totfact> 0.36717112E+00</totfact>
</mgrwt>
</event>
<event>
12    7  0.1698542E-007  0.1381722E+04  0.7818608E-02  0.8967156E-01
          2   -1    0    0  501    0  0.00000000000E+00  0.00000000000E+00  0.12025984898E+04  0.12025984898E+04  0.00000000000E+00 0. -1.
         -1   -1    0    0    0  501 -0.00000000000E+00 -0.00000000000E+00 -0.39688126353E+03  0.39688126353E+03  0.00000000000E+00 0.  1.
         24    2    1    2    0    0 -0.40132583451E+03  0.93072518089E+01  0.30415637513E+03  0.50956185572E+03  0.77415333657E+02 0.  0.
        254    2    1    2    0    0  0.40132583451E+03 -0.93072518089E+01  0.50156085119E+03  0.10899178976E+04  0.88045936067E+03 0.  0.
         23    2    4    4    0    0  0.42736603436E+03 -0.76339598025E+02  0.71786772570E+03  0.84448997344E+03  0.96745966821E+02 0.  0.
         23    2    4    4    0    0 -0.26040199842E+02  0.67032346216E+02 -0.21630687452E+03  0.24542792420E+03  0.90965787907E+02 0.  0.
          4    1    3    3  502    0 -0.34246013218E+03 -0.19709181591E+02  0.24974980165E+03  0.42431398445E+03  0.00000000000E+00 0. -1.
         -3    1    3    3    0  502 -0.58865702333E+02  0.29016433400E+02  0.54406573482E+02  0.85247871272E+02  0.00000000000E+00 0.  1.
         13    1    5    5    0    0  0.34272150374E+03 -0.96833008925E+02  0.54723784102E+03  0.65291953209E+03  0.00000000000E+00 0.  1.
        -13    1    5    5    0    0  0.84644530619E+02  0.20493410900E+02  0.17062988468E+03  0.19157044135E+03  0.00000000000E+00 0. -1.
          1    1    6    6  503    0  0.82547560908E+01 -0.18557958165E+02 -0.19805843318E+02  0.28369177621E+02  0.00000000000E+00 0. -1.
         -1    1    6    6    0  503 -0.34294955932E+02  0.85590304381E+02 -0.19650103120E+03  0.21705874658E+03  0.00000000000E+00 0.  1.
<mgrwt>
<rscale>  0 0.13817218E+04</rscale>
<asrwt>0</asrwt>
<pdfrwt beam="1">  1        2 0.18501515E+00 0.13817218E+04</pdfrwt>
<pdfrwt beam="2">  1       -1 0.61058656E-01 0.13817218E+04</pdfrwt>
<totfact> 0.57050113E+01</totfact>
</mgrwt>
</event>
<event>
12    7  0.1698542E-007  0.2729905E+04  0.7818608E-02  0.8325367E-01
         -1   -1    0    0    0  501 -0.00000000000E+00  0.00000000000E+00  0.88660869184E+03  0.88660869184E+03  0.00000000000E+00 0.  1.
          2   -1    0    0  501    0  0.00000000000E+00 -0.00000000000E+00 -0.21013721818E+04  0.21013721818E+04  0.00000000000E+00 0. -1.
         24    2    1    2    0    0 -0.41446083084E+03 -0.59269412050E+03 -0.16123196168E+04  0.17689061661E+04  0.79939833283E+02 0.  0.
        254    2    1    2    0    0  0.41446083084E+03  0.59269412050E+03  0.39755612685E+03  0.12190747075E+04  0.89723361940E+03 0.  0.
         23    2    4    4    0    0  0.16237617826E+03  0.12651011980E+03  0.60267363593E+03  0.64335020491E+03  0.91176428077E+02 0.  0.
         23    2    4    4    0    0  0.25208465258E+03  0.46618400069E+03 -0.20511750907E+03  0.57572450262E+03  0.92256792827E+02 0.  0.
          4    1    3    3  502    0 -0.35973730724E+03 -0.54568894015E+03 -0.14870894183E+04  0.16243836639E+04  0.00000000000E+00 0. -1.
         -3    1    3    3    0  502 -0.54723523596E+02 -0.47005180349E+02 -0.12523019849E+03  0.14452250215E+03  0.00000000000E+00 0.  1.
         13    1    5    5    0    0  0.77018712450E+02  0.53802535198E+02  0.40816160757E+03  0.41883468428E+03  0.00000000000E+00 0.  1.
        -13    1    5    5    0    0  0.85357465806E+02  0.72707584606E+02  0.19451202836E+03  0.22451552063E+03  0.00000000000E+00 0. -1.
          1    1    6    6  503    0  0.60607284070E+01  0.63140594867E+01 -0.20804412196E+02  0.22570408566E+02  0.00000000000E+00 0. -1.
         -1    1    6    6    0  503  0.24602392418E+03  0.45986994121E+03 -0.18431309688E+03  0.55315409406E+03  0.00000000000E+00 0.  1.
<mgrwt>
<rscale>  0 0.27299046E+04</rscale>
<asrwt>0</asrwt>
<pdfrwt beam="1">  1        2 0.32328802E+00 0.27299046E+04</pdfrwt>
<pdfrwt beam="2">  1       -1 0.13640134E+00 0.27299046E+04</pdfrwt>
<totfact> 0.26189794E+00</totfact>
</mgrwt>
</event>
<event>
12    7  0.1698542E-007  0.1679647E+04  0.7818608E-02  0.8773058E-01
          2   -1    0    0  501    0  0.00000000000E+00  0.00000000000E+00  0.10274198306E+04  0.10274198306E+04  0.00000000000E+00 0. -1.
         -1   -1    0    0    0  501 -0.00000000000E+00 -0.00000000000E+00 -0.68648018113E+03  0.68648018113E+03  0.00000000000E+00 0.  1.
         24    2    1    2    0    0  0.51462704760E+03 -0.29203573767E+03  0.20659574009E+02  0.59736266459E+03  0.79306146355E+02 0.  0.
        254    2    1    2    0    0 -0.51462704760E+03  0.29203573767E+03  0.32028007543E+03  0.11165373471E+04  0.89103897254E+03 0.  0.
         23    2    4    4    0    0 -0.75009081369E+03  0.31075526689E+03  0.25587257051E+03  0.85639635279E+03  0.93481955708E+02 0.  0.
         23    2    4    4    0    0  0.23546376609E+03 -0.18719529223E+02  0.64407504923E+02  0.26014099432E+03  0.87928404508E+02 0.  0.
          2    1    3    3  502    0  0.11137230493E+03 -0.35313004782E+02  0.24173146392E+02  0.11931110433E+03  0.00000000000E+00 0. -1.
         -1    1    3    3    0  502  0.40325474267E+03 -0.25672273289E+03 -0.35135723832E+01  0.47805156025E+03  0.00000000000E+00 0.  1.
         13    1    5    5    0    0 -0.27824596202E+03  0.69189321505E+02  0.75962880514E+02  0.29661142393E+03  0.00000000000E+00 0.  1.
        -13    1    5    5    0    0 -0.47184485167E+03  0.24156594539E+03  0.17990969000E+03  0.55978492886E+03  0.00000000000E+00 0. -1.
          4    1    6    6  503    0 -0.52441441876E+01  0.78988112927E+01 -0.24492078701E+00  0.94843162268E+01  0.00000000000E+00 0. -1.
         -4    1    6    6    0  503  0.24070791028E+03 -0.26618340515E+02  0.64652425710E+02  0.25065667810E+03  0.00000000000E+00 0.  1.
<mgrwt>
<rscale>  0 0.16796468E+04</rscale>
<asrwt>0</asrwt>
<pdfrwt beam="1">  1        2 0.15806459E+00 0.16796468E+04</pdfrwt>
<pdfrwt beam="2">  1       -1 0.10561234E+00 0.16796468E+04</pdfrwt>
<totfact> 0.22095208E+01</totfact>
</mgrwt>
</event>
<event>
12    7  0.1698542E-007  0.3346463E+04  0.7818608E-02  0.8151172E-01
         -1   -1    0    0    0  501 -0.00000000000E+00  0.00000000000E+00  0.17259542372E+04  0.17259542372E+04  0.00000000000E+00 0.  1.
          2   -1    0    0  501    0  0.00000000000E+00 -0.00000000000E+00 -0.16221194437E+04  0.16221194437E+04  0.00000000000E+00 0. -1.
         24    2    1    2    0    0  0.13261943824E+04 -0.74339802889E+03 -0.30229533244E+03  0.15522238392E+04  0.81143142381E+02 0.  0.
        254    2    1    2    0    0 -0.13261943824E+04  0.74339802889E+03  0.40613012590E+03  0.17958498418E+04  0.86527614424E+03 0.  0.
         23    2    4    4    0    0 -0.36318154792E+03 -0.71312037977E+02  0.37186432270E+03  0.53061188092E+03  0.79244243732E+02 0.  0.
         23    2    4    4    0    0 -0.96301283448E+03  0.81471006687E+03  0.34265803204E+02  0.12652379609E+04  0.92231989677E+02 0.  0.
          2    1    3    3  502    0  0.77728265944E+02 -0.51949363393E+02 -0.41420014605E+00  0.93491129234E+02  0.00000000000E+00 0. -1.
         -3    1    3    3    0  502  0.12484661165E+04 -0.69144866550E+03 -0.30188113229E+03  0.14587327099E+04  0.00000000000E+00 0.  1.
         13    1    5    5    0    0 -0.22830430550E+03 -0.77774840508E+02  0.26570141736E+03  0.35884401195E+03  0.00000000000E+00 0.  1.
        -13    1    5    5    0    0 -0.13487724242E+03  0.64628025312E+01  0.10616290534E+03  0.17176786897E+03  0.00000000000E+00 0. -1.
          2    1    6    6  503    0 -0.52714470256E+03  0.50363607865E+03  0.79984438767E+01  0.72910548775E+03  0.00000000000E+00 0. -1.
         -2    1    6    6    0  503 -0.43586813192E+03  0.31107398821E+03  0.26267359327E+02  0.53613247312E+03  0.00000000000E+00 0.  1.
<mgrwt>
<rscale>  0 0.33464632E+04</rscale>
<asrwt>0</asrwt>
<pdfrwt beam="1">  1        2 0.24955684E+00 0.33464632E+04</pdfrwt>
<pdfrwt beam="2">  1       -1 0.26553142E+00 0.33464632E+04</pdfrwt>
<totfact> 0.56701770E-01</totfact>
</mgrwt>
</event>
<event>
12    7  0.1698542E-007  0.1524940E+04  0.7818608E-02  0.8868035E-01
          4   -1    0    0  501    0  0.00000000000E+00  0.00000000000E+00  0.28573189486E+03  0.28573189486E+03  0.00000000000E+00 0. -1.
         -3   -1    0    0    0  501 -0.00000000000E+00 -0.00000000000E+00 -0.20346366930E+04  0.20346366930E+04  0.00000000000E+00 0.  1.
         24    2    1    2    0    0 -0.32290920025E+03 -0.33780966990E+03 -0.80418964428E+03  0.93360332331E+03  0.80675006354E+02 0.  0.
        254    2    1    2    0    0  0.32290920025E+03  0.33780966990E+03 -0.94471515382E+03  0.13867652645E+04  0.90124661015E+03 0.  0.
         23    2    4    4    0    0  0.93007464183E+01  0.25216626483E+03  0.10138333371E+03  0.28719223675E+03  0.92338894792E+02 0.  0.
         23    2    4    4    0    0  0.31360845383E+03  0.85643405068E+02 -0.10460984875E+04  0.10995730278E+04  0.95151156698E+02 0.  0.
          2    1    3    3  502    0 -0.23408432490E+02 -0.69939533501E+01 -0.21068301837E+02  0.32260555442E+02  0.00000000000E+00 0. -1.
         -1    1    3    3    0  502 -0.29950076776E+03 -0.33081571655E+03 -0.78312134244E+03  0.90134276787E+03  0.00000000000E+00 0.  1.
         13    1    5    5    0    0 -0.10724747050E+02 -0.21470936303E+01 -0.33349547910E+01  0.11434689930E+02  0.00000000000E+00 0.  1.
        -13    1    5    5    0    0  0.20025493468E+02  0.25431335846E+03  0.10471828850E+03  0.27575754682E+03  0.00000000000E+00 0. -1.
          2    1    6    6  503    0  0.19368488118E+03  0.40536709311E+02 -0.77278575948E+03  0.79771855190E+03  0.00000000000E+00 0. -1.
         -2    1    6    6    0  503  0.11992357266E+03  0.45106695757E+02 -0.27331272805E+03  0.30185447586E+03  0.00000000000E+00 0.  1.
<mgrwt>
<rscale>  0 0.15249401E+04</rscale>
<asrwt>0</asrwt>
<pdfrwt beam="1">  1        4 0.43958754E-01 0.15249401E+04</pdfrwt>
<pdfrwt beam="2">  1       -3 0.31302102E+00 0.15249401E+04</pdfrwt>
<totfact> 0.35958655E-01</totfact>
</mgrwt>
</event>
<event>
12    7  0.1698542E-007  0.1879944E+04  0.7818608E-02  0.8664904E-01
          2   -1    0    0  501    0  0.00000000000E+00  0.00000000000E+00  0.10507551935E+04  0.10507551935E+04  0.00000000000E+00 0. -1.
         -1   -1    0    0    0  501 -0.00000000000E+00 -0.00000000000E+00 -0.84086885302E+03  0.84086885302E+03  0.00000000000E+00 0.  1.
         24    2    1    2    0    0 -0.47405693918E+03  0.35561525092E+03 -0.25947127616E+03  0.65177420000E+03  0.79322609417E+02 0.  0.
        254    2    1    2    0    0  0.47405693918E+03 -0.35561525092E+03  0.46935761660E+03  0.12398498465E+04  0.98272014392E+03 0.  0.
         23    2    4    4    0    0 -0.16106225158E+03 -0.40375953605E+03  0.39102612832E+03  0.59173240751E+03  0.91010973151E+02 0.  0.
         23    2    4    4    0    0  0.63511919076E+03  0.48144285131E+02  0.78331488279E+02  0.64811743896E+03  0.90698037279E+02 0.  0.
          4    1    3    3  502    0 -0.30306934591E+03  0.26761947485E+03 -0.15569545683E+03  0.43325776049E+03  0.00000000000E+00 0. -1.
         -3    1    3    3    0  502 -0.17098759327E+03  0.87995776068E+02 -0.10377581932E+03  0.21851643951E+03  0.00000000000E+00 0.  1.
         13    1    5    5    0    0 -0.15773593927E+02 -0.93985876838E+02  0.46007310710E+02  0.10582449598E+03  0.00000000000E+00 0.  1.
        -13    1    5    5    0    0 -0.14528865766E+03 -0.30977365921E+03  0.34501881761E+03  0.48590791153E+03  0.00000000000E+00 0. -1.
          1    1    6    6  503    0  0.62478200118E+03  0.59692527991E+02  0.73689445737E+02  0.63193819422E+03  0.00000000000E+00 0. -1.
         -1    1    6    6    0  503  0.10337189584E+02 -0.11548242860E+02  0.46420425418E+01  0.16179244747E+02  0.00000000000E+00 0.  1.
<mgrwt>
<rscale>  0 0.18799440E+04</rscale>
<asrwt>0</asrwt>
<pdfrwt beam="1">  1        2 0.16165464E+00 0.18799440E+04</pdfrwt>
<pdfrwt beam="2">  1       -1 0.12936444E+00 0.18799440E+04</pdfrwt>
<totfact> 0.12848159E+01</totfact>
</mgrwt>
</event>
<event>
12    7  0.1698542E-007  0.1207642E+04  0.7818608E-02  0.9106194E-01
          2   -1    0    0  501    0  0.00000000000E+00  0.00000000000E+00  0.37261171257E+03  0.37261171257E+03  0.00000000000E+00 0. -1.
         -1   -1    0    0    0  501 -0.00000000000E+00 -0.00000000000E+00 -0.97849769513E+03  0.97849769513E+03  0.00000000000E+00 0.  1.
         24    2    1    2    0    0  0.86917851513E+02  0.11901144539E+03 -0.34308906037E+03  0.38183853771E+03  0.79825612990E+02 0.  0.
        254    2    1    2    0    0 -0.86917851513E+02 -0.11901144539E+03 -0.26279692218E+03  0.96927086999E+03  0.92125206109E+03 0.  0.
         23    2    4    4    0    0 -0.30411455052E+03 -0.13862940834E+03 -0.51673997672E+03  0.62219020585E+03  0.91633378299E+02 0.  0.
         23    2    4    4    0    0  0.21719669900E+03  0.19617962946E+02  0.25394305454E+03  0.34708066414E+03  0.91753157682E+02 0.  0.
          4    1    3    3  502    0 -0.84855950381E+01  0.27476151082E+02 -0.28009183315E+02  0.40142976364E+02  0.00000000000E+00 0. -1.
         -3    1    3    3    0  502  0.95403446551E+02  0.91535294309E+02 -0.31507987706E+03  0.34169556135E+03  0.00000000000E+00 0.  1.
         13    1    5    5    0    0 -0.29633734743E+03 -0.14318442594E+03 -0.51734323829E+03  0.61315710019E+03  0.00000000000E+00 0. -1.
        -13    1    5    5    0    0 -0.77772030917E+01  0.45550176056E+01  0.60326156522E+00  0.90331056582E+01  0.00000000000E+00 0.  1.
          2    1    6    6  503    0  0.44775596204E+02  0.57362512193E+01  0.71520654661E+01  0.45704601890E+02  0.00000000000E+00 0.  1.
         -2    1    6    6    0  503  0.17242110280E+03  0.13881711727E+02  0.24679098907E+03  0.30137606225E+03  0.00000000000E+00 0. -1.
<mgrwt>
<rscale>  0 0.12076418E+04</rscale>
<asrwt>0</asrwt>
<pdfrwt beam="1">  1        2 0.57324879E-01 0.12076418E+04</pdfrwt>
<pdfrwt beam="2">  1       -1 0.15053811E+00 0.12076418E+04</pdfrwt>
<totfact> 0.33608440E+01</totfact>
</mgrwt>
</event>
<event>
12    7  0.1698542E-007  0.1833364E+04  0.7818608E-02  0.8688755E-01
          2   -1    0    0  501    0  0.00000000000E+00  0.00000000000E+00  0.27952500672E+04  0.27952500672E+04  0.00000000000E+00 0. -1.
         -1   -1    0    0    0  501 -0.00000000000E+00 -0.00000000000E+00 -0.30061918698E+03  0.30061918698E+03  0.00000000000E+00 0.  1.
         24    2    1    2    0    0  0.92989734686E+02 -0.59302864066E+03  0.37342783317E+03  0.71142253985E+03  0.79646872018E+02 0.  0.
        254    2    1    2    0    0 -0.92989734686E+02  0.59302864066E+03  0.21212030470E+04  0.23844467143E+04  0.90870991371E+03 0.  0.
         23    2    4    4    0    0  0.32305990522E+03  0.29003768499E+01  0.92606607630E+03  0.98504670082E+03  0.91337344957E+02 0.  0.
         23    2    4    4    0    0 -0.41604963991E+03  0.59012826381E+03  0.11951369707E+04  0.13994000135E+04  0.92840445572E+02 0.  0.
          4    1    3    3  502    0  0.42002636544E+02 -0.32761779433E+03  0.25034197996E+03  0.41444993373E+03  0.00000000000E+00 0. -1.
         -3    1    3    3    0  502  0.50987098141E+02 -0.26541084632E+03  0.12308585321E+03  0.29697260612E+03  0.00000000000E+00 0.  1.
         13    1    5    5    0    0  0.13667771334E+03 -0.60592428243E+01  0.26612061064E+03  0.29922849322E+03  0.00000000000E+00 0.  1.
        -13    1    5    5    0    0  0.18638219188E+03  0.89596196742E+01  0.65994546566E+03  0.68581820760E+03  0.00000000000E+00 0. -1.
          4    1    6    6  503    0 -0.13311800536E+03  0.16307703781E+03  0.42765724884E+03  0.47666051452E+03  0.00000000000E+00 0.  1.
         -4    1    6    6    0  503 -0.28293163455E+03  0.42705122599E+03  0.76747972188E+03  0.92273949896E+03  0.00000000000E+00 0. -1.
<mgrwt>
<rscale>  0 0.18333639E+04</rscale>
<asrwt>0</asrwt>
<pdfrwt beam="1">  1        2 0.43003845E+00 0.18333639E+04</pdfrwt>
<pdfrwt beam="2">  1       -1 0.46249108E-01 0.18333639E+04</pdfrwt>
<totfact> 0.11636028E+01</totfact>
</mgrwt>
</event>
<event>
12    7  0.1698542E-007  0.3103218E+04  0.7818608E-02  0.8214855E-01
          2   -1    0    0  501    0  0.00000000000E+00  0.00000000000E+00  0.18851670251E+04  0.18851670251E+04  0.00000000000E+00 0. -1.
         -1   -1    0    0    0  501 -0.00000000000E+00 -0.00000000000E+00 -0.12770701518E+04  0.12770701518E+04  0.00000000000E+00 0.  1.
         24    2    1    2    0    0 -0.14946162515E+03 -0.83702285740E+03  0.14383866547E+04  0.16728279248E+04  0.80318467937E+02 0.  0.
        254    2    1    2    0    0  0.14946162515E+03  0.83702285740E+03 -0.83028978138E+03  0.14894092522E+04  0.89778213293E+03 0.  0.
         23    2    4    4    0    0 -0.17406541974E+03  0.60505618870E+03 -0.87622794111E+02  0.64169013219E+03  0.87730894547E+02 0.  0.
         23    2    4    4    0    0  0.32352704489E+03  0.23196666870E+03 -0.74266698727E+03  0.84771911999E+03  0.92710130325E+02 0.  0.
          2    1    3    3  502    0 -0.11424390400E+03 -0.76297031958E+03  0.12813665433E+04  0.14956856610E+04  0.00000000000E+00 0. -1.
         -1    1    3    3    0  502 -0.35217721152E+02 -0.74052537821E+02  0.15702011137E+03  0.17714226378E+03  0.00000000000E+00 0.  1.
         13    1    5    5    0    0 -0.10693883263E+02  0.86606940290E+02 -0.40096937315E+02  0.96035855948E+02  0.00000000000E+00 0. -1.
        -13    1    5    5    0    0 -0.16337153648E+03  0.51844924841E+03 -0.47525856796E+02  0.54565427624E+03  0.00000000000E+00 0.  1.
          4    1    6    6  503    0  0.10727370489E+03  0.34132017044E+02 -0.25516290656E+03  0.27889200640E+03  0.00000000000E+00 0. -1.
         -4    1    6    6    0  503  0.21625334001E+03  0.19783465166E+03 -0.48750408070E+03  0.56882711360E+03  0.00000000000E+00 0.  1.
<mgrwt>
<rscale>  0 0.31032180E+04</rscale>
<asrwt>0</asrwt>
<pdfrwt beam="1">  1        2 0.29002570E+00 0.31032180E+04</pdfrwt>
<pdfrwt beam="2">  1       -1 0.19647233E+00 0.31032180E+04</pdfrwt>
<totfact> 0.11899279E+00</totfact>
</mgrwt>
</event>
<event>
12    7  0.1698542E-007  0.1273746E+04  0.7818608E-02  0.9050647E-01
          2   -1    0    0  501    0  0.00000000000E+00  0.00000000000E+00  0.19766841186E+04  0.19766841186E+04  0.00000000000E+00 0. -1.
         -1   -1    0    0    0  501 -0.00000000000E+00 -0.00000000000E+00 -0.20519592986E+03  0.20519592986E+03  0.00000000000E+00 0.  1.
         24    2    1    2    0    0 -0.22602281450E+03  0.16827263359E+03  0.17838447479E+03  0.34598826420E+03  0.92113333588E+02 0.  0.
        254    2    1    2    0    0  0.22602281450E+03 -0.16827263359E+03  0.15931037139E+04  0.18358917842E+04  0.86782325865E+03 0.  0.
         23    2    4    4    0    0  0.44623121552E+03 -0.16752212363E+03  0.15062921922E+04  0.15824977529E+04  0.90537341496E+02 0.  0.
         23    2    4    4    0    0 -0.22020840101E+03 -0.75050995578E+00  0.86811521766E+02  0.25339403133E+03  0.90443306346E+02 0.  0.
          4    1    3    3  502    0 -0.32374649619E+02 -0.62201172148E+01  0.36590955297E+02  0.49251454859E+02  0.00000000000E+00 0. -1.
         -3    1    3    3    0  502 -0.19364816488E+03  0.17449275080E+03  0.14179351949E+03  0.29673680934E+03  0.00000000000E+00 0.  1.
         13    1    5    5    0    0  0.41276498604E+03 -0.13466752980E+03  0.14110109210E+04  0.14763001376E+04  0.00000000000E+00 0.  1.
        -13    1    5    5    0    0  0.33466229478E+02 -0.32854593828E+02  0.95281271171E+02  0.10619761526E+03  0.00000000000E+00 0. -1.
          1    1    6    6  503    0 -0.36552143888E+01  0.32579059820E+01 -0.13750969299E+02  0.14596701692E+02  0.00000000000E+00 0. -1.
         -1    1    6    6    0  503 -0.21655318662E+03 -0.40084159378E+01  0.10056249106E+03  0.23879732964E+03  0.00000000000E+00 0.  1.
<mgrwt>
<rscale>  0 0.12737465E+04</rscale>
<asrwt>0</asrwt>
<pdfrwt beam="1">  1        2 0.30410524E+00 0.12737465E+04</pdfrwt>
<pdfrwt beam="2">  1       -1 0.31568606E-01 0.12737465E+04</pdfrwt>
<totfact> 0.71875974E+01</totfact>
</mgrwt>
</event>
<event>
12    7  0.1698542E-007  0.1772191E+04  0.7818608E-02  0.8721229E-01
          2   -1    0    0  501    0  0.00000000000E+00  0.00000000000E+00  0.16098607381E+04  0.16098607381E+04  0.00000000000E+00 0. -1.
         -1   -1    0    0    0  501 -0.00000000000E+00 -0.00000000000E+00 -0.48772246059E+03  0.48772246059E+03  0.00000000000E+00 0.  1.
         24    2    1    2    0    0  0.17287633533E+03 -0.60408982942E+03  0.61731139437E+03  0.88470533320E+03  0.82579777415E+02 0.  0.
        254    2    1    2    0    0 -0.17287633533E+03  0.60408982942E+03  0.50482688310E+03  0.12128778655E+04  0.90631770660E+03 0.  0.
         23    2    4    4    0    0 -0.49057570635E+03  0.59054557993E+03  0.35767007094E+03  0.85138583076E+03  0.86725702890E+02 0.  0.
         23    2    4    4    0    0  0.31769937101E+03  0.13544249487E+02  0.14715681216E+03  0.36149203469E+03  0.88910217328E+02 0.  0.
          4    1    3    3  502    0  0.14689734134E+03 -0.39880912171E+03  0.44603677468E+03  0.61609767798E+03  0.00000000000E+00 0. -1.
         -3    1    3    3    0  502  0.25978993986E+02 -0.20528070772E+03  0.17127461970E+03  0.26860765522E+03  0.00000000000E+00 0.  1.
         13    1    5    5    0    0 -0.39299316606E+03  0.42045260002E+03  0.24773342777E+03  0.62657471116E+03  0.00000000000E+00 0. -1.
        -13    1    5    5    0    0 -0.97582540286E+02  0.17009297991E+03  0.10993664317E+03  0.22481111960E+03  0.00000000000E+00 0.  1.
          2    1    6    6  503    0  0.17547980756E+03  0.45042233630E+02  0.10694120158E+03  0.21037677217E+03  0.00000000000E+00 0. -1.
         -2    1    6    6    0  503  0.14221956345E+03 -0.31497984143E+02  0.40215610574E+02  0.15111526253E+03  0.00000000000E+00 0.  1.
<mgrwt>
<rscale>  0 0.17721910E+04</rscale>
<asrwt>0</asrwt>
<pdfrwt beam="1">  1        2 0.24767088E+00 0.17721910E+04</pdfrwt>
<pdfrwt beam="2">  1       -1 0.75034226E-01 0.17721910E+04</pdfrwt>
<totfact> 0.21199801E+01</totfact>
</mgrwt>
</event>
<event>
12    7  0.1698542E-007  0.1519097E+04  0.7818608E-02  0.8871852E-01
         -1   -1    0    0    0  501 -0.00000000000E+00  0.00000000000E+00  0.96361271351E+03  0.96361271351E+03  0.00000000000E+00 0.  1.
          2   -1    0    0  501    0  0.00000000000E+00 -0.00000000000E+00 -0.59869888660E+03  0.59869888660E+03  0.00000000000E+00 0. -1.
         24    2    1    2    0    0  0.22755171632E+03 -0.14381966370E+03  0.53484772017E+03  0.60402155066E+03  0.79473710274E+02 0.  0.
        254    2    1    2    0    0 -0.22755171632E+03  0.14381966370E+03 -0.16993389326E+03  0.95829004945E+03  0.90386858089E+03 0.  0.
         23    2    4    4    0    0  0.28269401970E+03  0.25879082525E+03 -0.16606980452E+03  0.42740727512E+03  0.90604629296E+02 0.  0.
         23    2    4    4    0    0 -0.51024573602E+03 -0.11497116155E+03 -0.38640887451E+01  0.53088277433E+03  0.90843325473E+02 0.  0.
          4    1    3    3  502    0  0.89748167245E+00 -0.24532537247E+02  0.47161139424E+02  0.53167884375E+02  0.00000000000E+00 0. -1.
         -3    1    3    3    0  502  0.22665423465E+03 -0.11928712645E+03  0.48768658075E+03  0.55085366629E+03  0.00000000000E+00 0.  1.
         13    1    5    5    0    0  0.20852472287E+02  0.62505646231E+02 -0.37472638917E+02  0.75802243229E+02  0.00000000000E+00 0. -1.
        -13    1    5    5    0    0  0.26184154741E+03  0.19628517902E+03 -0.12859716560E+03  0.35160503189E+03  0.00000000000E+00 0.  1.
          1    1    6    6  503    0 -0.21105286473E+03 -0.82608911056E+02 -0.30864181559E+02  0.22873596482E+03  0.00000000000E+00 0. -1.
         -1    1    6    6    0  503 -0.29919287129E+03 -0.32362250496E+02  0.27000092814E+02  0.30214680951E+03  0.00000000000E+00 0.  1.
<mgrwt>
<rscale>  0 0.15190969E+04</rscale>
<asrwt>0</asrwt>
<pdfrwt beam="1">  1        2 0.92107521E-01 0.15190969E+04</pdfrwt>
<pdfrwt beam="2">  1       -1 0.14824811E+00 0.15190969E+04</pdfrwt>
<totfact> 0.19743710E+01</totfact>
</mgrwt>
</event>
<event>
12    7  0.1698542E-007  0.1703691E+04  0.7818608E-02  0.8759262E-01
         -1   -1    0    0    0  501 -0.00000000000E+00  0.00000000000E+00  0.43872038124E+03  0.43872038124E+03  0.00000000000E+00 0.  1.
          2   -1    0    0  501    0  0.00000000000E+00 -0.00000000000E+00 -0.16539930926E+04  0.16539930926E+04  0.00000000000E+00 0. -1.
         24    2    1    2    0    0  0.53467506088E+03  0.34955979980E+02 -0.84505668822E+02  0.54770457922E+03  0.75761182490E+02 0.  0.
        254    2    1    2    0    0 -0.53467506088E+03 -0.34955979980E+02 -0.11307670426E+04  0.15450088947E+04  0.90626653845E+03 0.  0.
         23    2    4    4    0    0 -0.10743793071E+03  0.40559245912E+03 -0.40284715661E+03  0.58868434832E+03  0.90638173594E+02 0.  0.
         23    2    4    4    0    0 -0.42723713017E+03 -0.44054843910E+03 -0.72791988597E+03  0.95632454633E+03  0.89859807121E+02 0.  0.
          4    1    3    3  502    0  0.28541119271E+03 -0.10736559568E+02 -0.68906936297E+02  0.29380774072E+03  0.00000000000E+00 0. -1.
         -3    1    3    3    0  502  0.24926386817E+03  0.45692539549E+02 -0.15598732525E+02  0.25389683850E+03  0.00000000000E+00 0.  1.
         13    1    5    5    0    0 -0.19026229067E+01  0.12244191347E+01  0.45331271580E+01  0.50664008895E+01  0.00000000000E+00 0.  1.
        -13    1    5    5    0    0 -0.10553530780E+03  0.40436803999E+03 -0.40738028377E+03  0.58361794743E+03  0.00000000000E+00 0. -1.
          1    1    6    6  503    0 -0.30224562828E+03 -0.25263765474E+03 -0.48320119561E+03  0.62342730117E+03  0.00000000000E+00 0. -1.
         -1    1    6    6    0  503 -0.12499150189E+03 -0.18791078436E+03 -0.24471869036E+03  0.33289724517E+03  0.00000000000E+00 0.  1.
<mgrwt>
<rscale>  0 0.17036907E+04</rscale>
<asrwt>0</asrwt>
<pdfrwt beam="1">  1        2 0.25446048E+00 0.17036907E+04</pdfrwt>
<pdfrwt beam="2">  1       -1 0.67495442E-01 0.17036907E+04</pdfrwt>
<totfact> 0.25062596E+01</totfact>
</mgrwt>
</event>
<event>
12    7  0.1698542E-007  0.1778547E+04  0.7818608E-02  0.8717792E-01
          2   -1    0    0  501    0  0.00000000000E+00  0.00000000000E+00  0.25501802625E+04  0.25501802625E+04  0.00000000000E+00 0. -1.
         -1   -1    0    0    0  501 -0.00000000000E+00 -0.00000000000E+00 -0.31009872723E+03  0.31009872723E+03  0.00000000000E+00 0.  1.
         24    2    1    2    0    0 -0.47190321677E+03 -0.22733747558E+03  0.19243786659E+03  0.56497178411E+03  0.88237240084E+02 0.  0.
        254    2    1    2    0    0  0.47190321677E+03  0.22733747558E+03  0.20476436686E+04  0.22953072056E+04  0.89510647439E+03 0.  0.
         23    2    4    4    0    0  0.52068134431E+02  0.50809109580E+03  0.11364584704E+04  0.12491989914E+04  0.89958950724E+02 0.  0.
         23    2    4    4    0    0  0.41983508234E+03 -0.28075362022E+03  0.91118519821E+03  0.10461082142E+04  0.94867479937E+02 0.  0.
          4    1    3    3  502    0 -0.10557832856E+03 -0.12491440950E+02  0.32464022156E+02  0.11116083974E+03  0.00000000000E+00 0. -1.
         -3    1    3    3    0  502 -0.36632488822E+03 -0.21484603464E+03  0.15997384443E+03  0.45381094437E+03  0.00000000000E+00 0.  1.
         13    1    5    5    0    0  0.16373778363E+02  0.15040370737E+02  0.30084872714E+02  0.37408728072E+02  0.00000000000E+00 0.  1.
        -13    1    5    5    0    0  0.35694356068E+02  0.49305072506E+03  0.11063735977E+04  0.12117902633E+04  0.00000000000E+00 0. -1.
          2    1    6    6  503    0  0.39196094299E+03 -0.26842947370E+03  0.89043315049E+03  0.10092368199E+04  0.00000000000E+00 0. -1.
         -2    1    6    6    0  503  0.27874139353E+02 -0.12324146516E+02  0.20752047722E+02  0.36871394287E+02  0.00000000000E+00 0.  1.
<mgrwt>
<rscale>  0 0.17785473E+04</rscale>
<asrwt>0</asrwt>
<pdfrwt beam="1">  1        2 0.39233541E+00 0.17785473E+04</pdfrwt>
<pdfrwt beam="2">  1       -1 0.47707498E-01 0.17785473E+04</pdfrwt>
<totfact> 0.15400685E+01</totfact>
</mgrwt>
</event>
<event>
12    7  0.1698542E-007  0.1683787E+04  0.7818608E-02  0.8770665E-01
         -3   -1    0    0    0  501 -0.00000000000E+00  0.00000000000E+00  0.40852739109E+03  0.40852739109E+03  0.00000000000E+00 0.  1.
          4   -1    0    0  501    0  0.00000000000E+00 -0.00000000000E+00 -0.17349753136E+04  0.17349753136E+04  0.00000000000E+00 0. -1.
         24    2    1    2    0    0  0.24396040923E+03  0.11633379649E+03 -0.11663144902E+04  0.11999059240E+04  0.80215354466E+02 0.  0.
        254    2    1    2    0    0 -0.24396040923E+03 -0.11633379649E+03 -0.16013343232E+03  0.94359678062E+03  0.88976510090E+03 0.  0.
         23    2    4    4    0    0 -0.30876275152E+03  0.32691366629E+03 -0.16237151827E+03  0.48661763953E+03  0.90693082552E+02 0.  0.
         23    2    4    4    0    0  0.64802342289E+02 -0.44324746278E+03  0.22380859510E+01  0.45697914109E+03  0.90317603709E+02 0.  0.
          4    1    3    3  502    0  0.22335860409E+03  0.12867819933E+03 -0.10769940529E+04  0.11074129018E+04  0.00000000000E+00 0. -1.
         -3    1    3    3    0  502  0.20601805136E+02 -0.12344402840E+02 -0.89320437215E+02  0.92493022227E+02  0.00000000000E+00 0.  1.
         13    1    5    5    0    0 -0.28960839121E+02  0.70461480024E+02 -0.48684304018E+02  0.90408582709E+02  0.00000000000E+00 0.  1.
        -13    1    5    5    0    0 -0.27980191240E+03  0.25645218627E+03 -0.11368721426E+03  0.39620905682E+03  0.00000000000E+00 0. -1.
          3    1    6    6  503    0  0.68615434401E+02 -0.17671728509E+03 -0.12762921967E+02  0.18999991807E+03  0.00000000000E+00 0. -1.
         -3    1    6    6    0  503 -0.38130921120E+01 -0.26653017769E+03  0.15001007918E+02  0.26697922303E+03  0.00000000000E+00 0.  1.
<mgrwt>
<rscale>  0 0.16837873E+04</rscale>
<asrwt>0</asrwt>
<pdfrwt beam="1">  1        4 0.26691929E+00 0.16837873E+04</pdfrwt>
<pdfrwt beam="2">  1       -3 0.62850366E-01 0.16837873E+04</pdfrwt>
<totfact> 0.26605595E-01</totfact>
</mgrwt>
</event>
<event>
12    7  0.1698542E-007  0.1687231E+04  0.7818608E-02  0.8768681E-01
         -1   -1    0    0    0  501 -0.00000000000E+00  0.00000000000E+00  0.37293604178E+03  0.37293604178E+03  0.00000000000E+00 0.  1.
          2   -1    0    0  501    0  0.00000000000E+00 -0.00000000000E+00 -0.19083352791E+04  0.19083352791E+04  0.00000000000E+00 0. -1.
         24    2    1    2    0    0  0.33767539290E+03 -0.39086321330E+03 -0.93661149808E+03  0.10726001694E+04  0.80195402501E+02 0.  0.
        254    2    1    2    0    0 -0.33767539290E+03  0.39086321330E+03 -0.59878773924E+03  0.12086711515E+04  0.91407903010E+03 0.  0.
         23    2    4    4    0    0 -0.61772697597E+03  0.10025663914E+03 -0.41338439585E+03  0.75575623002E+03  0.92966714133E+02 0.  0.
         23    2    4    4    0    0  0.28005158307E+03  0.29060657415E+03 -0.18540334338E+03  0.45291492146E+03  0.88749401257E+02 0.  0.
          4    1    3    3  502    0  0.97703560823E+02 -0.84536817237E+02 -0.29752316276E+03  0.32436475093E+03  0.00000000000E+00 0. -1.
         -3    1    3    3    0  502  0.23997183208E+03 -0.30632639606E+03 -0.63908833532E+03  0.74823541847E+03  0.00000000000E+00 0.  1.
         13    1    5    5    0    0 -0.52221134460E+03  0.49620556740E+02 -0.34146507917E+03  0.62591156594E+03  0.00000000000E+00 0. -1.
        -13    1    5    5    0    0 -0.95515631368E+02  0.50636082404E+02 -0.71919316689E+02  0.12984466408E+03  0.00000000000E+00 0.  1.
          1    1    6    6  503    0  0.14766443939E+03  0.19452171308E+03 -0.14643303776E+03  0.28475624324E+03  0.00000000000E+00 0. -1.
         -1    1    6    6    0  503  0.13238714368E+03  0.96084861074E+02 -0.38970305626E+02  0.16815867822E+03  0.00000000000E+00 0.  1.
<mgrwt>
<rscale>  0 0.16872309E+04</rscale>
<asrwt>0</asrwt>
<pdfrwt beam="1">  1        2 0.29359005E+00 0.16872309E+04</pdfrwt>
<pdfrwt beam="2">  1       -1 0.57374774E-01 0.16872309E+04</pdfrwt>
<totfact> 0.25076092E+01</totfact>
</mgrwt>
</event>
<event>
12    7  0.1698542E-007  0.1694643E+04  0.7818608E-02  0.8764425E-01
          2   -1    0    0  501    0  0.00000000000E+00  0.00000000000E+00  0.84635499400E+03  0.84635499400E+03  0.00000000000E+00 0. -1.
         -1   -1    0    0    0  501 -0.00000000000E+00 -0.00000000000E+00 -0.84828927863E+03  0.84828927863E+03  0.00000000000E+00 0.  1.
         24    2    1    2    0    0  0.26502690298E+03  0.54263403762E+03  0.27381676486E+02  0.60968450522E+03  0.79211625505E+02 0.  0.
        254    2    1    2    0    0 -0.26502690298E+03 -0.54263403762E+03 -0.29315961117E+02  0.10849597674E+04  0.90088140908E+03 0.  0.
         23    2    4    4    0    0 -0.18870068321E+03  0.16910445712E+03  0.19415905791E+03  0.32915810663E+03  0.80268637273E+02 0.  0.
         23    2    4    4    0    0 -0.76326219768E+02 -0.71173849474E+03 -0.22347501903E+03  0.75580166077E+03  0.94327565315E+02 0.  0.
          2    1    3    3  502    0 -0.15866619565E+01  0.21434532597E+02 -0.85930556239E+01  0.23147295496E+02  0.00000000000E+00 0. -1.
         -1    1    3    3    0  502  0.26661356493E+03  0.52119950502E+03  0.35974732110E+02  0.58653720973E+03  0.00000000000E+00 0.  1.
         13    1    5    5    0    0 -0.14472742419E+03  0.78391007308E+02  0.11166733616E+03  0.19889889720E+03  0.00000000000E+00 0.  1.
        -13    1    5    5    0    0 -0.43973259018E+02  0.90713449811E+02  0.82491721749E+02  0.13025920943E+03  0.00000000000E+00 0. -1.
          4    1    6    6  503    0 -0.36746938433E+02 -0.21300519551E+03 -0.25090821516E+02  0.21760307930E+03  0.00000000000E+00 0. -1.
         -4    1    6    6    0  503 -0.39579281335E+02 -0.49873329923E+03 -0.19838419751E+03  0.53819858147E+03  0.00000000000E+00 0.  1.
<mgrwt>
<rscale>  0 0.16946432E+04</rscale>
<asrwt>0</asrwt>
<pdfrwt beam="1">  1        2 0.13020846E+00 0.16946432E+04</pdfrwt>
<pdfrwt beam="2">  1       -1 0.13050604E+00 0.16946432E+04</pdfrwt>
<totfact> 0.17423515E+01</totfact>
</mgrwt>
</event>
<event>
12    7  0.1698542E-007  0.2601637E+04  0.7818608E-02  0.8367645E-01
         -1   -1    0    0    0  501 -0.00000000000E+00  0.00000000000E+00  0.86064566969E+03  0.86064566969E+03  0.00000000000E+00 0.  1.
          2   -1    0    0  501    0  0.00000000000E+00 -0.00000000000E+00 -0.19661157066E+04  0.19661157066E+04  0.00000000000E+00 0. -1.
         24    2    1    2    0    0  0.65969180318E+03  0.32943297395E+02 -0.14968811649E+04  0.16380235342E+04  0.78672362699E+02 0.  0.
        254    2    1    2    0    0 -0.65969180318E+03 -0.32943297395E+02  0.39141112799E+03  0.11887378421E+04  0.90753316752E+03 0.  0.
         23    2    4    4    0    0  0.27365342168E+02 -0.34606864287E+03  0.16892148057E+03  0.39680414886E+03  0.91688049531E+02 0.  0.
         23    2    4    4    0    0 -0.68705714535E+03  0.31312534547E+03  0.22248964742E+03  0.79193369326E+03  0.86961648804E+02 0.  0.
          2    1    3    3  502    0  0.42329700286E+03  0.36565451410E+02 -0.87445487966E+03  0.97220816775E+03  0.00000000000E+00 0. -1.
         -1    1    3    3    0  502  0.23639480032E+03 -0.36221540147E+01 -0.62242628524E+03  0.66581536643E+03  0.00000000000E+00 0.  1.
         13    1    5    5    0    0 -0.17635820792E+02 -0.11001225442E+02  0.68320699626E+01  0.21879815269E+02  0.00000000000E+00 0.  1.
        -13    1    5    5    0    0  0.45001162960E+02 -0.33506741743E+03  0.16208941060E+03  0.37492433359E+03  0.00000000000E+00 0. -1.
          4    1    6    6  503    0 -0.51590905839E+03  0.22960875674E+03  0.12658859550E+03  0.57871150862E+03  0.00000000000E+00 0. -1.
         -4    1    6    6    0  503 -0.17114808696E+03  0.83516588733E+02  0.95901051924E+02  0.21322218464E+03  0.00000000000E+00 0.  1.
<mgrwt>
<rscale>  0 0.26016372E+04</rscale>
<asrwt>0</asrwt>
<pdfrwt beam="1">  1        2 0.30247934E+00 0.26016372E+04</pdfrwt>
<pdfrwt beam="2">  1       -1 0.13240703E+00 0.26016372E+04</pdfrwt>
<totfact> 0.33989921E+00</totfact>
</mgrwt>
</event>
<event>
12    7  0.1698542E-007  0.2836489E+04  0.7818608E-02  0.8292029E-01
          2   -1    0    0  501    0  0.00000000000E+00  0.00000000000E+00  0.11185603013E+04  0.11185603013E+04  0.00000000000E+00 0. -1.
         -1   -1    0    0    0  501 -0.00000000000E+00 -0.00000000000E+00 -0.17982193822E+04  0.17982193822E+04  0.00000000000E+00 0.  1.
         24    2    1    2    0    0 -0.47003345381E+03 -0.20868574536E+03  0.88346227795E+03  0.10253682773E+04  0.79958235652E+02 0.  0.
        254    2    1    2    0    0  0.47003345381E+03  0.20868574536E+03 -0.15631213589E+04  0.18914114062E+04  0.93252749923E+03 0.  0.
         23    2    4    4    0    0  0.67667553127E+03  0.38048590670E+03 -0.11493124342E+04  0.13898873834E+04  0.90601143406E+02 0.  0.
         23    2    4    4    0    0 -0.20664207746E+03 -0.17180016134E+03 -0.41380892462E+03  0.50152402277E+03  0.89845844129E+02 0.  0.
          2    1    3    3  502    0 -0.36589664338E+03 -0.12434142164E+03  0.65630720240E+03  0.76163001956E+03  0.00000000000E+00 0. -1.
         -1    1    3    3    0  502 -0.10413681043E+03 -0.84344323724E+02  0.22715507555E+03  0.26373825771E+03  0.00000000000E+00 0.  1.
         13    1    5    5    0    0  0.58727162842E+02  0.17185751584E+02 -0.13085030271E+03  0.14445079242E+03  0.00000000000E+00 0.  1.
        -13    1    5    5    0    0  0.61794836843E+03  0.36330015512E+03 -0.10184621315E+04  0.12454365910E+04  0.00000000000E+00 0. -1.
          3    1    6    6  503    0 -0.19341118989E+03 -0.16560081290E+03 -0.41497836336E+03  0.48686605927E+03  0.00000000000E+00 0. -1.
         -3    1    6    6    0  503 -0.13230887571E+02 -0.61993484414E+01  0.11694387458E+01  0.14657963501E+02  0.00000000000E+00 0.  1.
<mgrwt>
<rscale>  0 0.28364885E+04</rscale>
<asrwt>0</asrwt>
<pdfrwt beam="1">  1        2 0.17208620E+00 0.28364885E+04</pdfrwt>
<pdfrwt beam="2">  1       -1 0.27664913E+00 0.28364885E+04</pdfrwt>
<totfact> 0.98147941E-01</totfact>
</mgrwt>
</event>
<event>
12    7  0.1698542E-007  0.1675850E+04  0.7818608E-02  0.8775259E-01
         -1   -1    0    0    0  501 -0.00000000000E+00  0.00000000000E+00  0.21105020058E+03  0.21105020058E+03  0.00000000000E+00 0.  1.
          2   -1    0    0  501    0  0.00000000000E+00 -0.00000000000E+00 -0.33267841053E+04  0.33267841053E+04  0.00000000000E+00 0. -1.
         24    2    1    2    0    0  0.23614143408E+03 -0.49871897647E+03 -0.63266009285E+03  0.84331413113E+03  0.80228026911E+02 0.  0.
        254    2    1    2    0    0 -0.23614143408E+03  0.49871897647E+03 -0.24830738119E+04  0.26945201747E+04  0.88898820154E+03 0.  0.
         23    2    4    4    0    0 -0.21240875033E+03  0.23690544094E+03 -0.18364683830E+03  0.37834797053E+03  0.90439816592E+02 0.  0.
         23    2    4    4    0    0 -0.23732683752E+02  0.26181353554E+03 -0.22994269736E+04  0.23161722042E+04  0.90441722037E+02 0.  0.
          2    1    3    3  502    0  0.36291918258E+02 -0.16214029664E+03 -0.19083255796E+03  0.25302893966E+03  0.00000000000E+00 0. -1.
         -1    1    3    3    0  502  0.19984951582E+03 -0.33657867983E+03 -0.44182753488E+03  0.59028519147E+03  0.00000000000E+00 0.  1.
         13    1    5    5    0    0 -0.77387744920E+02  0.43038632042E+02 -0.19508861370E+02  0.90674045811E+02  0.00000000000E+00 0. -1.
        -13    1    5    5    0    0 -0.13502100541E+03  0.19386680889E+03 -0.16413797693E+03  0.28767392472E+03  0.00000000000E+00 0.  1.
          2    1    6    6  503    0 -0.17497886590E+02  0.43281380424E+02 -0.19920383237E+03  0.20460112599E+03  0.00000000000E+00 0. -1.
         -2    1    6    6    0  503 -0.62347971616E+01  0.21853215511E+03 -0.21002231412E+04  0.21115710782E+04  0.00000000000E+00 0.  1.
<mgrwt>
<rscale>  0 0.16758502E+04</rscale>
<asrwt>0</asrwt>
<pdfrwt beam="1">  1        2 0.51181289E+00 0.16758502E+04</pdfrwt>
<pdfrwt beam="2">  1       -1 0.32469264E-01 0.16758502E+04</pdfrwt>
<totfact> 0.10379529E+01</totfact>
</mgrwt>
</event>
<event>
12    7  0.1698542E-007  0.2910070E+04  0.7818608E-02  0.8269888E-01
         -1   -1    0    0    0  501 -0.00000000000E+00  0.00000000000E+00  0.26084753139E+04  0.26084753139E+04  0.00000000000E+00 0.  1.
          2   -1    0    0  501    0  0.00000000000E+00 -0.00000000000E+00 -0.81163389878E+03  0.81163389878E+03  0.00000000000E+00 0. -1.
         24    2    1    2    0    0 -0.79878254871E+03  0.88473399706E+03  0.14527905327E+04  0.18807585621E+04  0.76450188510E+02 0.  0.
        254    2    1    2    0    0  0.79878254871E+03 -0.88473399706E+03  0.34405088249E+03  0.15393506507E+04  0.91127471723E+03 0.  0.
         23    2    4    4    0    0  0.95163467684E+03 -0.52909785723E+03  0.17361019363E+03  0.11069784461E+04  0.98527560444E+02 0.  0.
         23    2    4    4    0    0 -0.15285212814E+03 -0.35563613983E+03  0.17044068886E+03  0.43237220453E+03  0.89748859611E+02 0.  0.
          4    1    3    3  502    0 -0.18516984116E+03  0.18125324648E+03  0.27407199299E+03  0.37716848593E+03  0.00000000000E+00 0. -1.
         -3    1    3    3    0  502 -0.61361270754E+03  0.70348075057E+03  0.11787185397E+04  0.15035900761E+04  0.00000000000E+00 0.  1.
         13    1    5    5    0    0  0.52060131620E+03 -0.33591630710E+03  0.12589790887E+03  0.63223079588E+03  0.00000000000E+00 0. -1.
        -13    1    5    5    0    0  0.43103336064E+03 -0.19318155014E+03  0.47712284759E+02  0.47474765025E+03  0.00000000000E+00 0.  1.
          4    1    6    6  503    0  0.83396161883E+01 -0.16044180011E+02 -0.30915118569E+01  0.18344545673E+02  0.00000000000E+00 0. -1.
         -4    1    6    6    0  503 -0.16119174432E+03 -0.33959195982E+03  0.17353220072E+03  0.41402765885E+03  0.00000000000E+00 0.  1.
<mgrwt>
<rscale>  0 0.29100701E+04</rscale>
<asrwt>0</asrwt>
<pdfrwt beam="1">  1        2 0.12486675E+00 0.29100701E+04</pdfrwt>
<pdfrwt beam="2">  1       -1 0.40130389E+00 0.29100701E+04</pdfrwt>
<totfact> 0.23265415E-01</totfact>
</mgrwt>
</event>
<event>
12    7  0.1698542E-007  0.1798261E+04  0.7818608E-02  0.8707225E-01
         -1   -1    0    0    0  501 -0.00000000000E+00  0.00000000000E+00  0.16958565225E+04  0.16958565225E+04  0.00000000000E+00 0.  1.
          2   -1    0    0  501    0  0.00000000000E+00 -0.00000000000E+00 -0.47671243454E+03  0.47671243454E+03  0.00000000000E+00 0. -1.
         24    2    1    2    0    0 -0.28983394043E+03 -0.14093634252E+03 -0.26229727316E+03  0.42361511709E+03  0.82359833947E+02 0.  0.
        254    2    1    2    0    0  0.28983394043E+03  0.14093634252E+03  0.14814413612E+04  0.17489538400E+04  0.87195427758E+03 0.  0.
         23    2    4    4    0    0  0.32777910591E+03  0.42458125315E+03  0.56535159589E+03  0.78471572274E+03  0.91912761629E+02 0.  0.
         23    2    4    4    0    0 -0.37945165475E+02 -0.28364491064E+03  0.91608976528E+03  0.96423811725E+03  0.92953847673E+02 0.  0.
          2    1    3    3  502    0 -0.27012238972E+03 -0.11925021655E+03 -0.26130404365E+03  0.39429243311E+03  0.00000000000E+00 0. -1.
         -1    1    3    3    0  502 -0.19711550709E+02 -0.21686125970E+02 -0.99322950979E+00  0.29322683980E+02  0.00000000000E+00 0.  1.
         13    1    5    5    0    0  0.85591251570E+02  0.53031324834E+02  0.10426155125E+03  0.14494362638E+03  0.00000000000E+00 0. -1.
        -13    1    5    5    0    0  0.24218785434E+03  0.37154992832E+03  0.46109004464E+03  0.63977209636E+03  0.00000000000E+00 0.  1.
          2    1    6    6  503    0 -0.64382949690E+02 -0.13212404467E+03  0.43498279243E+03  0.45914263263E+03  0.00000000000E+00 0. -1.
         -2    1    6    6    0  503  0.26437784215E+02 -0.15152086596E+03  0.48110697285E+03  0.50509548462E+03  0.00000000000E+00 0.  1.
<mgrwt>
<rscale>  0 0.17982613E+04</rscale>
<asrwt>0</asrwt>
<pdfrwt beam="1">  1        2 0.73340376E-01 0.17982613E+04</pdfrwt>
<pdfrwt beam="2">  1       -1 0.26090100E+00 0.17982613E+04</pdfrwt>
<totfact> 0.41588379E+00</totfact>
</mgrwt>
</event>
<event>
12    7  0.1698542E-007  0.2597819E+04  0.7818608E-02  0.8368942E-01
          2   -1    0    0  501    0  0.00000000000E+00  0.00000000000E+00  0.30440021131E+04  0.30440021131E+04  0.00000000000E+00 0. -1.
         -1   -1    0    0    0  501 -0.00000000000E+00 -0.00000000000E+00 -0.55425927191E+03  0.55425927191E+03  0.00000000000E+00 0.  1.
         24    2    1    2    0    0  0.10304520838E+04 -0.46615395309E+03  0.88032351195E+03  0.14354255248E+04  0.79661449683E+02 0.  0.
        254    2    1    2    0    0 -0.10304520838E+04  0.46615395309E+03  0.16094193292E+04  0.21628358602E+04  0.89916482124E+03 0.  0.
         23    2    4    4    0    0 -0.63571266509E+03  0.24608515596E+03  0.15522066537E+04  0.16977783867E+04  0.91746705771E+02 0.  0.
         23    2    4    4    0    0 -0.39473941873E+03  0.22006879713E+03  0.57212675479E+02  0.46505747344E+03  0.93571786313E+02 0.  0.
          4    1    3    3  502    0  0.18772374666E+03 -0.10739765814E+03  0.13892316588E+03  0.25704884371E+03  0.00000000000E+00 0. -1.
         -3    1    3    3    0  502  0.84272833715E+03 -0.35875629495E+03  0.74140034607E+03  0.11783766811E+04  0.00000000000E+00 0.  1.
         13    1    5    5    0    0 -0.41760044077E+03  0.19899130546E+03  0.11076036494E+04  0.12003222534E+04  0.00000000000E+00 0.  1.
        -13    1    5    5    0    0 -0.21811222432E+03  0.47093850501E+02  0.44460300431E+03  0.49745613333E+03  0.00000000000E+00 0. -1.
          3    1    6    6  503    0 -0.27754948949E+02  0.29269449800E+02  0.30510322129E+02  0.50575860241E+02  0.00000000000E+00 0. -1.
         -3    1    6    6    0  503 -0.36698446978E+03  0.19079934733E+03  0.26702353350E+02  0.41448161319E+03  0.00000000000E+00 0.  1.
<mgrwt>
<rscale>  0 0.25978194E+04</rscale>
<asrwt>0</asrwt>
<pdfrwt beam="1">  1        2 0.46830801E+00 0.25978194E+04</pdfrwt>
<pdfrwt beam="2">  1       -1 0.85270659E-01 0.25978194E+04</pdfrwt>
<totfact> 0.22340792E+00</totfact>
</mgrwt>
</event>
<event>
12    7  0.1698542E-007  0.3256106E+04  0.7818608E-02  0.8174155E-01
          2   -1    0    0  501    0  0.00000000000E+00  0.00000000000E+00  0.17321323465E+04  0.17321323465E+04  0.00000000000E+00 0. -1.
         -1   -1    0    0    0  501 -0.00000000000E+00 -0.00000000000E+00 -0.15302275798E+04  0.15302275798E+04  0.00000000000E+00 0.  1.
         24    2    1    2    0    0 -0.88231516350E+03  0.96908810600E+03  0.83459684360E+03  0.15558165746E+04  0.80009484735E+02 0.  0.
        254    2    1    2    0    0  0.88231516350E+03 -0.96908810600E+03 -0.63269207689E+03  0.17065433517E+04  0.89127949714E+03 0.  0.
         23    2    4    4    0    0  0.67628430149E+03 -0.51606117400E+03 -0.80217070061E+03  0.11728341345E+04  0.91555897793E+02 0.  0.
         23    2    4    4    0    0  0.20603086201E+03 -0.45302693200E+03  0.16947862372E+03  0.53370921715E+03  0.91871689636E+02 0.  0.
          2    1    3    3  502    0 -0.64254898022E+03  0.74600301193E+03  0.60045497667E+03  0.11532284530E+04  0.00000000000E+00 0. -1.
         -1    1    3    3    0  502 -0.23976618328E+03  0.22308509407E+03  0.23414186693E+03  0.40258812165E+03  0.00000000000E+00 0.  1.
         13    1    5    5    0    0  0.56075514388E+03 -0.43502568855E+03 -0.61990393195E+03  0.94232402385E+03  0.00000000000E+00 0. -1.
        -13    1    5    5    0    0  0.11552915761E+03 -0.81035485451E+02 -0.18226676866E+03  0.23051011066E+03  0.00000000000E+00 0.  1.
          1    1    6    6  503    0  0.64605529776E+02 -0.12008576118E+03  0.89890124637E+02  0.16332390830E+03  0.00000000000E+00 0. -1.
         -1    1    6    6    0  503  0.14142533224E+03 -0.33294117082E+03  0.79588499079E+02  0.37038530885E+03  0.00000000000E+00 0.  1.
<mgrwt>
<rscale>  0 0.32561061E+04</rscale>
<asrwt>0</asrwt>
<pdfrwt beam="1">  1        2 0.26648190E+00 0.32561061E+04</pdfrwt>
<pdfrwt beam="2">  1       -1 0.23541963E+00 0.32561061E+04</pdfrwt>
<totfact> 0.78023615E-01</totfact>
</mgrwt>
</event>
<event>
12    7  0.1698542E-007  0.1227349E+04  0.7818608E-02  0.9089249E-01
         -1   -1    0    0    0  501 -0.00000000000E+00  0.00000000000E+00  0.92465145316E+03  0.92465145316E+03  0.00000000000E+00 0.  1.
          2   -1    0    0  501    0  0.00000000000E+00 -0.00000000000E+00 -0.40728446147E+03  0.40728446147E+03  0.00000000000E+00 0. -1.
         24    2    1    2    0    0 -0.18008328289E+03  0.93940995897E+02 -0.78974214790E+02  0.23297462190E+03  0.82373226008E+02 0.  0.
        254    2    1    2    0    0  0.18008328289E+03 -0.93940995897E+02  0.59634120648E+03  0.10989612927E+04  0.90046554008E+03 0.  0.
         23    2    4    4    0    0  0.38754640635E+03  0.23662752412E+03  0.12167285617E+03  0.47786551978E+03  0.85827552804E+02 0.  0.
         23    2    4    4    0    0 -0.20746312346E+03 -0.33056852002E+03  0.47466835031E+03  0.62109577294E+03  0.90185488634E+02 0.  0.
          4    1    3    3  502    0 -0.10722374725E+03  0.51777807947E+02 -0.88357920016E+02  0.14827338062E+03  0.00000000000E+00 0. -1.
         -1    1    3    3    0  502 -0.72859535638E+02  0.42163187950E+02  0.93837052260E+01  0.84701241285E+02  0.00000000000E+00 0.  1.
         13    1    5    5    0    0  0.12020886010E+03  0.12177671425E+03  0.42073329535E+02  0.17620982731E+03  0.00000000000E+00 0. -1.
        -13    1    5    5    0    0  0.26733754625E+03  0.11485080987E+03  0.79599526637E+02  0.30165569248E+03  0.00000000000E+00 0.  1.
          2    1    6    6  503    0  0.51978093761E+01 -0.36561239470E+02  0.33360273162E+02  0.49765944976E+02  0.00000000000E+00 0. -1.
         -2    1    6    6    0  503 -0.21266093284E+03 -0.29400728054E+03  0.44130807715E+03  0.57132982797E+03  0.00000000000E+00 0.  1.
<mgrwt>
<rscale>  0 0.12273486E+04</rscale>
<asrwt>0</asrwt>
<pdfrwt beam="1">  1        2 0.62659148E-01 0.12273486E+04</pdfrwt>
<pdfrwt beam="2">  1       -1 0.14225407E+00 0.12273486E+04</pdfrwt>
<totfact> 0.35305032E+01</totfact>
</mgrwt>
</event>
<event>
12    7  0.1698542E-007  0.1218085E+04  0.7818608E-02  0.9097172E-01
          2   -1    0    0  501    0  0.00000000000E+00  0.00000000000E+00  0.75794797986E+03  0.75794797986E+03  0.00000000000E+00 0. -1.
         -1   -1    0    0    0  501 -0.00000000000E+00 -0.00000000000E+00 -0.48939101214E+03  0.48939101214E+03  0.00000000000E+00 0.  1.
         24    2    1    2    0    0 -0.32607709798E+02 -0.26443672304E+03  0.10602474335E+03  0.29772182776E+03  0.80043721121E+02 0.  0.
        254    2    1    2    0    0  0.32607709798E+02  0.26443672304E+03  0.16253222437E+03  0.94961716425E+03  0.89686453350E+03 0.  0.
         23    2    4    4    0    0  0.15421607037E+01  0.16789914140E+03  0.52835922494E+03  0.56163329313E+03  0.89866486706E+02 0.  0.
         23    2    4    4    0    0  0.31065549094E+02  0.96537581635E+02 -0.36582700057E+03  0.38798387112E+03  0.80109405768E+02 0.  0.
          2    1    3    3  502    0 -0.10869586689E+02 -0.40326537276E+02  0.51026885542E+02  0.65940280342E+02  0.00000000000E+00 0. -1.
         -1    1    3    3    0  502 -0.21738123109E+02 -0.22411018576E+03  0.54997857810E+02  0.23178154742E+03  0.00000000000E+00 0.  1.
         13    1    5    5    0    0 -0.54511424970E+01  0.12249926678E+03  0.23868866109E+03  0.26834317999E+03  0.00000000000E+00 0. -1.
        -13    1    5    5    0    0  0.69933032007E+01  0.45399874630E+02  0.28967056385E+03  0.29329011314E+03  0.00000000000E+00 0.  1.
          2    1    6    6  503    0  0.28532075831E+02  0.82479174164E+00 -0.46035902284E+02  0.54167000394E+02  0.00000000000E+00 0. -1.
         -2    1    6    6    0  503  0.25334732629E+01  0.95712789893E+02 -0.31979109829E+03  0.33381687072E+03  0.00000000000E+00 0.  1.
<mgrwt>
<rscale>  0 0.12180853E+04</rscale>
<asrwt>0</asrwt>
<pdfrwt beam="1">  1        2 0.11660738E+00 0.12180853E+04</pdfrwt>
<pdfrwt beam="2">  1       -1 0.75290925E-01 0.12180853E+04</pdfrwt>
<totfact> 0.73853926E+01</totfact>
</mgrwt>
</event>
<event>
12    7  0.1698542E-007  0.1342468E+04  0.7818608E-02  0.8996549E-01
         -1   -1    0    0    0  501 -0.00000000000E+00  0.00000000000E+00  0.18890506064E+03  0.18890506064E+03  0.00000000000E+00 0.  1.
          2   -1    0    0  501    0  0.00000000000E+00 -0.00000000000E+00 -0.23850880793E+04  0.23850880793E+04  0.00000000000E+00 0. -1.
         24    2    1    2    0    0 -0.29760964346E+03  0.15895955086E+03 -0.86755887636E+03  0.93436219988E+03  0.80837354700E+02 0.  0.
        254    2    1    2    0    0  0.29760964346E+03 -0.15895955086E+03 -0.13286241423E+04  0.16396309401E+04  0.89961540085E+03 0.  0.
         23    2    4    4    0    0  0.51594626899E+02 -0.49823152306E+03 -0.89858794505E+03  0.10328516000E+04  0.91790394466E+02 0.  0.
         23    2    4    4    0    0  0.24601501656E+03  0.33927197219E+03 -0.43003619726E+03  0.60677934009E+03  0.87299353498E+02 0.  0.
          2    1    3    3  502    0 -0.26113213620E+03  0.10547959087E+03 -0.72563751251E+03  0.77837377667E+03  0.00000000000E+00 0. -1.
         -1    1    3    3    0  502 -0.36477507254E+02  0.53479959995E+02 -0.14192136385E+03  0.15598842321E+03  0.00000000000E+00 0.  1.
         13    1    5    5    0    0 -0.17284762138E+02 -0.25386088572E+02 -0.68188737014E+02  0.74785829879E+02  0.00000000000E+00 0. -1.
        -13    1    5    5    0    0  0.68879389037E+02 -0.47284543448E+03 -0.83039920803E+03  0.95806577010E+03  0.00000000000E+00 0.  1.
          1    1    6    6  503    0  0.13854879028E+02  0.33535962566E+02 -0.97806945758E+01  0.37580319910E+02  0.00000000000E+00 0. -1.
         -1    1    6    6    0  503  0.23216013753E+03  0.30573600963E+03 -0.42025550268E+03  0.56919902018E+03  0.00000000000E+00 0.  1.
<mgrwt>
<rscale>  0 0.13424682E+04</rscale>
<asrwt>0</asrwt>
<pdfrwt beam="1">  1        2 0.36693661E+00 0.13424682E+04</pdfrwt>
<pdfrwt beam="2">  1       -1 0.29062319E-01 0.13424682E+04</pdfrwt>
<totfact> 0.48846995E+01</totfact>
</mgrwt>
</event>
<event>
12    7  0.1698542E-007  0.2082124E+04  0.7818608E-02  0.8569159E-01
          2   -1    0    0  501    0  0.00000000000E+00  0.00000000000E+00  0.11507885030E+04  0.11507885030E+04  0.00000000000E+00 0. -1.
         -1   -1    0    0    0  501 -0.00000000000E+00 -0.00000000000E+00 -0.94179797182E+03  0.94179797182E+03  0.00000000000E+00 0.  1.
         24    2    1    2    0    0 -0.43439197897E+03  0.72398972450E+02 -0.64279211238E+03  0.78345554117E+03  0.81748900016E+02 0.  0.
        254    2    1    2    0    0  0.43439197897E+03 -0.72398972450E+02  0.85178264358E+03  0.13091309337E+04  0.89126434181E+03 0.  0.
         23    2    4    4    0    0  0.44158488978E+03 -0.11200653687E+03  0.10158089560E+04  0.11170193054E+04  0.91222883933E+02 0.  0.
         23    2    4    4    0    0 -0.71929108130E+01  0.39607564417E+02 -0.16402631237E+03  0.19211162823E+03  0.91551894706E+02 0.  0.
          4    1    3    3  502    0 -0.28721890006E+00 -0.56154849537E+01 -0.16588033062E+02  0.17515107960E+02  0.00000000000E+00 0. -1.
         -3    1    3    3    0  502 -0.43410476007E+03  0.78014457404E+02 -0.62620407932E+03  0.76594043321E+03  0.00000000000E+00 0.  1.
         13    1    5    5    0    0  0.36518253842E+02  0.15900426665E+02  0.86454004469E+02  0.95187716227E+02  0.00000000000E+00 0. -1.
        -13    1    5    5    0    0  0.40506663594E+03 -0.12790696353E+03  0.92935495149E+03  0.10218315892E+04  0.00000000000E+00 0.  1.
          3    1    6    6  503    0 -0.22412411356E+02  0.16803103354E+02 -0.16223600605E+03  0.16463651516E+03  0.00000000000E+00 0. -1.
         -3    1    6    6    0  503  0.15219500543E+02  0.22804461063E+02 -0.17903063202E+01  0.27475113063E+02  0.00000000000E+00 0.  1.
<mgrwt>
<rscale>  0 0.20821242E+04</rscale>
<asrwt>0</asrwt>
<pdfrwt beam="1">  1        2 0.17704438E+00 0.20821242E+04</pdfrwt>
<pdfrwt beam="2">  1       -1 0.14489200E+00 0.20821242E+04</pdfrwt>
<totfact> 0.81706279E+00</totfact>
</mgrwt>
</event>
<event>
12    7  0.1698542E-007  0.1935787E+04  0.7818608E-02  0.8637245E-01
          2   -1    0    0  501    0  0.00000000000E+00  0.00000000000E+00  0.18440147471E+04  0.18440147471E+04  0.00000000000E+00 0. -1.
         -1   -1    0    0    0  501 -0.00000000000E+00 -0.00000000000E+00 -0.50803144545E+03  0.50803144545E+03  0.00000000000E+00 0.  1.
         24    2    1    2    0    0  0.12431437221E+03  0.60830277905E+03 -0.26662960727E+01  0.62598015380E+03  0.79735247403E+02 0.  0.
        254    2    1    2    0    0 -0.12431437221E+03 -0.60830277905E+03  0.13386495977E+04  0.17260660387E+04  0.89545233847E+03 0.  0.
         23    2    4    4    0    0  0.13602087008E+03 -0.68178571960E+01  0.93773526345E+03  0.95199371249E+03  0.91632112473E+02 0.  0.
         23    2    4    4    0    0 -0.26033524229E+03 -0.60148492186E+03  0.40091433424E+03  0.77407232622E+03  0.94324510193E+02 0.  0.
          4    1    3    3  502    0  0.62448033501E+02  0.24152099383E+03 -0.38006426368E+02  0.25234229886E+03  0.00000000000E+00 0. -1.
         -3    1    3    3    0  502  0.61866338705E+02  0.36678178522E+03  0.35340130295E+02  0.37363785494E+03  0.00000000000E+00 0.  1.
         13    1    5    5    0    0 -0.10626356119E+02 -0.11369276221E+02  0.55442184687E+02  0.57584856768E+02  0.00000000000E+00 0. -1.
        -13    1    5    5    0    0  0.14664722620E+03  0.45514190248E+01  0.88229307876E+03  0.89440885572E+03  0.00000000000E+00 0.  1.
          4    1    6    6  503    0 -0.25176822856E+03 -0.59754953594E+03  0.40420070334E+03  0.76408827853E+03  0.00000000000E+00 0.  1.
         -4    1    6    6    0  503 -0.85670137231E+01 -0.39353859192E+01 -0.32863690919E+01  0.99840476898E+01  0.00000000000E+00 0. -1.
<mgrwt>
<rscale>  0 0.19357866E+04</rscale>
<asrwt>0</asrwt>
<pdfrwt beam="1">  1        2 0.28369457E+00 0.19357866E+04</pdfrwt>
<pdfrwt beam="2">  1       -1 0.78158685E-01 0.19357866E+04</pdfrwt>
<totfact> 0.14217586E+01</totfact>
</mgrwt>
</event>
<event>
12    7  0.1698542E-007  0.2889706E+04  0.7818608E-02  0.8275947E-01
          2   -1    0    0  501    0  0.00000000000E+00  0.00000000000E+00  0.18518419679E+04  0.18518419679E+04  0.00000000000E+00 0. -1.
         -1   -1    0    0    0  501 -0.00000000000E+00 -0.00000000000E+00 -0.11273097750E+04  0.11273097750E+04  0.00000000000E+00 0.  1.
         24    2    1    2    0    0  0.18190000320E+03 -0.12775194456E+04  0.14620935777E+03  0.13010928479E+04  0.79510234926E+02 0.  0.
        254    2    1    2    0    0 -0.18190000320E+03  0.12775194456E+04  0.57832283517E+03  0.16780588951E+04  0.90348260007E+03 0.  0.
         23    2    4    4    0    0  0.24078343594E+03  0.71990216355E+03  0.60078395016E+03  0.97225583007E+03  0.90023642639E+02 0.  0.
         23    2    4    4    0    0 -0.42268343914E+03  0.55761728204E+03 -0.22461114981E+02  0.70580306501E+03  0.89750442496E+02 0.  0.
          4    1    3    3  502    0  0.10747425052E+03 -0.68068144061E+03  0.11655853679E+03  0.69890187481E+03  0.00000000000E+00 0. -1.
         -3    1    3    3    0  502  0.74425752687E+02 -0.59683800498E+03  0.29650820976E+02  0.60219097306E+03  0.00000000000E+00 0.  1.
         13    1    5    5    0    0  0.96007573348E+02  0.24036775605E+03  0.15491669640E+03  0.30165094913E+03  0.00000000000E+00 0.  1.
        -13    1    5    5    0    0  0.14477586259E+03  0.47953440750E+03  0.44586725376E+03  0.67060488094E+03  0.00000000000E+00 0. -1.
          2    1    6    6  503    0 -0.57310231511E+02  0.10643485468E+03 -0.32386497279E+02  0.12514681831E+03  0.00000000000E+00 0. -1.
         -2    1    6    6    0  503 -0.36537320763E+03  0.45118242736E+03  0.99253822980E+01  0.58065624670E+03  0.00000000000E+00 0.  1.
<mgrwt>
<rscale>  0 0.28897056E+04</rscale>
<asrwt>0</asrwt>
<pdfrwt beam="1">  1        2 0.28489876E+00 0.28897056E+04</pdfrwt>
<pdfrwt beam="2">  1       -1 0.17343227E+00 0.28897056E+04</pdfrwt>
<totfact> 0.18433545E+00</totfact>
</mgrwt>
</event>
<event>
12    7  0.1698542E-007  0.1948428E+04  0.7818608E-02  0.8631119E-01
          2   -1    0    0  501    0  0.00000000000E+00  0.00000000000E+00  0.98125155192E+03  0.98125155192E+03  0.00000000000E+00 0. -1.
         -1   -1    0    0    0  501 -0.00000000000E+00 -0.00000000000E+00 -0.96722689264E+03  0.96722689264E+03  0.00000000000E+00 0.  1.
         24    2    1    2    0    0 -0.21697513433E+03  0.48478676691E+03 -0.55427568646E+03  0.77178265743E+03  0.79564536253E+02 0.  0.
        254    2    1    2    0    0  0.21697513433E+03 -0.48478676691E+03  0.56830034574E+03  0.11766957871E+04  0.88292200913E+03 0.  0.
         23    2    4    4    0    0  0.81444039121E+02  0.17526328721E+03 -0.87387556094E+02  0.23181565197E+03  0.93549773835E+02 0.  0.
         23    2    4    4    0    0  0.13553109521E+03 -0.66005005412E+03  0.65568790183E+03  0.94488013517E+03  0.94005816420E+02 0.  0.
          4    1    3    3  502    0 -0.10967773257E+03  0.15239311287E+03 -0.19113404788E+03  0.26792739713E+03  0.00000000000E+00 0. -1.
         -3    1    3    3    0  502 -0.10729740176E+03  0.33239365403E+03 -0.36314163858E+03  0.50385526031E+03  0.00000000000E+00 0.  1.
         13    1    5    5    0    0  0.58826381394E+02  0.88932345029E+02  0.40308728031E+00  0.10662864352E+03  0.00000000000E+00 0. -1.
        -13    1    5    5    0    0  0.22617657727E+02  0.86330942181E+02 -0.87790643374E+02  0.12518700844E+03  0.00000000000E+00 0.  1.
          3    1    6    6  503    0  0.52991712811E+02 -0.20192940477E+03  0.14686190170E+03  0.25524894575E+03  0.00000000000E+00 0. -1.
         -3    1    6    6    0  503  0.82539382401E+02 -0.45812064935E+03  0.50882600014E+03  0.68963118942E+03  0.00000000000E+00 0.  1.
<mgrwt>
<rscale>  0 0.19484280E+04</rscale>
<asrwt>0</asrwt>
<pdfrwt beam="1">  1        2 0.15096178E+00 0.19484280E+04</pdfrwt>
<pdfrwt beam="2">  1       -1 0.14880414E+00 0.19484280E+04</pdfrwt>
<totfact> 0.98283112E+00</totfact>
</mgrwt>
</event>
<event>
12    7  0.1698542E-007  0.2499856E+04  0.7818608E-02  0.8403037E-01
         -1   -1    0    0    0  501 -0.00000000000E+00  0.00000000000E+00  0.91311515748E+03  0.91311515748E+03  0.00000000000E+00 0.  1.
          2   -1    0    0  501    0  0.00000000000E+00 -0.00000000000E+00 -0.17109786992E+04  0.17109786992E+04  0.00000000000E+00 0. -1.
         24    2    1    2    0    0 -0.28419449569E+03 -0.32596873311E+03 -0.13935019127E+04  0.14611870065E+04  0.78725858628E+02 0.  0.
        254    2    1    2    0    0  0.28419449569E+03  0.32596873311E+03  0.59563837103E+03  0.11629068502E+04  0.90030280837E+03 0.  0.
         23    2    4    4    0    0  0.38690750449E+03  0.72657449027E+02 -0.94463736226E+02  0.41516683320E+03  0.91997717375E+02 0.  0.
         23    2    4    4    0    0 -0.10271300880E+03  0.25331128408E+03  0.69010210726E+03  0.74774001696E+03  0.90319686142E+02 0.  0.
          2    1    3    3  502    0 -0.19620556866E+03 -0.25158202753E+03 -0.91569075775E+03  0.96968020789E+03  0.00000000000E+00 0. -1.
         -1    1    3    3    0  502 -0.87988927025E+02 -0.74386705574E+02 -0.47781115498E+03  0.49150679860E+03  0.00000000000E+00 0.  1.
         13    1    5    5    0    0  0.22692763562E+03  0.83638910794E+02 -0.77255601994E+02  0.25388983289E+03  0.00000000000E+00 0. -1.
        -13    1    5    5    0    0  0.15997986886E+03 -0.10981461767E+02 -0.17208134232E+02  0.16127700031E+03  0.00000000000E+00 0.  1.
          4    1    6    6  503    0 -0.27720862392E+02  0.10764972138E+03  0.17601309780E+03  0.20817665412E+03  0.00000000000E+00 0. -1.
         -4    1    6    6    0  503 -0.74992146405E+02  0.14566156270E+03  0.51408900946E+03  0.53956336284E+03  0.00000000000E+00 0.  1.
<mgrwt>
<rscale>  0 0.24998565E+04</rscale>
<asrwt>0</asrwt>
<pdfrwt beam="1">  1        2 0.26322749E+00 0.24998565E+04</pdfrwt>
<pdfrwt beam="2">  1       -1 0.14047925E+00 0.24998565E+04</pdfrwt>
<totfact> 0.40790515E+00</totfact>
</mgrwt>
</event>
<event>
12    7  0.1698542E-007  0.2539280E+04  0.7818608E-02  0.8389124E-01
          2   -1    0    0  501    0  0.00000000000E+00  0.00000000000E+00  0.18791874941E+04  0.18791874941E+04  0.00000000000E+00 0. -1.
         -1   -1    0    0    0  501 -0.00000000000E+00 -0.00000000000E+00 -0.85781017201E+03  0.85781017201E+03  0.00000000000E+00 0.  1.
         24    2    1    2    0    0  0.69955695953E+01 -0.10505705257E+04  0.89613425273E+02  0.10576435705E+04  0.82655845609E+02 0.  0.
        254    2    1    2    0    0 -0.69955695953E+01  0.10505705257E+04  0.93176389684E+03  0.16793540956E+04  0.92103140644E+03 0.  0.
         23    2    4    4    0    0  0.28673100552E+03  0.53987894465E+03  0.57260215559E+02  0.62074982527E+03  0.91474963128E+02 0.  0.
         23    2    4    4    0    0 -0.29372657512E+03  0.51069158102E+03  0.87450368128E+03  0.10586042704E+04  0.93835605169E+02 0.  0.
          2    1    3    3  502    0  0.25865919135E+02 -0.23301351685E+03  0.44459842381E+02  0.23862318075E+03  0.00000000000E+00 0. -1.
         -1    1    3    3    0  502 -0.18870349540E+02 -0.81755700882E+03  0.45153582892E+02  0.81902038974E+03  0.00000000000E+00 0.  1.
         13    1    5    5    0    0  0.26871061387E+03  0.43728617858E+03  0.36560326724E+02  0.51454956367E+03  0.00000000000E+00 0. -1.
        -13    1    5    5    0    0  0.18020391651E+02  0.10259276607E+03  0.20699888835E+02  0.10620026160E+03  0.00000000000E+00 0.  1.
          2    1    6    6  503    0 -0.28130273146E+03  0.47502547410E+03  0.76980269242E+03  0.94729964268E+03  0.00000000000E+00 0. -1.
         -2    1    6    6    0  503 -0.12423843660E+02  0.35666106922E+02  0.10470098886E+03  0.11130462768E+03  0.00000000000E+00 0.  1.
<mgrwt>
<rscale>  0 0.25392803E+04</rscale>
<asrwt>0</asrwt>
<pdfrwt beam="1">  1        2 0.28910577E+00 0.25392803E+04</pdfrwt>
<pdfrwt beam="2">  1       -1 0.13197080E+00 0.25392803E+04</pdfrwt>
<totfact> 0.38513792E+00</totfact>
</mgrwt>
</event>
<event>
12    7  0.1698542E-007  0.2375914E+04  0.7818608E-02  0.8448576E-01
         -1   -1    0    0    0  501 -0.00000000000E+00  0.00000000000E+00  0.91734318526E+03  0.91734318526E+03  0.00000000000E+00 0.  1.
          2   -1    0    0  501    0  0.00000000000E+00 -0.00000000000E+00 -0.15384015152E+04  0.15384015152E+04  0.00000000000E+00 0. -1.
         24    2    1    2    0    0  0.19500116232E+03  0.98661659796E+03 -0.10756362111E+03  0.10145146234E+04  0.78944434945E+02 0.  0.
        254    2    1    2    0    0 -0.19500116232E+03 -0.98661659796E+03 -0.51349470888E+03  0.14412300771E+04  0.89556102776E+03 0.  0.
         23    2    4    4    0    0  0.25023834923E+03 -0.30072814327E+03  0.10155678469E+03  0.41412749330E+03  0.90172904008E+02 0.  0.
         23    2    4    4    0    0 -0.44523951155E+03 -0.68588845470E+03 -0.61505149357E+03  0.10271025838E+04  0.89275881329E+02 0.  0.
          2    1    3    3  502    0  0.29798950966E+02  0.12826376055E+03  0.12193046116E+02  0.13224310992E+03  0.00000000000E+00 0. -1.
         -1    1    3    3    0  502  0.16520221136E+03  0.85835283742E+03 -0.11975666722E+03  0.88227151347E+03  0.00000000000E+00 0.  1.
         13    1    5    5    0    0  0.29025190488E+01 -0.19224477085E+00 -0.90377481220E+01  0.94943386288E+01  0.00000000000E+00 0.  1.
        -13    1    5    5    0    0  0.24733583018E+03 -0.30053589849E+03  0.11059453281E+03  0.40463315467E+03  0.00000000000E+00 0. -1.
          1    1    6    6  503    0 -0.37493074243E+03 -0.62814141065E+03 -0.55133642804E+03  0.91602759253E+03  0.00000000000E+00 0. -1.
         -1    1    6    6    0  503 -0.70308769125E+02 -0.57747044048E+02 -0.63715065527E+02  0.11107499128E+03  0.00000000000E+00 0.  1.
<mgrwt>
<rscale>  0 0.23759143E+04</rscale>
<asrwt>0</asrwt>
<pdfrwt beam="1">  1        2 0.23667715E+00 0.23759143E+04</pdfrwt>
<pdfrwt beam="2">  1       -1 0.14112972E+00 0.23759143E+04</pdfrwt>
<totfact> 0.50864916E+00</totfact>
</mgrwt>
</event>
<event>
12    7  0.1698542E-007  0.2447786E+04  0.7818608E-02  0.8421827E-01
          2   -1    0    0  501    0  0.00000000000E+00  0.00000000000E+00  0.32144861295E+04  0.32144861295E+04  0.00000000000E+00 0. -1.
         -1   -1    0    0    0  501 -0.00000000000E+00 -0.00000000000E+00 -0.46598873307E+03  0.46598873307E+03  0.00000000000E+00 0.  1.
         24    2    1    2    0    0 -0.45404803465E+03 -0.30261421050E+03  0.25083847012E+04  0.25682635429E+04  0.79049594638E+02 0.  0.
        254    2    1    2    0    0  0.45404803465E+03  0.30261421050E+03  0.24011269529E+03  0.11122113197E+04  0.93894884585E+03 0.  0.
         23    2    4    4    0    0  0.60914574205E+03  0.51832709269E+03  0.16993941021E+03  0.82257229352E+03  0.89578260984E+02 0.  0.
         23    2    4    4    0    0 -0.15509770741E+03 -0.21571288219E+03  0.70173285081E+02  0.28963902621E+03  0.91537583429E+02 0.  0.
          4    1    3    3  502    0 -0.48937876129E+02 -0.56629544801E+02  0.43579358754E+03  0.44217402909E+03  0.00000000000E+00 0. -1.
         -3    1    3    3    0  502 -0.40511015852E+03 -0.24598466570E+03  0.20725911136E+04  0.21260895138E+04  0.00000000000E+00 0.  1.
         13    1    5    5    0    0 -0.32339265969E+01  0.26150839808E+01  0.15078260642E+00  0.41616920663E+01  0.00000000000E+00 0. -1.
        -13    1    5    5    0    0  0.61237966865E+03  0.51571200871E+03  0.16978862761E+03  0.81841060145E+03  0.00000000000E+00 0.  1.
          2    1    6    6  503    0 -0.12705131706E+03 -0.21193031287E+03  0.43786448971E+02  0.25094570686E+03  0.00000000000E+00 0.  1.
         -2    1    6    6    0  503 -0.28046390350E+02 -0.37825693190E+01  0.26386836110E+02  0.38693319349E+02  0.00000000000E+00 0. -1.
<mgrwt>
<rscale>  0 0.24477862E+04</rscale>
<asrwt>0</asrwt>
<pdfrwt beam="1">  1        2 0.49453631E+00 0.24477862E+04</pdfrwt>
<pdfrwt beam="2">  1       -1 0.71690576E-01 0.24477862E+04</pdfrwt>
<totfact> 0.25406054E+00</totfact>
</mgrwt>
</event>
<event>
12    7  0.1698542E-007  0.1757558E+04  0.7818608E-02  0.8729201E-01
          2   -1    0    0  501    0  0.00000000000E+00  0.00000000000E+00  0.28561292158E+04  0.28561292158E+04  0.00000000000E+00 0. -1.
         -1   -1    0    0    0  501 -0.00000000000E+00 -0.00000000000E+00 -0.27038426467E+03  0.27038426467E+03  0.00000000000E+00 0.  1.
         24    2    1    2    0    0 -0.59979605136E+03 -0.68740821529E+02  0.13695273301E+04  0.14989056230E+04  0.81439271767E+02 0.  0.
        254    2    1    2    0    0  0.59979605136E+03  0.68740821529E+02  0.12162176211E+04  0.16276078575E+04  0.89746388912E+03 0.  0.
         23    2    4    4    0    0  0.77035460276E+03  0.14683180769E+03  0.64419050428E+03  0.10189034885E+04  0.90427425939E+02 0.  0.
         23    2    4    4    0    0 -0.17055855141E+03 -0.78090986160E+02  0.57202711681E+03  0.60870436901E+03  0.90097529988E+02 0.  0.
          4    1    3    3  502    0 -0.20920905961E+03 -0.12909370064E+01  0.39811643291E+03  0.44974080457E+03  0.00000000000E+00 0. -1.
         -3    1    3    3    0  502 -0.39058699175E+03 -0.67449884522E+02  0.97141089717E+03  0.10491648184E+04  0.00000000000E+00 0.  1.
         13    1    5    5    0    0  0.60191897323E+02  0.15243394112E+02  0.22843572288E+02  0.66160821959E+02  0.00000000000E+00 0.  1.
        -13    1    5    5    0    0  0.71016270544E+03  0.13158841358E+03  0.62134693199E+03  0.95274266656E+03  0.00000000000E+00 0. -1.
          4    1    6    6  503    0 -0.13315428098E+03 -0.67577391158E+02  0.31316330540E+03  0.34694094913E+03  0.00000000000E+00 0. -1.
         -4    1    6    6    0  503 -0.37404270425E+02 -0.10513595002E+02  0.25886381142E+03  0.26176341988E+03  0.00000000000E+00 0.  1.
<mgrwt>
<rscale>  0 0.17575578E+04</rscale>
<asrwt>0</asrwt>
<pdfrwt beam="1">  1        2 0.43940447E+00 0.17575578E+04</pdfrwt>
<pdfrwt beam="2">  1       -1 0.41597581E-01 0.17575578E+04</pdfrwt>
<totfact> 0.13108449E+01</totfact>
</mgrwt>
</event>
<event>
12    7  0.1698542E-007  0.2325976E+04  0.7818608E-02  0.8467749E-01
          2   -1    0    0  501    0  0.00000000000E+00  0.00000000000E+00  0.13960754632E+04  0.13960754632E+04  0.00000000000E+00 0. -1.
         -1   -1    0    0    0  501 -0.00000000000E+00 -0.00000000000E+00 -0.96881659565E+03  0.96881659565E+03  0.00000000000E+00 0.  1.
         24    2    1    2    0    0  0.57098740345E+03 -0.62987767522E+03 -0.32262224619E+03  0.91293955356E+03  0.81246625059E+02 0.  0.
        254    2    1    2    0    0 -0.57098740345E+03  0.62987767522E+03  0.74988111371E+03  0.14519525053E+04  0.90723309694E+03 0.  0.
         23    2    4    4    0    0 -0.32532263300E+03 -0.11446354762E+03  0.51929980611E+03  0.62994314794E+03  0.90660695636E+02 0.  0.
         23    2    4    4    0    0 -0.24566477045E+03  0.74434122283E+03  0.23058130760E+03  0.82200935732E+03  0.90203152124E+02 0.  0.
          2    1    3    3  502    0  0.22582317681E+02 -0.64843725218E+01 -0.52948366764E+01  0.24084091311E+02  0.00000000000E+00 0. -1.
         -1    1    3    3    0  502  0.54840508577E+03 -0.62339330270E+03 -0.31732740951E+03  0.88885546225E+03  0.00000000000E+00 0.  1.
         13    1    5    5    0    0 -0.23817566420E+03 -0.10159077704E+03  0.44430270456E+03  0.51425015924E+03  0.00000000000E+00 0. -1.
        -13    1    5    5    0    0 -0.87146968804E+02 -0.12872770579E+02  0.74997101550E+02  0.11569298870E+03  0.00000000000E+00 0.  1.
          1    1    6    6  503    0 -0.23749610733E+03  0.64095430338E+03  0.18123220079E+03  0.70715764199E+03  0.00000000000E+00 0. -1.
         -1    1    6    6    0  503 -0.81686631179E+01  0.10338691945E+03  0.49349106805E+02  0.11485171533E+03  0.00000000000E+00 0.  1.
<mgrwt>
<rscale>  0 0.23259760E+04</rscale>
<asrwt>0</asrwt>
<pdfrwt beam="1">  1        2 0.21478084E+00 0.23259760E+04</pdfrwt>
<pdfrwt beam="2">  1       -1 0.14904871E+00 0.23259760E+04</pdfrwt>
<totfact> 0.53221032E+00</totfact>
</mgrwt>
</event>
<event>
12    7  0.1698542E-007  0.1432036E+04  0.7818608E-02  0.8930950E-01
         -1   -1    0    0    0  501 -0.00000000000E+00  0.00000000000E+00  0.29605789904E+03  0.29605789904E+03  0.00000000000E+00 0.  1.
          2   -1    0    0  501    0  0.00000000000E+00 -0.00000000000E+00 -0.17316939920E+04  0.17316939920E+04  0.00000000000E+00 0. -1.
         24    2    1    2    0    0 -0.29340632714E+03  0.24558597693E+03 -0.21258795954E+03  0.44631571363E+03  0.87202814309E+02 0.  0.
        254    2    1    2    0    0  0.29340632714E+03 -0.24558597693E+03 -0.12230481334E+04  0.15814361774E+04  0.92665738094E+03 0.  0.
         23    2    4    4    0    0  0.19142069172E+03 -0.74795298012E+02  0.96272721599E+02  0.24455676146E+03  0.91122745929E+02 0.  0.
         23    2    4    4    0    0  0.10198563542E+03 -0.17079067891E+03 -0.13193208550E+04  0.13368794159E+04  0.84074541108E+02 0.  0.
          2    1    3    3  502    0 -0.34262375408E+02  0.23049594030E+02  0.45753975153E+01  0.41546701626E+02  0.00000000000E+00 0. -1.
         -1    1    3    3    0  502 -0.25914395173E+03  0.22253638290E+03 -0.21716335706E+03  0.40476901201E+03  0.00000000000E+00 0.  1.
         13    1    5    5    0    0  0.15108485965E+03 -0.95467752364E+02  0.84718137966E+02  0.19778242959E+03  0.00000000000E+00 0.  1.
        -13    1    5    5    0    0  0.40335832078E+02  0.20672454352E+02  0.11554583633E+02  0.46774331864E+02  0.00000000000E+00 0. -1.
          1    1    6    6  503    0  0.72585072077E+02 -0.14153382762E+03 -0.78510007813E+03  0.80105090333E+03  0.00000000000E+00 0. -1.
         -1    1    6    6    0  503  0.29400563341E+02 -0.29256851289E+02 -0.53422077685E+03  0.53582851258E+03  0.00000000000E+00 0.  1.
<mgrwt>
<rscale>  0 0.14320359E+04</rscale>
<asrwt>0</asrwt>
<pdfrwt beam="1">  1        2 0.26641446E+00 0.14320359E+04</pdfrwt>
<pdfrwt beam="2">  1       -1 0.45547369E-01 0.14320359E+04</pdfrwt>
<totfact> 0.49875466E+01</totfact>
</mgrwt>
</event>
<event>
12    7  0.1698542E-007  0.1539817E+04  0.7818608E-02  0.8858399E-01
          2   -1    0    0  501    0  0.00000000000E+00  0.00000000000E+00  0.25057732652E+04  0.25057732652E+04  0.00000000000E+00 0. -1.
         -1   -1    0    0    0  501 -0.00000000000E+00 -0.00000000000E+00 -0.23655721714E+03  0.23655721714E+03  0.00000000000E+00 0.  1.
         24    2    1    2    0    0  0.16398629140E+03 -0.95171907569E+02 -0.87947595131E+02  0.22349924048E+03  0.79170292712E+02 0.  0.
        254    2    1    2    0    0 -0.16398629140E+03  0.95171907569E+02  0.23571636432E+04  0.25188312419E+04  0.86737603633E+03 0.  0.
         23    2    4    4    0    0  0.12789465178E+02  0.89169471143E+02 -0.23184221647E+02  0.13017169446E+03  0.91062598805E+02 0.  0.
         23    2    4    4    0    0 -0.17677575658E+03  0.60024364262E+01  0.23803478649E+04  0.23886595474E+04  0.91393535618E+02 0.  0.
          2    1    3    3  502    0  0.84909967502E+02 -0.47318218978E+01 -0.42333195392E+02  0.94995748072E+02  0.00000000000E+00 0. -1.
         -1    1    3    3    0  502  0.79076323899E+02 -0.90440085671E+02 -0.45614399739E+02  0.12850349241E+03  0.00000000000E+00 0.  1.
         13    1    5    5    0    0  0.51830114199E+02  0.55550083372E+02 -0.19942705358E+02  0.78548609138E+02  0.00000000000E+00 0. -1.
        -13    1    5    5    0    0 -0.39040649021E+02  0.33619387771E+02 -0.32415162892E+01  0.51623085319E+02  0.00000000000E+00 0.  1.
          1    1    6    6  503    0 -0.11558617519E+03 -0.15511819119E+02  0.99801611402E+03  0.10048069189E+04  0.00000000000E+00 0. -1.
         -1    1    6    6    0  503 -0.61189581384E+02  0.21514255545E+02  0.13823317508E+04  0.13838526285E+04  0.00000000000E+00 0.  1.
<mgrwt>
<rscale>  0 0.15398165E+04</rscale>
<asrwt>0</asrwt>
<pdfrwt beam="1">  1        2 0.38550356E+00 0.15398165E+04</pdfrwt>
<pdfrwt beam="2">  1       -1 0.36393420E-01 0.15398165E+04</pdfrwt>
<totfact> 0.27480436E+01</totfact>
</mgrwt>
</event>
<event>
12    7  0.1698542E-007  0.1488297E+04  0.7818608E-02  0.8892273E-01
         -1   -1    0    0    0  501 -0.00000000000E+00  0.00000000000E+00  0.23663354769E+03  0.23663354769E+03  0.00000000000E+00 0.  1.
          2   -1    0    0  501    0  0.00000000000E+00 -0.00000000000E+00 -0.23401465693E+04  0.23401465693E+04  0.00000000000E+00 0. -1.
         24    2    1    2    0    0  0.92820189520E+02  0.42120108400E+03 -0.97648395140E+03  0.10703886056E+04  0.78644254794E+02 0.  0.
        254    2    1    2    0    0 -0.92820189520E+02 -0.42120108400E+03 -0.11270290702E+04  0.15063915114E+04  0.90166230922E+03 0.  0.
         23    2    4    4    0    0  0.15569612183E+02  0.10587839275E+03  0.93772170795E+02  0.16911549629E+03  0.91401226439E+02 0.  0.
         23    2    4    4    0    0 -0.10838980170E+03 -0.52707947675E+03 -0.12208012410E+04  0.13372760151E+04  0.91598835805E+02 0.  0.
          4    1    3    3  502    0  0.16363840872E+01  0.34049168125E+02 -0.37725002289E+02  0.50844856186E+02  0.00000000000E+00 0. -1.
         -3    1    3    3    0  502  0.91183805433E+02  0.38715191588E+03 -0.93875894911E+03  0.10195437494E+04  0.00000000000E+00 0.  1.
         13    1    5    5    0    0 -0.75920561417E+00 -0.71972500933E+01 -0.11613706748E+02  0.13684114385E+02  0.00000000000E+00 0. -1.
        -13    1    5    5    0    0  0.16328817797E+02  0.11307564284E+03  0.10538587754E+03  0.15543138190E+03  0.00000000000E+00 0.  1.
          1    1    6    6  503    0  0.31520868868E+01 -0.94847291030E+01 -0.67563697846E+02  0.68298967814E+02  0.00000000000E+00 0. -1.
         -1    1    6    6    0  503 -0.11154188859E+03 -0.51759474765E+03 -0.11532375431E+04  0.12689770473E+04  0.00000000000E+00 0.  1.
<mgrwt>
<rscale>  0 0.14882973E+04</rscale>
<asrwt>0</asrwt>
<pdfrwt beam="1">  1        2 0.36002253E+00 0.14882973E+04</pdfrwt>
<pdfrwt beam="2">  1       -1 0.36405163E-01 0.14882973E+04</pdfrwt>
<totfact> 0.34310089E+01</totfact>
</mgrwt>
</event>
<event>
12    7  0.1698542E-007  0.1366575E+04  0.7818608E-02  0.8978375E-01
         -1   -1    0    0    0  501 -0.00000000000E+00  0.00000000000E+00  0.18273999548E+04  0.18273999548E+04  0.00000000000E+00 0.  1.
          2   -1    0    0  501    0  0.00000000000E+00 -0.00000000000E+00 -0.25548967387E+03  0.25548967387E+03  0.00000000000E+00 0. -1.
         24    2    1    2    0    0 -0.18634660744E+03  0.27152629215E+03  0.16370183750E+03  0.37622851077E+03  0.79360035822E+02 0.  0.
        254    2    1    2    0    0  0.18634660744E+03 -0.27152629215E+03  0.14082084434E+04  0.17066611179E+04  0.90619510357E+03 0.  0.
         23    2    4    4    0    0 -0.13403264452E+03 -0.10605917903E+03 -0.51504669639E+02  0.20038523203E+03  0.91039612082E+02 0.  0.
         23    2    4    4    0    0  0.32037925196E+03 -0.16546711312E+03  0.14597131131E+04  0.15062758858E+04  0.89902398467E+02 0.  0.
          2    1    3    3  502    0 -0.18313805438E+03  0.23696847634E+03  0.12580072550E+03  0.32483754136E+03  0.00000000000E+00 0. -1.
         -1    1    3    3    0  502 -0.32085530575E+01  0.34557815807E+02  0.37901112002E+02  0.51390969411E+02  0.00000000000E+00 0.  1.
         13    1    5    5    0    0  0.56895867780E+01 -0.32847102866E+02 -0.21910029920E+02  0.39891765760E+02  0.00000000000E+00 0. -1.
        -13    1    5    5    0    0 -0.13972223130E+03 -0.73212076160E+02 -0.29594639719E+02  0.16049346627E+03  0.00000000000E+00 0.  1.
          1    1    6    6  503    0  0.67482866705E+01 -0.16280564597E+01  0.13315889266E+03  0.13333971889E+03  0.00000000000E+00 0. -1.
         -1    1    6    6    0  503  0.31363096529E+03 -0.16383905666E+03  0.13265542204E+04  0.13729361670E+04  0.00000000000E+00 0.  1.
<mgrwt>
<rscale>  0 0.13665750E+04</rscale>
<asrwt>0</asrwt>
<pdfrwt beam="1">  1        2 0.39306105E-01 0.13665750E+04</pdfrwt>
<pdfrwt beam="2">  1       -1 0.28113845E+00 0.13665750E+04</pdfrwt>
<totfact> 0.64441074E+00</totfact>
</mgrwt>
</event>
<event>
12    7  0.1698542E-007  0.1172284E+04  0.7818608E-02  0.9137469E-01
          2   -1    0    0  501    0  0.00000000000E+00  0.00000000000E+00  0.71642080052E+03  0.71642080052E+03  0.00000000000E+00 0. -1.
         -1   -1    0    0    0  501 -0.00000000000E+00 -0.00000000000E+00 -0.47955367002E+03  0.47955367002E+03  0.00000000000E+00 0.  1.
         24    2    1    2    0    0  0.50552051475E+02  0.22023460142E+03  0.45211881716E+02  0.24376773113E+03  0.79497188143E+02 0.  0.
        254    2    1    2    0    0 -0.50552051475E+02 -0.22023460142E+03  0.19165524878E+03  0.95220673941E+03  0.90493488750E+03 0.  0.
         23    2    4    4    0    0 -0.38648099820E+03 -0.19520206752E+02 -0.14934351319E+03  0.42468916519E+03  0.91152628388E+02 0.  0.
         23    2    4    4    0    0  0.33592894672E+03 -0.20071439466E+03  0.34099876197E+03  0.52751757421E+03  0.94128157153E+02 0.  0.
          4    1    3    3  502    0  0.14399019946E+02  0.12272407872E+03  0.62289302511E+02  0.13837806358E+03  0.00000000000E+00 0. -1.
         -3    1    3    3    0  502  0.36153031529E+02  0.97510522695E+02 -0.17077420794E+02  0.10538966755E+03  0.00000000000E+00 0.  1.
         13    1    5    5    0    0 -0.10772928786E+03 -0.46694997440E+02 -0.40306694389E+02  0.12413964661E+03  0.00000000000E+00 0. -1.
        -13    1    5    5    0    0 -0.27875171034E+03  0.27174790688E+02 -0.10903681880E+03  0.30054951858E+03  0.00000000000E+00 0.  1.
          2    1    6    6  503    0  0.17354045022E+03 -0.70178084811E+02  0.21040177879E+03  0.28162059578E+03  0.00000000000E+00 0. -1.
         -2    1    6    6    0  503  0.16238849651E+03 -0.13053630985E+03  0.13059698317E+03  0.24589697843E+03  0.00000000000E+00 0.  1.
<mgrwt>
<rscale>  0 0.11722836E+04</rscale>
<asrwt>0</asrwt>
<pdfrwt beam="1">  1        2 0.11021858E+00 0.11722836E+04</pdfrwt>
<pdfrwt beam="2">  1       -1 0.73777488E-01 0.11722836E+04</pdfrwt>
<totfact> 0.83135082E+01</totfact>
</mgrwt>
</event>
<event>
12    7  0.1698542E-007  0.1421103E+04  0.7818608E-02  0.8938683E-01
         -1   -1    0    0    0  501 -0.00000000000E+00  0.00000000000E+00  0.23544888999E+03  0.23544888999E+03  0.00000000000E+00 0.  1.
          2   -1    0    0  501    0  0.00000000000E+00 -0.00000000000E+00 -0.21443450860E+04  0.21443450860E+04  0.00000000000E+00 0. -1.
         24    2    1    2    0    0  0.11836324318E+03 -0.30759552573E+03 -0.14823546819E+03  0.37028272414E+03  0.80688766142E+02 0.  0.
        254    2    1    2    0    0 -0.11836324318E+03  0.30759552573E+03 -0.17606607278E+04  0.20095112518E+04  0.91081524362E+03 0.  0.
         23    2    4    4    0    0 -0.43796975496E+03  0.30206026101E+03 -0.14771992810E+04  0.15727433455E+04  0.91356486605E+02 0.  0.
         23    2    4    4    0    0  0.31960651178E+03  0.55352647187E+01 -0.28346144680E+03  0.43676790627E+03  0.90757096719E+02 0.  0.
          4    1    3    3  502    0  0.50256492922E+02 -0.95544246544E+02 -0.88755908061E+02  0.13975703683E+03  0.00000000000E+00 0. -1.
         -3    1    3    3    0  502  0.68106750259E+02 -0.21205127919E+03 -0.59479560130E+02  0.23052568731E+03  0.00000000000E+00 0.  1.
         13    1    5    5    0    0 -0.24900179624E+02  0.10199083378E+02 -0.33234902372E+02  0.42762120886E+02  0.00000000000E+00 0.  1.
        -13    1    5    5    0    0 -0.41306957533E+03  0.29186117764E+03 -0.14439643786E+04  0.15299812246E+04  0.00000000000E+00 0. -1.
          3    1    6    6  503    0  0.27625891749E+03  0.16492352084E+02 -0.19789942133E+03  0.34022811191E+03  0.00000000000E+00 0. -1.
         -3    1    6    6    0  503  0.43347594284E+02 -0.10957087365E+02 -0.85562025465E+02  0.96539794362E+02  0.00000000000E+00 0.  1.
<mgrwt>
<rscale>  0 0.14211033E+04</rscale>
<asrwt>0</asrwt>
<pdfrwt beam="1">  1        2 0.32989925E+00 0.14211033E+04</pdfrwt>
<pdfrwt beam="2">  1       -1 0.36222906E-01 0.14211033E+04</pdfrwt>
<totfact> 0.44861459E+01</totfact>
</mgrwt>
</event>
<event>
12    7  0.1698542E-007  0.3461995E+04  0.7818608E-02  0.8122856E-01
         -1   -1    0    0    0  501 -0.00000000000E+00  0.00000000000E+00  0.87163263420E+03  0.87163263420E+03  0.00000000000E+00 0.  1.
          2   -1    0    0  501    0  0.00000000000E+00 -0.00000000000E+00 -0.34376327450E+04  0.34376327450E+04  0.00000000000E+00 0. -1.
         24    2    1    2    0    0 -0.39937267797E+03  0.90434660698E+03 -0.28016496197E+04  0.29720187955E+04  0.79459475218E+02 0.  0.
        254    2    1    2    0    0  0.39937267797E+03 -0.90434660698E+03  0.23564950886E+03  0.13372465837E+04  0.86911242833E+03 0.  0.
         23    2    4    4    0    0  0.23001536993E+03 -0.11126339911E+03 -0.26566071833E+03  0.37929237828E+03  0.89445383206E+02 0.  0.
         23    2    4    4    0    0  0.16935730804E+03 -0.79308320786E+03  0.50131022718E+03  0.95795420540E+03  0.93281527491E+02 0.  0.
          4    1    3    3  502    0 -0.25307724544E+03  0.49598819321E+03 -0.15019758577E+04  0.16018688639E+04  0.00000000000E+00 0. -1.
         -3    1    3    3    0  502 -0.14629543253E+03  0.40835841376E+03 -0.12996737620E+04  0.13701499317E+04  0.00000000000E+00 0.  1.
         13    1    5    5    0    0  0.20526227119E+03 -0.60352190428E+02 -0.21521270307E+03  0.30346580438E+03  0.00000000000E+00 0. -1.
        -13    1    5    5    0    0  0.24753098735E+02 -0.50911208686E+02 -0.50448015256E+02  0.75826573905E+02  0.00000000000E+00 0.  1.
          4    1    6    6  503    0  0.11838463890E+03 -0.38641421687E+03  0.21283597340E+03  0.45676035434E+03  0.00000000000E+00 0. -1.
         -4    1    6    6    0  503  0.50972669141E+02 -0.40666899100E+03  0.28847425378E+03  0.50119385105E+03  0.00000000000E+00 0.  1.
<mgrwt>
<rscale>  0 0.34619953E+04</rscale>
<asrwt>0</asrwt>
<pdfrwt beam="1">  1        2 0.52886658E+00 0.34619953E+04</pdfrwt>
<pdfrwt beam="2">  1       -1 0.13409733E+00 0.34619953E+04</pdfrwt>
<totfact> 0.39336016E-01</totfact>
</mgrwt>
</event>
<event>
12    7  0.1698542E-007  0.1706087E+04  0.7818608E-02  0.8757900E-01
          2   -1    0    0  501    0  0.00000000000E+00  0.00000000000E+00  0.12523442166E+04  0.12523442166E+04  0.00000000000E+00 0. -1.
         -1   -1    0    0    0  501 -0.00000000000E+00 -0.00000000000E+00 -0.58105668844E+03  0.58105668844E+03  0.00000000000E+00 0.  1.
         24    2    1    2    0    0 -0.23454472720E+03  0.42243685260E+03  0.65480898504E+03  0.81746393227E+03  0.77513548314E+02 0.  0.
        254    2    1    2    0    0  0.23454472720E+03 -0.42243685260E+03  0.16478543124E+02  0.10159369728E+04  0.89352798881E+03 0.  0.
         23    2    4    4    0    0 -0.23202796540E+03 -0.44119431727E+03  0.13797972542E+03  0.52519542251E+03  0.91117643123E+02 0.  0.
         23    2    4    4    0    0  0.46657269260E+03  0.18757464668E+02 -0.12150118230E+03  0.49074155027E+03  0.89570150722E+02 0.  0.
          4    1    3    3  502    0 -0.17832673058E+03  0.36177794911E+03  0.57634915286E+03  0.70346432269E+03  0.00000000000E+00 0. -1.
         -1    1    3    3    0  502 -0.56217996621E+02  0.60658903487E+02  0.78459832189E+02  0.11399960958E+03  0.00000000000E+00 0.  1.
         13    1    5    5    0    0 -0.20066665580E+01 -0.70152511389E+02  0.18070953648E+02  0.72470414174E+02  0.00000000000E+00 0. -1.
        -13    1    5    5    0    0 -0.23002129884E+03 -0.37104180588E+03  0.11990877177E+03  0.45272500834E+03  0.00000000000E+00 0.  1.
          2    1    6    6  503    0  0.10065308210E+03  0.11605500301E+02  0.10073999282E+02  0.10181952678E+03  0.00000000000E+00 0. -1.
         -2    1    6    6    0  503  0.36591961050E+03  0.71519643666E+01 -0.13157518158E+03  0.38892202348E+03  0.00000000000E+00 0.  1.
<mgrwt>
<rscale>  0 0.17060867E+04</rscale>
<asrwt>0</asrwt>
<pdfrwt beam="1">  1        2 0.19266834E+00 0.17060867E+04</pdfrwt>
<pdfrwt beam="2">  1       -1 0.89393337E-01 0.17060867E+04</pdfrwt>
<totfact> 0.23444283E+01</totfact>
</mgrwt>
</event>
<event>
12    7  0.1698542E-007  0.2407365E+04  0.7818608E-02  0.8436751E-01
         -1   -1    0    0    0  501 -0.00000000000E+00  0.00000000000E+00  0.64701856191E+03  0.64701856191E+03  0.00000000000E+00 0.  1.
          2   -1    0    0  501    0  0.00000000000E+00 -0.00000000000E+00 -0.22392736790E+04  0.22392736790E+04  0.00000000000E+00 0. -1.
         24    2    1    2    0    0  0.27611712771E+03 -0.37321172304E+03 -0.17845456581E+04  0.18457528777E+04  0.81687337922E+02 0.  0.
        254    2    1    2    0    0 -0.27611712771E+03  0.37321172304E+03  0.19229054107E+03  0.10405393632E+04  0.91116346268E+03 0.  0.
         23    2    4    4    0    0 -0.50849298989E+03 -0.56783414875E+02  0.15730798648E+03  0.54288973105E+03  0.90520608125E+02 0.  0.
         23    2    4    4    0    0  0.23237586218E+03  0.42999513792E+03  0.34982554583E+02  0.49764963214E+03  0.86815996736E+02 0.  0.
          2    1    3    3  502    0  0.26967668756E+03 -0.37498741206E+03 -0.17749309930E+04  0.18340450117E+04  0.00000000000E+00 0. -1.
         -1    1    3    3    0  502  0.64404401489E+01  0.17756890183E+01 -0.96146650962E+01  0.11707865976E+02  0.00000000000E+00 0.  1.
         13    1    5    5    0    0 -0.31152181818E+03 -0.74320477139E+02  0.76557967368E+02  0.32928786630E+03  0.00000000000E+00 0. -1.
        -13    1    5    5    0    0 -0.19697117171E+03  0.17537062264E+02  0.80750019114E+02  0.21360186475E+03  0.00000000000E+00 0.  1.
          4    1    6    6  503    0  0.23465490268E+03  0.38446236313E+03  0.37617689955E+02  0.45198376366E+03  0.00000000000E+00 0. -1.
         -4    1    6    6    0  503 -0.22790405057E+01  0.45532774787E+02 -0.26351353720E+01  0.45665868479E+02  0.00000000000E+00 0.  1.
<mgrwt>
<rscale>  0 0.24073651E+04</rscale>
<asrwt>0</asrwt>
<pdfrwt beam="1">  1        2 0.34450364E+00 0.24073651E+04</pdfrwt>
<pdfrwt beam="2">  1       -1 0.99541317E-01 0.24073651E+04</pdfrwt>
<totfact> 0.48319847E+00</totfact>
</mgrwt>
</event>
<event>
12    7  0.1698542E-007  0.1444043E+04  0.7818608E-02  0.8922541E-01
         -1   -1    0    0    0  501 -0.00000000000E+00  0.00000000000E+00  0.17289264924E+03  0.17289264924E+03  0.00000000000E+00 0.  1.
          2   -1    0    0  501    0  0.00000000000E+00 -0.00000000000E+00 -0.30152538014E+04  0.30152538014E+04  0.00000000000E+00 0. -1.
         24    2    1    2    0    0 -0.15392616829E+03  0.39236440074E+03 -0.11514319282E+04  0.12286920609E+04  0.79029152267E+02 0.  0.
        254    2    1    2    0    0  0.15392616829E+03 -0.39236440074E+03 -0.16909292239E+04  0.19594543897E+04  0.89586649499E+03 0.  0.
         23    2    4    4    0    0  0.14046522888E+03 -0.60856321580E+03 -0.15757885817E+04  0.16974889658E+04  0.90991573905E+02 0.  0.
         23    2    4    4    0    0  0.13460939412E+02  0.21619881506E+03 -0.11514064216E+03  0.26196542391E+03  0.91898810228E+02 0.  0.
          2    1    3    3  502    0 -0.14887529424E+03  0.32069247675E+03 -0.10092102733E+04  0.10693516230E+04  0.00000000000E+00 0. -1.
         -1    1    3    3    0  502 -0.50508740519E+01  0.71671923992E+02 -0.14222165490E+03  0.15934043787E+03  0.00000000000E+00 0.  1.
         13    1    5    5    0    0 -0.33419934954E+01 -0.10402970567E+03 -0.32060847971E+03  0.33708032551E+03  0.00000000000E+00 0.  1.
        -13    1    5    5    0    0  0.14380722237E+03 -0.50453351013E+03 -0.12551801020E+04  0.13604086403E+04  0.00000000000E+00 0. -1.
          3    1    6    6  503    0  0.44045173365E+02  0.18952138317E+03 -0.98742433076E+02  0.21819349226E+03  0.00000000000E+00 0. -1.
         -3    1    6    6    0  503 -0.30584233953E+02  0.26677431894E+02 -0.16398209084E+02  0.43771931647E+02  0.00000000000E+00 0.  1.
<mgrwt>
<rscale>  0 0.14440432E+04</rscale>
<asrwt>0</asrwt>
<pdfrwt beam="1">  1        2 0.46388511E+00 0.14440432E+04</pdfrwt>
<pdfrwt beam="2">  1       -1 0.26598874E-01 0.14440432E+04</pdfrwt>
<totfact> 0.23888090E+01</totfact>
</mgrwt>
</event>
<event>
12    7  0.1698542E-007  0.1380600E+04  0.7818608E-02  0.8967982E-01
         -1   -1    0    0    0  501 -0.00000000000E+00  0.00000000000E+00  0.71246878589E+03  0.71246878589E+03  0.00000000000E+00 0.  1.
          2   -1    0    0  501    0  0.00000000000E+00 -0.00000000000E+00 -0.66882101542E+03  0.66882101542E+03  0.00000000000E+00 0. -1.
         24    2    1    2    0    0  0.87632336858E+02 -0.35708164582E+03 -0.13470281725E+03  0.39967174660E+03  0.80037040213E+02 0.  0.
        254    2    1    2    0    0 -0.87632336858E+02  0.35708164582E+03  0.17835058772E+03  0.98161805471E+03  0.89251237804E+03 0.  0.
         23    2    4    4    0    0  0.13162165480E+03  0.38790955725E+03  0.45269780371E+03  0.61799994718E+03  0.95867349042E+02 0.  0.
         23    2    4    4    0    0 -0.21925399165E+03 -0.30827911432E+02 -0.27434721599E+03  0.36361810753E+03  0.89045270627E+02 0.  0.
          2    1    3    3  502    0  0.81772836698E+02 -0.29957051164E+03 -0.14190105095E+03  0.34141645614E+03  0.00000000000E+00 0. -1.
         -1    1    3    3    0  502  0.58595001604E+01 -0.57511134186E+02  0.71982337013E+01  0.58255290454E+02  0.00000000000E+00 0.  1.
         13    1    5    5    0    0 -0.15029802969E+02  0.52994594844E+02  0.59240726705E+02  0.80893669471E+02  0.00000000000E+00 0. -1.
        -13    1    5    5    0    0  0.14665145776E+03  0.33491496241E+03  0.39345707700E+03  0.53710627771E+03  0.00000000000E+00 0.  1.
          2    1    6    6  503    0 -0.16745201533E+03 -0.53459450718E+02 -0.16784636650E+03  0.24304422037E+03  0.00000000000E+00 0.  1.
         -2    1    6    6    0  503 -0.51801976326E+02  0.22631539286E+02 -0.10650084950E+03  0.12057388716E+03  0.00000000000E+00 0. -1.
<mgrwt>
<rscale>  0 0.13806000E+04</rscale>
<asrwt>0</asrwt>
<pdfrwt beam="1">  1        2 0.10289554E+00 0.13806000E+04</pdfrwt>
<pdfrwt beam="2">  1       -1 0.10961058E+00 0.13806000E+04</pdfrwt>
<totfact> 0.37200222E+01</totfact>
</mgrwt>
</event>
<event>
12    7  0.1698542E-007  0.3169178E+04  0.7818608E-02  0.8197005E-01
          2   -1    0    0  501    0  0.00000000000E+00  0.00000000000E+00  0.17610824743E+04  0.17610824743E+04  0.00000000000E+00 0. -1.
         -1   -1    0    0    0  501 -0.00000000000E+00 -0.00000000000E+00 -0.14257834254E+04  0.14257834254E+04  0.00000000000E+00 0.  1.
         24    2    1    2    0    0  0.68646627120E+03  0.50634529421E+03  0.13414691605E+04  0.15916649570E+04  0.78970427075E+02 0.  0.
        254    2    1    2    0    0 -0.68646627120E+03 -0.50634529421E+03 -0.10061701116E+04  0.15952009427E+04  0.89703191455E+03 0.  0.
         23    2    4    4    0    0 -0.16772186070E+03 -0.72033744824E+02 -0.87712016270E+03  0.90046125391E+03  0.90394728953E+02 0.  0.
         23    2    4    4    0    0 -0.51874441050E+03 -0.43431154939E+03 -0.12904994893E+03  0.69473968883E+03  0.91033293717E+02 0.  0.
          2    1    3    3  502    0  0.55903151023E+03  0.42297139471E+03  0.10446522638E+04  0.12580617562E+04  0.00000000000E+00 0. -1.
         -1    1    3    3    0  502  0.12743476097E+03  0.83373899500E+02  0.29681689670E+03  0.33360320081E+03  0.00000000000E+00 0.  1.
         13    1    5    5    0    0 -0.11877355075E+03 -0.92508168533E+02 -0.63688581335E+03  0.65443751179E+03  0.00000000000E+00 0.  1.
        -13    1    5    5    0    0 -0.48948309947E+02  0.20474423709E+02 -0.24023434936E+03  0.24602374211E+03  0.00000000000E+00 0. -1.
          4    1    6    6  503    0 -0.40742516344E+03 -0.37116806020E+03 -0.76660426875E+02  0.55645108839E+03  0.00000000000E+00 0.  1.
         -4    1    6    6    0  503 -0.11131924706E+03 -0.63143489188E+02 -0.52389522055E+02  0.13828860045E+03  0.00000000000E+00 0. -1.
<mgrwt>
<rscale>  0 0.31691779E+04</rscale>
<asrwt>0</asrwt>
<pdfrwt beam="1">  1        2 0.27093577E+00 0.31691779E+04</pdfrwt>
<pdfrwt beam="2">  1       -1 0.21935129E+00 0.31691779E+04</pdfrwt>
<totfact> 0.96852063E-01</totfact>
</mgrwt>
</event>
<event>
12    7  0.1698542E-007  0.1986786E+04  0.7818608E-02  0.8612824E-01
          2   -1    0    0  501    0  0.00000000000E+00  0.00000000000E+00  0.16883958515E+04  0.16883958515E+04  0.00000000000E+00 0. -1.
         -1   -1    0    0    0  501 -0.00000000000E+00 -0.00000000000E+00 -0.58447749243E+03  0.58447749243E+03  0.00000000000E+00 0.  1.
         24    2    1    2    0    0  0.50076820093E+03 -0.41092781196E+03 -0.76055502920E+02  0.65717849216E+03  0.80428063096E+02 0.  0.
        254    2    1    2    0    0 -0.50076820093E+03  0.41092781196E+03  0.11799738620E+04  0.16156948518E+04  0.89358887716E+03 0.  0.
         23    2    4    4    0    0 -0.41158533142E+03  0.35375745648E+03  0.13125631600E+04  0.14232704445E+04  0.91268208972E+02 0.  0.
         23    2    4    4    0    0 -0.89182869513E+02  0.57170355480E+02 -0.13258929799E+03  0.19242440735E+03  0.90692870957E+02 0.  0.
          4    1    3    3  502    0  0.45423909931E+02 -0.68796595225E+02  0.92818104454E+00  0.82444918753E+02  0.00000000000E+00 0. -1.
         -3    1    3    3    0  502  0.45534429100E+03 -0.34213121673E+03 -0.76983683965E+02  0.57473357341E+03  0.00000000000E+00 0.  1.
         13    1    5    5    0    0 -0.17117637858E+03  0.90316292037E+02  0.44581780405E+03  0.48601635733E+03  0.00000000000E+00 0.  1.
        -13    1    5    5    0    0 -0.24040895284E+03  0.26344116444E+03  0.86674535597E+03  0.93725408712E+03  0.00000000000E+00 0. -1.
          3    1    6    6  503    0 -0.10327203557E+03  0.60463120270E+02 -0.13166964792E+03  0.17792638485E+03  0.00000000000E+00 0. -1.
         -3    1    6    6    0  503  0.14089166058E+02 -0.32927647892E+01 -0.91965007490E+00  0.14498022501E+02  0.00000000000E+00 0.  1.
<mgrwt>
<rscale>  0 0.19867857E+04</rscale>
<asrwt>0</asrwt>
<pdfrwt beam="1">  1        2 0.25975320E+00 0.19867857E+04</pdfrwt>
<pdfrwt beam="2">  1       -1 0.89919615E-01 0.19867857E+04</pdfrwt>
<totfact> 0.12761724E+01</totfact>
</mgrwt>
</event>
<event>
12    7  0.1698542E-007  0.1178758E+04  0.7818608E-02  0.9131655E-01
          2   -1    0    0  501    0  0.00000000000E+00  0.00000000000E+00  0.32994444542E+04  0.32994444542E+04  0.00000000000E+00 0. -1.
         -1   -1    0    0    0  501 -0.00000000000E+00 -0.00000000000E+00 -0.10528067534E+03  0.10528067534E+03  0.00000000000E+00 0.  1.
         24    2    1    2    0    0  0.14340670693E+03 -0.15267395646E+03  0.97987061128E+03  0.10044106588E+04  0.69422879354E+02 0.  0.
        254    2    1    2    0    0 -0.14340670693E+03  0.15267395646E+03  0.22142931676E+04  0.24003144707E+04  0.90251897800E+03 0.  0.
         23    2    4    4    0    0 -0.70964465617E+02  0.52444644911E+03  0.12999034972E+04  0.14065502153E+04  0.92489851440E+02 0.  0.
         23    2    4    4    0    0 -0.72442241314E+02 -0.37177249265E+03  0.91438967041E+03  0.99376425547E+03  0.89421817684E+02 0.  0.
          2    1    3    3  502    0  0.37846264275E+02 -0.22515248520E+02  0.10895107562E+03  0.11751430982E+03  0.00000000000E+00 0. -1.
         -3    1    3    3    0  502  0.10556044266E+03 -0.13015870794E+03  0.87091953567E+03  0.88689634902E+03  0.00000000000E+00 0.  1.
         13    1    5    5    0    0 -0.51360013422E+02  0.25618397175E+03  0.75380816996E+03  0.79780626437E+03  0.00000000000E+00 0. -1.
        -13    1    5    5    0    0 -0.19604452195E+02  0.26826247736E+03  0.54609532726E+03  0.60874395090E+03  0.00000000000E+00 0.  1.
          1    1    6    6  503    0 -0.87338846264E+01 -0.11932276685E+03  0.19579682107E+03  0.22945718243E+03  0.00000000000E+00 0. -1.
         -1    1    6    6    0  503 -0.63708356688E+02 -0.25244972580E+03  0.71859284934E+03  0.76430707304E+03  0.00000000000E+00 0.  1.
<mgrwt>
<rscale>  0 0.11787582E+04</rscale>
<asrwt>0</asrwt>
<pdfrwt beam="1">  1        2 0.50760676E+00 0.11787582E+04</pdfrwt>
<pdfrwt beam="2">  1       -1 0.16197029E-01 0.11787582E+04</pdfrwt>
<totfact> 0.37215407E+01</totfact>
</mgrwt>
</event>
<event>
12    7  0.1698542E-007  0.2008403E+04  0.7818608E-02  0.8602702E-01
         -1   -1    0    0    0  501 -0.00000000000E+00  0.00000000000E+00  0.31863229842E+04  0.31863229842E+04  0.00000000000E+00 0.  1.
          2   -1    0    0  501    0  0.00000000000E+00 -0.00000000000E+00 -0.31648408200E+03  0.31648408200E+03  0.00000000000E+00 0. -1.
         24    2    1    2    0    0  0.55671696020E+03  0.54728390044E+03  0.14490493414E+04  0.16479444528E+04  0.80768089466E+02 0.  0.
        254    2    1    2    0    0 -0.55671696020E+03 -0.54728390044E+03  0.14207895608E+04  0.18548626134E+04  0.90134282994E+03 0.  0.
         23    2    4    4    0    0 -0.27760507710E+03 -0.64857637796E+03  0.13646576334E+04  0.15391267628E+04  0.94365453800E+02 0.  0.
         23    2    4    4    0    0 -0.27911188310E+03  0.10129247753E+03  0.56131927461E+02  0.31573585060E+03  0.91513522391E+02 0.  0.
          4    1    3    3  502    0  0.18735071490E+03  0.22514434716E+03  0.48839672467E+03  0.56949243024E+03  0.00000000000E+00 0. -1.
         -3    1    3    3    0  502  0.36936624529E+03  0.32213955328E+03  0.96065261672E+03  0.10784520226E+04  0.00000000000E+00 0.  1.
         13    1    5    5    0    0 -0.14607386922E+03 -0.35413816768E+03  0.84098095511E+03  0.92412141190E+03  0.00000000000E+00 0. -1.
        -13    1    5    5    0    0 -0.13153120788E+03 -0.29443821029E+03  0.52367667826E+03  0.61500535094E+03  0.00000000000E+00 0.  1.
          3    1    6    6  503    0 -0.22755665385E+03  0.40922316922E+02  0.38094422657E+02  0.23432424495E+03  0.00000000000E+00 0. -1.
         -3    1    6    6    0  503 -0.51555229249E+02  0.60370160604E+02  0.18037504805E+02  0.81411605646E+02  0.00000000000E+00 0.  1.
<mgrwt>
<rscale>  0 0.20084029E+04</rscale>
<asrwt>0</asrwt>
<pdfrwt beam="1">  1        2 0.48689861E-01 0.20084029E+04</pdfrwt>
<pdfrwt beam="2">  1       -1 0.49020351E+00 0.20084029E+04</pdfrwt>
<totfact> 0.18908090E-01</totfact>
</mgrwt>
</event>
<event>
12    7  0.1698542E-007  0.1893927E+04  0.7818608E-02  0.8657885E-01
         -1   -1    0    0    0  501 -0.00000000000E+00  0.00000000000E+00  0.19719549497E+03  0.19719549497E+03  0.00000000000E+00 0.  1.
          2   -1    0    0  501    0  0.00000000000E+00 -0.00000000000E+00 -0.45474657950E+04  0.45474657950E+04  0.00000000000E+00 0. -1.
         24    2    1    2    0    0 -0.55368815592E+02 -0.21546528452E+03  0.54124894527E+02  0.24244200495E+03  0.79734728836E+02 0.  0.
        254    2    1    2    0    0  0.55368815592E+02  0.21546528452E+03 -0.44043951945E+04  0.45022192850E+04  0.90652659421E+03 0.  0.
         23    2    4    4    0    0 -0.34165027530E+03 -0.26643483217E+02 -0.92025030877E+03  0.98599713254E+03  0.88853411686E+02 0.  0.
         23    2    4    4    0    0  0.39701909090E+03  0.24210876774E+03 -0.34841448858E+04  0.35162221525E+04  0.91169219135E+02 0.  0.
          2    1    3    3  502    0  0.64541362402E+01 -0.62935699367E+01  0.19647996511E+02  0.21617323240E+02  0.00000000000E+00 0. -1.
         -1    1    3    3    0  502 -0.61822951832E+02 -0.20917171458E+03  0.34476898017E+02  0.22082468171E+03  0.00000000000E+00 0.  1.
         13    1    5    5    0    0 -0.24553034219E+03  0.15076379454E+02 -0.58092399746E+03  0.63086063197E+03  0.00000000000E+00 0. -1.
        -13    1    5    5    0    0 -0.96119933113E+02 -0.41719862671E+02 -0.33932631131E+03  0.35513650056E+03  0.00000000000E+00 0.  1.
          4    1    6    6  503    0  0.22243847389E+03  0.82362600840E+02 -0.17656197451E+04  0.17814812816E+04  0.00000000000E+00 0. -1.
         -4    1    6    6    0  503  0.17458061701E+03  0.15974616690E+03 -0.17185251407E+04  0.17347408708E+04  0.00000000000E+00 0.  1.
<mgrwt>
<rscale>  0 0.18939269E+04</rscale>
<asrwt>0</asrwt>
<pdfrwt beam="1">  1        2 0.69961006E+00 0.18939269E+04</pdfrwt>
<pdfrwt beam="2">  1       -1 0.30337771E-01 0.18939269E+04</pdfrwt>
<totfact> 0.12030406E+00</totfact>
</mgrwt>
</event>
<event>
12    7  0.1698542E-007  0.2416554E+04  0.7818608E-02  0.8433332E-01
          2   -1    0    0  501    0  0.00000000000E+00  0.00000000000E+00  0.32650975034E+04  0.32650975034E+04  0.00000000000E+00 0. -1.
         -1   -1    0    0    0  501 -0.00000000000E+00 -0.00000000000E+00 -0.44713326889E+03  0.44713326889E+03  0.00000000000E+00 0.  1.
         24    2    1    2    0    0 -0.94921231443E+03 -0.40897776936E+03  0.12581407980E+04  0.16302046265E+04  0.79887564102E+02 0.  0.
        254    2    1    2    0    0  0.94921231443E+03  0.40897776936E+03  0.15598234364E+04  0.20820261457E+04  0.91297145905E+03 0.  0.
         23    2    4    4    0    0  0.61127569781E+03  0.25747695792E+03  0.15622100892E+04  0.16996660553E+04  0.91716813790E+02 0.  0.
         23    2    4    4    0    0  0.33793661662E+03  0.15150081144E+03 -0.23866527953E+01  0.38236009049E+03  0.95078335945E+02 0.  0.
          4    1    3    3  502    0 -0.94203592337E+03 -0.39644516928E+03  0.12371282112E+04  0.16047076569E+04  0.00000000000E+00 0. -1.
         -3    1    3    3    0  502 -0.71763910556E+01 -0.12532600089E+02  0.21012586805E+02  0.25496969580E+02  0.00000000000E+00 0.  1.
         13    1    5    5    0    0  0.41639207971E+03  0.21301645924E+03  0.10325475252E+04  0.11335399277E+04  0.00000000000E+00 0.  1.
        -13    1    5    5    0    0  0.19488361810E+03  0.44460498686E+02  0.52966256404E+03  0.56612612755E+03  0.00000000000E+00 0. -1.
          1    1    6    6  503    0  0.82682780813E+02  0.27681061181E+02  0.39250731126E+02  0.95620621651E+02  0.00000000000E+00 0. -1.
         -1    1    6    6    0  503  0.25525383581E+03  0.12381975026E+03 -0.41637383921E+02  0.28673946884E+03  0.00000000000E+00 0.  1.
<mgrwt>
<rscale>  0 0.24165543E+04</rscale>
<asrwt>0</asrwt>
<pdfrwt beam="1">  1        2 0.50232268E+00 0.24165543E+04</pdfrwt>
<pdfrwt beam="2">  1       -1 0.68789736E-01 0.24165543E+04</pdfrwt>
<totfact> 0.25691732E+00</totfact>
</mgrwt>
</event>
<event>
12    7  0.1698542E-007  0.1164906E+04  0.7818608E-02  0.9144141E-01
          2   -1    0    0  501    0  0.00000000000E+00  0.00000000000E+00  0.12873187569E+04  0.12873187569E+04  0.00000000000E+00 0. -1.
         -1   -1    0    0    0  501 -0.00000000000E+00 -0.00000000000E+00 -0.26353356099E+03  0.26353356099E+03  0.00000000000E+00 0.  1.
         24    2    1    2    0    0  0.94030976004E+02  0.23195745239E+03  0.61902133272E+01  0.26189851229E+03  0.76853287702E+02 0.  0.
        254    2    1    2    0    0 -0.94030976004E+02 -0.23195745239E+03  0.10175949826E+04  0.12889538056E+04  0.75050401747E+03 0.  0.
         23    2    4    4    0    0  0.14037724513E+03 -0.33924116173E+03  0.92681490951E+03  0.10002803849E+04  0.82368896552E+02 0.  0.
         23    2    4    4    0    0 -0.23440822113E+03  0.10728370934E+03  0.90780073122E+02  0.28867342077E+03  0.92921008157E+02 0.  0.
          2    1    3    3  502    0  0.16227644710E+02  0.12027296531E+02  0.19708122003E+02  0.28220602183E+02  0.00000000000E+00 0. -1.
         -1    1    3    3    0  502  0.77803331293E+02  0.21993015586E+03 -0.13517908676E+02  0.23367791011E+03  0.00000000000E+00 0.  1.
         13    1    5    5    0    0 -0.14107887169E+01 -0.85301699408E+02  0.20026464970E+03  0.21767935173E+03  0.00000000000E+00 0. -1.
        -13    1    5    5    0    0  0.14178803385E+03 -0.25393946232E+03  0.72655025981E+03  0.78260103315E+03  0.00000000000E+00 0.  1.
          3    1    6    6  503    0 -0.94747199504E+01  0.33687770169E+02 -0.53963194588E+00  0.34998962552E+02  0.00000000000E+00 0. -1.
         -3    1    6    6    0  503 -0.22493350118E+03  0.73595939168E+02  0.91319705068E+02  0.25367445821E+03  0.00000000000E+00 0.  1.
<mgrwt>
<rscale>  0 0.11649063E+04</rscale>
<asrwt>0</asrwt>
<pdfrwt beam="1">  1        2 0.19804904E+00 0.11649063E+04</pdfrwt>
<pdfrwt beam="2">  1       -1 0.40543625E-01 0.11649063E+04</pdfrwt>
<totfact> 0.11255205E+02</totfact>
</mgrwt>
</event>
<event>
12    7  0.1698542E-007  0.3085465E+04  0.7818608E-02  0.8219738E-01
          2   -1    0    0  501    0  0.00000000000E+00  0.00000000000E+00  0.20339620739E+04  0.20339620739E+04  0.00000000000E+00 0. -1.
         -1   -1    0    0    0  501 -0.00000000000E+00 -0.00000000000E+00 -0.11701417754E+04  0.11701417754E+04  0.00000000000E+00 0.  1.
         24    2    1    2    0    0 -0.14088488256E+03 -0.13618037571E+04  0.80589206868E+03  0.15906750320E+04  0.80168624224E+02 0.  0.
        254    2    1    2    0    0  0.14088488256E+03  0.13618037571E+04  0.57928229811E+02  0.16134288172E+04  0.85172697820E+03 0.  0.
         23    2    4    4    0    0  0.19714063416E+03  0.61866537919E+03  0.42054695284E+03  0.77900390681E+03  0.91520851307E+02 0.  0.
         23    2    4    4    0    0 -0.56255751600E+02  0.74313837787E+03 -0.36261872303E+03  0.83442491036E+03  0.96712121740E+02 0.  0.
          2    1    3    3  502    0 -0.11988645561E+03 -0.13106436146E+04  0.77346012470E+03  0.15265647746E+04  0.00000000000E+00 0. -1.
         -1    1    3    3    0  502 -0.20998426952E+02 -0.51160142487E+02  0.32431943989E+02  0.64110257406E+02  0.00000000000E+00 0.  1.
         13    1    5    5    0    0  0.12043590529E+03  0.49173400126E+03  0.34424848883E+03  0.61222067700E+03  0.00000000000E+00 0.  1.
        -13    1    5    5    0    0  0.76704728875E+02  0.12693137793E+03  0.76298464012E+02  0.16678322981E+03  0.00000000000E+00 0. -1.
          1    1    6    6  503    0 -0.69277433177E+02  0.36868805791E+03 -0.15340255383E+03  0.40529321524E+03  0.00000000000E+00 0. -1.
         -1    1    6    6    0  503  0.13021681578E+02  0.37445031995E+03 -0.20921616921E+03  0.42913169513E+03  0.00000000000E+00 0.  1.
<mgrwt>
<rscale>  0 0.30854653E+04</rscale>
<asrwt>0</asrwt>
<pdfrwt beam="1">  1        2 0.31291724E+00 0.30854653E+04</pdfrwt>
<pdfrwt beam="2">  1       -1 0.18002181E+00 0.30854653E+04</pdfrwt>
<totfact> 0.12865677E+00</totfact>
</mgrwt>
</event>
<event>
12    7  0.1698542E-007  0.1099829E+04  0.7818608E-02  0.9205359E-01
         -1   -1    0    0    0  501 -0.00000000000E+00  0.00000000000E+00  0.55356798887E+03  0.55356798887E+03  0.00000000000E+00 0.  1.
          2   -1    0    0  501    0  0.00000000000E+00 -0.00000000000E+00 -0.54628503708E+03  0.54628503708E+03  0.00000000000E+00 0. -1.
         24    2    1    2    0    0  0.48254289242E+02 -0.81401796747E+02  0.14456113198E+03  0.18978960373E+03  0.78533074946E+02 0.  0.
        254    2    1    2    0    0 -0.48254289242E+02  0.81401796747E+02 -0.13727818019E+03  0.91006342223E+03  0.89465937919E+03 0.  0.
         23    2    4    4    0    0 -0.41215337785E+03 -0.89781527227E+02  0.87585157499E+02  0.44040798363E+03  0.91416096617E+02 0.  0.
         23    2    4    4    0    0  0.36389908861E+03  0.17118332397E+03 -0.22486333769E+03  0.46965543860E+03  0.91029848250E+02 0.  0.
          4    1    3    3  502    0  0.32740347025E+02 -0.92924339540E+02  0.96155309042E+02  0.13766882966E+03  0.00000000000E+00 0. -1.
         -3    1    3    3    0  502  0.15513942216E+02  0.11522542793E+02  0.48405822938E+02  0.52120774071E+02  0.00000000000E+00 0.  1.
         13    1    5    5    0    0 -0.20845995132E+03 -0.77379942690E+02  0.79615616822E+02  0.23618182249E+03  0.00000000000E+00 0.  1.
        -13    1    5    5    0    0 -0.20369342653E+03 -0.12401584538E+02  0.79695406772E+01  0.20422616113E+03  0.00000000000E+00 0. -1.
          4    1    6    6  503    0  0.19832259518E+03  0.13403082137E+03 -0.16035476294E+03  0.28811414896E+03  0.00000000000E+00 0. -1.
         -4    1    6    6    0  503  0.16557649344E+03  0.37152502604E+02 -0.64508574751E+02  0.18154128964E+03  0.00000000000E+00 0.  1.
<mgrwt>
<rscale>  0 0.10998289E+04</rscale>
<asrwt>0</asrwt>
<pdfrwt beam="1">  1        2 0.84043852E-01 0.10998289E+04</pdfrwt>
<pdfrwt beam="2">  1       -1 0.85164306E-01 0.10998289E+04</pdfrwt>
<totfact> 0.85931430E+01</totfact>
</mgrwt>
</event>
<event>
12    7  0.1698542E-007  0.4170007E+04  0.7818608E-02  0.7971102E-01
          2   -1    0    0  501    0  0.00000000000E+00  0.00000000000E+00  0.25052750680E+04  0.25052750680E+04  0.00000000000E+00 0. -1.
         -1   -1    0    0    0  501 -0.00000000000E+00 -0.00000000000E+00 -0.17352342956E+04  0.17352342956E+04  0.00000000000E+00 0.  1.
         24    2    1    2    0    0  0.18529201287E+04  0.72032680067E+03  0.48330040165E+03  0.20474993512E+04  0.80564334083E+02 0.  0.
        254    2    1    2    0    0 -0.18529201287E+04 -0.72032680067E+03  0.28674037066E+03  0.21930100124E+04  0.88027789438E+03 0.  0.
         23    2    4    4    0    0 -0.83722345718E+03 -0.65835510292E+03  0.44746225679E+03  0.11586690706E+04  0.88977441484E+02 0.  0.
         23    2    4    4    0    0 -0.10156966715E+04 -0.61971697753E+02 -0.16072188613E+03  0.10343409418E+04  0.92463178811E+02 0.  0.
          2    1    3    3  502    0  0.17676959470E+04  0.70080849822E+03  0.47276905660E+03  0.19594366775E+04  0.00000000000E+00 0. -1.
         -3    1    3    3    0  502  0.85224181685E+02  0.19518302455E+02  0.10531345052E+02  0.88062673723E+02  0.00000000000E+00 0.  1.
         13    1    5    5    0    0  0.11079346834E+01 -0.15812540974E+01  0.51557104665E+01  0.55053822935E+01  0.00000000000E+00 0. -1.
        -13    1    5    5    0    0 -0.83833139186E+03 -0.65677384882E+03  0.44230654633E+03  0.11531636883E+04  0.00000000000E+00 0.  1.
          4    1    6    6  503    0 -0.74995007587E+03 -0.71903530632E+02 -0.87108418795E+02  0.75840827437E+03  0.00000000000E+00 0. -1.
         -4    1    6    6    0  503 -0.26574659561E+03  0.99318328788E+01 -0.73613467333E+02  0.27593266743E+03  0.00000000000E+00 0.  1.
<mgrwt>
<rscale>  0 0.41700068E+04</rscale>
<asrwt>0</asrwt>
<pdfrwt beam="1">  1        2 0.38542693E+00 0.41700068E+04</pdfrwt>
<pdfrwt beam="2">  1       -1 0.26695912E+00 0.41700068E+04</pdfrwt>
<totfact> 0.16532834E-01</totfact>
</mgrwt>
</event>
<event>
12    7  0.1698542E-007  0.1702087E+04  0.7818608E-02  0.8760175E-01
         -1   -1    0    0    0  501 -0.00000000000E+00  0.00000000000E+00  0.31468496105E+03  0.31468496105E+03  0.00000000000E+00 0.  1.
          2   -1    0    0  501    0  0.00000000000E+00 -0.00000000000E+00 -0.23015873058E+04  0.23015873058E+04  0.00000000000E+00 0. -1.
         24    2    1    2    0    0 -0.57174381757E+02  0.56046234792E+03 -0.10713741085E+04  0.12143969405E+04  0.97624255742E+02 0.  0.
        254    2    1    2    0    0  0.57174381757E+02 -0.56046234792E+03 -0.91552823629E+03  0.14018753264E+04  0.89981971860E+03 0.  0.
         23    2    4    4    0    0  0.28138962156E+02 -0.26225259612E+03  0.13188496711E+03  0.30857512238E+03  0.90866584839E+02 0.  0.
         23    2    4    4    0    0  0.29035419601E+02 -0.29820975181E+03 -0.10474132034E+04  0.10933002040E+04  0.91971766429E+02 0.  0.
          2    1    3    3  502    0 -0.49451604294E+02  0.13955091484E+03 -0.33328817201E+03  0.36469291822E+03  0.00000000000E+00 0. -1.
         -1    1    3    3    0  502 -0.77227774625E+01  0.42091143309E+03 -0.73808593648E+03  0.84970402224E+03  0.00000000000E+00 0.  1.
         13    1    5    5    0    0 -0.58371645912E+01 -0.22222774063E+02 -0.12757455566E+02  0.26280731536E+02  0.00000000000E+00 0.  1.
        -13    1    5    5    0    0  0.33976126747E+02 -0.24002982205E+03  0.14464242268E+03  0.28229439084E+03  0.00000000000E+00 0. -1.
          4    1    6    6  503    0 -0.12513895640E+02 -0.19538637658E+03 -0.55403278968E+03  0.58760936496E+03  0.00000000000E+00 0.  1.
         -4    1    6    6    0  503  0.41549315241E+02 -0.10282337522E+03 -0.49338041371E+03  0.50569083908E+03  0.00000000000E+00 0. -1.
<mgrwt>
<rscale>  0 0.17020869E+04</rscale>
<asrwt>0</asrwt>
<pdfrwt beam="1">  1        2 0.35409036E+00 0.17020869E+04</pdfrwt>
<pdfrwt beam="2">  1       -1 0.48413071E-01 0.17020869E+04</pdfrwt>
<totfact> 0.20936012E+01</totfact>
</mgrwt>
</event>
<event>
12    7  0.1698542E-007  0.2276138E+04  0.7818608E-02  0.8487389E-01
          2   -1    0    0  501    0  0.00000000000E+00  0.00000000000E+00  0.26154633090E+04  0.26154633090E+04  0.00000000000E+00 0. -1.
         -1   -1    0    0    0  501 -0.00000000000E+00 -0.00000000000E+00 -0.49520914556E+03  0.49520914556E+03  0.00000000000E+00 0.  1.
         24    2    1    2    0    0 -0.75328031117E+03  0.52147023564E+03  0.50625985843E+03  0.10497956493E+04  0.80058897763E+02 0.  0.
        254    2    1    2    0    0  0.75328031117E+03 -0.52147023564E+03  0.16139943050E+04  0.20608768053E+04  0.89603189461E+03 0.  0.
         23    2    4    4    0    0  0.40329282505E+03 -0.70035969774E+03  0.74760228447E+03  0.11050578178E+04  0.95366639788E+02 0.  0.
         23    2    4    4    0    0  0.34998748612E+03  0.17888946210E+03  0.86639202057E+03  0.95581898752E+03  0.91989801136E+02 0.  0.
          2    1    3    3  502    0 -0.85921017841E+02  0.57929602670E+02  0.29671356380E+02  0.10778983979E+03  0.00000000000E+00 0. -1.
         -1    1    3    3    0  502 -0.66735929333E+03  0.46354063297E+03  0.47658850205E+03  0.94200580948E+03  0.00000000000E+00 0.  1.
         13    1    5    5    0    0  0.12030590468E+03 -0.13347089707E+03  0.18148016152E+03  0.25538801869E+03  0.00000000000E+00 0. -1.
        -13    1    5    5    0    0  0.28298692036E+03 -0.56688880067E+03  0.56612212295E+03  0.84966979911E+03  0.00000000000E+00 0.  1.
          4    1    6    6  503    0  0.76755903496E+02  0.74655346809E+02  0.29714927797E+03  0.31585215359E+03  0.00000000000E+00 0. -1.
         -4    1    6    6    0  503  0.27323158262E+03  0.10423411529E+03  0.56924274260E+03  0.63996683393E+03  0.00000000000E+00 0.  1.
<mgrwt>
<rscale>  0 0.22761383E+04</rscale>
<asrwt>0</asrwt>
<pdfrwt beam="1">  1        2 0.40237896E+00 0.22761383E+04</pdfrwt>
<pdfrwt beam="2">  1       -1 0.76186024E-01 0.22761383E+04</pdfrwt>
<totfact> 0.53291379E+00</totfact>
</mgrwt>
</event>
<event>
12    7  0.1698542E-007  0.1663892E+04  0.7818608E-02  0.8782230E-01
         -3   -1    0    0    0  501 -0.00000000000E+00  0.00000000000E+00  0.14250262119E+04  0.14250262119E+04  0.00000000000E+00 0.  1.
          4   -1    0    0  501    0  0.00000000000E+00 -0.00000000000E+00 -0.48569926704E+03  0.48569926704E+03  0.00000000000E+00 0. -1.
         24    2    1    2    0    0 -0.50817621199E+03 -0.27121513779E+03  0.38904908889E+03  0.69979108045E+03  0.80917546395E+02 0.  0.
        254    2    1    2    0    0  0.50817621199E+03  0.27121513779E+03  0.55027785600E+03  0.12109343985E+04  0.91200640640E+03 0.  0.
         23    2    4    4    0    0  0.61500485439E+02  0.37296950514E+03  0.62599754922E+03  0.73739702909E+03  0.94830825175E+02 0.  0.
         23    2    4    4    0    0  0.44667572655E+03 -0.10175436735E+03 -0.75719693225E+02  0.47353736943E+03  0.92903241838E+02 0.  0.
          2    1    3    3  502    0 -0.57865991489E+02 -0.16809104579E+02  0.16806515440E+02  0.62557796708E+02  0.00000000000E+00 0. -1.
         -1    1    3    3    0  502 -0.45031022050E+03 -0.25440603321E+03  0.37224257345E+03  0.63723328374E+03  0.00000000000E+00 0.  1.
         13    1    5    5    0    0  0.34399395012E+02  0.32731005872E+03  0.58125954658E+03  0.66796545824E+03  0.00000000000E+00 0. -1.
        -13    1    5    5    0    0  0.27101090427E+02  0.45659446419E+02  0.44738002646E+02  0.69431570848E+02  0.00000000000E+00 0.  1.
          3    1    6    6  503    0  0.28758294968E+03 -0.72731673041E+02 -0.40905610693E+01  0.29666577474E+03  0.00000000000E+00 0. -1.
         -3    1    6    6    0  503  0.15909277687E+03 -0.29022694305E+02 -0.71629132156E+02  0.17687159469E+03  0.00000000000E+00 0.  1.
<mgrwt>
<rscale>  0 0.16638920E+04</rscale>
<asrwt>0</asrwt>
<pdfrwt beam="1">  1        4 0.74722964E-01 0.16638920E+04</pdfrwt>
<pdfrwt beam="2">  1       -3 0.21923480E+00 0.16638920E+04</pdfrwt>
<totfact> 0.39376852E-01</totfact>
</mgrwt>
</event>
<event>
12    7  0.1698542E-007  0.3461127E+04  0.7818608E-02  0.8123065E-01
          2   -1    0    0  501    0  0.00000000000E+00  0.00000000000E+00  0.30344655120E+04  0.30344655120E+04  0.00000000000E+00 0. -1.
         -1   -1    0    0    0  501 -0.00000000000E+00 -0.00000000000E+00 -0.98694470794E+03  0.98694470794E+03  0.00000000000E+00 0.  1.
         24    2    1    2    0    0 -0.15556802276E+04 -0.82886638284E+02  0.14322516377E+04  0.21180250624E+04  0.87602773548E+02 0.  0.
        254    2    1    2    0    0  0.15556802276E+04  0.82886638284E+02  0.61526916642E+03  0.19033851576E+04  0.90405074277E+03 0.  0.
         23    2    4    4    0    0  0.54077631815E+03 -0.25436236210E+03 -0.10096694078E+03  0.61296003797E+03  0.91577549077E+02 0.  0.
         23    2    4    4    0    0  0.10149039095E+04  0.33724900038E+03  0.71623610720E+03  0.12904251196E+04  0.91847669131E+02 0.  0.
          2    1    3    3  502    0 -0.14908758619E+04 -0.88402058482E+02  0.13915026619E+04  0.20412754390E+04  0.00000000000E+00 0. -1.
         -1    1    3    3    0  502 -0.64804365670E+02  0.55154201980E+01  0.40748975782E+02  0.76749623433E+02  0.00000000000E+00 0.  1.
         13    1    5    5    0    0  0.37863025255E+03 -0.15412903276E+03 -0.10581925535E+03  0.42227282850E+03  0.00000000000E+00 0. -1.
        -13    1    5    5    0    0  0.16214606559E+03 -0.10023332934E+03  0.48523145656E+01  0.19068720947E+03  0.00000000000E+00 0.  1.
          3    1    6    6  503    0  0.83823898489E+03  0.26125400795E+03  0.62381849776E+03  0.10770551381E+04  0.00000000000E+00 0. -1.
         -3    1    6    6    0  503  0.17666492458E+03  0.75994992434E+02  0.92417609441E+02  0.21336998145E+03  0.00000000000E+00 0.  1.
<mgrwt>
<rscale>  0 0.34611268E+04</rscale>
<asrwt>0</asrwt>
<pdfrwt beam="1">  1        2 0.46684085E+00 0.34611268E+04</pdfrwt>
<pdfrwt beam="2">  1       -1 0.15183765E+00 0.34611268E+04</pdfrwt>
<totfact> 0.52302142E-01</totfact>
</mgrwt>
</event>
<event>
12    7  0.1698542E-007  0.1386685E+04  0.7818608E-02  0.8963514E-01
         -3   -1    0    0    0  501 -0.00000000000E+00  0.00000000000E+00  0.13080723798E+04  0.13080723798E+04  0.00000000000E+00 0.  1.
          2   -1    0    0  501    0  0.00000000000E+00 -0.00000000000E+00 -0.36750536202E+03  0.36750536202E+03  0.00000000000E+00 0. -1.
         24    2    1    2    0    0  0.12538268703E+03  0.21491821861E+03 -0.95933756777E+02  0.27750056079E+03  0.76763380931E+02 0.  0.
        254    2    1    2    0    0 -0.12538268703E+03 -0.21491821861E+03  0.10365007746E+04  0.13980771811E+04  0.90464097274E+03 0.  0.
         23    2    4    4    0    0 -0.44893145057E+03 -0.34486512774E+03  0.56894259312E+03  0.80782996491E+03  0.91772404865E+02 0.  0.
         23    2    4    4    0    0  0.32354876353E+03  0.12994690913E+03  0.46755818147E+03  0.59024721615E+03  0.90615238963E+02 0.  0.
          4    1    3    3  502    0  0.10330746742E+03  0.14819924878E+03 -0.10112896698E+03  0.20703264991E+03  0.00000000000E+00 0. -1.
         -3    1    3    3    0  502  0.22075219611E+02  0.66718969827E+02  0.51952101995E+01  0.70467910886E+02  0.00000000000E+00 0.  1.
         13    1    5    5    0    0 -0.24202928490E+03 -0.12817775546E+03  0.26887653493E+03  0.38379982123E+03  0.00000000000E+00 0.  1.
        -13    1    5    5    0    0 -0.20690216567E+03 -0.21668737228E+03  0.30006605819E+03  0.42403014367E+03  0.00000000000E+00 0. -1.
          4    1    6    6  503    0  0.22970652003E+03  0.12158219454E+03  0.38763599034E+03  0.46670009255E+03  0.00000000000E+00 0. -1.
         -4    1    6    6    0  503  0.93842243498E+02  0.83647145942E+01  0.79922191129E+02  0.12354712360E+03  0.00000000000E+00 0.  1.
<mgrwt>
<rscale>  0 0.13866847E+04</rscale>
<asrwt>0</asrwt>
<pdfrwt beam="1">  1        2 0.56539287E-01 0.13866847E+04</pdfrwt>
<pdfrwt beam="2">  1       -3 0.20124190E+00 0.13866847E+04</pdfrwt>
<totfact> 0.76509254E+00</totfact>
</mgrwt>
</event>
<event>
12    7  0.1698542E-007  0.2170764E+04  0.7818608E-02  0.8530696E-01
          2   -1    0    0  501    0  0.00000000000E+00  0.00000000000E+00  0.81495400636E+03  0.81495400636E+03  0.00000000000E+00 0. -1.
         -1   -1    0    0    0  501 -0.00000000000E+00 -0.00000000000E+00 -0.14455472084E+04  0.14455472084E+04  0.00000000000E+00 0.  1.
         24    2    1    2    0    0  0.67252278286E+03  0.49141102416E+03 -0.60485458615E+03  0.10324071766E+04  0.79017844604E+02 0.  0.
        254    2    1    2    0    0 -0.67252278286E+03 -0.49141102416E+03 -0.25738615894E+02  0.12280940382E+04  0.90209800027E+03 0.  0.
         23    2    4    4    0    0 -0.48928980116E+03 -0.40436141498E+03 -0.42602667744E+03  0.77002002237E+03  0.92300820812E+02 0.  0.
         23    2    4    4    0    0 -0.18323298170E+03 -0.87049609180E+02  0.40028806155E+03  0.45807401579E+03  0.91920137513E+02 0.  0.
          2    1    3    3  502    0  0.15953768005E+03  0.15863746367E+03 -0.17320301641E+03  0.28393203611E+03  0.00000000000E+00 0. -1.
         -1    1    3    3    0  502  0.51298510281E+03  0.33277356048E+03 -0.43165156975E+03  0.74847514049E+03  0.00000000000E+00 0.  1.
         13    1    5    5    0    0 -0.58402450316E+02 -0.80021109357E+02 -0.94770333038E+02  0.13709719242E+03  0.00000000000E+00 0. -1.
        -13    1    5    5    0    0 -0.43088735084E+03 -0.32434030562E+03 -0.33125634440E+03  0.63292282995E+03  0.00000000000E+00 0.  1.
          2    1    6    6  503    0 -0.82861481190E+02 -0.67887214501E+02  0.12605914233E+03  0.16542553105E+03  0.00000000000E+00 0. -1.
         -2    1    6    6    0  503 -0.10037150051E+03 -0.19162394679E+02  0.27422891922E+03  0.29264848474E+03  0.00000000000E+00 0.  1.
<mgrwt>
<rscale>  0 0.21707644E+04</rscale>
<asrwt>0</asrwt>
<pdfrwt beam="1">  1        2 0.12537754E+00 0.21707644E+04</pdfrwt>
<pdfrwt beam="2">  1       -1 0.22239188E+00 0.21707644E+04</pdfrwt>
<totfact> 0.37256046E+00</totfact>
</mgrwt>
</event>
<event>
12    7  0.1698542E-007  0.1885291E+04  0.7818608E-02  0.8662213E-01
          2   -1    0    0  501    0  0.00000000000E+00  0.00000000000E+00  0.91948097689E+03  0.91948097689E+03  0.00000000000E+00 0. -1.
         -1   -1    0    0    0  501 -0.00000000000E+00 -0.00000000000E+00 -0.96639328825E+03  0.96639328825E+03  0.00000000000E+00 0.  1.
         24    2    1    2    0    0  0.48746337612E+03  0.42565872099E+03 -0.32240134724E+03  0.72732556894E+03  0.79082012604E+02 0.  0.
        254    2    1    2    0    0 -0.48746337612E+03 -0.42565872099E+03  0.27548903588E+03  0.11585486962E+04  0.92061663182E+03 0.  0.
         23    2    4    4    0    0 -0.24887420127E+03 -0.68727015899E+03  0.28573970365E+03  0.79021012781E+03  0.92229216372E+02 0.  0.
         23    2    4    4    0    0 -0.23858917485E+03  0.26161143800E+03 -0.10250667765E+02  0.36833856840E+03  0.10100933586E+03 0.  0.
          2    1    3    3  502    0  0.18879928573E+03  0.12147622363E+03 -0.13208888963E+03  0.26047863245E+03  0.00000000000E+00 0. -1.
         -1    1    3    3    0  502  0.29866409039E+03  0.30418249735E+03 -0.19031245761E+03  0.46684693649E+03  0.00000000000E+00 0.  1.
         13    1    5    5    0    0 -0.25476494782E+03 -0.64755543348E+03  0.26193401482E+03  0.74353389041E+03  0.00000000000E+00 0. -1.
        -13    1    5    5    0    0  0.58907465477E+01 -0.39714725515E+02  0.23805688824E+02  0.46676237402E+02  0.00000000000E+00 0.  1.
          3    1    6    6  503    0 -0.12193166686E+03  0.20363395192E+03  0.32514607529E+01  0.23737036410E+03  0.00000000000E+00 0. -1.
         -3    1    6    6    0  503 -0.11665750799E+03  0.57977486088E+02 -0.13502128518E+02  0.13096820430E+03  0.00000000000E+00 0.  1.
<mgrwt>
<rscale>  0 0.18852907E+04</rscale>
<asrwt>0</asrwt>
<pdfrwt beam="1">  1        2 0.14145861E+00 0.18852907E+04</pdfrwt>
<pdfrwt beam="2">  1       -1 0.14867589E+00 0.18852907E+04</pdfrwt>
<totfact> 0.10877025E+01</totfact>
</mgrwt>
</event>
<event>
12    7  0.1698542E-007  0.1414244E+04  0.7818608E-02  0.8943572E-01
          2   -1    0    0  501    0  0.00000000000E+00  0.00000000000E+00  0.75325750311E+03  0.75325750311E+03  0.00000000000E+00 0. -1.
         -1   -1    0    0    0  501 -0.00000000000E+00 -0.00000000000E+00 -0.66381220391E+03  0.66381220391E+03  0.00000000000E+00 0.  1.
         24    2    1    2    0    0  0.46471191003E+02  0.25587292173E+03  0.36028332423E+03  0.45115415997E+03  0.78137562503E+02 0.  0.
        254    2    1    2    0    0 -0.46471191003E+02 -0.25587292173E+03 -0.27083802503E+03  0.96591554705E+03  0.88994892244E+03 0.  0.
         23    2    4    4    0    0  0.39315240591E+03 -0.25490331040E+03 -0.15840692991E+03  0.50298962182E+03  0.91440102241E+02 0.  0.
         23    2    4    4    0    0 -0.43962359691E+03 -0.96961133425E+00 -0.11243109512E+03  0.46292592523E+03  0.91595927805E+02 0.  0.
          4    1    3    3  502    0  0.52272005789E+02  0.14972168765E+03  0.26265939410E+03  0.30682063759E+03  0.00000000000E+00 0. -1.
         -3    1    3    3    0  502 -0.58008147864E+01  0.10615123408E+03  0.97623930129E+02  0.14433352238E+03  0.00000000000E+00 0.  1.
         13    1    5    5    0    0  0.34398428047E+03 -0.19889111775E+03 -0.16023342931E+03  0.42843624240E+03  0.00000000000E+00 0. -1.
        -13    1    5    5    0    0  0.49168125436E+02 -0.56012192647E+02  0.18264993992E+01  0.74553379428E+02  0.00000000000E+00 0.  1.
          4    1    6    6  503    0 -0.39022836929E+03  0.11771779480E+02 -0.70125788859E+02  0.39665398177E+03  0.00000000000E+00 0. -1.
         -4    1    6    6    0  503 -0.49395227619E+02 -0.12741390814E+02 -0.42305306263E+02  0.66271943455E+02  0.00000000000E+00 0.  1.
<mgrwt>
<rscale>  0 0.14142440E+04</rscale>
<asrwt>0</asrwt>
<pdfrwt beam="1">  1        2 0.11588577E+00 0.14142440E+04</pdfrwt>
<pdfrwt beam="2">  1       -1 0.10212495E+00 0.14142440E+04</pdfrwt>
<totfact> 0.37612109E+01</totfact>
</mgrwt>
</event>
<event>
12    7  0.1698542E-007  0.1408613E+04  0.7818608E-02  0.8947608E-01
          2   -1    0    0  501    0  0.00000000000E+00  0.00000000000E+00  0.90566994737E+03  0.90566994737E+03  0.00000000000E+00 0. -1.
         -1   -1    0    0    0  501 -0.00000000000E+00 -0.00000000000E+00 -0.54771315273E+03  0.54771315273E+03  0.00000000000E+00 0.  1.
         24    2    1    2    0    0 -0.27230017890E+03  0.13140707812E+03  0.39323923624E+03  0.50244254116E+03  0.79976262931E+02 0.  0.
        254    2    1    2    0    0  0.27230017890E+03 -0.13140707812E+03 -0.35282441604E+02  0.95094055895E+03  0.90090392849E+03 0.  0.
         23    2    4    4    0    0  0.11362927109E+03 -0.40804472525E+03 -0.29921283657E+03  0.52657472154E+03  0.91326374804E+02 0.  0.
         23    2    4    4    0    0  0.15867090780E+03  0.27663764713E+03  0.26393039497E+03  0.42436583742E+03  0.93393071403E+02 0.  0.
          4    1    3    3  502    0 -0.13353961889E+03  0.10860303846E+03  0.21639680423E+03  0.27650502103E+03  0.00000000000E+00 0. -1.
         -3    1    3    3    0  502 -0.13876056001E+03  0.22804039668E+02  0.17684243201E+03  0.22593752012E+03  0.00000000000E+00 0.  1.
         13    1    5    5    0    0 -0.79826240772E+01 -0.50200311313E+02 -0.12946155697E+02  0.52453755732E+02  0.00000000000E+00 0.  1.
        -13    1    5    5    0    0  0.12161189517E+03 -0.35784441394E+03 -0.28626668088E+03  0.47412096580E+03  0.00000000000E+00 0. -1.
          3    1    6    6  503    0  0.61440191590E+02  0.19782022797E+03  0.16443247473E+03  0.26447264222E+03  0.00000000000E+00 0. -1.
         -3    1    6    6    0  503  0.97230716214E+02  0.78817419154E+02  0.99497920243E+02  0.15989319520E+03  0.00000000000E+00 0.  1.
<mgrwt>
<rscale>  0 0.14086126E+04</rscale>
<asrwt>0</asrwt>
<pdfrwt beam="1">  1        2 0.13933384E+00 0.14086126E+04</pdfrwt>
<pdfrwt beam="2">  1       -1 0.84263562E-01 0.14086126E+04</pdfrwt>
<totfact> 0.45028576E+01</totfact>
</mgrwt>
</event>
<event>
12    7  0.1698542E-007  0.2649652E+04  0.7818608E-02  0.8351528E-01
          2   -1    0    0  501    0  0.00000000000E+00  0.00000000000E+00  0.33670517213E+04  0.33670517213E+04  0.00000000000E+00 0. -1.
         -1   -1    0    0    0  501 -0.00000000000E+00 -0.00000000000E+00 -0.52127637036E+03  0.52127637036E+03  0.00000000000E+00 0.  1.
         24    2    1    2    0    0 -0.27093168498E+03 -0.58434248964E+03 -0.17098640599E+03  0.67128560180E+03  0.80795327923E+02 0.  0.
        254    2    1    2    0    0  0.27093168498E+03  0.58434248964E+03  0.30167617569E+04  0.32170424898E+04  0.91304477454E+03 0.  0.
         23    2    4    4    0    0  0.45491088604E+02 -0.42067877907E+02  0.19700642006E+04  0.19732295649E+04  0.92966745338E+02 0.  0.
         23    2    4    4    0    0  0.22544059638E+03  0.62641036755E+03  0.10466975563E+04  0.12438129249E+04  0.91002235228E+02 0.  0.
          4    1    3    3  502    0 -0.16491794912E+02 -0.83239115344E+02 -0.41959248929E+02  0.94664186435E+02  0.00000000000E+00 0. -1.
         -1    1    3    3    0  502 -0.25443989007E+03 -0.50110337430E+03 -0.12902715707E+03  0.57662141536E+03  0.00000000000E+00 0.  1.
         13    1    5    5    0    0  0.43403696965E+02 -0.28531936566E+02  0.19332916785E+04  0.19339893139E+04  0.00000000000E+00 0.  1.
        -13    1    5    5    0    0  0.20873916393E+01 -0.13535941341E+02  0.36772522168E+02  0.39240250999E+02  0.00000000000E+00 0. -1.
          1    1    6    6  503    0  0.12515947517E+03  0.21974645778E+03  0.37951094697E+03  0.45605039064E+03  0.00000000000E+00 0. -1.
         -1    1    6    6    0  503  0.10028112120E+03  0.40666390977E+03  0.66718660932E+03  0.78776253429E+03  0.00000000000E+00 0.  1.
<mgrwt>
<rscale>  0 0.26496524E+04</rscale>
<asrwt>0</asrwt>
<pdfrwt beam="1">  1        2 0.51800794E+00 0.26496524E+04</pdfrwt>
<pdfrwt beam="2">  1       -1 0.80196367E-01 0.26496524E+04</pdfrwt>
<totfact> 0.15605534E+00</totfact>
</mgrwt>
</event>
<event>
12    7  0.1698542E-007  0.1925993E+04  0.7818608E-02  0.8642025E-01
         -1   -1    0    0    0  501 -0.00000000000E+00  0.00000000000E+00  0.45857729734E+03  0.45857729734E+03  0.00000000000E+00 0.  1.
          2   -1    0    0  501    0  0.00000000000E+00 -0.00000000000E+00 -0.20222602812E+04  0.20222602812E+04  0.00000000000E+00 0. -1.
         24    2    1    2    0    0 -0.56764775086E+03 -0.48074695152E+03 -0.71994898656E+03  0.10383338282E+04  0.80430062911E+02 0.  0.
        254    2    1    2    0    0  0.56764775086E+03  0.48074695152E+03 -0.84373399735E+03  0.14425037504E+04  0.90309933631E+03 0.  0.
         23    2    4    4    0    0  0.28637085454E+03  0.72295768676E+03 -0.64451672944E+03  0.10136959793E+04  0.86612012264E+02 0.  0.
         23    2    4    4    0    0  0.28127689631E+03 -0.24221073524E+03 -0.19921726791E+03  0.42880777116E+03  0.80036567306E+02 0.  0.
          4    1    3    3  502    0 -0.29762679773E+03 -0.20713546188E+03 -0.32037653647E+03  0.48386768379E+03  0.00000000000E+00 0. -1.
         -3    1    3    3    0  502 -0.27002095312E+03 -0.27361148964E+03 -0.39957245009E+03  0.55446614438E+03  0.00000000000E+00 0.  1.
         13    1    5    5    0    0  0.10146903980E+03  0.17244222676E+03 -0.13749337547E+03  0.24276885284E+03  0.00000000000E+00 0.  1.
        -13    1    5    5    0    0  0.18490181474E+03  0.55051546000E+03 -0.50702335396E+03  0.77092712643E+03  0.00000000000E+00 0. -1.
          1    1    6    6  503    0  0.20040185235E+03 -0.13714413063E+03 -0.15897908644E+03  0.29024776471E+03  0.00000000000E+00 0. -1.
         -1    1    6    6    0  503  0.80875043959E+02 -0.10506660460E+03 -0.40238181474E+02  0.13856000645E+03  0.00000000000E+00 0.  1.
<mgrwt>
<rscale>  0 0.19259934E+04</rscale>
<asrwt>0</asrwt>
<pdfrwt beam="1">  1        2 0.31111697E+00 0.19259934E+04</pdfrwt>
<pdfrwt beam="2">  1       -1 0.70550352E-01 0.19259934E+04</pdfrwt>
<totfact> 0.14028642E+01</totfact>
</mgrwt>
</event>
<event>
12    7  0.1698542E-007  0.2455586E+04  0.7818608E-02  0.8418981E-01
          2   -1    0    0  501    0  0.00000000000E+00  0.00000000000E+00  0.11765722387E+04  0.11765722387E+04  0.00000000000E+00 0. -1.
         -1   -1    0    0    0  501 -0.00000000000E+00 -0.00000000000E+00 -0.12812433814E+04  0.12812433814E+04  0.00000000000E+00 0.  1.
         24    2    1    2    0    0  0.84585558274E+03  0.39534819871E+03 -0.55252394810E+03  0.10876836282E+04  0.77466746143E+02 0.  0.
        254    2    1    2    0    0 -0.84585558274E+03 -0.39534819871E+03  0.44785280539E+03  0.13701319918E+04  0.89717204296E+03 0.  0.
         23    2    4    4    0    0 -0.69619942151E+03 -0.66415236409E+03  0.39528801772E+03  0.10442080393E+04  0.91245904765E+02 0.  0.
         23    2    4    4    0    0 -0.14965616123E+03  0.26880416538E+03  0.52564787678E+02  0.32592395254E+03  0.93865435686E+02 0.  0.
          4    1    3    3  502    0  0.15330896169E+03  0.89975902191E+02 -0.76298750147E+02  0.19344456566E+03  0.00000000000E+00 0. -1.
         -3    1    3    3    0  502  0.69254662105E+03  0.30537229652E+03 -0.47622519795E+03  0.89423906254E+03  0.00000000000E+00 0.  1.
         13    1    5    5    0    0 -0.59111358500E+03 -0.59162654395E+03  0.36765646859E+03  0.91356910892E+03  0.00000000000E+00 0. -1.
        -13    1    5    5    0    0 -0.10508583651E+03 -0.72525820145E+02  0.27631549127E+02  0.13063893037E+03  0.00000000000E+00 0.  1.
          1    1    6    6  503    0 -0.86702773090E+02  0.65680658821E+02  0.23631855382E+02  0.11130940838E+03  0.00000000000E+00 0. -1.
         -1    1    6    6    0  503 -0.62953388140E+02  0.20312350656E+03  0.28932932297E+02  0.21461454416E+03  0.00000000000E+00 0.  1.
<mgrwt>
<rscale>  0 0.24555858E+04</rscale>
<asrwt>0</asrwt>
<pdfrwt beam="1">  1        2 0.18101111E+00 0.24555858E+04</pdfrwt>
<pdfrwt beam="2">  1       -1 0.19711437E+00 0.24555858E+04</pdfrwt>
<totfact> 0.31456621E+00</totfact>
</mgrwt>
</event>
<event>
12    7  0.1698542E-007  0.1509772E+04  0.7818608E-02  0.8877980E-01
         -1   -1    0    0    0  501 -0.00000000000E+00  0.00000000000E+00  0.43548975738E+03  0.43548975738E+03  0.00000000000E+00 0.  1.
          2   -1    0    0  501    0  0.00000000000E+00 -0.00000000000E+00 -0.13085335406E+04  0.13085335406E+04  0.00000000000E+00 0. -1.
         24    2    1    2    0    0 -0.28204619836E+03  0.61234883666E+02 -0.78421554653E+03  0.83948560483E+03  0.80263866848E+02 0.  0.
        254    2    1    2    0    0  0.28204619836E+03 -0.61234883666E+02 -0.88828236658E+02  0.90453769312E+03  0.85264190236E+03 0.  0.
         23    2    4    4    0    0  0.14285178798E+03 -0.38077852308E+03  0.18126701114E+03  0.45420036085E+03  0.89673415819E+02 0.  0.
         23    2    4    4    0    0  0.13919441038E+03  0.31954363941E+03 -0.27009524780E+03  0.45033733226E+03  0.91482504194E+02 0.  0.
          2    1    3    3  502    0 -0.15749737837E+03  0.21934839276E+02 -0.53486426444E+03  0.55800209923E+03  0.00000000000E+00 0. -1.
         -1    1    3    3    0  502 -0.12454881999E+03  0.39300044390E+02 -0.24935128209E+03  0.28148350560E+03  0.00000000000E+00 0.  1.
         13    1    5    5    0    0  0.99640913732E+02 -0.32961570031E+03  0.12370543299E+03  0.36589322996E+03  0.00000000000E+00 0.  1.
        -13    1    5    5    0    0  0.43210874243E+02 -0.51162822767E+02  0.57561578158E+02  0.88307130892E+02  0.00000000000E+00 0. -1.
          2    1    6    6  503    0  0.63179209286E+02  0.19802477926E+03 -0.20823309433E+03  0.29422176544E+03  0.00000000000E+00 0. -1.
         -2    1    6    6    0  503  0.76015201096E+02  0.12151886016E+03 -0.61862153470E+02  0.15611556682E+03  0.00000000000E+00 0.  1.
<mgrwt>
<rscale>  0 0.15097721E+04</rscale>
<asrwt>0</asrwt>
<pdfrwt beam="1">  1        2 0.20131285E+00 0.15097721E+04</pdfrwt>
<pdfrwt beam="2">  1       -1 0.66998426E-01 0.15097721E+04</pdfrwt>
<totfact> 0.40593746E+01</totfact>
</mgrwt>
</event>
<event>
12    7  0.1698542E-007  0.1447473E+04  0.7818608E-02  0.8920154E-01
          2   -1    0    0  501    0  0.00000000000E+00  0.00000000000E+00  0.28328179145E+04  0.28328179145E+04  0.00000000000E+00 0. -1.
         -1   -1    0    0    0  501 -0.00000000000E+00 -0.00000000000E+00 -0.18490239521E+03  0.18490239521E+03  0.00000000000E+00 0.  1.
         24    2    1    2    0    0 -0.34046183078E+03  0.15751561787E+02  0.23147945176E+03  0.41948416461E+03  0.78878754143E+02 0.  0.
        254    2    1    2    0    0  0.34046183078E+03 -0.15751561787E+02  0.24164360675E+04  0.25982361451E+04  0.89191110954E+03 0.  0.
         23    2    4    4    0    0  0.40810154290E+03 -0.23815630114E+02  0.40075810953E+03  0.57942190981E+03  0.89490969723E+02 0.  0.
         23    2    4    4    0    0 -0.67639712113E+02  0.80640683267E+01  0.20156779580E+04  0.20188142353E+04  0.89516067789E+02 0.  0.
          4    1    3    3  502    0 -0.21052812541E+03  0.37598927395E+02  0.17413885748E+03  0.27578997918E+03  0.00000000000E+00 0. -1.
         -3    1    3    3    0  502 -0.12993370537E+03 -0.21847365608E+02  0.57340594283E+02  0.14369418544E+03  0.00000000000E+00 0.  1.
         13    1    5    5    0    0  0.13453728084E+02 -0.14477702099E+02  0.40153994271E+02  0.44754328431E+02  0.00000000000E+00 0. -1.
        -13    1    5    5    0    0  0.39464781481E+03 -0.93379280144E+01  0.36060411526E+03  0.53466758138E+03  0.00000000000E+00 0.  1.
          2    1    6    6  503    0  0.48544341386E+01  0.91257677156E+01  0.28541852489E+02  0.30355930405E+02  0.00000000000E+00 0. -1.
         -2    1    6    6    0  503 -0.72494146252E+02 -0.10616993889E+01  0.19871361055E+04  0.19884583049E+04  0.00000000000E+00 0.  1.
<mgrwt>
<rscale>  0 0.14474734E+04</rscale>
<asrwt>0</asrwt>
<pdfrwt beam="1">  1        2 0.43581811E+00 0.14474734E+04</pdfrwt>
<pdfrwt beam="2">  1       -1 0.28446524E-01 0.14474734E+04</pdfrwt>
<totfact> 0.27498377E+01</totfact>
</mgrwt>
</event>
<event>
12    7  0.1698542E-007  0.2238853E+04  0.7818608E-02  0.8502429E-01
         -1   -1    0    0    0  501 -0.00000000000E+00  0.00000000000E+00  0.12768063731E+04  0.12768063731E+04  0.00000000000E+00 0.  1.
          2   -1    0    0  501    0  0.00000000000E+00 -0.00000000000E+00 -0.98144496801E+03  0.98144496801E+03  0.00000000000E+00 0. -1.
         24    2    1    2    0    0  0.58444587631E+02  0.81978308926E+03 -0.30230592240E+03  0.87950741603E+03  0.81757818443E+02 0.  0.
        254    2    1    2    0    0 -0.58444587631E+02 -0.81978308926E+03  0.59766732751E+03  0.13787439251E+04  0.93180925805E+03 0.  0.
         23    2    4    4    0    0 -0.87807003968E+00 -0.91588119728E+03  0.17923348563E+03  0.93763896822E+03  0.90570711675E+02 0.  0.
         23    2    4    4    0    0 -0.57566517591E+02  0.96098108018E+02  0.41843384188E+03  0.44110495689E+03  0.83294373447E+02 0.  0.
          2    1    3    3  502    0  0.19767386864E+01  0.53723399980E+03 -0.21195806076E+03  0.57753830830E+03  0.00000000000E+00 0. -1.
         -1    1    3    3    0  502  0.56467848944E+02  0.28254908947E+03 -0.90347861637E+02  0.30196910773E+03  0.00000000000E+00 0.  1.
         13    1    5    5    0    0 -0.12345320217E+02 -0.68624811351E+03  0.17211117460E+03  0.70760945206E+03  0.00000000000E+00 0.  1.
        -13    1    5    5    0    0  0.11467250177E+02 -0.22963308377E+03  0.71223110297E+01  0.23002951615E+03  0.00000000000E+00 0. -1.
          2    1    6    6  503    0 -0.36699268267E+02 -0.30527997372E+01  0.14163215767E+03  0.14634146359E+03  0.00000000000E+00 0. -1.
         -2    1    6    6    0  503 -0.20867249324E+02  0.99150907755E+02  0.27680168421E+03  0.29476349331E+03  0.00000000000E+00 0.  1.
<mgrwt>
<rscale>  0 0.22388526E+04</rscale>
<asrwt>0</asrwt>
<pdfrwt beam="1">  1        2 0.15099153E+00 0.22388526E+04</pdfrwt>
<pdfrwt beam="2">  1       -1 0.19643175E+00 0.22388526E+04</pdfrwt>
<totfact> 0.42866038E+00</totfact>
</mgrwt>
</event>
<event>
12    7  0.1698542E-007  0.3196874E+04  0.7818608E-02  0.8189643E-01
          2   -1    0    0  501    0  0.00000000000E+00  0.00000000000E+00  0.24330340041E+04  0.24330340041E+04  0.00000000000E+00 0. -1.
         -1   -1    0    0    0  501 -0.00000000000E+00 -0.00000000000E+00 -0.10501295675E+04  0.10501295675E+04  0.00000000000E+00 0.  1.
         24    2    1    2    0    0  0.11178944660E+04 -0.14181323076E+03  0.16997712702E+04  0.20409341895E+04  0.79943512449E+02 0.  0.
        254    2    1    2    0    0 -0.11178944660E+04  0.14181323076E+03 -0.31686683359E+03  0.14422293822E+04  0.84250932991E+03 0.  0.
         23    2    4    4    0    0 -0.11084091876E+04  0.35910753685E+03 -0.29426266652E+03  0.12052530524E+04  0.92278130868E+02 0.  0.
         23    2    4    4    0    0 -0.94852784452E+01 -0.21729430609E+03 -0.22604167077E+02  0.23697632971E+03  0.91323855080E+02 0.  0.
          4    1    3    3  502    0  0.89883230608E+03 -0.82068398821E+02  0.13502538070E+04  0.16241367183E+04  0.00000000000E+00 0. -1.
         -3    1    3    3    0  502  0.21906215992E+03 -0.59744831938E+02  0.34951746324E+03  0.41679747116E+03  0.00000000000E+00 0.  1.
         13    1    5    5    0    0 -0.10556578330E+04  0.35863859416E+03 -0.26975366663E+03  0.11470841914E+04  0.00000000000E+00 0.  1.
        -13    1    5    5    0    0 -0.52751354562E+02  0.46894269344E+00 -0.24508999892E+02  0.58168861009E+02  0.00000000000E+00 0. -1.
          2    1    6    6  503    0 -0.20860340868E+02 -0.50257555367E+02  0.29156747154E+02  0.61734039210E+02  0.00000000000E+00 0. -1.
         -2    1    6    6    0  503  0.11375062423E+02 -0.16703675073E+03 -0.51760914231E+02  0.17524229050E+03  0.00000000000E+00 0.  1.
<mgrwt>
<rscale>  0 0.31968741E+04</rscale>
<asrwt>0</asrwt>
<pdfrwt beam="1">  1        2 0.37431292E+00 0.31968741E+04</pdfrwt>
<pdfrwt beam="2">  1       -1 0.16155840E+00 0.31968741E+04</pdfrwt>
<totfact> 0.10359716E+00</totfact>
</mgrwt>
</event>
<event>
12    7  0.1698542E-007  0.1780934E+04  0.7818608E-02  0.8716505E-01
         -1   -1    0    0    0  501 -0.00000000000E+00  0.00000000000E+00  0.24665171668E+04  0.24665171668E+04  0.00000000000E+00 0.  1.
          2   -1    0    0  501    0  0.00000000000E+00 -0.00000000000E+00 -0.32147816838E+03  0.32147816838E+03  0.00000000000E+00 0. -1.
         24    2    1    2    0    0 -0.58815959362E+02 -0.39313271311E+02  0.17346309297E+04  0.17379322178E+04  0.80368409619E+02 0.  0.
        254    2    1    2    0    0  0.58815959362E+02  0.39313271311E+02  0.41040806879E+03  0.10500631174E+04  0.96394653231E+03 0.  0.
         23    2    4    4    0    0 -0.30007026044E+03 -0.85300863015E+02  0.54754817175E+03  0.63686212934E+03  0.92010722065E+02 0.  0.
         23    2    4    4    0    0  0.35888621980E+03  0.12461413433E+03 -0.13714010296E+03  0.41320098803E+03  0.87175956715E+02 0.  0.
          4    1    3    3  502    0 -0.65579445075E+02 -0.29003956859E+02  0.79676028698E+03  0.79998052979E+03  0.00000000000E+00 0. -1.
         -3    1    3    3    0  502  0.67634857129E+01 -0.10309314452E+02  0.93787064268E+03  0.93795168805E+03  0.00000000000E+00 0.  1.
         13    1    5    5    0    0 -0.25566983917E+03 -0.88943358860E+02  0.40198086380E+03  0.48463037730E+03  0.00000000000E+00 0. -1.
        -13    1    5    5    0    0 -0.44400421271E+02  0.36424958450E+01  0.14556730795E+03  0.15223175204E+03  0.00000000000E+00 0.  1.
          2    1    6    6  503    0  0.35146590093E+03  0.13385078163E+03 -0.12520698497E+03  0.39638504052E+03  0.00000000000E+00 0. -1.
         -2    1    6    6    0  503  0.74203188707E+01 -0.92366473090E+01 -0.11933117989E+02  0.16815947508E+02  0.00000000000E+00 0.  1.
<mgrwt>
<rscale>  0 0.17809339E+04</rscale>
<asrwt>0</asrwt>
<pdfrwt beam="1">  1        2 0.49458181E-01 0.17809339E+04</pdfrwt>
<pdfrwt beam="2">  1       -1 0.37946417E+00 0.17809339E+04</pdfrwt>
<totfact> 0.10880931E+00</totfact>
</mgrwt>
</event>
<event>
12    7  0.1698542E-007  0.1659748E+04  0.7818608E-02  0.8784661E-01
          2   -1    0    0  501    0  0.00000000000E+00  0.00000000000E+00  0.12131566778E+04  0.12131566778E+04  0.00000000000E+00 0. -1.
         -1   -1    0    0    0  501 -0.00000000000E+00 -0.00000000000E+00 -0.56768474742E+03  0.56768474742E+03  0.00000000000E+00 0.  1.
         24    2    1    2    0    0  0.51389653433E+02  0.54074452037E+03  0.12900211063E+02  0.54925023430E+03  0.80398206757E+02 0.  0.
        254    2    1    2    0    0 -0.51389653433E+02 -0.54074452037E+03  0.63257171931E+03  0.12315911909E+04  0.90643496659E+03 0.  0.
         23    2    4    4    0    0 -0.35914150626E+03 -0.61256617578E+03  0.34545360612E+03  0.79519960753E+03  0.93724493130E+02 0.  0.
         23    2    4    4    0    0  0.30775185283E+03  0.71821655407E+02  0.28711811319E+03  0.43639158338E+03  0.90173444074E+02 0.  0.
          4    1    3    3  502    0  0.73447458560E+01  0.11223122216E+03 -0.29844922171E+02  0.11636370524E+03  0.00000000000E+00 0. -1.
         -3    1    3    3    0  502  0.44044907577E+02  0.42851329821E+03  0.42745133234E+02  0.43288652906E+03  0.00000000000E+00 0.  1.
         13    1    5    5    0    0 -0.26040890645E+02 -0.49729403880E+02  0.58254657651E+02  0.80899608985E+02  0.00000000000E+00 0. -1.
        -13    1    5    5    0    0 -0.33310061562E+03 -0.56283677190E+03  0.28719894847E+03  0.71429999855E+03  0.00000000000E+00 0.  1.
          3    1    6    6  503    0  0.24496240635E+01 -0.10147856884E+02  0.19877187657E+02  0.22451776022E+02  0.00000000000E+00 0. -1.
         -3    1    6    6    0  503  0.30530222876E+03  0.81969512290E+02  0.26724092553E+03  0.41393980735E+03  0.00000000000E+00 0.  1.
<mgrwt>
<rscale>  0 0.16597476E+04</rscale>
<asrwt>0</asrwt>
<pdfrwt beam="1">  1        2 0.18663949E+00 0.16597476E+04</pdfrwt>
<pdfrwt beam="2">  1       -1 0.87336115E-01 0.16597476E+04</pdfrwt>
<totfact> 0.26129413E+01</totfact>
</mgrwt>
</event>
<event>
12    7  0.1698542E-007  0.1868266E+04  0.7818608E-02  0.8670816E-01
          2   -1    0    0  501    0  0.00000000000E+00  0.00000000000E+00  0.67179751155E+03  0.67179751155E+03  0.00000000000E+00 0. -1.
         -1   -1    0    0    0  501 -0.00000000000E+00 -0.00000000000E+00 -0.12989097679E+04  0.12989097679E+04  0.00000000000E+00 0.  1.
         24    2    1    2    0    0 -0.27703806537E+03  0.47383480542E+03 -0.71588254939E+03  0.90571229637E+03  0.80977940164E+02 0.  0.
        254    2    1    2    0    0  0.27703806537E+03 -0.47383480542E+03  0.88770293056E+02  0.10649949831E+04  0.90833068678E+03 0.  0.
         23    2    4    4    0    0 -0.21368007517E+03 -0.97504377945E+02 -0.25050420251E+03  0.35364536349E+03  0.84536438278E+02 0.  0.
         23    2    4    4    0    0  0.49071814054E+03 -0.37633042747E+03  0.33927449557E+03  0.71134961958E+03  0.92098935091E+02 0.  0.
          4    1    3    3  502    0 -0.94594169450E+02  0.15883667447E+03 -0.18109235339E+03  0.25878869084E+03  0.00000000000E+00 0. -1.
         -3    1    3    3    0  502 -0.18244389592E+03  0.31499813095E+03 -0.53479019600E+03  0.64692360554E+03  0.00000000000E+00 0.  1.
         13    1    5    5    0    0 -0.21341170029E+03 -0.10796035128E+03 -0.24014653007E+03  0.33892528258E+03  0.00000000000E+00 0.  1.
        -13    1    5    5    0    0 -0.26837487580E+00  0.10455973331E+02 -0.10357672441E+02  0.14720080902E+02  0.00000000000E+00 0. -1.
          2    1    6    6  503    0  0.30546843947E+03 -0.19052602409E+03  0.22944488887E+03  0.42691461722E+03  0.00000000000E+00 0.  1.
         -2    1    6    6    0  503  0.18524970106E+03 -0.18580440338E+03  0.10982960670E+03  0.28443500236E+03  0.00000000000E+00 0. -1.
<mgrwt>
<rscale>  0 0.18682659E+04</rscale>
<asrwt>0</asrwt>
<pdfrwt beam="1">  1        2 0.10335346E+00 0.18682659E+04</pdfrwt>
<pdfrwt beam="2">  1       -1 0.19983227E+00 0.18682659E+04</pdfrwt>
<totfact> 0.69806670E+00</totfact>
</mgrwt>
</event>
<event>
12    7  0.1698542E-007  0.3245064E+04  0.7818608E-02  0.8177016E-01
         -1   -1    0    0    0  501 -0.00000000000E+00  0.00000000000E+00  0.89969591674E+03  0.89969591674E+03  0.00000000000E+00 0.  1.
          2   -1    0    0  501    0  0.00000000000E+00 -0.00000000000E+00 -0.29261107455E+04  0.29261107455E+04  0.00000000000E+00 0. -1.
         24    2    1    2    0    0  0.74487057808E+03 -0.19526305456E+03 -0.24076851154E+04  0.25290833169E+04  0.79718066321E+02 0.  0.
        254    2    1    2    0    0 -0.74487057808E+03  0.19526305456E+03  0.38127028666E+03  0.12967233454E+04  0.97116659970E+03 0.  0.
         23    2    4    4    0    0 -0.24693248575E+03 -0.30794944074E+03  0.41750882929E+03  0.58182913618E+03  0.91667936625E+02 0.  0.
         23    2    4    4    0    0 -0.49793809233E+03  0.50321249531E+03 -0.36238542630E+02  0.71489420919E+03  0.92711051851E+02 0.  0.
          2    1    3    3  502    0  0.62014729141E+03 -0.16583549741E+03 -0.20954582394E+04  0.21915814628E+04  0.00000000000E+00 0. -1.
         -1    1    3    3    0  502  0.12472328667E+03 -0.29427557151E+02 -0.31222687600E+03  0.33750185400E+03  0.00000000000E+00 0.  1.
         13    1    5    5    0    0 -0.22143067103E+02 -0.71902830138E+02  0.48699658384E+02  0.89621365362E+02  0.00000000000E+00 0.  1.
        -13    1    5    5    0    0 -0.22478941864E+03 -0.23604661060E+03  0.36880917090E+03  0.49220777082E+03  0.00000000000E+00 0. -1.
          2    1    6    6  503    0 -0.22044982811E+02  0.19137048272E+02  0.17346764524E+02  0.33957593012E+02  0.00000000000E+00 0. -1.
         -2    1    6    6    0  503 -0.47589310952E+03  0.48407544703E+03 -0.53585307153E+02  0.68093661618E+03  0.00000000000E+00 0.  1.
<mgrwt>
<rscale>  0 0.32450639E+04</rscale>
<asrwt>0</asrwt>
<pdfrwt beam="1">  1        2 0.45017089E+00 0.32450639E+04</pdfrwt>
<pdfrwt beam="2">  1       -1 0.13841475E+00 0.32450639E+04</pdfrwt>
<totfact> 0.79610611E-01</totfact>
</mgrwt>
</event>
<event>
12    7  0.1698542E-007  0.1160806E+04  0.7818608E-02  0.9147872E-01
         -1   -1    0    0    0  501 -0.00000000000E+00  0.00000000000E+00  0.33821397538E+03  0.33821397538E+03  0.00000000000E+00 0.  1.
          2   -1    0    0  501    0  0.00000000000E+00 -0.00000000000E+00 -0.99601916077E+03  0.99601916077E+03  0.00000000000E+00 0. -1.
         24    2    1    2    0    0  0.53931337231E+02 -0.19185802759E+02  0.11189301946E+03  0.14782594126E+03  0.77818872667E+02 0.  0.
        254    2    1    2    0    0 -0.53931337231E+02  0.19185802759E+02 -0.76969820485E+03  0.11864071949E+04  0.90102720346E+03 0.  0.
         23    2    4    4    0    0  0.11890007409E+03  0.72269739471E+02 -0.91912142659E+03  0.93379510751E+03  0.88481428199E+02 0.  0.
         23    2    4    4    0    0 -0.17283141133E+03 -0.53083936712E+02  0.14942322174E+03  0.25261208738E+03  0.93792144762E+02 0.  0.
          4    1    3    3  502    0  0.44877852571E+02 -0.47950999884E+02  0.67677286142E+02  0.94305541199E+02  0.00000000000E+00 0. -1.
         -3    1    3    3    0  502  0.90534846599E+01  0.28765197125E+02  0.44215733314E+02  0.53520400060E+02  0.00000000000E+00 0.  1.
         13    1    5    5    0    0  0.82627028127E+01 -0.10966180128E+02 -0.25632514290E+03  0.25669263380E+03  0.00000000000E+00 0.  1.
        -13    1    5    5    0    0  0.11063737128E+03  0.83235919599E+02 -0.66279628369E+03  0.67710247371E+03  0.00000000000E+00 0. -1.
          1    1    6    6  503    0 -0.17768564916E+03 -0.65008487123E+02  0.14679346919E+03  0.23947153466E+03  0.00000000000E+00 0. -1.
         -1    1    6    6    0  503  0.48542378310E+01  0.11924550411E+02  0.26297525475E+01  0.13140552724E+02  0.00000000000E+00 0.  1.
<mgrwt>
<rscale>  0 0.11608059E+04</rscale>
<asrwt>0</asrwt>
<pdfrwt beam="1">  1        2 0.15323371E+00 0.11608059E+04</pdfrwt>
<pdfrwt beam="2">  1       -1 0.52032920E-01 0.11608059E+04</pdfrwt>
<totfact> 0.10629873E+02</totfact>
</mgrwt>
</event>
<event>
12    7  0.1698542E-007  0.1833912E+04  0.7818608E-02  0.8688470E-01
         -1   -1    0    0    0  501 -0.00000000000E+00  0.00000000000E+00  0.23592707311E+03  0.23592707311E+03  0.00000000000E+00 0.  1.
          2   -1    0    0  501    0  0.00000000000E+00 -0.00000000000E+00 -0.35638498381E+04  0.35638498381E+04  0.00000000000E+00 0. -1.
         24    2    1    2    0    0  0.57846090960E+03 -0.24062969205E+03 -0.18885485411E+04  0.19913824034E+04  0.80427680810E+02 0.  0.
        254    2    1    2    0    0 -0.57846090960E+03  0.24062969205E+03 -0.14393742239E+04  0.18083945078E+04  0.89775991603E+03 0.  0.
         23    2    4    4    0    0  0.22758138997E+03  0.15174910104E+02 -0.42006509448E+03  0.48647475665E+03  0.90440247105E+02 0.  0.
         23    2    4    4    0    0 -0.80604229957E+03  0.22545478195E+03 -0.10193091294E+04  0.13219197512E+04  0.89144151816E+02 0.  0.
          4    1    3    3  502    0  0.51269695745E+03 -0.23899000416E+03 -0.16756865460E+04  0.17685869480E+04  0.00000000000E+00 0. -1.
         -3    1    3    3    0  502  0.65763952147E+02 -0.16396878960E+01 -0.21286199509E+03  0.22279545536E+03  0.00000000000E+00 0.  1.
         13    1    5    5    0    0  0.93571767411E+02  0.34081962123E+02 -0.11128054853E+03  0.14933390867E+03  0.00000000000E+00 0.  1.
        -13    1    5    5    0    0  0.13400962256E+03 -0.18907052019E+02 -0.30878454595E+03  0.33714084797E+03  0.00000000000E+00 0. -1.
          1    1    6    6  503    0 -0.52498791227E+03  0.19006908452E+03 -0.66635332537E+03  0.86934763999E+03  0.00000000000E+00 0. -1.
         -1    1    6    6    0  503 -0.28105438730E+03  0.35385697423E+02 -0.35295580404E+03  0.45257211117E+03  0.00000000000E+00 0.  1.
<mgrwt>
<rscale>  0 0.18339124E+04</rscale>
<asrwt>0</asrwt>
<pdfrwt beam="1">  1        2 0.54828455E+00 0.18339124E+04</pdfrwt>
<pdfrwt beam="2">  1       -1 0.36296475E-01 0.18339124E+04</pdfrwt>
<totfact> 0.57563787E+00</totfact>
</mgrwt>
</event>
<event>
12    7  0.1698542E-007  0.1384257E+04  0.7818608E-02  0.8965294E-01
          2   -1    0    0  501    0  0.00000000000E+00  0.00000000000E+00  0.12977782726E+04  0.12977782726E+04  0.00000000000E+00 0. -1.
         -1   -1    0    0    0  501 -0.00000000000E+00 -0.00000000000E+00 -0.36912451380E+03  0.36912451380E+03  0.00000000000E+00 0.  1.
         24    2    1    2    0    0  0.16880838913E+03  0.22812285772E+03 -0.34326540638E+02  0.29659900102E+03  0.79097064170E+02 0.  0.
        254    2    1    2    0    0 -0.16880838913E+03 -0.22812285772E+03  0.96298029942E+03  0.13703037854E+04  0.93266558672E+03 0.  0.
         23    2    4    4    0    0 -0.29112798924E+03 -0.54227585061E+03  0.56314370530E+03  0.83924927846E+03  0.91596475396E+02 0.  0.
         23    2    4    4    0    0  0.12231960011E+03  0.31415299289E+03  0.39983659412E+03  0.53105450690E+03  0.92170493051E+02 0.  0.
          2    1    3    3  502    0  0.38174614875E+02  0.94846795314E+01 -0.10983312680E+02  0.40839852155E+02  0.00000000000E+00 0. -1.
         -1    1    3    3    0  502  0.13063377426E+03  0.21863817819E+03 -0.23343227957E+02  0.25575914887E+03  0.00000000000E+00 0.  1.
         13    1    5    5    0    0 -0.10915877226E+03 -0.16052758959E+03  0.22943559701E+03  0.30054190682E+03  0.00000000000E+00 0. -1.
        -13    1    5    5    0    0 -0.18196921698E+03 -0.38174826102E+03  0.33370810829E+03  0.53870737164E+03  0.00000000000E+00 0.  1.
          1    1    6    6  503    0  0.34359063959E+02  0.15895951887E+03  0.13304258986E+03  0.21011664530E+03  0.00000000000E+00 0. -1.
         -1    1    6    6    0  503  0.87960536149E+02  0.15519347402E+03  0.26679400426E+03  0.32093786160E+03  0.00000000000E+00 0.  1.
<mgrwt>
<rscale>  0 0.13842569E+04</rscale>
<asrwt>0</asrwt>
<pdfrwt beam="1">  1        2 0.19965819E+00 0.13842569E+04</pdfrwt>
<pdfrwt beam="2">  1       -1 0.56788388E-01 0.13842569E+04</pdfrwt>
<totfact> 0.57805649E+01</totfact>
</mgrwt>
</event>
<event>
12    7  0.1698542E-007  0.1325818E+04  0.7818608E-02  0.9009338E-01
         -3   -1    0    0    0  501 -0.00000000000E+00  0.00000000000E+00  0.78947588237E+03  0.78947588237E+03  0.00000000000E+00 0.  1.
          4   -1    0    0  501    0  0.00000000000E+00 -0.00000000000E+00 -0.55663327114E+03  0.55663327114E+03  0.00000000000E+00 0. -1.
         24    2    1    2    0    0 -0.12822960633E+03 -0.21596689322E+03  0.33139296221E+03  0.42342649490E+03  0.79901002948E+02 0.  0.
        254    2    1    2    0    0  0.12822960633E+03  0.21596689322E+03 -0.98550350984E+02  0.92268265861E+03  0.88235286928E+03 0.  0.
         23    2    4    4    0    0 -0.13535537054E+03 -0.95785514021E+02 -0.37604310392E+03  0.42084313142E+03  0.90579159997E+02 0.  0.
         23    2    4    4    0    0  0.26358497687E+03  0.31175240724E+03  0.27749275294E+03  0.50183952719E+03  0.90410617017E+02 0.  0.
          2    1    3    3  502    0  0.10718271014E+02 -0.21386084844E+02  0.22818552105E+02  0.33059526292E+02  0.00000000000E+00 0. -1.
         -1    1    3    3    0  502 -0.13894787734E+03 -0.19458080838E+03  0.30857441011E+03  0.39036696861E+03  0.00000000000E+00 0.  1.
         13    1    5    5    0    0 -0.51707660324E+02  0.97464357871E+01 -0.13220916708E+03  0.14229525294E+03  0.00000000000E+00 0. -1.
        -13    1    5    5    0    0 -0.83647710217E+02 -0.10553194981E+03 -0.24383393684E+03  0.27854787848E+03  0.00000000000E+00 0.  1.
          1    1    6    6  503    0  0.15785079131E+03  0.19429745967E+03  0.22124417541E+03  0.33409184411E+03  0.00000000000E+00 0. -1.
         -1    1    6    6    0  503  0.10573418555E+03  0.11745494758E+03  0.56248577530E+02  0.16774768308E+03  0.00000000000E+00 0.  1.
<mgrwt>
<rscale>  0 0.13258183E+04</rscale>
<asrwt>0</asrwt>
<pdfrwt beam="1">  1        4 0.85635888E-01 0.13258183E+04</pdfrwt>
<pdfrwt beam="2">  1       -3 0.12145783E+00 0.13258183E+04</pdfrwt>
<totfact> 0.14587685E+00</totfact>
</mgrwt>
</event>
<event>
12    7  0.1698542E-007  0.1128979E+04  0.7818608E-02  0.9177399E-01
          2   -1    0    0  501    0  0.00000000000E+00  0.00000000000E+00  0.21294267656E+04  0.21294267656E+04  0.00000000000E+00 0. -1.
         -1   -1    0    0    0  501 -0.00000000000E+00 -0.00000000000E+00 -0.14964035479E+03  0.14964035479E+03  0.00000000000E+00 0.  1.
         24    2    1    2    0    0  0.46566175780E+01 -0.15293935488E+03  0.12079409580E+03  0.21049531596E+03  0.79403615187E+02 0.  0.
        254    2    1    2    0    0 -0.46566175780E+01  0.15293935488E+03  0.18589923150E+04  0.20685718045E+04  0.89427330971E+03 0.  0.
         23    2    4    4    0    0 -0.33797184606E+03  0.35863395776E+03  0.94406990503E+03  0.10690020671E+04  0.93027681122E+02 0.  0.
         23    2    4    4    0    0  0.33331522848E+03 -0.20569460289E+03  0.91492241002E+03  0.99956973738E+03  0.92991033680E+02 0.  0.
          2    1    3    3  502    0  0.16764330470E+02 -0.41240619833E+02  0.78886505152E+02  0.90580970382E+02  0.00000000000E+00 0. -1.
         -1    1    3    3    0  502 -0.12107712892E+02 -0.11169873504E+03  0.41907590643E+02  0.11991434558E+03  0.00000000000E+00 0.  1.
         13    1    5    5    0    0 -0.12014901107E+03  0.76203335070E+02  0.22261711361E+03  0.26419900153E+03  0.00000000000E+00 0.  1.
        -13    1    5    5    0    0 -0.21782283499E+03  0.28243062269E+03  0.72145279142E+03  0.80480306555E+03  0.00000000000E+00 0. -1.
          3    1    6    6  503    0  0.27427452616E+02 -0.50971542960E+02  0.10105981078E+03  0.11646222007E+03  0.00000000000E+00 0. -1.
         -3    1    6    6    0  503  0.30588777586E+03 -0.15472305993E+03  0.81386259924E+03  0.88310751731E+03  0.00000000000E+00 0.  1.
<mgrwt>
<rscale>  0 0.11289786E+04</rscale>
<asrwt>0</asrwt>
<pdfrwt beam="1">  1        2 0.32760410E+00 0.11289786E+04</pdfrwt>
<pdfrwt beam="2">  1       -1 0.23021595E-01 0.11289786E+04</pdfrwt>
<totfact> 0.10333592E+02</totfact>
</mgrwt>
</event>
<event>
12    7  0.1698542E-007  0.1635402E+04  0.7818608E-02  0.8799090E-01
         -1   -1    0    0    0  501 -0.00000000000E+00  0.00000000000E+00  0.48742573728E+03  0.48742573728E+03  0.00000000000E+00 0.  1.
          2   -1    0    0  501    0  0.00000000000E+00 -0.00000000000E+00 -0.13717674757E+04  0.13717674757E+04  0.00000000000E+00 0. -1.
         24    2    1    2    0    0  0.43660930359E+03  0.36710117733E+03 -0.24301145641E+03  0.62504270539E+03  0.78948446724E+02 0.  0.
        254    2    1    2    0    0 -0.43660930359E+03 -0.36710117733E+03 -0.64133028197E+03  0.12341505075E+04  0.88681000577E+03 0.  0.
         23    2    4    4    0    0 -0.32892322380E+03 -0.53266889256E+03 -0.75769807874E+03  0.98727529848E+03  0.93163835293E+02 0.  0.
         23    2    4    4    0    0 -0.10768607979E+03  0.16556771523E+03  0.11636779676E+03  0.24687520907E+03  0.91634843932E+02 0.  0.
          4    1    3    3  502    0  0.12445855394E+03  0.13085743898E+03 -0.11068056608E+03  0.21181073791E+03  0.00000000000E+00 0. -1.
         -3    1    3    3    0  502  0.31215074965E+03  0.23624373835E+03 -0.13233089033E+03  0.41323196749E+03  0.00000000000E+00 0.  1.
         13    1    5    5    0    0 -0.64798822500E+02 -0.64648471255E+02 -0.74346106100E+02  0.11792224440E+03  0.00000000000E+00 0.  1.
        -13    1    5    5    0    0 -0.26412440130E+03 -0.46802042131E+03 -0.68335197264E+03  0.86935305408E+03  0.00000000000E+00 0. -1.
          4    1    6    6  503    0 -0.10659708952E+03  0.17428727589E+03  0.12047265461E+03  0.23717642070E+03  0.00000000000E+00 0. -1.
         -4    1    6    6    0  503 -0.10889902666E+01 -0.87195606558E+01 -0.41048578426E+01  0.96987883645E+01  0.00000000000E+00 0.  1.
<mgrwt>
<rscale>  0 0.16354018E+04</rscale>
<asrwt>0</asrwt>
<pdfrwt beam="1">  1        2 0.21104115E+00 0.16354018E+04</pdfrwt>
<pdfrwt beam="2">  1       -1 0.74988574E-01 0.16354018E+04</pdfrwt>
<totfact> 0.29284510E+01</totfact>
</mgrwt>
</event>
<event>
12    7  0.1698542E-007  0.1869104E+04  0.7818608E-02  0.8670390E-01
         -1   -1    0    0    0  501 -0.00000000000E+00  0.00000000000E+00  0.49840436070E+03  0.49840436070E+03  0.00000000000E+00 0.  1.
          2   -1    0    0  501    0  0.00000000000E+00 -0.00000000000E+00 -0.17523679888E+04  0.17523679888E+04  0.00000000000E+00 0. -1.
         24    2    1    2    0    0  0.29153102627E+02 -0.20033809726E+03  0.34302853924E+03  0.40665860205E+03  0.81959644222E+02 0.  0.
        254    2    1    2    0    0 -0.29153102627E+02  0.20033809726E+03 -0.15969921673E+04  0.18441137474E+04  0.89965897670E+03 0.  0.
         23    2    4    4    0    0  0.29718824536E+03 -0.19419952623E+03 -0.92230251262E+03  0.99228458072E+03  0.89176539405E+02 0.  0.
         23    2    4    4    0    0 -0.32634134799E+03  0.39453762350E+03 -0.67468965468E+03  0.85182916669E+03  0.90819531625E+02 0.  0.
          2    1    3    3  502    0 -0.13483004207E+02 -0.23686392125E+02  0.13665953780E+02  0.30489258224E+02  0.00000000000E+00 0. -1.
         -1    1    3    3    0  502  0.42636106834E+02 -0.17665170514E+03  0.32936258546E+03  0.37616934383E+03  0.00000000000E+00 0.  1.
         13    1    5    5    0    0  0.27886315634E+03 -0.16096829569E+03 -0.75609712576E+03  0.82180187136E+03  0.00000000000E+00 0.  1.
        -13    1    5    5    0    0  0.18325089022E+02 -0.33231230546E+02 -0.16620538686E+03  0.17048270937E+03  0.00000000000E+00 0. -1.
          1    1    6    6  503    0 -0.21011023223E+03  0.29781298410E+03 -0.42455755286E+03  0.55954266939E+03  0.00000000000E+00 0. -1.
         -1    1    6    6    0  503 -0.11623111576E+03  0.96724639400E+02 -0.25013210182E+03  0.29228649729E+03  0.00000000000E+00 0.  1.
<mgrwt>
<rscale>  0 0.18691044E+04</rscale>
<asrwt>0</asrwt>
<pdfrwt beam="1">  1        2 0.26959508E+00 0.18691044E+04</pdfrwt>
<pdfrwt beam="2">  1       -1 0.76677593E-01 0.18691044E+04</pdfrwt>
<totfact> 0.16736377E+01</totfact>
</mgrwt>
</event>
<event>
12    7  0.1698542E-007  0.1232152E+04  0.7818608E-02  0.9085170E-01
         -3   -1    0    0    0  501 -0.00000000000E+00  0.00000000000E+00  0.40154876612E+03  0.40154876612E+03  0.00000000000E+00 0.  1.
          4   -1    0    0  501    0  0.00000000000E+00 -0.00000000000E+00 -0.94521442646E+03  0.94521442646E+03  0.00000000000E+00 0. -1.
         24    2    1    2    0    0 -0.67641776106E+02 -0.28386727389E+03 -0.14485267606E+03  0.33531755942E+03  0.79369571229E+02 0.  0.
        254    2    1    2    0    0  0.67641776106E+02  0.28386727389E+03 -0.39881298428E+03  0.10114456332E+04  0.88250463645E+03 0.  0.
         23    2    4    4    0    0  0.24058407391E+02 -0.18971502299E+03  0.16477663217E+03  0.26816654997E+03  0.90506149510E+02 0.  0.
         23    2    4    4    0    0  0.43583368715E+02  0.47358229688E+03 -0.56358961645E+03  0.74327908319E+03  0.93009880136E+02 0.  0.
          2    1    3    3  502    0 -0.64914261162E+02 -0.28446406606E+03 -0.15102318186E+03  0.32854477266E+03  0.00000000000E+00 0. -1.
         -1    1    3    3    0  502 -0.27275149435E+01  0.59679217337E+00  0.61705058041E+01  0.67727867635E+01  0.00000000000E+00 0.  1.
         13    1    5    5    0    0 -0.11292903515E+02 -0.26758223451E+00 -0.40082943800E+01  0.11986145914E+02  0.00000000000E+00 0. -1.
        -13    1    5    5    0    0  0.35351310905E+02 -0.18944744075E+03  0.16878492655E+03  0.25618040405E+03  0.00000000000E+00 0.  1.
          4    1    6    6  503    0  0.45926140424E+02  0.15436770956E+03 -0.23741387752E+03  0.28688664899E+03  0.00000000000E+00 0. -1.
         -4    1    6    6    0  503 -0.23427717085E+01  0.31921458732E+03 -0.32617573893E+03  0.45639243420E+03  0.00000000000E+00 0.  1.
<mgrwt>
<rscale>  0 0.12321521E+04</rscale>
<asrwt>0</asrwt>
<pdfrwt beam="1">  1        4 0.14541760E+00 0.12321521E+04</pdfrwt>
<pdfrwt beam="2">  1       -3 0.61776733E-01 0.12321521E+04</pdfrwt>
<totfact> 0.18571653E+00</totfact>
</mgrwt>
</event>
<event>
12    7  0.1698542E-007  0.1204352E+04  0.7818608E-02  0.9109056E-01
         -1   -1    0    0    0  501 -0.00000000000E+00  0.00000000000E+00  0.27662472488E+03  0.27662472488E+03  0.00000000000E+00 0.  1.
          2   -1    0    0  501    0  0.00000000000E+00 -0.00000000000E+00 -0.13108580732E+04  0.13108580732E+04  0.00000000000E+00 0. -1.
         24    2    1    2    0    0 -0.47016268923E+02  0.18024669782E+03  0.68385799858E+01  0.20226153294E+03  0.78508342971E+02 0.  0.
        254    2    1    2    0    0  0.47016268923E+02 -0.18024669782E+03 -0.10410719283E+04  0.13852212651E+04  0.89459923534E+03 0.  0.
         23    2    4    4    0    0 -0.32525240935E+03  0.23544632144E+02 -0.84301504321E+03  0.90835518407E+03  0.89951641799E+02 0.  0.
         23    2    4    4    0    0  0.37226867827E+03 -0.20379132996E+03 -0.19805688509E+03  0.47686608106E+03  0.89776692673E+02 0.  0.
          2    1    3    3  502    0  0.14484748417E+02  0.38084848374E+02 -0.19452266688E+02  0.45151459463E+02  0.00000000000E+00 0. -1.
         -1    1    3    3    0  502 -0.61501017340E+02  0.14216184944E+03  0.26290846673E+02  0.15711007348E+03  0.00000000000E+00 0.  1.
         13    1    5    5    0    0 -0.15533228290E+03  0.53662647668E+02 -0.37043110805E+03  0.40524931052E+03  0.00000000000E+00 0.  1.
        -13    1    5    5    0    0 -0.16992012645E+03 -0.30118015524E+02 -0.47258393516E+03  0.50310587355E+03  0.00000000000E+00 0. -1.
          3    1    6    6  503    0  0.23299534096E+03 -0.12071012193E+03 -0.73870959110E+02  0.27260719184E+03  0.00000000000E+00 0. -1.
         -3    1    6    6    0  503  0.13927333732E+03 -0.83081208025E+02 -0.12418592598E+03  0.20425888922E+03  0.00000000000E+00 0.  1.
<mgrwt>
<rscale>  0 0.12043517E+04</rscale>
<asrwt>0</asrwt>
<pdfrwt beam="1">  1        2 0.20167047E+00 0.12043517E+04</pdfrwt>
<pdfrwt beam="2">  1       -1 0.42557651E-01 0.12043517E+04</pdfrwt>
<totfact> 0.99475978E+01</totfact>
</mgrwt>
</event>
<event>
12    7  0.1698542E-007  0.2516439E+04  0.7818608E-02  0.8397152E-01
          2   -1    0    0  501    0  0.00000000000E+00  0.00000000000E+00  0.28590946991E+04  0.28590946991E+04  0.00000000000E+00 0. -1.
         -1   -1    0    0    0  501 -0.00000000000E+00 -0.00000000000E+00 -0.55371251897E+03  0.55371251897E+03  0.00000000000E+00 0.  1.
         24    2    1    2    0    0  0.66899550766E+03  0.70751647302E+03  0.16880603595E+04  0.19503430636E+04  0.78458522894E+02 0.  0.
        254    2    1    2    0    0 -0.66899550766E+03 -0.70751647302E+03  0.61732182062E+03  0.14624641544E+04  0.89976698307E+03 0.  0.
         23    2    4    4    0    0 -0.58104044702E+03 -0.92186046627E+02  0.58281237329E+03  0.83335719025E+03  0.93314928106E+02 0.  0.
         23    2    4    4    0    0 -0.87955060642E+02 -0.61533042639E+03  0.34509447331E+02  0.62910696415E+03  0.90647912605E+02 0.  0.
          2    1    3    3  502    0  0.40334118438E+03  0.37987783815E+03  0.10020064293E+04  0.11449926495E+04  0.00000000000E+00 0. -1.
         -1    1    3    3    0  502  0.26565432328E+03  0.32763863486E+03  0.68605393015E+03  0.80535041417E+03  0.00000000000E+00 0.  1.
         13    1    5    5    0    0 -0.41696405283E+03 -0.29395024032E+02  0.37852477393E+03  0.56391851651E+03  0.00000000000E+00 0. -1.
        -13    1    5    5    0    0 -0.16407639419E+03 -0.62791022596E+02  0.20428759937E+03  0.26943867374E+03  0.00000000000E+00 0.  1.
          4    1    6    6  503    0 -0.52099075067E+02 -0.11235625125E+03  0.33041491752E+01  0.12389171974E+03  0.00000000000E+00 0.  1.
         -4    1    6    6    0  503 -0.35855985575E+02 -0.50297417513E+03  0.31205298156E+02  0.50521524441E+03  0.00000000000E+00 0. -1.
<mgrwt>
<rscale>  0 0.25164392E+04</rscale>
<asrwt>0</asrwt>
<pdfrwt beam="1">  1        2 0.43986071E+00 0.25164392E+04</pdfrwt>
<pdfrwt beam="2">  1       -1 0.85186543E-01 0.25164392E+04</pdfrwt>
<totfact> 0.29377422E+00</totfact>
</mgrwt>
</event>
<event>
12    7  0.1698542E-007  0.1699964E+04  0.7818608E-02  0.8761385E-01
         -1   -1    0    0    0  501 -0.00000000000E+00  0.00000000000E+00  0.38718226993E+03  0.38718226993E+03  0.00000000000E+00 0.  1.
          2   -1    0    0  501    0  0.00000000000E+00 -0.00000000000E+00 -0.18659666887E+04  0.18659666887E+04  0.00000000000E+00 0. -1.
         24    2    1    2    0    0  0.19378146802E+03  0.18951099763E+03 -0.13956755752E+04  0.14239985532E+04  0.79974325527E+02 0.  0.
        254    2    1    2    0    0 -0.19378146802E+03 -0.18951099763E+03 -0.83108843605E+02  0.82915040546E+03  0.77917754037E+03 0.  0.
         23    2    4    4    0    0 -0.93117883592E+02 -0.46567096356E+03 -0.16641204618E+03  0.50994871053E+03  0.82670017023E+02 0.  0.
         23    2    4    4    0    0 -0.10066358443E+03  0.27615996593E+03  0.83303202570E+02  0.31920169493E+03  0.92481427723E+02 0.  0.
          2    1    3    3  502    0  0.18781105218E+03  0.18542670545E+03 -0.13899164776E+04  0.14147522289E+04  0.00000000000E+00 0. -1.
         -1    1    3    3    0  502  0.59704158425E+01  0.40842921787E+01 -0.57590975395E+01  0.92463242644E+01  0.00000000000E+00 0.  1.
         13    1    5    5    0    0 -0.30288584417E+02 -0.12861307249E+03 -0.86401283284E+02  0.15787305823E+03  0.00000000000E+00 0. -1.
        -13    1    5    5    0    0 -0.62829299175E+02 -0.33705789107E+03 -0.80010762891E+02  0.35207565230E+03  0.00000000000E+00 0.  1.
          1    1    6    6  503    0 -0.76027230939E+02  0.27209866491E+03  0.82082881221E+02  0.29420302969E+03  0.00000000000E+00 0. -1.
         -1    1    6    6    0  503 -0.24636353493E+02  0.40613010187E+01  0.12203213495E+01  0.24998665236E+02  0.00000000000E+00 0.  1.
<mgrwt>
<rscale>  0 0.16999638E+04</rscale>
<asrwt>0</asrwt>
<pdfrwt beam="1">  1        2 0.28707179E+00 0.16999638E+04</pdfrwt>
<pdfrwt beam="2">  1       -1 0.59566504E-01 0.16999638E+04</pdfrwt>
<totfact> 0.24561111E+01</totfact>
</mgrwt>
</event>
<event>
12    7  0.1698542E-007  0.1851699E+04  0.7818608E-02  0.8679280E-01
          2   -1    0    0  501    0  0.00000000000E+00  0.00000000000E+00  0.10402438573E+04  0.10402438573E+04  0.00000000000E+00 0. -1.
         -1   -1    0    0    0  501 -0.00000000000E+00 -0.00000000000E+00 -0.82403467097E+03  0.82403467097E+03  0.00000000000E+00 0.  1.
         24    2    1    2    0    0 -0.44742754599E+03  0.53982369194E+03 -0.24817724716E+02  0.70619296116E+03  0.80570165907E+02 0.  0.
        254    2    1    2    0    0  0.44742754599E+03 -0.53982369194E+03  0.24102691108E+03  0.11580855671E+04  0.88964441304E+03 0.  0.
         23    2    4    4    0    0  0.30852250273E+03 -0.75908830050E+03  0.58384137870E+02  0.82627780142E+03  0.89023114505E+02 0.  0.
         23    2    4    4    0    0  0.13890504326E+03  0.21926460856E+03  0.18264277321E+03  0.33180776572E+03  0.96780324325E+02 0.  0.
          2    1    3    3  502    0 -0.34888869110E+03  0.36420129700E+03 -0.14715163413E+02  0.50456163107E+03  0.00000000000E+00 0. -1.
         -1    1    3    3    0  502 -0.98538854896E+02  0.17562239494E+03 -0.10102561303E+02  0.20163133009E+03  0.00000000000E+00 0.  1.
         13    1    5    5    0    0  0.21266602783E+02 -0.41945362932E+02 -0.17152655500E+02  0.50058919846E+02  0.00000000000E+00 0.  1.
        -13    1    5    5    0    0  0.28725589995E+03 -0.71714293757E+03  0.75536793370E+02  0.77621888157E+03  0.00000000000E+00 0. -1.
          3    1    6    6  503    0  0.15055783238E+03  0.20367921707E+03  0.15165219731E+03  0.29521394497E+03  0.00000000000E+00 0. -1.
         -3    1    6    6    0  503 -0.11652789122E+02  0.15585391491E+02  0.30990575903E+02  0.36593820750E+02  0.00000000000E+00 0.  1.
<mgrwt>
<rscale>  0 0.18516987E+04</rscale>
<asrwt>0</asrwt>
<pdfrwt beam="1">  1        2 0.16003752E+00 0.18516987E+04</pdfrwt>
<pdfrwt beam="2">  1       -1 0.12677456E+00 0.18516987E+04</pdfrwt>
<totfact> 0.13758282E+01</totfact>
</mgrwt>
</event>
<event>
12    7  0.1698542E-007  0.1741738E+04  0.7818608E-02  0.8737912E-01
         -1   -1    0    0    0  501 -0.00000000000E+00  0.00000000000E+00  0.33811823402E+03  0.33811823402E+03  0.00000000000E+00 0.  1.
          2   -1    0    0  501    0  0.00000000000E+00 -0.00000000000E+00 -0.22430390748E+04  0.22430390748E+04  0.00000000000E+00 0. -1.
         24    2    1    2    0    0 -0.58048098401E+03 -0.49619084005E+02 -0.34610104890E+03  0.68212770164E+03  0.78051514991E+02 0.  0.
        254    2    1    2    0    0  0.58048098401E+03  0.49619084005E+02 -0.15588197919E+04  0.18990296072E+04  0.91486287449E+03 0.  0.
         23    2    4    4    0    0  0.28304165929E+03  0.45450120987E+03 -0.10261641911E+04  0.11611245126E+04  0.92267307119E+02 0.  0.
         23    2    4    4    0    0  0.29743932473E+03 -0.40488212587E+03 -0.53265560084E+03  0.73790509465E+03  0.91554638685E+02 0.  0.
          2    1    3    3  502    0 -0.37888123564E+03 -0.20978218732E+02 -0.26555028055E+03  0.46315011376E+03  0.00000000000E+00 0. -1.
         -1    1    3    3    0  502 -0.20159974838E+03 -0.28640865273E+02 -0.80550768347E+02  0.21897758787E+03  0.00000000000E+00 0.  1.
         13    1    5    5    0    0  0.43147017738E+02  0.71083459595E+02 -0.24187184674E+03  0.25576652168E+03  0.00000000000E+00 0.  1.
        -13    1    5    5    0    0  0.23989464155E+03  0.38341775028E+03 -0.78429234435E+03  0.90535799090E+03  0.00000000000E+00 0. -1.
          1    1    6    6  503    0  0.76880886738E+02 -0.17128772019E+03 -0.16830675622E+03  0.25214543030E+03  0.00000000000E+00 0. -1.
         -1    1    6    6    0  503  0.22055843799E+03 -0.23359440568E+03 -0.36434884461E+03  0.48575966435E+03  0.00000000000E+00 0.  1.
<mgrwt>
<rscale>  0 0.17417375E+04</rscale>
<asrwt>0</asrwt>
<pdfrwt beam="1">  1        2 0.34508295E+00 0.17417375E+04</pdfrwt>
<pdfrwt beam="2">  1       -1 0.52018188E-01 0.17417375E+04</pdfrwt>
<totfact> 0.19635601E+01</totfact>
</mgrwt>
</event>
<event>
12    7  0.1698542E-007  0.1180987E+04  0.7818608E-02  0.9129663E-01
          2   -1    0    0  501    0  0.00000000000E+00  0.00000000000E+00  0.75420534964E+03  0.75420534964E+03  0.00000000000E+00 0. -1.
         -1   -1    0    0    0  501 -0.00000000000E+00 -0.00000000000E+00 -0.46231777793E+03  0.46231777793E+03  0.00000000000E+00 0.  1.
         24    2    1    2    0    0 -0.72276343352E+01  0.12620314301E+03 -0.14188120724E+03  0.20525871889E+03  0.77597633397E+02 0.  0.
        254    2    1    2    0    0  0.72276343352E+01 -0.12620314301E+03  0.43376877896E+03  0.10112644087E+04  0.90472143705E+03 0.  0.
         23    2    4    4    0    0 -0.17130755929E+03  0.30250492079E+03 -0.16364033891E+02  0.35808597601E+03  0.84275011919E+02 0.  0.
         23    2    4    4    0    0  0.17853519363E+03 -0.42870806380E+03  0.45013281285E+03  0.65317843267E+03  0.91417155799E+02 0.  0.
          4    1    3    3  502    0  0.73613374154E+01  0.29967767596E+02  0.26889343119E+01  0.30975583142E+02  0.00000000000E+00 0. -1.
         -3    1    3    3    0  502 -0.14588971751E+02  0.96235375415E+02 -0.14457014156E+03  0.17428313575E+03  0.00000000000E+00 0.  1.
         13    1    5    5    0    0 -0.90363202889E+02  0.23184007338E+03  0.33085368875E+01  0.24884990351E+03  0.00000000000E+00 0.  1.
        -13    1    5    5    0    0 -0.80944356404E+02  0.70664847411E+02 -0.19672570779E+02  0.10923607250E+03  0.00000000000E+00 0. -1.
          2    1    6    6  503    0  0.17179016573E+03 -0.37204145213E+03  0.42634721207E+03  0.59135323487E+03  0.00000000000E+00 0. -1.
         -2    1    6    6    0  503  0.67450278961E+01 -0.56666611668E+02  0.23785600775E+02  0.61825197804E+02  0.00000000000E+00 0.  1.
<mgrwt>
<rscale>  0 0.11809869E+04</rscale>
<asrwt>0</asrwt>
<pdfrwt beam="1">  1        2 0.11603159E+00 0.11809869E+04</pdfrwt>
<pdfrwt beam="2">  1       -1 0.71125812E-01 0.11809869E+04</pdfrwt>
<totfact> 0.83875306E+01</totfact>
</mgrwt>
</event>
<event>
12    7  0.1698542E-007  0.3111745E+04  0.7818608E-02  0.8212522E-01
         -1   -1    0    0    0  501 -0.00000000000E+00  0.00000000000E+00  0.80959529640E+03  0.80959529640E+03  0.00000000000E+00 0.  1.
          2   -1    0    0  501    0  0.00000000000E+00 -0.00000000000E+00 -0.29900617131E+04  0.29900617131E+04  0.00000000000E+00 0. -1.
         24    2    1    2    0    0 -0.23087058775E+03 -0.13969795801E+04 -0.11809876185E+04  0.18454979577E+04  0.79232450544E+02 0.  0.
        254    2    1    2    0    0  0.23087058775E+03  0.13969795801E+04 -0.99947879823E+03  0.19541590518E+04  0.90273282653E+03 0.  0.
         23    2    4    4    0    0 -0.15011899699E+03  0.19498809107E+03  0.97781029380E+02  0.28020661244E+03  0.91643586992E+02 0.  0.
         23    2    4    4    0    0  0.38098958474E+03  0.12019914891E+04 -0.10972598276E+04  0.16739524394E+04  0.90559574462E+02 0.  0.
          4    1    3    3  502    0 -0.18852249779E+03 -0.12604162482E+04 -0.10791936131E+04  0.16699846423E+04  0.00000000000E+00 0. -1.
         -3    1    3    3    0  502 -0.42348089960E+02 -0.13656333197E+03 -0.10179400536E+03  0.17551331542E+03  0.00000000000E+00 0.  1.
         13    1    5    5    0    0 -0.65359815082E+01  0.29405180301E+02 -0.15081566812E+02  0.33687346888E+02  0.00000000000E+00 0. -1.
        -13    1    5    5    0    0 -0.14358301548E+03  0.16558291076E+03  0.11286259619E+03  0.24651926556E+03  0.00000000000E+00 0.  1.
          1    1    6    6  503    0  0.30405263044E+03  0.89116251332E+03 -0.86232873869E+03  0.12768044019E+04  0.00000000000E+00 0. -1.
         -1    1    6    6    0  503  0.76936954296E+02  0.31082897575E+03 -0.23493108892E+03  0.39714803744E+03  0.00000000000E+00 0.  1.
<mgrwt>
<rscale>  0 0.31117454E+04</rscale>
<asrwt>0</asrwt>
<pdfrwt beam="1">  1        2 0.46000950E+00 0.31117454E+04</pdfrwt>
<pdfrwt beam="2">  1       -1 0.12455312E+00 0.31117454E+04</pdfrwt>
<totfact> 0.96034939E-01</totfact>
</mgrwt>
</event>
<event>
12    7  0.1698542E-007  0.2208478E+04  0.7818608E-02  0.8514908E-01
          2   -1    0    0  501    0  0.00000000000E+00  0.00000000000E+00  0.24211062931E+04  0.24211062931E+04  0.00000000000E+00 0. -1.
         -1   -1    0    0    0  501 -0.00000000000E+00 -0.00000000000E+00 -0.50363063595E+03  0.50363063595E+03  0.00000000000E+00 0.  1.
         24    2    1    2    0    0 -0.23276073332E+03 -0.72142140033E+03  0.11438464308E+03  0.77083155650E+03  0.80442812549E+02 0.  0.
        254    2    1    2    0    0  0.23276073332E+03  0.72142140033E+03  0.18030910140E+04  0.21539053725E+04  0.90196715744E+03 0.  0.
         23    2    4    4    0    0 -0.25764022397E+03  0.24880786756E+03  0.22547247293E+03  0.43298962501E+03  0.91423953886E+02 0.  0.
         23    2    4    4    0    0  0.49040095730E+03  0.47261353277E+03  0.15776185411E+04  0.17209157475E+04  0.93883430773E+02 0.  0.
          2    1    3    3  502    0 -0.52011800715E+02 -0.85561465323E+02  0.29293148838E+02  0.10432679584E+03  0.00000000000E+00 0. -1.
         -1    1    3    3    0  502 -0.18074893261E+03 -0.63585993500E+03  0.85091494246E+02  0.66650476065E+03  0.00000000000E+00 0.  1.
         13    1    5    5    0    0 -0.19567522988E+03  0.13885335218E+03  0.11879796851E+03  0.26773495536E+03  0.00000000000E+00 0. -1.
        -13    1    5    5    0    0 -0.61964994093E+02  0.10995451538E+03  0.10667450442E+03  0.16525466965E+03  0.00000000000E+00 0.  1.
          1    1    6    6  503    0  0.17342819437E+03  0.22059187299E+03  0.58277284336E+03  0.64680932274E+03  0.00000000000E+00 0. -1.
         -1    1    6    6    0  503  0.31697276293E+03  0.25202165978E+03  0.99484569776E+03  0.10741064248E+04  0.00000000000E+00 0.  1.
<mgrwt>
<rscale>  0 0.22084776E+04</rscale>
<asrwt>0</asrwt>
<pdfrwt beam="1">  1        2 0.37247789E+00 0.22084776E+04</pdfrwt>
<pdfrwt beam="2">  1       -1 0.77481637E-01 0.22084776E+04</pdfrwt>
<totfact> 0.67091011E+00</totfact>
</mgrwt>
</event>
<event>
12    7  0.1757317E-007  0.2111507E+04  0.7818608E-02  0.8556191E-01
          2   -1    0    0  501    0  0.00000000000E+00  0.00000000000E+00  0.12635402237E+04  0.12635402237E+04  0.00000000000E+00 0. -1.
         -1   -1    0    0    0  501 -0.00000000000E+00 -0.00000000000E+00 -0.88213686806E+03  0.88213686806E+03  0.00000000000E+00 0.  1.
         24    2    1    2    0    0 -0.11669151580E+03 -0.38735663588E+02  0.10248611207E+04  0.10348230303E+04  0.73491672632E+02 0.  0.
        254    2    1    2    0    0  0.11669151580E+03  0.38735663588E+02 -0.64345776507E+03  0.11108540614E+04  0.89712958303E+03 0.  0.
         23    2    4    4    0    0  0.29660994383E+03  0.16681892695E+03  0.69651631401E+02  0.35863775308E+03  0.89239425215E+02 0.  0.
         23    2    4    4    0    0 -0.17991842802E+03 -0.12808326337E+03 -0.71310939648E+03  0.75221630829E+03  0.92349336900E+02 0.  0.
          2    1    3    3  502    0 -0.97621715237E+02 -0.38284719659E+01  0.84423698646E+03  0.84987101714E+03  0.00000000000E+00 0. -1.
         -1    1    3    3    0  502 -0.19069800566E+02 -0.34907191622E+02  0.18062413423E+03  0.18495201320E+03  0.00000000000E+00 0.  1.
         13    1    5    5    0    0  0.23183669972E+03  0.15829733519E+03  0.81335042112E+02  0.29226989367E+03  0.00000000000E+00 0. -1.
        -13    1    5    5    0    0  0.64773244102E+02  0.85215917594E+01 -0.11683410711E+02  0.66367859416E+02  0.00000000000E+00 0.  1.
          1    1    6    6  503    0 -0.15991987615E+03 -0.14279293495E+03 -0.63018947535E+03  0.66565979592E+03  0.00000000000E+00 0. -1.
         -1    1    6    6    0  503 -0.19998551873E+02  0.14709671588E+02 -0.82919921121E+02  0.86556512372E+02  0.00000000000E+00 0.  1.
<mgrwt>
<rscale>  0 0.21115070E+04</rscale>
<asrwt>0</asrwt>
<pdfrwt beam="1">  1        2 0.19439080E+00 0.21115070E+04</pdfrwt>
<pdfrwt beam="2">  1       -1 0.13571336E+00 0.21115070E+04</pdfrwt>
<totfact> 0.82827860E+00</totfact>
</mgrwt>
</event>
<event>
12    7  0.1698542E-007  0.2837197E+04  0.7818608E-02  0.8291812E-01
          2   -1    0    0  501    0  0.00000000000E+00  0.00000000000E+00  0.86321211324E+03  0.86321211324E+03  0.00000000000E+00 0. -1.
         -1   -1    0    0    0  501 -0.00000000000E+00 -0.00000000000E+00 -0.23313181531E+04  0.23313181531E+04  0.00000000000E+00 0.  1.
         24    2    1    2    0    0  0.11311488901E+04 -0.50845226374E+03 -0.99303727537E+03  0.15907109098E+04  0.78845749147E+02 0.  0.
        254    2    1    2    0    0 -0.11311488901E+04  0.50845226374E+03 -0.47506876447E+03  0.16038193565E+04  0.89918000503E+03 0.  0.
         23    2    4    4    0    0 -0.93858684135E+03  0.75092799643E+03 -0.42180599668E+03  0.12767561374E+04  0.85719431841E+02 0.  0.
         23    2    4    4    0    0 -0.19256204872E+03 -0.24247573268E+03 -0.53262767791E+02  0.32706321914E+03  0.90877958466E+02 0.  0.
          4    1    3    3  502    0  0.66291737559E+02 -0.10587706511E+02 -0.50576466832E+02  0.84051609116E+02  0.00000000000E+00 0. -1.
         -3    1    3    3    0  502  0.10648571525E+04 -0.49786455723E+03 -0.94246080854E+03  0.15066593007E+04  0.00000000000E+00 0.  1.
         13    1    5    5    0    0 -0.15575491639E+03  0.13571796895E+03 -0.10619615698E+03  0.23228556742E+03  0.00000000000E+00 0.  1.
        -13    1    5    5    0    0 -0.78283192497E+03  0.61521002748E+03 -0.31560983970E+03  0.10444705700E+04  0.00000000000E+00 0. -1.
          3    1    6    6  503    0 -0.10259043710E+03 -0.16327220058E+03 -0.71819346966E+02  0.20576838403E+03  0.00000000000E+00 0. -1.
         -3    1    6    6    0  503 -0.89971611617E+02 -0.79203532107E+02  0.18556579174E+02  0.12129483512E+03  0.00000000000E+00 0.  1.
<mgrwt>
<rscale>  0 0.28371973E+04</rscale>
<asrwt>0</asrwt>
<pdfrwt beam="1">  1        2 0.13280186E+00 0.28371973E+04</pdfrwt>
<pdfrwt beam="2">  1       -1 0.35866433E+00 0.28371973E+04</pdfrwt>
<totfact> 0.41809763E-01</totfact>
</mgrwt>
</event>
<event>
12    7  0.1698542E-007  0.1990920E+04  0.7818608E-02  0.8610878E-01
         -1   -1    0    0    0  501 -0.00000000000E+00  0.00000000000E+00  0.51939074266E+03  0.51939074266E+03  0.00000000000E+00 0.  1.
          2   -1    0    0  501    0  0.00000000000E+00 -0.00000000000E+00 -0.19078903192E+04  0.19078903192E+04  0.00000000000E+00 0. -1.
         24    2    1    2    0    0 -0.79623077829E+01  0.52503698165E+03  0.16379856158E+03  0.55542248709E+03  0.77051540808E+02 0.  0.
        254    2    1    2    0    0  0.79623077829E+01 -0.52503698165E+03 -0.15522981381E+04  0.18718585747E+04  0.90470867347E+03 0.  0.
         23    2    4    4    0    0  0.15155363844E+03  0.12453461777E+03 -0.93254757896E+03  0.95781590149E+03  0.96379135536E+02 0.  0.
         23    2    4    4    0    0 -0.14359133066E+03 -0.64957159942E+03 -0.61975055912E+03  0.91404267324E+03  0.93922946975E+02 0.  0.
          2    1    3    3  502    0  0.26402497095E+02  0.13632563593E+03  0.62407334195E+02  0.15223812343E+03  0.00000000000E+00 0. -1.
         -1    1    3    3    0  502 -0.34364804878E+02  0.38871134572E+03  0.10139122739E+03  0.40318436366E+03  0.00000000000E+00 0.  1.
         13    1    5    5    0    0 -0.75162475330E+01  0.20055737576E+01 -0.14044960292E+03  0.14066487573E+03  0.00000000000E+00 0.  1.
        -13    1    5    5    0    0  0.15906988598E+03  0.12252904401E+03 -0.79209797604E+03  0.81715102575E+03  0.00000000000E+00 0. -1.
          1    1    6    6  503    0 -0.67647382068E+02 -0.17301729835E+03 -0.13183720023E+03  0.22779859788E+03  0.00000000000E+00 0. -1.
         -1    1    6    6    0  503 -0.75943948592E+02 -0.47655430106E+03 -0.48791335889E+03  0.68624407537E+03  0.00000000000E+00 0.  1.
<mgrwt>
<rscale>  0 0.19909200E+04</rscale>
<asrwt>0</asrwt>
<pdfrwt beam="1">  1        2 0.29352159E+00 0.19909200E+04</pdfrwt>
<pdfrwt beam="2">  1       -1 0.79906268E-01 0.19909200E+04</pdfrwt>
<totfact> 0.12444348E+01</totfact>
</mgrwt>
</event>
<event>
12    7  0.1698542E-007  0.1283436E+04  0.7818608E-02  0.9042805E-01
          2   -1    0    0  501    0  0.00000000000E+00  0.00000000000E+00  0.10564378911E+04  0.10564378911E+04  0.00000000000E+00 0. -1.
         -1   -1    0    0    0  501 -0.00000000000E+00 -0.00000000000E+00 -0.38980221249E+03  0.38980221249E+03  0.00000000000E+00 0.  1.
         24    2    1    2    0    0  0.20670572889E+03  0.10005362691E+03  0.42065495407E+03  0.48588207070E+03  0.79955047538E+02 0.  0.
        254    2    1    2    0    0 -0.20670572889E+03 -0.10005362691E+03  0.24598072451E+03  0.96035803286E+03  0.89946820280E+03 0.  0.
         23    2    4    4    0    0 -0.15981089748E+03 -0.21105552139E+03 -0.28999769934E+03  0.40336551401E+03  0.92309892262E+02 0.  0.
         23    2    4    4    0    0 -0.46894831403E+02  0.11100189448E+03  0.53597842385E+03  0.55699251885E+03  0.91908919227E+02 0.  0.
          2    1    3    3  502    0  0.20539511230E+03  0.77742624240E+02  0.36599513119E+03  0.42682959578E+03  0.00000000000E+00 0. -1.
         -1    1    3    3    0  502  0.13106165856E+01  0.22311002671E+02  0.54659822887E+02  0.59052474919E+02  0.00000000000E+00 0.  1.
         13    1    5    5    0    0 -0.14173577779E+03 -0.19838832396E+03 -0.29290381465E+03  0.38110313883E+03  0.00000000000E+00 0.  1.
        -13    1    5    5    0    0 -0.18075119688E+02 -0.12667197432E+02  0.29061153118E+01  0.22262375182E+02  0.00000000000E+00 0. -1.
          3    1    6    6  503    0 -0.62123447170E+00 -0.11271789581E+02  0.10235644871E+02  0.15238359444E+02  0.00000000000E+00 0. -1.
         -3    1    6    6    0  503 -0.46273596931E+02  0.12227368406E+03  0.52574277898E+03  0.54175415941E+03  0.00000000000E+00 0.  1.
<mgrwt>
<rscale>  0 0.12834357E+04</rscale>
<asrwt>0</asrwt>
<pdfrwt beam="1">  1        2 0.16252890E+00 0.12834357E+04</pdfrwt>
<pdfrwt beam="2">  1       -1 0.59969572E-01 0.12834357E+04</pdfrwt>
<totfact> 0.73179645E+01</totfact>
</mgrwt>
</event>
<event>
12    7  0.1706408E-007  0.1541759E+04  0.7818608E-02  0.8857149E-01
         -1   -1    0    0    0  501 -0.00000000000E+00  0.00000000000E+00  0.24339026076E+03  0.24339026076E+03  0.00000000000E+00 0.  1.
          2   -1    0    0  501    0  0.00000000000E+00 -0.00000000000E+00 -0.24415745569E+04  0.24415745569E+04  0.00000000000E+00 0. -1.
         24    2    1    2    0    0  0.18513936306E+03  0.14390974655E+03  0.51551124148E+02  0.25050200365E+03  0.71464232509E+02 0.  0.
        254    2    1    2    0    0 -0.18513936306E+03 -0.14390974655E+03 -0.22497354203E+04  0.24344628140E+04  0.90017394573E+03 0.  0.
         23    2    4    4    0    0 -0.45768290993E+03 -0.32372610710E+03 -0.16413716681E+04  0.17368018362E+04  0.90041251847E+02 0.  0.
         23    2    4    4    0    0  0.27254354687E+03  0.17981636055E+03 -0.60836375215E+03  0.69766097774E+03  0.10005236864E+03 0.  0.
          4    1    3    3  502    0  0.16375849939E+02 -0.58764652049E+01  0.12684113653E+02  0.21531094809E+02  0.00000000000E+00 0. -1.
         -3    1    3    3    0  502  0.16876351312E+03  0.14978621176E+03  0.38867010495E+02  0.22897090884E+03  0.00000000000E+00 0.  1.
         13    1    5    5    0    0 -0.25214168613E+02 -0.49783375687E+02 -0.16823842970E+03  0.17725210301E+03  0.00000000000E+00 0. -1.
        -13    1    5    5    0    0 -0.43246874132E+03 -0.27394273141E+03 -0.14731332384E+04  0.15595497332E+04  0.00000000000E+00 0.  1.
          1    1    6    6  503    0  0.39196289261E+02  0.10314619870E+02 -0.27035946938E+02  0.48720456706E+02  0.00000000000E+00 0. -1.
         -1    1    6    6    0  503  0.23334725761E+03  0.16950174068E+03 -0.58132780522E+03  0.64894052104E+03  0.00000000000E+00 0.  1.
<mgrwt>
<rscale>  0 0.15417593E+04</rscale>
<asrwt>0</asrwt>
<pdfrwt beam="1">  1        2 0.37562686E+00 0.15417593E+04</pdfrwt>
<pdfrwt beam="2">  1       -1 0.37444655E-01 0.15417593E+04</pdfrwt>
<totfact> 0.28414364E+01</totfact>
</mgrwt>
</event>
<event>
12    7  0.1698542E-007  0.1740973E+04  0.7818608E-02  0.8738335E-01
          2   -1    0    0  501    0  0.00000000000E+00  0.00000000000E+00  0.10134435994E+04  0.10134435994E+04  0.00000000000E+00 0. -1.
         -1   -1    0    0    0  501 -0.00000000000E+00 -0.00000000000E+00 -0.74769488460E+03  0.74769488460E+03  0.00000000000E+00 0.  1.
         24    2    1    2    0    0 -0.19294829349E+03  0.20397011198E+03  0.67060741126E+03  0.73155222630E+03  0.81372656534E+02 0.  0.
        254    2    1    2    0    0  0.19294829349E+03 -0.20397011198E+03 -0.40485869648E+03  0.10295862577E+04  0.90404891866E+03 0.  0.
         23    2    4    4    0    0 -0.19392563658E+03 -0.40053075225E+03 -0.36722828721E+03  0.58446441309E+03  0.93327376561E+02 0.  0.
         23    2    4    4    0    0  0.38687393007E+03  0.19656064027E+03 -0.37630409268E+02  0.44512184459E+03  0.91705429262E+02 0.  0.
          4    1    3    3  502    0 -0.15765321487E+03  0.19579385881E+03  0.53377468547E+03  0.59000439503E+03  0.00000000000E+00 0. -1.
         -3    1    3    3    0  502 -0.35295078617E+02  0.81762531654E+01  0.13683272579E+03  0.14154783127E+03  0.00000000000E+00 0.  1.
         13    1    5    5    0    0 -0.10979440578E+02 -0.61380841352E+01  0.35500678657E+01  0.13070086997E+02  0.00000000000E+00 0. -1.
        -13    1    5    5    0    0 -0.18294619600E+03 -0.39439266812E+03 -0.37077835507E+03  0.57139432609E+03  0.00000000000E+00 0.  1.
          3    1    6    6  503    0  0.12212944939E+02 -0.48891784722E+01 -0.13805420434E+02  0.19069602082E+02  0.00000000000E+00 0. -1.
         -3    1    6    6    0  503  0.37466098513E+03  0.20144981875E+03 -0.23824988834E+02  0.42605224250E+03  0.00000000000E+00 0.  1.
<mgrwt>
<rscale>  0 0.17409728E+04</rscale>
<asrwt>0</asrwt>
<pdfrwt beam="1">  1        2 0.15591440E+00 0.17409728E+04</pdfrwt>
<pdfrwt beam="2">  1       -1 0.11502998E+00 0.17409728E+04</pdfrwt>
<totfact> 0.18332231E+01</totfact>
</mgrwt>
</event>
<event>
12    7  0.1698542E-007  0.2658321E+04  0.7818608E-02  0.8348656E-01
          2   -1    0    0  501    0  0.00000000000E+00  0.00000000000E+00  0.22206667065E+04  0.22206667065E+04  0.00000000000E+00 0. -1.
         -1   -1    0    0    0  501 -0.00000000000E+00 -0.00000000000E+00 -0.79555743524E+03  0.79555743524E+03  0.00000000000E+00 0.  1.
         24    2    1    2    0    0 -0.91606859620E+03 -0.43845909723E+03 -0.48769088552E+02  0.10199179895E+04  0.80163759564E+02 0.  0.
        254    2    1    2    0    0  0.91606859620E+03  0.43845909723E+03  0.14738783598E+04  0.19963061523E+04  0.88402080361E+03 0.  0.
         23    2    4    4    0    0  0.17165782110E+02  0.43230371549E+03  0.47673530185E+03  0.65063557423E+03  0.94175028099E+02 0.  0.
         23    2    4    4    0    0  0.89890281409E+03  0.61553817335E+01  0.99714305799E+03  0.13456705781E+04  0.92037322230E+02 0.  0.
          4    1    3    3  502    0 -0.27712566675E+03 -0.13766659334E+03 -0.51595962205E+02  0.31370825525E+03  0.00000000000E+00 0. -1.
         -3    1    3    3    0  502 -0.63894292945E+03 -0.30079250389E+03  0.28268736534E+01  0.70620973422E+03  0.00000000000E+00 0.  1.
         13    1    5    5    0    0 -0.20488422064E+02  0.36126648685E+03  0.37743483879E+03  0.52286738997E+03  0.00000000000E+00 0. -1.
        -13    1    5    5    0    0  0.37654204173E+02  0.71037228638E+02  0.99300463057E+02  0.12776818425E+03  0.00000000000E+00 0.  1.
          4    1    6    6  503    0  0.85226190188E+03 -0.45820028622E+01  0.96759685074E+03  0.12894242939E+04  0.00000000000E+00 0. -1.
         -4    1    6    6    0  503  0.46640912215E+02  0.10737384596E+02  0.29546207254E+02  0.56246284174E+02  0.00000000000E+00 0.  1.
<mgrwt>
<rscale>  0 0.26583212E+04</rscale>
<asrwt>0</asrwt>
<pdfrwt beam="1">  1        2 0.34164103E+00 0.26583212E+04</pdfrwt>
<pdfrwt beam="2">  1       -1 0.12239345E+00 0.26583212E+04</pdfrwt>
<totfact> 0.29677308E+00</totfact>
</mgrwt>
</event>
<event>
12    7  0.1698542E-007  0.1204132E+04  0.7818608E-02  0.9109247E-01
         -1   -1    0    0    0  501 -0.00000000000E+00  0.00000000000E+00  0.23100284732E+03  0.23100284732E+03  0.00000000000E+00 0.  1.
          2   -1    0    0  501    0  0.00000000000E+00 -0.00000000000E+00 -0.15691738222E+04  0.15691738222E+04  0.00000000000E+00 0. -1.
         24    2    1    2    0    0  0.42240977628E+02  0.20722671474E+03 -0.50391115280E+03  0.55220332972E+03  0.79213988289E+02 0.  0.
        254    2    1    2    0    0 -0.42240977628E+02 -0.20722671474E+03 -0.83425982204E+03  0.12479733398E+04  0.90372606171E+03 0.  0.
         23    2    4    4    0    0 -0.41873160874E+03 -0.27185332990E+03 -0.61866746026E+03  0.80026077953E+03  0.91801392865E+02 0.  0.
         23    2    4    4    0    0  0.37649063111E+03  0.64626615163E+02 -0.21559236178E+03  0.44771256024E+03  0.89692114710E+02 0.  0.
          2    1    3    3  502    0  0.64254915525E+02  0.17438693684E+03 -0.40155214147E+03  0.44247442890E+03  0.00000000000E+00 0. -1.
         -1    1    3    3    0  502 -0.22013937897E+02  0.32839777899E+02 -0.10235901134E+03  0.10972890082E+03  0.00000000000E+00 0.  1.
         13    1    5    5    0    0 -0.37435352338E+01 -0.22654474337E+01 -0.33991900398E+02  0.34272373726E+02  0.00000000000E+00 0.  1.
        -13    1    5    5    0    0 -0.41498807350E+03 -0.26958788247E+03 -0.58467555986E+03  0.76598840580E+03  0.00000000000E+00 0. -1.
          1    1    6    6  503    0  0.17135009039E+03 -0.14814748966E+02 -0.10478944454E+03  0.20139800881E+03  0.00000000000E+00 0. -1.
         -1    1    6    6    0  503  0.20514054071E+03  0.79441364130E+02 -0.11080291724E+03  0.24631455143E+03  0.00000000000E+00 0.  1.
<mgrwt>
<rscale>  0 0.12041323E+04</rscale>
<asrwt>0</asrwt>
<pdfrwt beam="1">  1        2 0.24141135E+00 0.12041323E+04</pdfrwt>
<pdfrwt beam="2">  1       -1 0.35538900E-01 0.12041323E+04</pdfrwt>
<totfact> 0.98430700E+01</totfact>
</mgrwt>
</event>
<event>
12    7  0.1698542E-007  0.1554079E+04  0.7818608E-02  0.8849267E-01
         -1   -1    0    0    0  501 -0.00000000000E+00  0.00000000000E+00  0.11967888334E+04  0.11967888334E+04  0.00000000000E+00 0.  1.
          2   -1    0    0  501    0  0.00000000000E+00 -0.00000000000E+00 -0.50450844510E+03  0.50450844510E+03  0.00000000000E+00 0. -1.
         24    2    1    2    0    0  0.29315649596E+03 -0.18347067796E+03  0.66720001711E+03  0.75584827074E+03  0.80922955713E+02 0.  0.
        254    2    1    2    0    0 -0.29315649596E+03  0.18347067796E+03  0.25080371179E+02  0.94544900775E+03  0.87956954270E+03 0.  0.
         23    2    4    4    0    0 -0.46885317232E+03  0.22540310547E+03 -0.26569811956E+03  0.59104974870E+03  0.90080283949E+02 0.  0.
         23    2    4    4    0    0  0.17569667635E+03 -0.41932427507E+02  0.29077849074E+03  0.35439925905E+03  0.91755400836E+02 0.  0.
          2    1    3    3  502    0  0.65309663779E+02 -0.45815992396E+01  0.12651591066E+03  0.14245216350E+03  0.00000000000E+00 0. -1.
         -3    1    3    3    0  502  0.22784683218E+03 -0.17888907872E+03  0.54068410645E+03  0.61339610725E+03  0.00000000000E+00 0.  1.
         13    1    5    5    0    0 -0.42663753920E+03  0.22930932174E+03 -0.25473672569E+03  0.54725967721E+03  0.00000000000E+00 0. -1.
        -13    1    5    5    0    0 -0.42215633122E+02 -0.39062162734E+01 -0.10961393871E+02  0.43790071489E+02  0.00000000000E+00 0.  1.
          1    1    6    6  503    0  0.58096165113E+02  0.17016747688E+02  0.44305341207E+02  0.75017980260E+02  0.00000000000E+00 0.  1.
         -1    1    6    6    0  503  0.11760051124E+03 -0.58949175195E+02  0.24647314953E+03  0.27938127879E+03  0.00000000000E+00 0. -1.
<mgrwt>
<rscale>  0 0.15540786E+04</rscale>
<asrwt>0</asrwt>
<pdfrwt beam="1">  1        2 0.77616684E-01 0.15540786E+04</pdfrwt>
<pdfrwt beam="2">  1       -1 0.18412136E+00 0.15540786E+04</pdfrwt>
<totfact> 0.13032951E+01</totfact>
</mgrwt>
</event>
<event>
12    7  0.1698542E-007  0.1843746E+04  0.7818608E-02  0.8683375E-01
          2   -1    0    0  501    0  0.00000000000E+00  0.00000000000E+00  0.10625235238E+04  0.10625235238E+04  0.00000000000E+00 0. -1.
         -1   -1    0    0    0  501 -0.00000000000E+00 -0.00000000000E+00 -0.79984135406E+03  0.79984135406E+03  0.00000000000E+00 0.  1.
         24    2    1    2    0    0 -0.25571000249E+03 -0.64967269927E+03  0.77095456422E+02  0.70695819722E+03  0.79899697521E+02 0.  0.
        254    2    1    2    0    0  0.25571000249E+03  0.64967269927E+03  0.18558671335E+03  0.11554066807E+04  0.90169836863E+03 0.  0.
         23    2    4    4    0    0  0.19485890585E+03  0.44671976268E+03  0.53961795602E+03  0.73290775199E+03  0.91856926244E+02 0.  0.
         23    2    4    4    0    0  0.60851096636E+02  0.20295293659E+03 -0.35403124267E+03  0.42249892868E+03  0.90964133099E+02 0.  0.
          4    1    3    3  502    0 -0.24678350069E+03 -0.61798413675E+03  0.55850739943E+02  0.66777675509E+03  0.00000000000E+00 0. -1.
         -3    1    3    3    0  502 -0.89265017948E+01 -0.31688562526E+02  0.21244716479E+02  0.39181442131E+02  0.00000000000E+00 0.  1.
         13    1    5    5    0    0  0.66735138774E+02  0.14194576159E+03  0.11366496665E+03  0.19370571139E+03  0.00000000000E+00 0.  1.
        -13    1    5    5    0    0  0.12812376708E+03  0.30477400109E+03  0.42595298937E+03  0.53920204060E+03  0.00000000000E+00 0. -1.
          2    1    6    6  503    0  0.38652695208E+02  0.20458215164E+03 -0.31565057434E+03  0.37813115806E+03  0.00000000000E+00 0. -1.
         -2    1    6    6    0  503  0.22198401428E+02 -0.16292150451E+01 -0.38380668339E+02  0.44367770619E+02  0.00000000000E+00 0.  1.
<mgrwt>
<rscale>  0 0.18437465E+04</rscale>
<asrwt>0</asrwt>
<pdfrwt beam="1">  1        2 0.16346516E+00 0.18437465E+04</pdfrwt>
<pdfrwt beam="2">  1       -1 0.12305252E+00 0.18437465E+04</pdfrwt>
<totfact> 0.14356079E+01</totfact>
</mgrwt>
</event>
<event>
12    7  0.1698542E-007  0.1391047E+04  0.7818608E-02  0.8960324E-01
         -3   -1    0    0    0  501 -0.00000000000E+00  0.00000000000E+00  0.18307211560E+03  0.18307211560E+03  0.00000000000E+00 0.  1.
          2   -1    0    0  501    0  0.00000000000E+00 -0.00000000000E+00 -0.26424191424E+04  0.26424191424E+04  0.00000000000E+00 0. -1.
         24    2    1    2    0    0  0.15969842064E+03 -0.19031316604E+03 -0.13499204518E+04  0.13747465206E+04  0.76942076525E+02 0.  0.
        254    2    1    2    0    0 -0.15969842064E+03  0.19031316604E+03 -0.11094265750E+04  0.14507447374E+04  0.90117161568E+03 0.  0.
         23    2    4    4    0    0 -0.11491352326E+03 -0.17546760435E+03  0.47843958941E+02  0.23285472319E+03  0.89097024079E+02 0.  0.
         23    2    4    4    0    0 -0.44784897382E+02  0.36578077040E+03 -0.11572705340E+04  0.12178900142E+04  0.90441908622E+02 0.  0.
          2    1    3    3  502    0  0.10891254347E+03 -0.10765783607E+03 -0.99875927807E+03  0.10104317133E+04  0.00000000000E+00 0. -1.
         -1    1    3    3    0  502  0.50785877172E+02 -0.82655329976E+02 -0.35116117372E+03  0.36431480731E+03  0.00000000000E+00 0.  1.
         13    1    5    5    0    0 -0.52944986628E+02 -0.31269374136E+02  0.44441189343E+02  0.75868074168E+02  0.00000000000E+00 0. -1.
        -13    1    5    5    0    0 -0.61968536629E+02 -0.14419823022E+03  0.34027695980E+01  0.15698664902E+03  0.00000000000E+00 0.  1.
          3    1    6    6  503    0 -0.52406946588E+02  0.36334672699E+03 -0.11496522548E+04  0.12068420108E+04  0.00000000000E+00 0. -1.
         -3    1    6    6    0  503  0.76220492051E+01  0.24340434103E+01 -0.76182791804E+01  0.11048003398E+02  0.00000000000E+00 0.  1.
<mgrwt>
<rscale>  0 0.13910475E+04</rscale>
<asrwt>0</asrwt>
<pdfrwt beam="1">  1        2 0.40652605E+00 0.13910475E+04</pdfrwt>
<pdfrwt beam="2">  1       -3 0.28164939E-01 0.13910475E+04</pdfrwt>
<totfact> 0.22318201E+01</totfact>
</mgrwt>
</event>
<event>
12    7  0.1698542E-007  0.2981387E+04  0.7818608E-02  0.8249066E-01
         -1   -1    0    0    0  501 -0.00000000000E+00  0.00000000000E+00  0.14173922670E+04  0.14173922670E+04  0.00000000000E+00 0.  1.
          2   -1    0    0  501    0  0.00000000000E+00 -0.00000000000E+00 -0.15677855970E+04  0.15677855970E+04  0.00000000000E+00 0. -1.
         24    2    1    2    0    0  0.98148652283E+02  0.27873146784E+03  0.12537934842E+04  0.12906326030E+04  0.80062637928E+02 0.  0.
        254    2    1    2    0    0 -0.98148652283E+02 -0.27873146784E+03 -0.14041868141E+04  0.16945452610E+04  0.90134268917E+03 0.  0.
         23    2    4    4    0    0  0.29560110657E+03 -0.31175911517E+03 -0.11103195454E+04  0.11938863931E+04  0.89339054629E+02 0.  0.
         23    2    4    4    0    0 -0.39374975885E+03  0.33027647330E+02 -0.29386726873E+03  0.50065886783E+03  0.90397080811E+02 0.  0.
          4    1    3    3  502    0  0.59344758149E+02  0.10275333437E+03  0.36669783303E+03  0.38541840744E+03  0.00000000000E+00 0. -1.
         -3    1    3    3    0  502  0.38803894134E+02  0.17597813348E+03  0.88709565114E+03  0.90521419561E+03  0.00000000000E+00 0.  1.
         13    1    5    5    0    0  0.56666593044E+02 -0.21157780223E+02 -0.19821240937E+03  0.20723637147E+03  0.00000000000E+00 0. -1.
        -13    1    5    5    0    0  0.23893451353E+03 -0.29060133495E+03 -0.91210713604E+03  0.98665002166E+03  0.00000000000E+00 0.  1.
          4    1    6    6  503    0 -0.18842935834E+03  0.27512527860E+00 -0.87642999557E+02  0.20781480734E+03  0.00000000000E+00 0. -1.
         -4    1    6    6    0  503 -0.20532040051E+03  0.32752522051E+02 -0.20622426917E+03  0.29284406049E+03  0.00000000000E+00 0.  1.
<mgrwt>
<rscale>  0 0.29813870E+04</rscale>
<asrwt>0</asrwt>
<pdfrwt beam="1">  1        2 0.24119778E+00 0.29813870E+04</pdfrwt>
<pdfrwt beam="2">  1       -1 0.21806035E+00 0.29813870E+04</pdfrwt>
<totfact> 0.12868213E+00</totfact>
</mgrwt>
</event>
<event>
12    7  0.1698542E-007  0.1172248E+04  0.7818608E-02  0.9137500E-01
         -1   -1    0    0    0  501 -0.00000000000E+00  0.00000000000E+00  0.18808857971E+03  0.18808857971E+03  0.00000000000E+00 0.  1.
          2   -1    0    0  501    0  0.00000000000E+00 -0.00000000000E+00 -0.18264884156E+04  0.18264884156E+04  0.00000000000E+00 0. -1.
         24    2    1    2    0    0 -0.17949559335E+03 -0.10667769671E+03 -0.49832842797E+03  0.54625227949E+03  0.80383653315E+02 0.  0.
        254    2    1    2    0    0  0.17949559335E+03  0.10667769671E+03 -0.11400714079E+04  0.14683247158E+04  0.90145208244E+03 0.  0.
         23    2    4    4    0    0  0.45985950393E+03  0.24100034394E+02 -0.10470882054E+04  0.11474294642E+04  0.90272313594E+02 0.  0.
         23    2    4    4    0    0 -0.28036391057E+03  0.82577662312E+02 -0.92983202578E+02  0.32089525159E+03  0.94365745207E+02 0.  0.
          4    1    3    3  502    0 -0.16218148564E+03 -0.12006912779E+03 -0.44561205271E+03  0.48917229199E+03  0.00000000000E+00 0. -1.
         -3    1    3    3    0  502 -0.17314107710E+02  0.13391431086E+02 -0.52716375259E+02  0.57079987498E+02  0.00000000000E+00 0.  1.
         13    1    5    5    0    0  0.43156987541E+03  0.21309790338E+02 -0.10217071503E+04  0.11093205873E+04  0.00000000000E+00 0. -1.
        -13    1    5    5    0    0  0.28289628521E+02  0.27902440565E+01 -0.25381055102E+02  0.38108876942E+02  0.00000000000E+00 0.  1.
          4    1    6    6  503    0 -0.26888881396E+03  0.98365046361E+02 -0.79416306768E+02  0.29712594367E+03  0.00000000000E+00 0. -1.
         -4    1    6    6    0  503 -0.11475096613E+02 -0.15787384050E+02 -0.13566895810E+02  0.23769307927E+02  0.00000000000E+00 0.  1.
<mgrwt>
<rscale>  0 0.11722485E+04</rscale>
<asrwt>0</asrwt>
<pdfrwt beam="1">  1        2 0.28099823E+00 0.11722485E+04</pdfrwt>
<pdfrwt beam="2">  1       -1 0.28936704E-01 0.11722485E+04</pdfrwt>
<totfact> 0.10215772E+02</totfact>
</mgrwt>
</event>
<event>
12    7  0.1698542E-007  0.9942431E+03  0.7818608E-02  0.9314882E-01
          2   -1    0    0  501    0  0.00000000000E+00  0.00000000000E+00  0.20682292216E+04  0.20682292216E+04  0.00000000000E+00 0. -1.
         -1   -1    0    0    0  501 -0.00000000000E+00 -0.00000000000E+00 -0.11948860674E+03  0.11948860674E+03  0.00000000000E+00 0.  1.
         24    2    1    2    0    0 -0.72813618668E+01  0.61739897708E+02  0.18989731461E+03  0.21523042505E+03  0.79989452868E+02 0.  0.
        254    2    1    2    0    0  0.72813618668E+01 -0.61739897708E+02  0.17588433003E+04  0.19724874033E+04  0.89068062073E+03 0.  0.
         23    2    4    4    0    0 -0.30121495764E+03  0.16646520888E+03  0.13803026078E+04  0.14250920945E+04  0.84918032848E+02 0.  0.
         23    2    4    4    0    0  0.30849631951E+03 -0.22820510659E+03  0.37854069249E+03  0.54739530881E+03  0.95399257933E+02 0.  0.
          2    1    3    3  502    0 -0.14611952984E+02  0.40545975955E+02  0.18782807024E+03  0.19270928703E+03  0.00000000000E+00 0. -1.
         -1    1    3    3    0  502  0.73305911174E+01  0.21193921753E+02  0.20692443683E+01  0.22521138019E+02  0.00000000000E+00 0.  1.
         13    1    5    5    0    0 -0.54055963078E+01  0.26232028653E+02  0.12163903144E+03  0.12455277503E+03  0.00000000000E+00 0. -1.
        -13    1    5    5    0    0 -0.29580936133E+03  0.14023318023E+03  0.12586635764E+04  0.13005393195E+04  0.00000000000E+00 0.  1.
          4    1    6    6  503    0  0.13092210625E+03 -0.51112278446E+02  0.17468831518E+03  0.22420765012E+03  0.00000000000E+00 0. -1.
         -4    1    6    6    0  503  0.17757421326E+03 -0.17709282814E+03  0.20385237731E+03  0.32318765869E+03  0.00000000000E+00 0.  1.
<mgrwt>
<rscale>  0 0.99424309E+03</rscale>
<asrwt>0</asrwt>
<pdfrwt beam="1">  1        2 0.31818908E+00 0.99424309E+03</pdfrwt>
<pdfrwt beam="2">  1       -1 0.18382864E-01 0.99424309E+03</pdfrwt>
<totfact> 0.16475362E+02</totfact>
</mgrwt>
</event>
<event>
12    7  0.1698542E-007  0.1762882E+04  0.7818608E-02  0.8726291E-01
          4   -1    0    0  501    0  0.00000000000E+00  0.00000000000E+00  0.34580276273E+04  0.34580276273E+04  0.00000000000E+00 0. -1.
         -3   -1    0    0    0  501 -0.00000000000E+00 -0.00000000000E+00 -0.22467682168E+03  0.22467682168E+03  0.00000000000E+00 0.  1.
         24    2    1    2    0    0  0.38908924700E+03 -0.37261679497E+03  0.19070503384E+04  0.19832492106E+04  0.78757349086E+02 0.  0.
        254    2    1    2    0    0 -0.38908924700E+03  0.37261679497E+03  0.13263004672E+04  0.16994552384E+04  0.91588288550E+03 0.  0.
         23    2    4    4    0    0  0.22136778956E+03 -0.14737581632E+02  0.74466379603E+02  0.25145300263E+03  0.91991718491E+02 0.  0.
         23    2    4    4    0    0 -0.61045703656E+03  0.38735437660E+03  0.12518340876E+04  0.14480022358E+04  0.83190656485E+02 0.  0.
          4    1    3    3  502    0  0.33766188210E+03 -0.29145911940E+03  0.16339669780E+04  0.16937567860E+04  0.00000000000E+00 0. -1.
         -3    1    3    3    0  502  0.51427364902E+02 -0.81157675565E+02  0.27308336046E+03  0.28949242464E+03  0.00000000000E+00 0.  1.
         13    1    5    5    0    0  0.19545157520E+03 -0.15380883592E+01  0.29168582228E+02  0.19762208924E+03  0.00000000000E+00 0.  1.
        -13    1    5    5    0    0  0.25916214358E+02 -0.13199493273E+02  0.45297797375E+02  0.53830913389E+02  0.00000000000E+00 0. -1.
          1    1    6    6  503    0 -0.20254239434E+03  0.13769341763E+03  0.34963431185E+03  0.42688060484E+03  0.00000000000E+00 0. -1.
         -1    1    6    6    0  503 -0.40791464222E+03  0.24966095897E+03  0.90219977575E+03  0.10211216309E+04  0.00000000000E+00 0.  1.
<mgrwt>
<rscale>  0 0.17628825E+04</rscale>
<asrwt>0</asrwt>
<pdfrwt beam="1">  1        4 0.53200421E+00 0.17628825E+04</pdfrwt>
<pdfrwt beam="2">  1       -3 0.34565668E-01 0.17628825E+04</pdfrwt>
<totfact> 0.11964778E-02</totfact>
</mgrwt>
</event>
<event>
12    7  0.1698542E-007  0.2129987E+04  0.7818608E-02  0.8548148E-01
         -1   -1    0    0    0  501 -0.00000000000E+00  0.00000000000E+00  0.45784498926E+03  0.45784498926E+03  0.00000000000E+00 0.  1.
          2   -1    0    0  501    0  0.00000000000E+00 -0.00000000000E+00 -0.24772819523E+04  0.24772819523E+04  0.00000000000E+00 0. -1.
         24    2    1    2    0    0 -0.37532767716E+03 -0.66752252306E+03 -0.13623007368E+04  0.15647726318E+04  0.78695029557E+02 0.  0.
        254    2    1    2    0    0  0.37532767716E+03  0.66752252306E+03 -0.65713622627E+03  0.13703543098E+04  0.92713846348E+03 0.  0.
         23    2    4    4    0    0 -0.16797566465E+03  0.60063996423E+03 -0.46372429272E+03  0.78272674736E+03  0.92934120933E+02 0.  0.
         23    2    4    4    0    0  0.54330334180E+03  0.66882558829E+02 -0.19341193355E+03  0.58762756243E+03  0.90808469881E+02 0.  0.
          2    1    3    3  502    0 -0.37169406601E+03 -0.62862867336E+03 -0.13045258704E+04  0.14950311817E+04  0.00000000000E+00 0. -1.
         -1    1    3    3    0  502 -0.36336111449E+01 -0.38893849697E+02 -0.57774866377E+02  0.69741450079E+02  0.00000000000E+00 0.  1.
         13    1    5    5    0    0 -0.14920820105E+02  0.63998497919E+02 -0.88647189072E+02  0.11034836990E+03  0.00000000000E+00 0. -1.
        -13    1    5    5    0    0 -0.15305484454E+03  0.53664146631E+03 -0.37507710365E+03  0.67237837747E+03  0.00000000000E+00 0.  1.
          1    1    6    6  503    0  0.17595500457E+03  0.41672174587E+02 -0.10444616944E+03  0.20881986514E+03  0.00000000000E+00 0. -1.
         -1    1    6    6    0  503  0.36734833724E+03  0.25210384242E+02 -0.88965764107E+02  0.37880769729E+03  0.00000000000E+00 0.  1.
<mgrwt>
<rscale>  0 0.21299870E+04</rscale>
<asrwt>0</asrwt>
<pdfrwt beam="1">  1        2 0.38112030E+00 0.21299870E+04</pdfrwt>
<pdfrwt beam="2">  1       -1 0.70437691E-01 0.21299870E+04</pdfrwt>
<totfact> 0.76486222E+00</totfact>
</mgrwt>
</event>
<event>
12    7  0.1698542E-007  0.1588890E+04  0.7818608E-02  0.8827402E-01
         -1   -1    0    0    0  501 -0.00000000000E+00  0.00000000000E+00  0.14456214652E+04  0.14456214652E+04  0.00000000000E+00 0.  1.
          2   -1    0    0  501    0  0.00000000000E+00 -0.00000000000E+00 -0.43658942590E+03  0.43658942590E+03  0.00000000000E+00 0. -1.
         24    2    1    2    0    0 -0.33614102612E+03  0.24445025924E+03 -0.58108160115E+02  0.42732313711E+03  0.80509543255E+02 0.  0.
        254    2    1    2    0    0  0.33614102612E+03 -0.24445025924E+03  0.10671401994E+04  0.14548877540E+04  0.89730900632E+03 0.  0.
         23    2    4    4    0    0  0.52085393926E+03 -0.45380371546E+03  0.75633712500E+03  0.10282618995E+04  0.89722065595E+02 0.  0.
         23    2    4    4    0    0 -0.18471291314E+03  0.20935345622E+03  0.31080307441E+03  0.42662585452E+03  0.86390617343E+02 0.  0.
          2    1    3    3  502    0 -0.27062703878E+03  0.23154536102E+03 -0.55821132211E+02  0.36051109155E+03  0.00000000000E+00 0. -1.
         -1    1    3    3    0  502 -0.65513987338E+02  0.12904898214E+02 -0.22870279037E+01  0.66812045557E+02  0.00000000000E+00 0.  1.
         13    1    5    5    0    0  0.78083721809E+02 -0.76414337695E+02  0.17144652282E+03  0.20329812789E+03  0.00000000000E+00 0. -1.
        -13    1    5    5    0    0  0.44277021745E+03 -0.37738937776E+03  0.58489060218E+03  0.82496377158E+03  0.00000000000E+00 0.  1.
          1    1    6    6  503    0 -0.46628788130E+02  0.52591908129E+02  0.14049754824E+03  0.15709778402E+03  0.00000000000E+00 0. -1.
         -1    1    6    6    0  503 -0.13808412501E+03  0.15676154809E+03  0.17030552618E+03  0.26952807050E+03  0.00000000000E+00 0.  1.
<mgrwt>
<rscale>  0 0.15888902E+04</rscale>
<asrwt>0</asrwt>
<pdfrwt beam="1">  1        2 0.67167605E-01 0.15888902E+04</pdfrwt>
<pdfrwt beam="2">  1       -1 0.22240330E+00 0.15888902E+04</pdfrwt>
<totfact> 0.83794218E+00</totfact>
</mgrwt>
</event>
<event>
12    7  0.1698542E-007  0.1507024E+04  0.7818608E-02  0.8879795E-01
          2   -1    0    0  501    0  0.00000000000E+00  0.00000000000E+00  0.58499704090E+03  0.58499704090E+03  0.00000000000E+00 0. -1.
         -1   -1    0    0    0  501 -0.00000000000E+00 -0.00000000000E+00 -0.97056947845E+03  0.97056947845E+03  0.00000000000E+00 0.  1.
         24    2    1    2    0    0 -0.35978670639E+03  0.23813128851E+03 -0.36755608968E+03  0.57008070020E+03  0.61168137252E+02 0.  0.
        254    2    1    2    0    0  0.35978670639E+03 -0.23813128851E+03 -0.18016347871E+02  0.98548581916E+03  0.88583560907E+03 0.  0.
         23    2    4    4    0    0  0.57277626653E+02  0.17613340394E+03 -0.32250779336E+03  0.38261300342E+03  0.89876198786E+02 0.  0.
         23    2    4    4    0    0  0.30250907974E+03 -0.41426469246E+03  0.30449144549E+03  0.60287281573E+03  0.87256018892E+02 0.  0.
          4    1    3    3  502    0 -0.15546704760E+03  0.13614858332E+03 -0.19140758093E+03  0.28167943068E+03  0.00000000000E+00 0. -1.
         -3    1    3    3    0  502 -0.20431965879E+03  0.10198270519E+03 -0.17614850875E+03  0.28840126952E+03  0.00000000000E+00 0.  1.
         13    1    5    5    0    0  0.37018474675E+02  0.13194230916E+03 -0.14905279853E+03  0.20247438643E+03  0.00000000000E+00 0.  1.
        -13    1    5    5    0    0  0.20259151978E+02  0.44191094789E+02 -0.17345499484E+03  0.18013861699E+03  0.00000000000E+00 0. -1.
          2    1    6    6  503    0  0.16082626697E+03 -0.17634467629E+03  0.18167565822E+03  0.29994762509E+03  0.00000000000E+00 0. -1.
         -2    1    6    6    0  503  0.14168281276E+03 -0.23792001617E+03  0.12281578727E+03  0.30292519065E+03  0.00000000000E+00 0.  1.
<mgrwt>
<rscale>  0 0.15070239E+04</rscale>
<asrwt>0</asrwt>
<pdfrwt beam="1">  1        2 0.89999545E-01 0.15070239E+04</pdfrwt>
<pdfrwt beam="2">  1       -1 0.14931838E+00 0.15070239E+04</pdfrwt>
<totfact> 0.19934015E+01</totfact>
</mgrwt>
</event>
<event>
12    7  0.1698542E-007  0.2149194E+04  0.7818608E-02  0.8539877E-01
         -1   -1    0    0    0  501 -0.00000000000E+00  0.00000000000E+00  0.11333580303E+04  0.11333580303E+04  0.00000000000E+00 0.  1.
          2   -1    0    0  501    0  0.00000000000E+00 -0.00000000000E+00 -0.10188828367E+04  0.10188828367E+04  0.00000000000E+00 0. -1.
         24    2    1    2    0    0  0.32462012142E+03  0.26846074392E+03  0.82453714242E+03  0.92888023837E+03  0.74213231584E+02 0.  0.
        254    2    1    2    0    0 -0.32462012142E+03 -0.26846074392E+03 -0.71006194885E+03  0.12233606287E+04  0.90275902781E+03 0.  0.
         23    2    4    4    0    0 -0.11916065443E+03 -0.19209838229E+03 -0.89180332994E+03  0.92450088810E+03  0.91036601275E+02 0.  0.
         23    2    4    4    0    0 -0.20545946700E+03 -0.76362361637E+02  0.18174138109E+03  0.29885974056E+03  0.90787730860E+02 0.  0.
          4    1    3    3  502    0  0.99181790230E+02  0.54369860137E+02  0.16902344499E+03  0.20337658214E+03  0.00000000000E+00 0. -1.
         -3    1    3    3    0  502  0.22543833119E+03  0.21409088379E+03  0.65551369743E+03  0.72550365623E+03  0.00000000000E+00 0.  1.
         13    1    5    5    0    0 -0.10533733157E+03 -0.18564895969E+03 -0.69335539562E+03  0.72546756942E+03  0.00000000000E+00 0. -1.
        -13    1    5    5    0    0 -0.13823322855E+02 -0.64494225914E+01 -0.19844793432E+03  0.19903331868E+03  0.00000000000E+00 0.  1.
          1    1    6    6  503    0 -0.14211490625E+03 -0.40366175345E+02  0.16972612297E+03  0.22501784709E+03  0.00000000000E+00 0. -1.
         -1    1    6    6    0  503 -0.63344560744E+02 -0.35996186292E+02  0.12015258117E+02  0.73841893469E+02  0.00000000000E+00 0.  1.
<mgrwt>
<rscale>  0 0.21491943E+04</rscale>
<asrwt>0</asrwt>
<pdfrwt beam="1">  1        2 0.15675120E+00 0.21491943E+04</pdfrwt>
<pdfrwt beam="2">  1       -1 0.17436278E+00 0.21491943E+04</pdfrwt>
<totfact> 0.58624464E+00</totfact>
</mgrwt>
</event>
<event>
12    7  0.1698542E-007  0.1390175E+04  0.7818608E-02  0.8960961E-01
         -1   -1    0    0    0  501 -0.00000000000E+00  0.00000000000E+00  0.60878699517E+03  0.60878699517E+03  0.00000000000E+00 0.  1.
          2   -1    0    0  501    0  0.00000000000E+00 -0.00000000000E+00 -0.79362143562E+03  0.79362143562E+03  0.00000000000E+00 0. -1.
         24    2    1    2    0    0 -0.14885503850E+03  0.34551091394E+03  0.47349965045E+02  0.38777263391E+03  0.81178705797E+02 0.  0.
        254    2    1    2    0    0  0.14885503850E+03 -0.34551091394E+03 -0.23218440550E+03  0.10146357969E+04  0.91325822636E+03 0.  0.
         23    2    4    4    0    0  0.39515885367E+03 -0.51131657694E+03 -0.26064395752E+03  0.70338664322E+03  0.96032993189E+02 0.  0.
         23    2    4    4    0    0 -0.24630381517E+03  0.16580566300E+03  0.28459552025E+02  0.31124915366E+03  0.88932571659E+02 0.  0.
          2    1    3    3  502    0 -0.17276708252E+02  0.26896152215E+02 -0.18340511346E+02  0.36854606340E+02  0.00000000000E+00 0. -1.
         -1    1    3    3    0  502 -0.13157833025E+03  0.31861476173E+03  0.65690476391E+02  0.35091802757E+03  0.00000000000E+00 0.  1.
         13    1    5    5    0    0  0.20514077650E+03 -0.21182039279E+03 -0.15592353141E+03  0.33356073605E+03  0.00000000000E+00 0. -1.
        -13    1    5    5    0    0  0.19001807718E+03 -0.29949618415E+03 -0.10472042611E+03  0.36982590718E+03  0.00000000000E+00 0.  1.
          2    1    6    6  503    0 -0.78588088978E+02  0.91228870799E+02 -0.18410680900E+02  0.12181029418E+03  0.00000000000E+00 0. -1.
         -2    1    6    6    0  503 -0.16771572619E+03  0.74576792199E+02  0.46870232925E+02  0.18943885948E+03  0.00000000000E+00 0.  1.
<mgrwt>
<rscale>  0 0.13901747E+04</rscale>
<asrwt>0</asrwt>
<pdfrwt beam="1">  1        2 0.12209561E+00 0.13901747E+04</pdfrwt>
<pdfrwt beam="2">  1       -1 0.93659538E-01 0.13901747E+04</pdfrwt>
<totfact> 0.42817414E+01</totfact>
</mgrwt>
</event>
<event>
12    7  0.1698542E-007  0.1440398E+04  0.7818608E-02  0.8925084E-01
         -1   -1    0    0    0  501 -0.00000000000E+00  0.00000000000E+00  0.76754115752E+03  0.76754115752E+03  0.00000000000E+00 0.  1.
          2   -1    0    0  501    0  0.00000000000E+00 -0.00000000000E+00 -0.67577722409E+03  0.67577722409E+03  0.00000000000E+00 0. -1.
         24    2    1    2    0    0 -0.30936085065E+03  0.12247848229E+03  0.32980523193E+03  0.47481953632E+03  0.77310972849E+02 0.  0.
        254    2    1    2    0    0  0.30936085065E+03 -0.12247848229E+03 -0.23804129850E+03  0.96849884529E+03  0.87785035114E+03 0.  0.
         23    2    4    4    0    0 -0.38184002832E+02 -0.44515693693E+03 -0.10696980361E+03  0.46849921437E+03  0.91794653509E+02 0.  0.
         23    2    4    4    0    0  0.34754485348E+03  0.32267845463E+03 -0.13107149488E+03  0.49999963092E+03  0.88944274019E+02 0.  0.
          4    1    3    3  502    0 -0.61262630628E+02 -0.66657849023E+01  0.66910682220E+02  0.90964729401E+02  0.00000000000E+00 0. -1.
         -3    1    3    3    0  502 -0.24809822002E+03  0.12914426720E+03  0.26289454971E+03  0.38385480692E+03  0.00000000000E+00 0.  1.
         13    1    5    5    0    0 -0.61040601157E+02 -0.34220495042E+03 -0.10464013310E+03  0.36301479382E+03  0.00000000000E+00 0.  1.
        -13    1    5    5    0    0  0.22856598325E+02 -0.10295198651E+03 -0.23296705171E+01  0.10548442055E+03  0.00000000000E+00 0. -1.
          4    1    6    6  503    0  0.16602766577E+03  0.21419066768E+03 -0.70261739188E+02  0.27996346175E+03  0.00000000000E+00 0. -1.
         -4    1    6    6    0  503  0.18151718772E+03  0.10848778695E+03 -0.60809755696E+02  0.22003616917E+03  0.00000000000E+00 0.  1.
<mgrwt>
<rscale>  0 0.14403983E+04</rscale>
<asrwt>0</asrwt>
<pdfrwt beam="1">  1        2 0.10396573E+00 0.14403983E+04</pdfrwt>
<pdfrwt beam="2">  1       -1 0.11808326E+00 0.14403983E+04</pdfrwt>
<totfact> 0.30587905E+01</totfact>
</mgrwt>
</event>
<event>
12    7  0.1698542E-007  0.1979204E+04  0.7818608E-02  0.8616406E-01
          2   -1    0    0  501    0  0.00000000000E+00  0.00000000000E+00  0.15486330653E+04  0.15486330653E+04  0.00000000000E+00 0. -1.
         -1   -1    0    0    0  501 -0.00000000000E+00 -0.00000000000E+00 -0.63237168046E+03  0.63237168046E+03  0.00000000000E+00 0.  1.
         24    2    1    2    0    0 -0.39013912697E+03 -0.58043740171E+03  0.75905292952E+03  0.10353416584E+04  0.81577472917E+02 0.  0.
        254    2    1    2    0    0  0.39013912697E+03  0.58043740171E+03  0.15720845531E+03  0.11456630874E+04  0.89370761194E+03 0.  0.
         23    2    4    4    0    0  0.57985216891E+03  0.28630253751E+03  0.34447158296E+03  0.73823450333E+03  0.90176658118E+02 0.  0.
         23    2    4    4    0    0 -0.18971304194E+03  0.29413486421E+03 -0.18726312765E+03  0.40742858404E+03  0.91783525178E+02 0.  0.
          4    1    3    3  502    0 -0.26712440462E+03 -0.33077538174E+03  0.47983351444E+03  0.64109905809E+03  0.00000000000E+00 0. -1.
         -1    1    3    3    0  502 -0.12301472235E+03 -0.24966201997E+03  0.27921941508E+03  0.39424260030E+03  0.00000000000E+00 0.  1.
         13    1    5    5    0    0  0.55874486329E+03  0.25689056863E+03  0.31193196982E+03  0.68955793107E+03  0.00000000000E+00 0.  1.
        -13    1    5    5    0    0  0.21107305615E+02  0.29411968878E+02  0.32539613139E+02  0.48676572259E+02  0.00000000000E+00 0. -1.
          2    1    6    6  503    0 -0.16237756062E+03  0.28567531948E+03 -0.18842835720E+03  0.37879031950E+03  0.00000000000E+00 0.  1.
         -2    1    6    6    0  503 -0.27335481316E+02  0.84595447285E+01  0.11652295536E+01  0.28638264537E+02  0.00000000000E+00 0. -1.
<mgrwt>
<rscale>  0 0.19792036E+04</rscale>
<asrwt>0</asrwt>
<pdfrwt beam="1">  1        2 0.23825124E+00 0.19792036E+04</pdfrwt>
<pdfrwt beam="2">  1       -1 0.97287951E-01 0.19792036E+04</pdfrwt>
<totfact> 0.12821191E+01</totfact>
</mgrwt>
</event>
<event>
12    7  0.1698542E-007  0.4079545E+04  0.7818608E-02  0.7988689E-01
          2   -1    0    0  501    0  0.00000000000E+00  0.00000000000E+00  0.11613277406E+04  0.11613277406E+04  0.00000000000E+00 0. -1.
         -1   -1    0    0    0  501 -0.00000000000E+00 -0.00000000000E+00 -0.35826850611E+04  0.35826850611E+04  0.00000000000E+00 0.  1.
         24    2    1    2    0    0  0.28308858829E+03 -0.44758506860E+03  0.10172761487E+04  0.11495780479E+04  0.78786945939E+02 0.  0.
        254    2    1    2    0    0 -0.28308858829E+03  0.44758506860E+03 -0.34386334692E+04  0.35944347539E+04  0.90293384148E+03 0.  0.
         23    2    4    4    0    0 -0.53835513501E+03  0.50134896452E+02 -0.21604925501E+04  0.22289567074E+04  0.90444375252E+02 0.  0.
         23    2    4    4    0    0  0.25526654672E+03  0.39745017215E+03 -0.12781409191E+04  0.13654780466E+04  0.88081991848E+02 0.  0.
          2    1    3    3  502    0  0.16365376127E+03 -0.18695025161E+03  0.49039836166E+03  0.54974858187E+03  0.00000000000E+00 0. -1.
         -1    1    3    3    0  502  0.11943482701E+03 -0.26063481699E+03  0.52687778708E+03  0.59982946598E+03  0.00000000000E+00 0.  1.
         13    1    5    5    0    0 -0.44293628947E+03  0.59945773525E+01 -0.17614493381E+04  0.18162963035E+04  0.00000000000E+00 0. -1.
        -13    1    5    5    0    0 -0.95418845545E+02  0.44140319099E+02 -0.39904321197E+03  0.41266040381E+03  0.00000000000E+00 0.  1.
          4    1    6    6  503    0  0.10344183937E+03  0.93385336960E+02 -0.32777488086E+03  0.35617047578E+03  0.00000000000E+00 0.  1.
         -4    1    6    6    0  503  0.15182470735E+03  0.30406483519E+03 -0.95036603828E+03  0.10093075708E+04  0.00000000000E+00 0. -1.
<mgrwt>
<rscale>  0 0.40795449E+04</rscale>
<asrwt>0</asrwt>
<pdfrwt beam="1">  1        2 0.17866581E+00 0.40795449E+04</pdfrwt>
<pdfrwt beam="2">  1       -1 0.55118231E+00 0.40795449E+04</pdfrwt>
<totfact> 0.13239889E-02</totfact>
</mgrwt>
</event>
<event>
12    7  0.1698542E-007  0.1396962E+04  0.7818608E-02  0.8956021E-01
          2   -1    0    0  501    0  0.00000000000E+00  0.00000000000E+00  0.46349611757E+03  0.46349611757E+03  0.00000000000E+00 0. -1.
         -1   -1    0    0    0  501 -0.00000000000E+00 -0.00000000000E+00 -0.10525993482E+04  0.10525993482E+04  0.00000000000E+00 0.  1.
         24    2    1    2    0    0 -0.29633105355E+03  0.25252590029E+03 -0.32862756284E+03  0.51551739221E+03  0.78617319986E+02 0.  0.
        254    2    1    2    0    0  0.29633105355E+03 -0.25252590029E+03 -0.26047566777E+03  0.10005780735E+04  0.88415354103E+03 0.  0.
         23    2    4    4    0    0 -0.96742864154E+02  0.27146072604E+03 -0.48159262578E+02  0.30591730891E+03  0.90642030911E+02 0.  0.
         23    2    4    4    0    0  0.39307391771E+03 -0.52398662634E+03 -0.21231640519E+03  0.69466076463E+03  0.91685509413E+02 0.  0.
          4    1    3    3  502    0 -0.87892934851E+02  0.94438670190E+02 -0.15439569387E+03  0.20120104550E+03  0.00000000000E+00 0. -1.
         -3    1    3    3    0  502 -0.20843811870E+03  0.15808723011E+03 -0.17423186896E+03  0.31431634672E+03  0.00000000000E+00 0.  1.
         13    1    5    5    0    0 -0.62819819606E+02  0.23939551548E+03 -0.65665273298E+02  0.25606341146E+03  0.00000000000E+00 0.  1.
        -13    1    5    5    0    0 -0.33923044548E+02  0.32065210560E+02  0.17506010721E+02  0.49853897451E+02  0.00000000000E+00 0. -1.
          4    1    6    6  503    0 -0.28334523939E+01 -0.18379850520E+02 -0.10273768995E+01  0.18625328478E+02  0.00000000000E+00 0. -1.
         -4    1    6    6    0  503  0.39590737010E+03 -0.50560677582E+03 -0.21128902829E+03  0.67603543615E+03  0.00000000000E+00 0.  1.
<mgrwt>
<rscale>  0 0.13969620E+04</rscale>
<asrwt>0</asrwt>
<pdfrwt beam="1">  1        2 0.71307096E-01 0.13969620E+04</pdfrwt>
<pdfrwt beam="2">  1       -1 0.16193836E+00 0.13969620E+04</pdfrwt>
<totfact> 0.21148659E+01</totfact>
</mgrwt>
</event>
<event>
12    7  0.1698542E-007  0.1660125E+04  0.7818608E-02  0.8784439E-01
          2   -1    0    0  501    0  0.00000000000E+00  0.00000000000E+00  0.13338568039E+04  0.13338568039E+04  0.00000000000E+00 0. -1.
         -1   -1    0    0    0  501 -0.00000000000E+00 -0.00000000000E+00 -0.51655031985E+03  0.51655031985E+03  0.00000000000E+00 0.  1.
         24    2    1    2    0    0 -0.26733385623E+03  0.46906728213E+03  0.65972030977E+02  0.54979206609E+03  0.80171698339E+02 0.  0.
        254    2    1    2    0    0  0.26733385623E+03 -0.46906728213E+03  0.75133445305E+03  0.13006150576E+04  0.91411408585E+03 0.  0.
         23    2    4    4    0    0  0.31364962156E+03  0.89326036466E+02 -0.25314622006E+02  0.33831617670E+03  0.86381592002E+02 0.  0.
         23    2    4    4    0    0 -0.46315765332E+02 -0.55839331859E+03  0.77664907505E+03  0.96229888093E+03  0.94271427702E+02 0.  0.
          2    1    3    3  502    0 -0.46870704510E+02  0.33500423757E+02  0.53575601955E+01  0.57860563291E+02  0.00000000000E+00 0. -1.
         -1    1    3    3    0  502 -0.22046315172E+03  0.43556685837E+03  0.60614470781E+02  0.49193150280E+03  0.00000000000E+00 0.  1.
         13    1    5    5    0    0  0.27699351727E+03  0.49051504063E+02 -0.33331345237E+02  0.28327096080E+03  0.00000000000E+00 0. -1.
        -13    1    5    5    0    0  0.36656104293E+02  0.40274532403E+02  0.80167232318E+01  0.55045215902E+02  0.00000000000E+00 0.  1.
          1    1    6    6  503    0  0.11804677480E+02 -0.32928457738E+03  0.40882746452E+03  0.52507864084E+03  0.00000000000E+00 0. -1.
         -1    1    6    6    0  503 -0.58120442812E+02 -0.22910874121E+03  0.36782161053E+03  0.43722024009E+03  0.00000000000E+00 0.  1.
<mgrwt>
<rscale>  0 0.16601255E+04</rscale>
<asrwt>0</asrwt>
<pdfrwt beam="1">  1        2 0.20520874E+00 0.16601255E+04</pdfrwt>
<pdfrwt beam="2">  1       -1 0.79469280E-01 0.16601255E+04</pdfrwt>
<totfact> 0.27197864E+01</totfact>
</mgrwt>
</event>
<event>
12    7  0.1958302E-007  0.2325129E+04  0.7818608E-02  0.8468079E-01
          2   -1    0    0  501    0  0.00000000000E+00  0.00000000000E+00  0.26788130395E+04  0.26788130395E+04  0.00000000000E+00 0. -1.
         -1   -1    0    0    0  501 -0.00000000000E+00 -0.00000000000E+00 -0.50453528282E+03  0.50453528282E+03  0.00000000000E+00 0.  1.
         24    2    1    2    0    0 -0.30126785694E+03 -0.18583084724E+03 -0.33412325065E+03  0.49318113516E+03  0.79333851808E+02 0.  0.
        254    2    1    2    0    0  0.30126785694E+03  0.18583084724E+03  0.25084010073E+04  0.26901671871E+04  0.90533333961E+03 0.  0.
         23    2    4    4    0    0 -0.20747692977E+03  0.34762979267E+03  0.13340440439E+04  0.13970385734E+04  0.90277990257E+02 0.  0.
         23    2    4    4    0    0  0.50874478671E+03 -0.16179894543E+03  0.11743569634E+04  0.12931286137E+04  0.89817466185E+02 0.  0.
          2    1    3    3  502    0 -0.59718115747E+02 -0.31020435300E+02 -0.11068654325E+03  0.12953776133E+03  0.00000000000E+00 0. -1.
         -1    1    3    3    0  502 -0.24154974119E+03 -0.15481041194E+03 -0.22343670740E+03  0.36364337383E+03  0.00000000000E+00 0.  1.
         13    1    5    5    0    0 -0.42445671885E+02  0.18213527482E+02  0.13717859225E+03  0.14474575578E+03  0.00000000000E+00 0.  1.
        -13    1    5    5    0    0 -0.16503125789E+03  0.32941626519E+03  0.11968654516E+04  0.12522928177E+04  0.00000000000E+00 0. -1.
          4    1    6    6  503    0  0.48209931655E+03 -0.13051983836E+03  0.11024340140E+04  0.12102958045E+04  0.00000000000E+00 0. -1.
         -4    1    6    6    0  503  0.26645470161E+02 -0.31279107070E+02  0.71922949430E+02  0.82832809163E+02  0.00000000000E+00 0.  1.
<mgrwt>
<rscale>  0 0.23251286E+04</rscale>
<asrwt>0</asrwt>
<pdfrwt beam="1">  1        2 0.41212507E+00 0.23251286E+04</pdfrwt>
<pdfrwt beam="2">  1       -1 0.77620814E-01 0.23251286E+04</pdfrwt>
<totfact> 0.46806426E+00</totfact>
</mgrwt>
</event>
<event>
12    7  0.1698542E-007  0.3627233E+04  0.7818608E-02  0.8084282E-01
          2   -1    0    0  501    0  0.00000000000E+00  0.00000000000E+00  0.21124413684E+04  0.21124413684E+04  0.00000000000E+00 0. -1.
         -1   -1    0    0    0  501 -0.00000000000E+00 -0.00000000000E+00 -0.15570629722E+04  0.15570629722E+04  0.00000000000E+00 0.  1.
         24    2    1    2    0    0 -0.95236296008E+03  0.12898733922E+04 -0.30298804084E+03  0.16336475053E+04  0.78954690598E+02 0.  0.
        254    2    1    2    0    0  0.95236296008E+03 -0.12898733922E+04  0.85836643706E+03  0.20358568352E+04  0.91495985581E+03 0.  0.
         23    2    4    4    0    0  0.75057700487E+03 -0.34009683310E+03  0.18126550811E+03  0.84862992836E+03  0.91015793945E+02 0.  0.
         23    2    4    4    0    0  0.20178595521E+03 -0.94977655906E+03  0.67710092895E+03  0.11872269069E+04  0.90823876578E+02 0.  0.
          4    1    3    3  502    0 -0.28019126035E+03  0.35552403452E+03 -0.52512651940E+02  0.45569952832E+03  0.00000000000E+00 0. -1.
         -3    1    3    3    0  502 -0.67217169973E+03  0.93434935763E+03 -0.25047538890E+03  0.11779479770E+04  0.00000000000E+00 0.  1.
         13    1    5    5    0    0  0.25818116476E+03 -0.89129270245E+02  0.24871359011E+02  0.27426287600E+03  0.00000000000E+00 0. -1.
        -13    1    5    5    0    0  0.49239584011E+03 -0.25096756286E+03  0.15639414910E+03  0.57436705237E+03  0.00000000000E+00 0.  1.
          3    1    6    6  503    0  0.92612625236E+02 -0.24508225137E+03  0.19008317500E+03  0.32368815503E+03  0.00000000000E+00 0. -1.
         -3    1    6    6    0  503  0.10917332997E+03 -0.70469430768E+03  0.48701775395E+03  0.86353875184E+03  0.00000000000E+00 0.  1.
<mgrwt>
<rscale>  0 0.36272327E+04</rscale>
<asrwt>0</asrwt>
<pdfrwt beam="1">  1        2 0.32499098E+00 0.36272327E+04</pdfrwt>
<pdfrwt beam="2">  1       -1 0.23954815E+00 0.36272327E+04</pdfrwt>
<totfact> 0.43656240E-01</totfact>
</mgrwt>
</event>
<event>
12    7  0.1698542E-007  0.1543798E+04  0.7818608E-02  0.8855839E-01
          2   -1    0    0  501    0  0.00000000000E+00  0.00000000000E+00  0.10567416854E+04  0.10567416854E+04  0.00000000000E+00 0. -1.
         -1   -1    0    0    0  501 -0.00000000000E+00 -0.00000000000E+00 -0.56383487530E+03  0.56383487530E+03  0.00000000000E+00 0.  1.
         24    2    1    2    0    0  0.25388842860E+03 -0.42040170762E+03  0.28313582660E+03  0.57242147051E+03  0.79394670130E+02 0.  0.
        254    2    1    2    0    0 -0.25388842860E+03  0.42040170762E+03  0.20977098353E+03  0.10481550902E+04  0.90190259877E+03 0.  0.
         23    2    4    4    0    0 -0.22225156886E+03 -0.23084548216E+03  0.20248514813E+03  0.38993977459E+03  0.91473472119E+02 0.  0.
         23    2    4    4    0    0 -0.31636859741E+02  0.65124718978E+03  0.72858354003E+01  0.65821531562E+03  0.89836101994E+02 0.  0.
          2    1    3    3  502    0  0.18217259973E+03 -0.32537425683E+03  0.24963444908E+03  0.44874560863E+03  0.00000000000E+00 0. -1.
         -1    1    3    3    0  502  0.71715828875E+02 -0.95027450794E+02  0.33501377521E+02  0.12367586188E+03  0.00000000000E+00 0.  1.
         13    1    5    5    0    0 -0.16478037906E+02 -0.19389953735E+01  0.36827331717E+02  0.40392298742E+02  0.00000000000E+00 0. -1.
        -13    1    5    5    0    0 -0.20577353096E+03 -0.22890648679E+03  0.16565781641E+03  0.34954747585E+03  0.00000000000E+00 0.  1.
          4    1    6    6  503    0 -0.25242128231E+02  0.59071054747E+03  0.32918385649E+02  0.59216529453E+03  0.00000000000E+00 0.  1.
         -4    1    6    6    0  503 -0.63947315099E+01  0.60536642312E+02 -0.25632550249E+02  0.66050021088E+02  0.00000000000E+00 0. -1.
<mgrwt>
<rscale>  0 0.15437977E+04</rscale>
<asrwt>0</asrwt>
<pdfrwt beam="1">  1        2 0.16257564E+00 0.15437977E+04</pdfrwt>
<pdfrwt beam="2">  1       -1 0.86743827E-01 0.15437977E+04</pdfrwt>
<totfact> 0.33362272E+01</totfact>
</mgrwt>
</event>
<event>
12    7  0.1698542E-007  0.1219282E+04  0.7818608E-02  0.9096145E-01
         -1   -1    0    0    0  501 -0.00000000000E+00  0.00000000000E+00  0.18731010729E+03  0.18731010729E+03  0.00000000000E+00 0.  1.
          2   -1    0    0  501    0  0.00000000000E+00 -0.00000000000E+00 -0.19842072464E+04  0.19842072464E+04  0.00000000000E+00 0. -1.
         24    2    1    2    0    0  0.17609567131E+03  0.20945979598E+03 -0.59286306916E+03  0.65780279357E+03  0.79591487406E+02 0.  0.
        254    2    1    2    0    0 -0.17609567131E+03 -0.20945979598E+03 -0.12040340700E+04  0.15137145601E+04  0.87564298451E+03 0.  0.
         23    2    4    4    0    0 -0.19965886517E+03 -0.46134509923E+03 -0.35506784715E+03  0.62295527549E+03  0.96421658084E+02 0.  0.
         23    2    4    4    0    0  0.23563193860E+02  0.25188530325E+03 -0.84896622283E+03  0.89075928465E+03  0.93311444042E+02 0.  0.
          2    1    3    3  502    0  0.10037020154E+03  0.93598843714E+02 -0.37873927062E+03  0.40283787808E+03  0.00000000000E+00 0. -1.
         -1    1    3    3    0  502  0.75725469770E+02  0.11586095227E+03 -0.21412379854E+03  0.25496491549E+03  0.00000000000E+00 0.  1.
         13    1    5    5    0    0 -0.20237285393E+03 -0.45797862135E+03 -0.35978309206E+03  0.61655742875E+03  0.00000000000E+00 0. -1.
        -13    1    5    5    0    0  0.27139887578E+01 -0.33664778877E+01  0.47152449053E+01  0.63978467364E+01  0.00000000000E+00 0.  1.
          3    1    6    6  503    0  0.58979616419E+02  0.17401658113E+03 -0.55741315044E+03  0.58691548450E+03  0.00000000000E+00 0. -1.
         -3    1    6    6    0  503 -0.35416422558E+02  0.77868722121E+02 -0.29155307239E+03  0.30384380015E+03  0.00000000000E+00 0.  1.
<mgrwt>
<rscale>  0 0.12192819E+04</rscale>
<asrwt>0</asrwt>
<pdfrwt beam="1">  1        2 0.30526266E+00 0.12192819E+04</pdfrwt>
<pdfrwt beam="2">  1       -1 0.28816939E-01 0.12192819E+04</pdfrwt>
<totfact> 0.83904304E+01</totfact>
</mgrwt>
</event>
<event>
12    7  0.1698542E-007  0.1175465E+04  0.7818608E-02  0.9134607E-01
          2   -1    0    0  501    0  0.00000000000E+00  0.00000000000E+00  0.10939720758E+04  0.10939720758E+04  0.00000000000E+00 0. -1.
         -1   -1    0    0    0  501 -0.00000000000E+00 -0.00000000000E+00 -0.31575704375E+03  0.31575704375E+03  0.00000000000E+00 0.  1.
         24    2    1    2    0    0 -0.14982921154E+03  0.87722056019E+02  0.34283297988E+03  0.39370841033E+03  0.85603203961E+02 0.  0.
        254    2    1    2    0    0  0.14982921154E+03 -0.87722056019E+02  0.43538205222E+03  0.10160207093E+04  0.90144140049E+03 0.  0.
         23    2    4    4    0    0 -0.20103372079E+03  0.17712026215E+03 -0.11626254762E+03  0.30541318500E+03  0.89297757162E+02 0.  0.
         23    2    4    4    0    0  0.35086293234E+03 -0.26484231817E+03  0.55164459984E+03  0.71060752426E+03  0.86052531789E+02 0.  0.
          4    1    3    3  502    0 -0.14536290456E+03  0.83811567083E+02  0.34767520614E+03  0.38604766774E+03  0.00000000000E+00 0. -1.
         -3    1    3    3    0  502 -0.44663069800E+01  0.39104889357E+01 -0.48422262686E+01  0.76607425876E+01  0.00000000000E+00 0.  1.
         13    1    5    5    0    0 -0.18911041872E+03  0.12350179737E+03 -0.80094885728E+02  0.23964689679E+03  0.00000000000E+00 0.  1.
        -13    1    5    5    0    0 -0.11923302068E+02  0.53618464788E+02 -0.36167661889E+02  0.65766288210E+02  0.00000000000E+00 0. -1.
          4    1    6    6  503    0  0.35012133909E+03 -0.25773317469E+03  0.51825329065E+03  0.67645976576E+03  0.00000000000E+00 0.  1.
         -4    1    6    6    0  503  0.74159324819E+00 -0.71091434820E+01  0.33391309190E+02  0.34147758507E+02  0.00000000000E+00 0. -1.
<mgrwt>
<rscale>  0 0.11754648E+04</rscale>
<asrwt>0</asrwt>
<pdfrwt beam="1">  1        2 0.16830339E+00 0.11754648E+04</pdfrwt>
<pdfrwt beam="2">  1       -1 0.48578007E-01 0.11754648E+04</pdfrwt>
<totfact> 0.10496538E+02</totfact>
</mgrwt>
</event>
<event>
12    7  0.1698542E-007  0.1515752E+04  0.7818608E-02  0.8874045E-01
          2   -1    0    0  501    0  0.00000000000E+00  0.00000000000E+00  0.14905442747E+04  0.14905442747E+04  0.00000000000E+00 0. -1.
         -1   -1    0    0    0  501 -0.00000000000E+00 -0.00000000000E+00 -0.38534631391E+03  0.38534631391E+03  0.00000000000E+00 0.  1.
         24    2    1    2    0    0 -0.22339989594E+03  0.28859457491E+03 -0.44168027037E+02  0.37655443123E+03  0.81535776769E+02 0.  0.
        254    2    1    2    0    0  0.22339989594E+03 -0.28859457491E+03  0.11493659878E+04  0.14993361574E+04  0.89093905331E+03 0.  0.
         23    2    4    4    0    0 -0.21999995605E+03  0.14473661945E+03  0.14182857030E+03  0.31258612567E+03  0.90807890275E+02 0.  0.
         23    2    4    4    0    0  0.44339985199E+03 -0.43333119435E+03  0.10075374175E+04  0.11867500317E+04  0.94152202980E+02 0.  0.
          4    1    3    3  502    0 -0.13768436393E+03  0.12504676728E+03  0.28431551419E+01  0.18601548755E+03  0.00000000000E+00 0. -1.
         -3    1    3    3    0  502 -0.85715532007E+02  0.16354780762E+03 -0.47011182179E+02  0.19053894367E+03  0.00000000000E+00 0.  1.
         13    1    5    5    0    0 -0.99264232668E+02  0.10951157672E+03  0.47081299459E+02  0.15512195874E+03  0.00000000000E+00 0. -1.
        -13    1    5    5    0    0 -0.12073572339E+03  0.35225042725E+02  0.94747270843E+02  0.15746416694E+03  0.00000000000E+00 0.  1.
          1    1    6    6  503    0  0.10347263776E+03 -0.12052734325E+03  0.33612453794E+03  0.37177026810E+03  0.00000000000E+00 0. -1.
         -1    1    6    6    0  503  0.33992721423E+03 -0.31280385110E+03  0.67141287958E+03  0.81497976361E+03  0.00000000000E+00 0.  1.
<mgrwt>
<rscale>  0 0.15157516E+04</rscale>
<asrwt>0</asrwt>
<pdfrwt beam="1">  1        2 0.22931450E+00 0.15157516E+04</pdfrwt>
<pdfrwt beam="2">  1       -1 0.59284049E-01 0.15157516E+04</pdfrwt>
<totfact> 0.40759234E+01</totfact>
</mgrwt>
</event>
<event>
12    7  0.1698542E-007  0.1664821E+04  0.7818608E-02  0.8781687E-01
          2   -1    0    0  501    0  0.00000000000E+00  0.00000000000E+00  0.35231323195E+04  0.35231323195E+04  0.00000000000E+00 0. -1.
         -1   -1    0    0    0  501 -0.00000000000E+00 -0.00000000000E+00 -0.19667355644E+03  0.19667355644E+03  0.00000000000E+00 0.  1.
         24    2    1    2    0    0 -0.27549759700E+03 -0.20947939661E+03  0.12616660136E+03  0.37666675466E+03  0.78608455066E+02 0.  0.
        254    2    1    2    0    0  0.27549759700E+03  0.20947939661E+03  0.32002921617E+04  0.33431391212E+04  0.90273402527E+03 0.  0.
         23    2    4    4    0    0  0.12019042712E+03 -0.34009671588E+03  0.95766638517E+03  0.10271523676E+04  0.88349114416E+02 0.  0.
         23    2    4    4    0    0  0.15530716988E+03  0.54957611249E+03  0.22426257765E+04  0.23159867537E+04  0.90939811384E+02 0.  0.
          4    1    3    3  502    0 -0.25086378086E+02 -0.36867125482E+02  0.41612223361E+02  0.60992527738E+02  0.00000000000E+00 0. -1.
         -3    1    3    3    0  502 -0.25041121891E+03 -0.17261227113E+03  0.84554377995E+02  0.31567422692E+03  0.00000000000E+00 0.  1.
         13    1    5    5    0    0  0.81223410261E+02 -0.30573493771E+03  0.86323922133E+03  0.91937644507E+03  0.00000000000E+00 0. -1.
        -13    1    5    5    0    0  0.38967016855E+02 -0.34361778167E+02  0.94427163843E+02  0.10777592251E+03  0.00000000000E+00 0.  1.
          3    1    6    6  503    0  0.11217743019E+03  0.28144182159E+03  0.13130712843E+04  0.13475716948E+04  0.00000000000E+00 0. -1.
         -3    1    6    6    0  503  0.43129739694E+02  0.26813429090E+03  0.92955449214E+03  0.96841505888E+03  0.00000000000E+00 0.  1.
<mgrwt>
<rscale>  0 0.16648207E+04</rscale>
<asrwt>0</asrwt>
<pdfrwt beam="1">  1        2 0.54202031E+00 0.16648207E+04</pdfrwt>
<pdfrwt beam="2">  1       -1 0.30257473E-01 0.16648207E+04</pdfrwt>
<totfact> 0.86452521E+00</totfact>
</mgrwt>
</event>
<event>
12    7  0.1698542E-007  0.2360701E+04  0.7818608E-02  0.8454365E-01
         -1   -1    0    0    0  501 -0.00000000000E+00  0.00000000000E+00  0.10781889157E+04  0.10781889157E+04  0.00000000000E+00 0.  1.
          2   -1    0    0  501    0  0.00000000000E+00 -0.00000000000E+00 -0.12921917934E+04  0.12921917934E+04  0.00000000000E+00 0. -1.
         24    2    1    2    0    0 -0.37899671422E+02 -0.95518342261E+03 -0.22619208637E+03  0.98563270373E+03  0.80605277800E+02 0.  0.
        254    2    1    2    0    0  0.37899671422E+02  0.95518342261E+03  0.12189208683E+02  0.13847480053E+04  0.10017817654E+04 0.  0.
         23    2    4    4    0    0 -0.42791400973E+03  0.55613365682E+03 -0.19020961133E+03  0.73269040484E+03  0.90887233103E+02 0.  0.
         23    2    4    4    0    0  0.46581368115E+03  0.39904976579E+03  0.20239882001E+03  0.65205760047E+03  0.89390888013E+02 0.  0.
          4    1    3    3  502    0  0.45147921813E+01 -0.73111118784E+03 -0.17983986471E+03  0.75291854093E+03  0.00000000000E+00 0. -1.
         -3    1    3    3    0  502 -0.42414463603E+02 -0.22407223476E+03 -0.46352221659E+02  0.23271416280E+03  0.00000000000E+00 0.  1.
         13    1    5    5    0    0 -0.22240843990E+03  0.23656424107E+03 -0.12091010360E+03  0.34647858151E+03  0.00000000000E+00 0. -1.
        -13    1    5    5    0    0 -0.20550556983E+03  0.31956941575E+03 -0.69299507729E+02  0.38621182333E+03  0.00000000000E+00 0.  1.
          3    1    6    6  503    0  0.69310590402E+02  0.86170493751E+02  0.80665783299E+01  0.11088003256E+03  0.00000000000E+00 0. -1.
         -3    1    6    6    0  503  0.39650309075E+03  0.31287927204E+03  0.19433224168E+03  0.54117756791E+03  0.00000000000E+00 0.  1.
<mgrwt>
<rscale>  0 0.23607006E+04</rscale>
<asrwt>0</asrwt>
<pdfrwt beam="1">  1        2 0.19879874E+00 0.23607006E+04</pdfrwt>
<pdfrwt beam="2">  1       -1 0.16587522E+00 0.23607006E+04</pdfrwt>
<totfact> 0.45342374E+00</totfact>
</mgrwt>
</event>
<event>
12    7  0.1698542E-007  0.1288306E+04  0.7818608E-02  0.9038890E-01
          2   -1    0    0  501    0  0.00000000000E+00  0.00000000000E+00  0.25022781135E+04  0.25022781135E+04  0.00000000000E+00 0. -1.
         -1   -1    0    0    0  501 -0.00000000000E+00 -0.00000000000E+00 -0.16582216442E+03  0.16582216442E+03  0.00000000000E+00 0.  1.
         24    2    1    2    0    0  0.20537143418E+03 -0.81085326338E+02  0.11296219863E+03  0.26042860916E+03  0.79437686444E+02 0.  0.
        254    2    1    2    0    0 -0.20537143418E+03  0.81085326338E+02  0.22234937505E+04  0.24076716688E+04  0.89677541787E+03 0.  0.
         23    2    4    4    0    0  0.29962783622E+03 -0.66224967356E+02  0.13172422066E+04  0.13557178664E+04  0.93173580266E+02 0.  0.
         23    2    4    4    0    0 -0.50499927040E+03  0.14731029369E+03  0.90625154392E+03  0.10519538024E+04  0.92684171762E+02 0.  0.
          4    1    3    3  502    0 -0.48486422815E+01 -0.89614836843E+01 -0.17243360365E+01  0.10333966158E+02  0.00000000000E+00 0. -1.
         -1    1    3    3    0  502  0.21022007646E+03 -0.72123842654E+02  0.11468653466E+03  0.25009464300E+03  0.00000000000E+00 0.  1.
         13    1    5    5    0    0  0.14629765385E+03 -0.76474037234E+02  0.75632469679E+03  0.77413069237E+03  0.00000000000E+00 0. -1.
        -13    1    5    5    0    0  0.15333018237E+03  0.10249069878E+02  0.56091750977E+03  0.58158717406E+03  0.00000000000E+00 0.  1.
          2    1    6    6  503    0 -0.39934333736E+02  0.92346615855E+01  0.31539751537E+02  0.51718332462E+02  0.00000000000E+00 0. -1.
         -2    1    6    6    0  503 -0.46506493666E+03  0.13807563211E+03  0.87471179238E+03  0.10002354699E+04  0.00000000000E+00 0.  1.
<mgrwt>
<rscale>  0 0.12883061E+04</rscale>
<asrwt>0</asrwt>
<pdfrwt beam="1">  1        2 0.38496584E+00 0.12883061E+04</pdfrwt>
<pdfrwt beam="2">  1       -1 0.25511104E-01 0.12883061E+04</pdfrwt>
<totfact> 0.52716471E+01</totfact>
</mgrwt>
</event>
<event>
12    7  0.1698542E-007  0.1496783E+04  0.7818608E-02  0.8886595E-01
         -1   -1    0    0    0  501 -0.00000000000E+00  0.00000000000E+00  0.26144711383E+03  0.26144711383E+03  0.00000000000E+00 0.  1.
          2   -1    0    0  501    0  0.00000000000E+00 -0.00000000000E+00 -0.21422688947E+04  0.21422688947E+04  0.00000000000E+00 0. -1.
         24    2    1    2    0    0  0.27662748355E+03 -0.13175255858E+03 -0.11708537050E+04  0.12128402496E+04  0.78750055202E+02 0.  0.
        254    2    1    2    0    0 -0.27662748355E+03  0.13175255858E+03 -0.70996807590E+03  0.11908757590E+04  0.90567593714E+03 0.  0.
         23    2    4    4    0    0 -0.25552391164E+03 -0.27397235164E+03 -0.67015564913E+03  0.77316718381E+03  0.91244622667E+02 0.  0.
         23    2    4    4    0    0 -0.21103571912E+02  0.40572491022E+03 -0.39812426763E+02  0.41770857515E+03  0.88528870470E+02 0.  0.
          4    1    3    3  502    0  0.19650908305E+03 -0.13106841171E+03 -0.86714509060E+03  0.89874098405E+03  0.00000000000E+00 0. -1.
         -3    1    3    3    0  502  0.80118400504E+02 -0.68414686621E+00 -0.30370861441E+03  0.31409926556E+03  0.00000000000E+00 0.  1.
         13    1    5    5    0    0 -0.22242365649E+03 -0.26726734057E+03 -0.63764886662E+03  0.72629208408E+03  0.00000000000E+00 0. -1.
        -13    1    5    5    0    0 -0.33100255154E+02 -0.67050110733E+01 -0.32506782514E+02  0.46875099724E+02  0.00000000000E+00 0.  1.
          4    1    6    6  503    0 -0.21235012827E+02  0.18432560264E+03 -0.60958209924E+02  0.19530170741E+03  0.00000000000E+00 0.  1.
         -4    1    6    6    0  503  0.13144091491E+00  0.22139930757E+03  0.21145783161E+02  0.22240686774E+03  0.00000000000E+00 0. -1.
<mgrwt>
<rscale>  0 0.14967832E+04</rscale>
<asrwt>0</asrwt>
<pdfrwt beam="1">  1        2 0.32957982E+00 0.14967832E+04</pdfrwt>
<pdfrwt beam="2">  1       -1 0.40222634E-01 0.14967832E+04</pdfrwt>
<totfact> 0.36960120E+01</totfact>
</mgrwt>
</event>
<event>
12    7  0.1698542E-007  0.1533887E+04  0.7818608E-02  0.8862226E-01
         -1   -1    0    0    0  501 -0.00000000000E+00  0.00000000000E+00  0.36791753569E+03  0.36791753569E+03  0.00000000000E+00 0.  1.
          2   -1    0    0  501    0  0.00000000000E+00 -0.00000000000E+00 -0.15987348431E+04  0.15987348431E+04  0.00000000000E+00 0. -1.
         24    2    1    2    0    0 -0.86498393679E+02 -0.49073326685E+03 -0.43243768453E+03  0.66457608894E+03  0.79736539201E+02 0.  0.
        254    2    1    2    0    0  0.86498393679E+02  0.49073326685E+03 -0.79837962287E+03  0.13020762898E+04  0.89982861204E+03 0.  0.
         23    2    4    4    0    0  0.46175194918E+03  0.24525074456E+03 -0.60588342748E+03  0.80557235886E+03  0.92137437492E+02 0.  0.
         23    2    4    4    0    0 -0.37525355550E+03  0.24548252229E+03 -0.19249619539E+03  0.49650393098E+03  0.91566743827E+02 0.  0.
          2    1    3    3  502    0 -0.59399574572E+02 -0.37709893956E+03 -0.37209239262E+03  0.53308973759E+03  0.00000000000E+00 0. -1.
         -1    1    3    3    0  502 -0.27098819107E+02 -0.11363432729E+03 -0.60345291913E+02  0.13148635135E+03  0.00000000000E+00 0.  1.
         13    1    5    5    0    0  0.88825003138E+02  0.22797295770E+02 -0.67349996449E+02  0.11377882008E+03  0.00000000000E+00 0.  1.
        -13    1    5    5    0    0  0.37292694604E+03  0.22245344879E+03 -0.53853343103E+03  0.69179353878E+03  0.00000000000E+00 0. -1.
          3    1    6    6  503    0 -0.22333156208E+03  0.94375593101E+02 -0.86278128806E+02  0.25734734252E+03  0.00000000000E+00 0. -1.
         -3    1    6    6    0  503 -0.15192199342E+03  0.15110692919E+03 -0.10621806658E+03  0.23915658846E+03  0.00000000000E+00 0.  1.
<mgrwt>
<rscale>  0 0.15338873E+04</rscale>
<asrwt>0</asrwt>
<pdfrwt beam="1">  1        2 0.24595920E+00 0.15338873E+04</pdfrwt>
<pdfrwt beam="2">  1       -1 0.56602698E-01 0.15338873E+04</pdfrwt>
<totfact> 0.38745008E+01</totfact>
</mgrwt>
</event>
<event>
12    7  0.1698542E-007  0.1171880E+04  0.7818608E-02  0.9137832E-01
         -1   -1    0    0    0  501 -0.00000000000E+00  0.00000000000E+00  0.38446427813E+03  0.38446427813E+03  0.00000000000E+00 0.  1.
          2   -1    0    0  501    0  0.00000000000E+00 -0.00000000000E+00 -0.89299818743E+03  0.89299818743E+03  0.00000000000E+00 0. -1.
         24    2    1    2    0    0 -0.21343017610E+02 -0.16794632789E+03  0.63337112047E+02  0.19530329678E+03  0.73961439400E+02 0.  0.
        254    2    1    2    0    0  0.21343017610E+02  0.16794632789E+03 -0.57187102135E+03  0.10821591688E+04  0.90297868640E+03 0.  0.
         23    2    4    4    0    0 -0.28543041134E+01 -0.15724210339E+03  0.18114827782E+03  0.25695393429E+03  0.92072795438E+02 0.  0.
         23    2    4    4    0    0  0.24197321724E+02  0.32518843128E+03 -0.75301929917E+03  0.82520523450E+03  0.87135457174E+02 0.  0.
          2    1    3    3  502    0 -0.27182118807E+02 -0.23020499056E+02 -0.31259769969E+01  0.35757274669E+02  0.00000000000E+00 0. -1.
         -1    1    3    3    0  502  0.58391011962E+01 -0.14492582883E+03  0.66463089044E+02  0.15954602211E+03  0.00000000000E+00 0.  1.
         13    1    5    5    0    0 -0.33951243424E+02 -0.40857980927E+02  0.22352549860E+02  0.57634174070E+02  0.00000000000E+00 0. -1.
        -13    1    5    5    0    0  0.31096939311E+02 -0.11638412247E+03  0.15879572796E+03  0.19931976022E+03  0.00000000000E+00 0.  1.
          3    1    6    6  503    0  0.44162230280E+02  0.14431311765E+03 -0.41020341834E+03  0.43708514379E+03  0.00000000000E+00 0. -1.
         -3    1    6    6    0  503 -0.19964908556E+02  0.18087531363E+03 -0.34281588083E+03  0.38812009070E+03  0.00000000000E+00 0.  1.
<mgrwt>
<rscale>  0 0.11718804E+04</rscale>
<asrwt>0</asrwt>
<pdfrwt beam="1">  1        2 0.13738434E+00 0.11718804E+04</pdfrwt>
<pdfrwt beam="2">  1       -1 0.59148351E-01 0.11718804E+04</pdfrwt>
<totfact> 0.96888100E+01</totfact>
</mgrwt>
</event>
<event>
12    7  0.1698542E-007  0.2813119E+04  0.7818608E-02  0.8299207E-01
          2   -1    0    0  501    0  0.00000000000E+00  0.00000000000E+00  0.17550862399E+04  0.17550862399E+04  0.00000000000E+00 0. -1.
         -1   -1    0    0    0  501 -0.00000000000E+00 -0.00000000000E+00 -0.11272434805E+04  0.11272434805E+04  0.00000000000E+00 0.  1.
         24    2    1    2    0    0 -0.88006616438E+03 -0.88831380528E+03  0.41786184956E+03  0.13208250156E+04  0.79701482204E+02 0.  0.
        254    2    1    2    0    0  0.88006616438E+03  0.88831380528E+03  0.20998090979E+03  0.15615047047E+04  0.91136550851E+03 0.  0.
         23    2    4    4    0    0  0.45927853993E+03 -0.42051683823E+02 -0.11825195064E+03  0.48487859572E+03  0.91752969482E+02 0.  0.
         23    2    4    4    0    0  0.42078762446E+03  0.93036548910E+03  0.32823286043E+03  0.10766261090E+04  0.93513633995E+02 0.  0.
          2    1    3    3  502    0 -0.85225269268E+03 -0.87608135861E+03  0.41254145442E+03  0.12899781590E+04  0.00000000000E+00 0. -1.
         -1    1    3    3    0  502 -0.27813471701E+02 -0.12232446666E+02  0.53203951414E+01  0.30846856631E+02  0.00000000000E+00 0.  1.
         13    1    5    5    0    0  0.24939904014E+02 -0.24988441129E+02 -0.46863507393E+01  0.35614363472E+02  0.00000000000E+00 0.  1.
        -13    1    5    5    0    0  0.43433863591E+03 -0.17063242695E+02 -0.11356559990E+03  0.44926423225E+03  0.00000000000E+00 0. -1.
          2    1    6    6  503    0  0.33090930378E+03  0.75669534915E+03  0.30178384755E+03  0.87929648549E+03  0.00000000000E+00 0. -1.
         -2    1    6    6    0  503  0.89878320682E+02  0.17367013995E+03  0.26449012878E+02  0.19732962353E+03  0.00000000000E+00 0.  1.
<mgrwt>
<rscale>  0 0.28131189E+04</rscale>
<asrwt>0</asrwt>
<pdfrwt beam="1">  1        2 0.27001327E+00 0.28131189E+04</pdfrwt>
<pdfrwt beam="2">  1       -1 0.17342207E+00 0.28131189E+04</pdfrwt>
<totfact> 0.21000704E+00</totfact>
</mgrwt>
</event>
<event>
12    7  0.1698542E-007  0.2377437E+04  0.7818608E-02  0.8447999E-01
         -1   -1    0    0    0  501 -0.00000000000E+00  0.00000000000E+00  0.92622823515E+03  0.92622823515E+03  0.00000000000E+00 0.  1.
          2   -1    0    0  501    0  0.00000000000E+00 -0.00000000000E+00 -0.15255973925E+04  0.15255973925E+04  0.00000000000E+00 0. -1.
         24    2    1    2    0    0  0.33637312805E+03  0.18825365852E+01  0.73136664195E+03  0.80901546009E+03  0.80364323425E+02 0.  0.
        254    2    1    2    0    0 -0.33637312805E+03 -0.18825365852E+01 -0.13307357993E+04  0.16428101675E+04  0.90267217410E+03 0.  0.
         23    2    4    4    0    0 -0.31453449598E+02 -0.41680031187E+03 -0.47033692578E+03  0.63597756949E+03  0.92405766420E+02 0.  0.
         23    2    4    4    0    0 -0.30491967845E+03  0.41491777528E+03 -0.86039887349E+03  0.10068325981E+04  0.91065297738E+02 0.  0.
          2    1    3    3  502    0  0.67496420949E+02  0.20745620416E+02  0.21861312764E+03  0.22973429692E+03  0.00000000000E+00 0. -1.
         -1    1    3    3    0  502  0.26887670710E+03 -0.18863083831E+02  0.51275351431E+03  0.57928116316E+03  0.00000000000E+00 0.  1.
         13    1    5    5    0    0  0.25298578353E+01 -0.22018421880E+03 -0.30871979039E+03  0.37920363839E+03  0.00000000000E+00 0. -1.
        -13    1    5    5    0    0 -0.33983307433E+02 -0.19661609307E+03 -0.16161713539E+03  0.25677393109E+03  0.00000000000E+00 0.  1.
          3    1    6    6  503    0 -0.30521887842E+03  0.41777360661E+03 -0.86037457332E+03  0.10039610334E+04  0.00000000000E+00 0. -1.
         -3    1    6    6    0  503  0.29919997568E+00 -0.28558313289E+01 -0.24300173323E-01  0.28715646786E+01  0.00000000000E+00 0.  1.
<mgrwt>
<rscale>  0 0.23774368E+04</rscale>
<asrwt>0</asrwt>
<pdfrwt beam="1">  1        2 0.23470729E+00 0.23774368E+04</pdfrwt>
<pdfrwt beam="2">  1       -1 0.14249665E+00 0.23774368E+04</pdfrwt>
<totfact> 0.50415339E+00</totfact>
</mgrwt>
</event>
<event>
12    7  0.1698542E-007  0.2251377E+04  0.7818608E-02  0.8497343E-01
         -1   -1    0    0    0  501 -0.00000000000E+00  0.00000000000E+00  0.13701129659E+04  0.13701129659E+04  0.00000000000E+00 0.  1.
          2   -1    0    0  501    0  0.00000000000E+00 -0.00000000000E+00 -0.92486871912E+03  0.92486871912E+03  0.00000000000E+00 0. -1.
         24    2    1    2    0    0  0.22265666273E+03 -0.70283657633E+03 -0.41167425959E+03  0.84830196011E+03  0.81149719806E+02 0.  0.
        254    2    1    2    0    0 -0.22265666273E+03  0.70283657633E+03  0.85691850640E+03  0.14466797249E+04  0.90278328377E+03 0.  0.
         23    2    4    4    0    0 -0.44272838270E+03  0.37259392285E+03  0.85833984234E+03  0.10392028970E+04  0.91436995218E+02 0.  0.
         23    2    4    4    0    0  0.22007171997E+03  0.33024265348E+03 -0.14213359428E+01  0.40747682789E+03  0.92431450082E+02 0.  0.
          2    1    3    3  502    0  0.22293774434E+03 -0.70232527086E+03 -0.41448268172E+03  0.84543356770E+03  0.00000000000E+00 0. -1.
         -1    1    3    3    0  502 -0.28108161289E+00 -0.51130547206E+00  0.28084221307E+01  0.28683924109E+01  0.00000000000E+00 0.  1.
         13    1    5    5    0    0 -0.32759677149E+03  0.30934659425E+03  0.71163324461E+03  0.84228073402E+03  0.00000000000E+00 0. -1.
        -13    1    5    5    0    0 -0.11513161122E+03  0.63247328599E+02  0.14670659773E+03  0.19692216303E+03  0.00000000000E+00 0.  1.
          2    1    6    6  503    0  0.15678020323E+03  0.24138015268E+03 -0.42406803573E+02  0.29093426615E+03  0.00000000000E+00 0. -1.
         -2    1    6    6    0  503  0.63291516744E+02  0.88862500801E+02  0.40985467630E+02  0.11654256174E+03  0.00000000000E+00 0.  1.
<mgrwt>
<rscale>  0 0.22513770E+04</rscale>
<asrwt>0</asrwt>
<pdfrwt beam="1">  1        2 0.14228749E+00 0.22513770E+04</pdfrwt>
<pdfrwt beam="2">  1       -1 0.21078661E+00 0.22513770E+04</pdfrwt>
<totfact> 0.37192280E+00</totfact>
</mgrwt>
</event>
<event>
12    7  0.1698542E-007  0.2238944E+04  0.7818608E-02  0.8502392E-01
          2   -1    0    0  501    0  0.00000000000E+00  0.00000000000E+00  0.20736536893E+04  0.20736536893E+04  0.00000000000E+00 0. -1.
         -3   -1    0    0    0  501 -0.00000000000E+00 -0.00000000000E+00 -0.60435219875E+03  0.60435219875E+03  0.00000000000E+00 0.  1.
         24    2    1    2    0    0 -0.48249683007E+03 -0.12485359650E+02  0.16023873137E+04  0.16752383185E+04  0.76283980589E+02 0.  0.
        254    2    1    2    0    0  0.48249683007E+03  0.12485359650E+02 -0.13308582315E+03  0.10027675695E+04  0.86883363587E+03 0.  0.
         23    2    4    4    0    0 -0.20399431771E+03  0.16839104757E+03 -0.80816695088E+02  0.29111105512E+03  0.90802431976E+02 0.  0.
         23    2    4    4    0    0  0.68649114778E+03 -0.15590568792E+03 -0.52269128066E+02  0.71165651434E+03  0.90256596174E+02 0.  0.
          4    1    3    3  502    0 -0.39815262021E+03 -0.12554458728E+02  0.12098795453E+04  0.12737706378E+04  0.00000000000E+00 0. -1.
         -3    1    3    3    0  502 -0.84344209865E+02  0.69099078906E-01  0.39250776832E+03  0.40146768077E+03  0.00000000000E+00 0.  1.
         13    1    5    5    0    0 -0.20983043587E+03  0.14528376143E+03 -0.68337179763E+02  0.26420854129E+03  0.00000000000E+00 0.  1.
        -13    1    5    5    0    0  0.58361181630E+01  0.23107286136E+02 -0.12479515325E+02  0.26902513833E+02  0.00000000000E+00 0. -1.
          2    1    6    6  503    0  0.78540191991E+02 -0.17898769263E+01  0.17865129623E+02  0.80566297382E+02  0.00000000000E+00 0. -1.
         -2    1    6    6    0  503  0.60795095579E+03 -0.15411581099E+03 -0.70134257689E+02  0.63109021696E+03  0.00000000000E+00 0.  1.
<mgrwt>
<rscale>  0 0.22389436E+04</rscale>
<asrwt>0</asrwt>
<pdfrwt beam="1">  1        2 0.31902364E+00 0.22389436E+04</pdfrwt>
<pdfrwt beam="2">  1       -3 0.92977263E-01 0.22389436E+04</pdfrwt>
<totfact> 0.36585109E+00</totfact>
</mgrwt>
</event>
<event>
12    7  0.1698542E-007  0.1297221E+04  0.7818608E-02  0.9031772E-01
         -1   -1    0    0    0  501 -0.00000000000E+00  0.00000000000E+00  0.46797478929E+03  0.46797478929E+03  0.00000000000E+00 0.  1.
          2   -1    0    0  501    0  0.00000000000E+00 -0.00000000000E+00 -0.89897079926E+03  0.89897079926E+03  0.00000000000E+00 0. -1.
         24    2    1    2    0    0 -0.24143339693E+03  0.20757911931E+03 -0.15174543031E+03  0.36161366739E+03  0.79740785637E+02 0.  0.
        254    2    1    2    0    0  0.24143339693E+03 -0.20757911931E+03 -0.27925057966E+03  0.10053319212E+04  0.91177420973E+03 0.  0.
         23    2    4    4    0    0 -0.21032715579E+03  0.16960242674E+03  0.95812138812E+02  0.30151220534E+03  0.93419207911E+02 0.  0.
         23    2    4    4    0    0  0.45176055272E+03 -0.37718154606E+03 -0.37506271848E+03  0.70381971582E+03  0.91305169114E+02 0.  0.
          2    1    3    3  502    0 -0.99221869744E+02  0.52663952614E+02 -0.21846914903E+02  0.11443670316E+03  0.00000000000E+00 0. -1.
         -1    1    3    3    0  502 -0.14221152719E+03  0.15491516670E+03 -0.12989851541E+03  0.24717696422E+03  0.00000000000E+00 0.  1.
         13    1    5    5    0    0 -0.59859982031E+02  0.39040845465E+02 -0.15757168375E+02  0.73182603251E+02  0.00000000000E+00 0. -1.
        -13    1    5    5    0    0 -0.15046717376E+03  0.13056158128E+03  0.11156930719E+03  0.22832960209E+03  0.00000000000E+00 0.  1.
          2    1    6    6  503    0  0.25829749342E+02 -0.19759373849E+02  0.10385775632E+01  0.32537477612E+02  0.00000000000E+00 0. -1.
         -2    1    6    6    0  503  0.42593080338E+03 -0.35742217221E+03 -0.37610129604E+03  0.67128223821E+03  0.00000000000E+00 0.  1.
<mgrwt>
<rscale>  0 0.12972211E+04</rscale>
<asrwt>0</asrwt>
<pdfrwt beam="1">  1        2 0.13830320E+00 0.12972211E+04</pdfrwt>
<pdfrwt beam="2">  1       -1 0.71996123E-01 0.12972211E+04</pdfrwt>
<totfact> 0.63987488E+01</totfact>
</mgrwt>
</event>
<event>
12    7  0.1698542E-007  0.1328281E+04  0.7818608E-02  0.9007434E-01
          2   -1    0    0  501    0  0.00000000000E+00  0.00000000000E+00  0.12305848135E+04  0.12305848135E+04  0.00000000000E+00 0. -1.
         -1   -1    0    0    0  501 -0.00000000000E+00 -0.00000000000E+00 -0.35843351012E+03  0.35843351012E+03  0.00000000000E+00 0.  1.
         24    2    1    2    0    0 -0.35167324832E+03  0.28434962914E+02  0.21994784674E+03  0.42339643878E+03  0.80030421620E+02 0.  0.
        254    2    1    2    0    0  0.35167324832E+03 -0.28434962914E+02  0.65220345660E+03  0.11656218848E+04  0.89934554473E+03 0.  0.
         23    2    4    4    0    0 -0.10109143984E+02  0.23243720799E+03 -0.11088700376E+03  0.27700702357E+03  0.10152690803E+03 0.  0.
         23    2    4    4    0    0  0.36178239231E+03 -0.26087217091E+03  0.76309046036E+03  0.88861486123E+03  0.91588929295E+02 0.  0.
          4    1    3    3  502    0 -0.21048785930E+03  0.48965287323E+02  0.15877510221E+03  0.26816463481E+03  0.00000000000E+00 0. -1.
         -3    1    3    3    0  502 -0.14118538902E+03 -0.20530324408E+02  0.61172744525E+02  0.15523180397E+03  0.00000000000E+00 0.  1.
         13    1    5    5    0    0  0.18875221689E+02  0.20367056953E+03 -0.62900083204E+02  0.21399625080E+03  0.00000000000E+00 0. -1.
        -13    1    5    5    0    0 -0.28984365674E+02  0.28766638462E+02 -0.47986920553E+02  0.63010772778E+02  0.00000000000E+00 0.  1.
          3    1    6    6  503    0  0.24946608854E+03 -0.12595925171E+03  0.48492650595E+03  0.55968989502E+03  0.00000000000E+00 0. -1.
         -3    1    6    6    0  503  0.11231630377E+03 -0.13491291920E+03  0.27816395441E+03  0.32892496621E+03  0.00000000000E+00 0.  1.
<mgrwt>
<rscale>  0 0.13282813E+04</rscale>
<asrwt>0</asrwt>
<pdfrwt beam="1">  1        2 0.18932074E+00 0.13282813E+04</pdfrwt>
<pdfrwt beam="2">  1       -1 0.55143617E-01 0.13282813E+04</pdfrwt>
<totfact> 0.67325951E+01</totfact>
</mgrwt>
</event>
<event>
12    7  0.1698542E-007  0.1906025E+04  0.7818608E-02  0.8651863E-01
          2   -1    0    0  501    0  0.00000000000E+00  0.00000000000E+00  0.27214578869E+04  0.27214578869E+04  0.00000000000E+00 0. -1.
         -1   -1    0    0    0  501 -0.00000000000E+00 -0.00000000000E+00 -0.33373016709E+03  0.33373016709E+03  0.00000000000E+00 0.  1.
         24    2    1    2    0    0  0.67783382197E+03 -0.33949754545E+03  0.90209617401E+03  0.11810324621E+04  0.79642299455E+02 0.  0.
        254    2    1    2    0    0 -0.67783382197E+03  0.33949754545E+03  0.14856315458E+04  0.18741555918E+04  0.85477530325E+03 0.  0.
         23    2    4    4    0    0 -0.84153684603E+03  0.18429810299E+03  0.95106542849E+03  0.12864001684E+04  0.90276741781E+02 0.  0.
         23    2    4    4    0    0  0.16370302405E+03  0.15519944245E+03  0.53456611727E+03  0.58775542339E+03  0.93861371002E+02 0.  0.
          2    1    3    3  502    0  0.66574989119E+03 -0.34170630214E+03  0.87546921228E+03  0.11517084945E+04  0.00000000000E+00 0. -1.
         -1    1    3    3    0  502  0.12083930780E+02  0.22087566916E+01  0.26626961735E+02  0.29323967680E+02  0.00000000000E+00 0.  1.
         13    1    5    5    0    0 -0.68403483308E+03  0.18395991435E+03  0.79205428692E+03  0.10625887711E+04  0.00000000000E+00 0. -1.
        -13    1    5    5    0    0 -0.15750201294E+03  0.33818863931E+00  0.15901114158E+03  0.22381139738E+03  0.00000000000E+00 0.  1.
          2    1    6    6  503    0  0.16476148321E+03  0.16275619454E+03  0.48329672753E+03  0.53592131144E+03  0.00000000000E+00 0. -1.
         -2    1    6    6    0  503 -0.10584591518E+01 -0.75567520810E+01  0.51269389736E+02  0.51834111950E+02  0.00000000000E+00 0.  1.
<mgrwt>
<rscale>  0 0.19060248E+04</rscale>
<asrwt>0</asrwt>
<pdfrwt beam="1">  1        2 0.41868581E+00 0.19060248E+04</pdfrwt>
<pdfrwt beam="2">  1       -1 0.51343104E-01 0.19060248E+04</pdfrwt>
<totfact> 0.10500673E+01</totfact>
</mgrwt>
</event>
<event>
12    7  0.1698542E-007  0.1613689E+04  0.7818608E-02  0.8812182E-01
          2   -1    0    0  501    0  0.00000000000E+00  0.00000000000E+00  0.99986637059E+03  0.99986637059E+03  0.00000000000E+00 0. -1.
         -1   -1    0    0    0  501 -0.00000000000E+00 -0.00000000000E+00 -0.65108484567E+03  0.65108484567E+03  0.00000000000E+00 0.  1.
         24    2    1    2    0    0  0.37361158543E+03  0.62104231671E+02  0.52622018297E+03  0.65306630720E+03  0.78392399383E+02 0.  0.
        254    2    1    2    0    0 -0.37361158543E+03 -0.62104231671E+02 -0.17743865805E+03  0.99788490905E+03  0.90600621520E+03 0.  0.
         23    2    4    4    0    0 -0.27403283383E+03 -0.45404655550E+03  0.22472759491E+02  0.53774126593E+03  0.86071921005E+02 0.  0.
         23    2    4    4    0    0 -0.99578751596E+02  0.39194232383E+03 -0.19991141754E+03  0.46014364312E+03  0.90735243760E+02 0.  0.
          2    1    3    3  502    0  0.33992843901E+03  0.72355162567E+02  0.50105479461E+03  0.60978891463E+03  0.00000000000E+00 0. -1.
         -1    1    3    3    0  502  0.33683146420E+02 -0.10250930896E+02  0.25165388353E+02  0.43277392573E+02  0.00000000000E+00 0.  1.
         13    1    5    5    0    0 -0.17277741898E+03 -0.20318753811E+03  0.82000975297E+01  0.26684162672E+03  0.00000000000E+00 0. -1.
        -13    1    5    5    0    0 -0.10125541485E+03 -0.25085901739E+03  0.14272661962E+02  0.27089963921E+03  0.00000000000E+00 0.  1.
          1    1    6    6  503    0  0.15387740568E+02  0.33026242189E+02 -0.27772897964E+02  0.45813197817E+02  0.00000000000E+00 0. -1.
         -1    1    6    6    0  503 -0.11496649216E+03  0.35891608164E+03 -0.17213851958E+03  0.41433044530E+03  0.00000000000E+00 0.  1.
<mgrwt>
<rscale>  0 0.16136887E+04</rscale>
<asrwt>0</asrwt>
<pdfrwt beam="1">  1        2 0.15382560E+00 0.16136887E+04</pdfrwt>
<pdfrwt beam="2">  1       -1 0.10016690E+00 0.16136887E+04</pdfrwt>
<totfact> 0.26149438E+01</totfact>
</mgrwt>
</event>
<event>
12    7  0.1698542E-007  0.1696796E+04  0.7818608E-02  0.8763194E-01
         -1   -1    0    0    0  501 -0.00000000000E+00  0.00000000000E+00  0.29954234128E+03  0.29954234128E+03  0.00000000000E+00 0.  1.
          2   -1    0    0  501    0  0.00000000000E+00 -0.00000000000E+00 -0.24029299179E+04  0.24029299179E+04  0.00000000000E+00 0. -1.
         24    2    1    2    0    0  0.50035275603E+03  0.25418933233E+03 -0.40458210035E+03  0.69642297388E+03  0.79706872292E+02 0.  0.
        254    2    1    2    0    0 -0.50035275603E+03 -0.25418933233E+03 -0.16988054763E+04  0.20060492853E+04  0.90737455977E+03 0.  0.
         23    2    4    4    0    0 -0.21576010038E+03 -0.45677652635E+03 -0.38003513120E+03  0.63861928525E+03  0.90612772872E+02 0.  0.
         23    2    4    4    0    0 -0.28459265565E+03  0.20258719402E+03 -0.13187703451E+04  0.13674300001E+04  0.93139847271E+02 0.  0.
          4    1    3    3  502    0  0.10874493654E+03  0.31418708701E+02 -0.11188523448E+03  0.15915684772E+03  0.00000000000E+00 0. -1.
         -3    1    3    3    0  502  0.39160781948E+03  0.22277062363E+03 -0.29269686587E+03  0.53726612616E+03  0.00000000000E+00 0.  1.
         13    1    5    5    0    0 -0.80757048471E+02 -0.10574953517E+03 -0.65356545231E+02  0.14824352624E+03  0.00000000000E+00 0.  1.
        -13    1    5    5    0    0 -0.13500305191E+03 -0.35102699118E+03 -0.31467858597E+03  0.49037575901E+03  0.00000000000E+00 0. -1.
          1    1    6    6  503    0 -0.22545610904E+03  0.18259649997E+03 -0.94665267955E+03  0.99011273833E+03  0.00000000000E+00 0. -1.
         -1    1    6    6    0  503 -0.59136546609E+02  0.19990694056E+02 -0.37211766557E+03  0.37731726176E+03  0.00000000000E+00 0.  1.
<mgrwt>
<rscale>  0 0.16967961E+04</rscale>
<asrwt>0</asrwt>
<pdfrwt beam="1">  1        2 0.36968151E+00 0.16967961E+04</pdfrwt>
<pdfrwt beam="2">  1       -1 0.46083439E-01 0.16967961E+04</pdfrwt>
<totfact> 0.20128435E+01</totfact>
</mgrwt>
</event>
<event>
12    7  0.1698542E-007  0.2110178E+04  0.7818608E-02  0.8556773E-01
          2   -1    0    0  501    0  0.00000000000E+00  0.00000000000E+00  0.11986164863E+04  0.11986164863E+04  0.00000000000E+00 0. -1.
         -1   -1    0    0    0  501 -0.00000000000E+00 -0.00000000000E+00 -0.92874818382E+03  0.92874818382E+03  0.00000000000E+00 0.  1.
         24    2    1    2    0    0 -0.85325819988E+03  0.96989332115E+02 -0.30983706870E+02  0.86318225647E+03  0.81652505026E+02 0.  0.
        254    2    1    2    0    0  0.85325819988E+03 -0.96989332115E+02  0.30085200937E+03  0.12641824137E+04  0.87760398659E+03 0.  0.
         23    2    4    4    0    0  0.93137826153E+03 -0.27955916785E+02  0.46881003130E+03  0.10473680208E+04  0.94604049517E+02 0.  0.
         23    2    4    4    0    0 -0.78120061641E+02 -0.69033415330E+02 -0.16795802193E+03  0.21681439289E+03  0.89051824062E+02 0.  0.
          4    1    3    3  502    0 -0.68235636992E+02 -0.24061775278E-02  0.18330421395E+02  0.70654840669E+02  0.00000000000E+00 0. -1.
         -3    1    3    3    0  502 -0.78502256289E+03  0.96991738293E+02 -0.49314128265E+02  0.79252741580E+03  0.00000000000E+00 0.  1.
         13    1    5    5    0    0  0.84005302086E+03 -0.96657777423E+01  0.39402801101E+03  0.92792272230E+03  0.00000000000E+00 0. -1.
        -13    1    5    5    0    0  0.91325240670E+02 -0.18290139043E+02  0.74782020297E+02  0.11944529848E+03  0.00000000000E+00 0.  1.
          3    1    6    6  503    0 -0.96009327350E+02 -0.70503183773E+02 -0.14409294122E+03  0.18695257573E+03  0.00000000000E+00 0. -1.
         -3    1    6    6    0  503  0.17889265710E+02  0.14697684426E+01 -0.23865080707E+02  0.29861817159E+02  0.00000000000E+00 0.  1.
<mgrwt>
<rscale>  0 0.21101781E+04</rscale>
<asrwt>0</asrwt>
<pdfrwt beam="1">  1        2 0.18440254E+00 0.21101781E+04</pdfrwt>
<pdfrwt beam="2">  1       -1 0.14288433E+00 0.21101781E+04</pdfrwt>
<totfact> 0.79145764E+00</totfact>
</mgrwt>
</event>
<event>
12    7  0.1698542E-007  0.2412510E+04  0.7818608E-02  0.8434835E-01
          2   -1    0    0  501    0  0.00000000000E+00  0.00000000000E+00  0.22311757984E+04  0.22311757984E+04  0.00000000000E+00 0. -1.
         -1   -1    0    0    0  501 -0.00000000000E+00 -0.00000000000E+00 -0.65214551766E+03  0.65214551766E+03  0.00000000000E+00 0.  1.
         24    2    1    2    0    0  0.68739782473E+03  0.77487787858E+03  0.63961383262E+03  0.12200264544E+04  0.80044977576E+02 0.  0.
        254    2    1    2    0    0 -0.68739782473E+03 -0.77487787858E+03  0.93941644817E+03  0.16632948617E+04  0.90060814880E+03 0.  0.
         23    2    4    4    0    0 -0.33882910836E+02  0.14771678894E+02 -0.14133438244E+03  0.17045926199E+03  0.87833354669E+02 0.  0.
         23    2    4    4    0    0 -0.65351491389E+03 -0.78964955747E+03  0.10807508306E+04  0.14928355997E+04  0.99536945803E+02 0.  0.
          4    1    3    3  502    0  0.14644339997E+03  0.14122825493E+03  0.15881537891E+03  0.25809574573E+03  0.00000000000E+00 0. -1.
         -3    1    3    3    0  502  0.54095442476E+03  0.63364962365E+03  0.48079845371E+03  0.96193070869E+03  0.00000000000E+00 0.  1.
         13    1    5    5    0    0 -0.22685131728E+02  0.39110841294E+02 -0.26215696021E+02  0.52264096913E+02  0.00000000000E+00 0. -1.
        -13    1    5    5    0    0 -0.11197779108E+02 -0.24339162400E+02 -0.11511868642E+03  0.11819516507E+03  0.00000000000E+00 0.  1.
          1    1    6    6  503    0 -0.16774398277E+03 -0.20676829241E+03  0.21990120995E+03  0.34532262110E+03  0.00000000000E+00 0. -1.
         -1    1    6    6    0  503 -0.48577093112E+03 -0.58288126506E+03  0.86084962066E+03  0.11475129786E+04  0.00000000000E+00 0.  1.
<mgrwt>
<rscale>  0 0.24125101E+04</rscale>
<asrwt>0</asrwt>
<pdfrwt beam="1">  1        2 0.34325781E+00 0.24125101E+04</pdfrwt>
<pdfrwt beam="2">  1       -1 0.10033008E+00 0.24125101E+04</pdfrwt>
<totfact> 0.47935854E+00</totfact>
</mgrwt>
</event>
<event>
12    7  0.1698542E-007  0.2124086E+04  0.7818608E-02  0.8550707E-01
         -1   -1    0    0    0  501 -0.00000000000E+00  0.00000000000E+00  0.62880491478E+03  0.62880491478E+03  0.00000000000E+00 0.  1.
          2   -1    0    0  501    0  0.00000000000E+00 -0.00000000000E+00 -0.17937766836E+04  0.17937766836E+04  0.00000000000E+00 0. -1.
         24    2    1    2    0    0  0.59601177151E+03 -0.45339715084E+03  0.31164949935E+02  0.75387531530E+03  0.80979804576E+02 0.  0.
        254    2    1    2    0    0 -0.59601177151E+03  0.45339715084E+03 -0.11961367187E+04  0.16687062830E+04  0.89052714784E+03 0.  0.
         23    2    4    4    0    0 -0.55915827641E+03  0.45927653080E+02 -0.22614040443E+03  0.61180063069E+03  0.91614419189E+02 0.  0.
         23    2    4    4    0    0 -0.36853495101E+02  0.40746949776E+03 -0.96999631429E+03  0.10569056524E+04  0.93632988479E+02 0.  0.
          2    1    3    3  502    0  0.10633812103E+03 -0.10957527912E+03 -0.16892828968E+02  0.15362260722E+03  0.00000000000E+00 0. -1.
         -1    1    3    3    0  502  0.48967365047E+03 -0.34382187172E+03  0.48057778903E+02  0.60025270808E+03  0.00000000000E+00 0.  1.
         13    1    5    5    0    0 -0.50126611976E+03  0.33319088562E+02 -0.17048781092E+03  0.53051293872E+03  0.00000000000E+00 0. -1.
        -13    1    5    5    0    0 -0.57892156649E+02  0.12608564518E+02 -0.55652593511E+02  0.81287691966E+02  0.00000000000E+00 0.  1.
          3    1    6    6  503    0 -0.40296977165E+02  0.27585782673E+03 -0.54782682304E+03  0.61468334529E+03  0.00000000000E+00 0. -1.
         -3    1    6    6    0  503  0.34434820640E+01  0.13161167104E+03 -0.42216949126E+03  0.44222230707E+03  0.00000000000E+00 0.  1.
<mgrwt>
<rscale>  0 0.21240862E+04</rscale>
<asrwt>0</asrwt>
<pdfrwt beam="1">  1        2 0.27596564E+00 0.21240862E+04</pdfrwt>
<pdfrwt beam="2">  1       -1 0.96739219E-01 0.21240862E+04</pdfrwt>
<totfact> 0.93618698E+00</totfact>
</mgrwt>
</event>
<event>
12    7  0.1698542E-007  0.1245241E+04  0.7818608E-02  0.9074154E-01
          2   -1    0    0  501    0  0.00000000000E+00  0.00000000000E+00  0.19441015442E+04  0.19441015442E+04  0.00000000000E+00 0. -1.
         -1   -1    0    0    0  501 -0.00000000000E+00 -0.00000000000E+00 -0.19940120814E+03  0.19940120814E+03  0.00000000000E+00 0.  1.
         24    2    1    2    0    0  0.23408188009E+03  0.72541372508E+02  0.66326873494E+03  0.71155174305E+03  0.79522895880E+02 0.  0.
        254    2    1    2    0    0 -0.23408188009E+03 -0.72541372508E+02  0.10814316011E+04  0.14319510093E+04  0.90605342436E+03 0.  0.
         23    2    4    4    0    0  0.53235573042E+02  0.22564853434E+03  0.95884185564E+03  0.99064649297E+03  0.90837671818E+02 0.  0.
         23    2    4    4    0    0 -0.28731745313E+03 -0.29818990685E+03  0.12258974550E+03  0.44130451633E+03  0.90845423751E+02 0.  0.
          2    1    3    3  502    0  0.21045560366E+03  0.53850161828E+02  0.49446097383E+03  0.54007689793E+03  0.00000000000E+00 0. -1.
         -1    1    3    3    0  502  0.23626276430E+02  0.18691210680E+02  0.16880776112E+03  0.17147484512E+03  0.00000000000E+00 0.  1.
         13    1    5    5    0    0 -0.21515461397E+02  0.38347906830E+02  0.11708940473E+03  0.12507360128E+03  0.00000000000E+00 0. -1.
        -13    1    5    5    0    0  0.74751034439E+02  0.18730062751E+03  0.84175245091E+03  0.86557289169E+03  0.00000000000E+00 0.  1.
          3    1    6    6  503    0 -0.20519000895E+02 -0.61665190690E+02  0.36398513077E+02  0.74488099014E+02  0.00000000000E+00 0. -1.
         -3    1    6    6    0  503 -0.26679845224E+03 -0.23652471616E+03  0.86191232420E+02  0.36681641732E+03  0.00000000000E+00 0.  1.
<mgrwt>
<rscale>  0 0.12452409E+04</rscale>
<asrwt>0</asrwt>
<pdfrwt beam="1">  1        2 0.29909253E+00 0.12452409E+04</pdfrwt>
<pdfrwt beam="2">  1       -1 0.30677110E-01 0.12452409E+04</pdfrwt>
<totfact> 0.78974488E+01</totfact>
</mgrwt>
</event>
<event>
12    7  0.1698542E-007  0.1311167E+04  0.7818608E-02  0.9020756E-01
         -1   -1    0    0    0  501 -0.00000000000E+00  0.00000000000E+00  0.29649659186E+03  0.29649659186E+03  0.00000000000E+00 0.  1.
          2   -1    0    0  501    0  0.00000000000E+00 -0.00000000000E+00 -0.14495613069E+04  0.14495613069E+04  0.00000000000E+00 0. -1.
         24    2    1    2    0    0  0.49265550541E+02 -0.19212261548E+03  0.57942879291E+02  0.22144399836E+03  0.79635879461E+02 0.  0.
        254    2    1    2    0    0 -0.49265550541E+02  0.19212261548E+03 -0.12110075943E+04  0.15246139004E+04  0.90474856061E+03 0.  0.
         23    2    4    4    0    0  0.33084007397E+03  0.16658326557E+02 -0.97783446148E+03  0.10365473388E+04  0.92398577671E+02 0.  0.
         23    2    4    4    0    0 -0.38010562451E+03  0.17546428893E+03 -0.23317313286E+03  0.48806656160E+03  0.92581078990E+02 0.  0.
          4    1    3    3  502    0 -0.83649736825E+01  0.21936442607E+01 -0.39712470150E+01  0.95160739124E+01  0.00000000000E+00 0. -1.
         -3    1    3    3    0  502  0.57630524223E+02 -0.19431625974E+03  0.61914126306E+02  0.21192792444E+03  0.00000000000E+00 0.  1.
         13    1    5    5    0    0  0.31175541985E+03 -0.27039161538E+01 -0.93686792148E+03  0.98738050176E+03  0.00000000000E+00 0.  1.
        -13    1    5    5    0    0  0.19084654126E+02  0.19362242711E+02 -0.40966539998E+02  0.49166837048E+02  0.00000000000E+00 0. -1.
          3    1    6    6  503    0 -0.42491640334E+02  0.67525814696E+01  0.25169673823E+01  0.43098398806E+02  0.00000000000E+00 0. -1.
         -3    1    6    6    0  503 -0.33761398418E+03  0.16871170746E+03 -0.23569010025E+03  0.44496816279E+03  0.00000000000E+00 0.  1.
<mgrwt>
<rscale>  0 0.13111674E+04</rscale>
<asrwt>0</asrwt>
<pdfrwt beam="1">  1        2 0.22300943E+00 0.13111674E+04</pdfrwt>
<pdfrwt beam="2">  1       -1 0.45614860E-01 0.13111674E+04</pdfrwt>
<totfact> 0.72228461E+01</totfact>
</mgrwt>
</event>
<event>
12    7  0.1698542E-007  0.2536337E+04  0.7818608E-02  0.8390154E-01
          2   -1    0    0  501    0  0.00000000000E+00  0.00000000000E+00  0.99043266938E+03  0.99043266938E+03  0.00000000000E+00 0. -1.
         -1   -1    0    0    0  501 -0.00000000000E+00 -0.00000000000E+00 -0.16237863045E+04  0.16237863045E+04  0.00000000000E+00 0.  1.
         24    2    1    2    0    0 -0.53419792385E+03  0.29199723082E+03 -0.12212122429E+04  0.13670550934E+04  0.82767635384E+02 0.  0.
        254    2    1    2    0    0  0.53419792385E+03 -0.29199723082E+03  0.58785860775E+03  0.12471638805E+04  0.91608416512E+03 0.  0.
         23    2    4    4    0    0  0.27444735490E+03 -0.82702820851E+02  0.79080411249E+03  0.84605671556E+03  0.90992936147E+02 0.  0.
         23    2    4    4    0    0  0.25975056894E+03 -0.20929440997E+03 -0.20294550474E+03  0.40110716498E+03  0.91790913457E+02 0.  0.
          4    1    3    3  502    0 -0.37569188812E+02  0.95782454255E+01 -0.12535504826E+03  0.13121385162E+03  0.00000000000E+00 0. -1.
         -3    1    3    3    0  502 -0.49662873504E+03  0.28241898540E+03 -0.10958571947E+04  0.12358412418E+04  0.00000000000E+00 0.  1.
         13    1    5    5    0    0  0.61421905748E+02 -0.12487063769E+02  0.85962745026E+02  0.10638689205E+03  0.00000000000E+00 0. -1.
        -13    1    5    5    0    0  0.21302544916E+03 -0.70215757082E+02  0.70484136746E+03  0.73966982352E+03  0.00000000000E+00 0.  1.
          1    1    6    6  503    0 -0.29881798563E+01 -0.12760833412E+01 -0.18104699291E+02  0.18393959442E+02  0.00000000000E+00 0. -1.
         -1    1    6    6    0  503  0.26273874880E+03 -0.20801832663E+03 -0.18484080545E+03  0.38271320554E+03  0.00000000000E+00 0.  1.
<mgrwt>
<rscale>  0 0.25363367E+04</rscale>
<asrwt>0</asrwt>
<pdfrwt beam="1">  1        2 0.15237426E+00 0.25363367E+04</pdfrwt>
<pdfrwt beam="2">  1       -1 0.24981328E+00 0.25363367E+04</pdfrwt>
<totfact> 0.18107995E+00</totfact>
</mgrwt>
</event>
<event>
12    7  0.1698542E-007  0.1441507E+04  0.7818608E-02  0.8924310E-01
         -1   -1    0    0    0  501 -0.00000000000E+00  0.00000000000E+00  0.31834412573E+03  0.31834412573E+03  0.00000000000E+00 0.  1.
          2   -1    0    0  501    0  0.00000000000E+00 -0.00000000000E+00 -0.16318359644E+04  0.16318359644E+04  0.00000000000E+00 0. -1.
         24    2    1    2    0    0 -0.18747161852E+02  0.37672222933E+03 -0.10021773074E+03  0.39837783641E+03  0.79938806837E+02 0.  0.
        254    2    1    2    0    0  0.18747161852E+02 -0.37672222933E+03 -0.12132741079E+04  0.15518022537E+04  0.89094617097E+03 0.  0.
         23    2    4    4    0    0  0.34239101290E+03 -0.48589149357E+03 -0.64342228386E+03  0.88073260000E+03  0.91517911332E+02 0.  0.
         23    2    4    4    0    0 -0.32364385105E+03  0.10916926424E+03 -0.56985182407E+03  0.67106965373E+03  0.94552145346E+02 0.  0.
          2    1    3    3  502    0 -0.21233185732E+02  0.32851499183E+03 -0.58044078725E+02  0.33427842154E+03  0.00000000000E+00 0. -1.
         -1    1    3    3    0  502  0.24860238802E+01  0.48207237499E+02 -0.42173652014E+02  0.64099414867E+02  0.00000000000E+00 0.  1.
         13    1    5    5    0    0  0.34291908567E+03 -0.48742012620E+03 -0.64520287214E+03  0.87832717422E+03  0.00000000000E+00 0.  1.
        -13    1    5    5    0    0 -0.52807276842E+00  0.15286326362E+01  0.17805882791E+01  0.24054257845E+01  0.00000000000E+00 0. -1.
          3    1    6    6  503    0 -0.21283098206E+02 -0.13897553931E+02 -0.65811962790E+02  0.70550171656E+02  0.00000000000E+00 0. -1.
         -3    1    6    6    0  503 -0.30236075284E+03  0.12306681817E+03 -0.50403986128E+03  0.60051948208E+03  0.00000000000E+00 0.  1.
<mgrwt>
<rscale>  0 0.14415067E+04</rscale>
<asrwt>0</asrwt>
<pdfrwt beam="1">  1        2 0.25105168E+00 0.14415067E+04</pdfrwt>
<pdfrwt beam="2">  1       -1 0.48976020E-01 0.14415067E+04</pdfrwt>
<totfact> 0.49404246E+01</totfact>
</mgrwt>
</event>
<event>
12    7  0.1698542E-007  0.1259067E+04  0.7818608E-02  0.9062671E-01
         -1   -1    0    0    0  501 -0.00000000000E+00  0.00000000000E+00  0.98542425618E+02  0.98542425618E+02  0.00000000000E+00 0.  1.
          2   -1    0    0  501    0  0.00000000000E+00 -0.00000000000E+00 -0.40217423067E+04  0.40217423067E+04  0.00000000000E+00 0. -1.
         24    2    1    2    0    0  0.19655565879E+02  0.14743393151E+03 -0.11505088552E+03  0.20451629562E+03  0.80418303169E+02 0.  0.
        254    2    1    2    0    0 -0.19655565879E+02 -0.14743393151E+03 -0.38081489956E+04  0.39157684367E+04  0.89951129621E+03 0.  0.
         23    2    4    4    0    0  0.11220847531E+03  0.31441414714E+03 -0.85550298316E+03  0.92289545126E+03  0.91671489070E+02 0.  0.
         23    2    4    4    0    0 -0.13186404118E+03 -0.46184807865E+03 -0.29526460124E+04  0.29928729855E+04  0.92078549614E+02 0.  0.
          4    1    3    3  502    0 -0.29745290076E+02  0.38333508050E+02 -0.24379851792E+02  0.54301172128E+02  0.00000000000E+00 0. -1.
         -3    1    3    3    0  502  0.49400855955E+02  0.10910042346E+03 -0.90671033726E+02  0.15021512349E+03  0.00000000000E+00 0.  1.
         13    1    5    5    0    0 -0.15741402617E+02  0.33531493211E+02 -0.77272879401E+02  0.85692769148E+02  0.00000000000E+00 0.  1.
        -13    1    5    5    0    0  0.12794987792E+03  0.28088265393E+03 -0.77823010376E+03  0.83720268211E+03  0.00000000000E+00 0. -1.
          1    1    6    6  503    0 -0.14161452733E+03 -0.40537237057E+03 -0.24992421314E+04  0.25358613259E+04  0.00000000000E+00 0. -1.
         -1    1    6    6    0  503  0.97504861499E+01 -0.56475708075E+02 -0.45340388107E+03  0.45701165954E+03  0.00000000000E+00 0.  1.
<mgrwt>
<rscale>  0 0.12590667E+04</rscale>
<asrwt>0</asrwt>
<pdfrwt beam="1">  1        2 0.61872951E+00 0.12590667E+04</pdfrwt>
<pdfrwt beam="2">  1       -1 0.15160375E-01 0.12590667E+04</pdfrwt>
<totfact> 0.12334912E+01</totfact>
</mgrwt>
</event>
<event>
12    7  0.1698542E-007  0.2659396E+04  0.7818608E-02  0.8348301E-01
         -1   -1    0    0    0  501 -0.00000000000E+00  0.00000000000E+00  0.11751799543E+04  0.11751799543E+04  0.00000000000E+00 0.  1.
          2   -1    0    0  501    0  0.00000000000E+00 -0.00000000000E+00 -0.15045327809E+04  0.15045327809E+04  0.00000000000E+00 0. -1.
         24    2    1    2    0    0  0.75848698928E+02  0.39213230574E+03 -0.12602273923E+04  0.13245852403E+04  0.82657172950E+02 0.  0.
        254    2    1    2    0    0 -0.75848698928E+02 -0.39213230574E+03  0.93087456576E+03  0.13551274949E+04  0.90017903763E+03 0.  0.
         23    2    4    4    0    0 -0.40038209214E+03 -0.15609757174E+03  0.81756374071E+03  0.92828513399E+03  0.92900744040E+02 0.  0.
         23    2    4    4    0    0  0.32453339321E+03 -0.23603473399E+03  0.11331082505E+03  0.42684236086E+03  0.91218084810E+02 0.  0.
          4    1    3    3  502    0  0.64975203748E+02  0.24887373192E+03 -0.91968934339E+03  0.95498083745E+03  0.00000000000E+00 0. -1.
         -3    1    3    3    0  502  0.10873495181E+02  0.14325857382E+03 -0.34053804892E+03  0.36960440289E+03  0.00000000000E+00 0.  1.
         13    1    5    5    0    0 -0.10283629226E+02 -0.17730823564E+02  0.79310999622E+02  0.81916846835E+02  0.00000000000E+00 0. -1.
        -13    1    5    5    0    0 -0.39009846291E+03 -0.13836674818E+03  0.73825274109E+03  0.84636828715E+03  0.00000000000E+00 0.  1.
          1    1    6    6  503    0  0.14962341448E+02 -0.17920371814E+02 -0.14120911889E+02  0.27283906248E+02  0.00000000000E+00 0. -1.
         -1    1    6    6    0  503  0.30957105176E+03 -0.21811436218E+03  0.12743173693E+03  0.39955845462E+03  0.00000000000E+00 0.  1.
<mgrwt>
<rscale>  0 0.26593960E+04</rscale>
<asrwt>0</asrwt>
<pdfrwt beam="1">  1        2 0.23146658E+00 0.26593960E+04</pdfrwt>
<pdfrwt beam="2">  1       -1 0.18079692E+00 0.26593960E+04</pdfrwt>
<totfact> 0.25982803E+00</totfact>
</mgrwt>
</event>
<event>
12    7  0.1698542E-007  0.1873934E+04  0.7818608E-02  0.8667941E-01
          2   -1    0    0  501    0  0.00000000000E+00  0.00000000000E+00  0.30581253094E+04  0.30581253094E+04  0.00000000000E+00 0. -1.
         -1   -1    0    0    0  501 -0.00000000000E+00 -0.00000000000E+00 -0.28707370756E+03  0.28707370756E+03  0.00000000000E+00 0.  1.
         24    2    1    2    0    0  0.33052673972E+03  0.12318269681E+03  0.21926759909E+04  0.22224860621E+04  0.84819767159E+02 0.  0.
        254    2    1    2    0    0 -0.33052673972E+03 -0.12318269681E+03  0.57837561093E+03  0.11227129548E+04  0.89528996929E+03 0.  0.
         23    2    4    4    0    0 -0.36904081443E+03 -0.42430958096E+03  0.14764252274E+03  0.58798925543E+03  0.87768483930E+02 0.  0.
         23    2    4    4    0    0  0.38514074713E+02  0.30112688415E+03  0.43073308819E+03  0.53472369938E+03  0.90761815227E+02 0.  0.
          2    1    3    3  502    0  0.19333385435E+03  0.32744398095E+02  0.10650455152E+04  0.10829460394E+04  0.00000000000E+00 0. -1.
         -1    1    3    3    0  502  0.13719288537E+03  0.90438298713E+02  0.11276304757E+04  0.11395400227E+04  0.00000000000E+00 0.  1.
         13    1    5    5    0    0 -0.36066946633E+02 -0.55458165741E+02 -0.94715500153E+01  0.66829208034E+02  0.00000000000E+00 0.  1.
        -13    1    5    5    0    0 -0.33297386780E+03 -0.36885141521E+03  0.15711407275E+03  0.52116004739E+03  0.00000000000E+00 0. -1.
          2    1    6    6  503    0  0.32481552918E+02  0.27165135544E+02  0.68222105699E+02  0.80294779252E+02  0.00000000000E+00 0.  1.
         -2    1    6    6    0  503  0.60325217950E+01  0.27396174860E+03  0.36251098249E+03  0.45442892012E+03  0.00000000000E+00 0. -1.
<mgrwt>
<rscale>  0 0.18739342E+04</rscale>
<asrwt>0</asrwt>
<pdfrwt beam="1">  1        2 0.47048079E+00 0.18739342E+04</pdfrwt>
<pdfrwt beam="2">  1       -1 0.44165188E-01 0.18739342E+04</pdfrwt>
<totfact> 0.87021484E+00</totfact>
</mgrwt>
</event>
<event>
12    7  0.1698542E-007  0.3296523E+04  0.7818608E-02  0.8163781E-01
         -1   -1    0    0    0  501 -0.00000000000E+00  0.00000000000E+00  0.88078722009E+03  0.88078722009E+03  0.00000000000E+00 0.  1.
          2   -1    0    0  501    0  0.00000000000E+00 -0.00000000000E+00 -0.30844755998E+04  0.30844755998E+04  0.00000000000E+00 0. -1.
         24    2    1    2    0    0 -0.11860807882E+04  0.92183367442E+03 -0.13401113151E+04  0.20146272885E+04  0.79118996395E+02 0.  0.
        254    2    1    2    0    0  0.11860807882E+04 -0.92183367442E+03 -0.86357706469E+03  0.19506355314E+04  0.89590661926E+03 0.  0.
         23    2    4    4    0    0  0.59546970852E+03 -0.94052309434E+03 -0.37522705597E+03  0.11784454326E+04  0.93650569927E+02 0.  0.
         23    2    4    4    0    0  0.59061107963E+03  0.18689419924E+02 -0.48835000872E+03  0.77219009884E+03  0.92849749272E+02 0.  0.
          2    1    3    3  502    0 -0.92527970056E+03  0.67938839189E+03 -0.10065574530E+04  0.15267183818E+04  0.00000000000E+00 0. -1.
         -1    1    3    3    0  502 -0.26080108759E+03  0.24244528253E+03 -0.33355386208E+03  0.48790890668E+03  0.00000000000E+00 0.  1.
         13    1    5    5    0    0  0.12100113636E+03 -0.24741407513E+03 -0.12132604323E+03  0.30095682139E+03  0.00000000000E+00 0.  1.
        -13    1    5    5    0    0  0.47446857216E+03 -0.69310901921E+03 -0.25390101274E+03  0.87748861118E+03  0.00000000000E+00 0. -1.
          2    1    6    6  503    0  0.50457802069E+03  0.30402193667E+02 -0.37498189841E+03  0.62939232318E+03  0.00000000000E+00 0. -1.
         -2    1    6    6    0  503  0.86033058935E+02 -0.11712773743E+02 -0.11336811031E+03  0.14279777566E+03  0.00000000000E+00 0.  1.
<mgrwt>
<rscale>  0 0.32965234E+04</rscale>
<asrwt>0</asrwt>
<pdfrwt beam="1">  1        2 0.47453470E+00 0.32965234E+04</pdfrwt>
<pdfrwt beam="2">  1       -1 0.13550573E+00 0.32965234E+04</pdfrwt>
<totfact> 0.66590946E-01</totfact>
</mgrwt>
</event>
<event>
12    7  0.1698542E-007  0.1551239E+04  0.7818608E-02  0.8851077E-01
         -1   -1    0    0    0  501 -0.00000000000E+00  0.00000000000E+00  0.29317144553E+03  0.29317144553E+03  0.00000000000E+00 0.  1.
          2   -1    0    0  501    0  0.00000000000E+00 -0.00000000000E+00 -0.20519931741E+04  0.20519931741E+04  0.00000000000E+00 0. -1.
         24    2    1    2    0    0  0.10428136339E+02 -0.50761144340E+03 -0.65590424046E+03  0.83329640642E+03  0.79965022368E+02 0.  0.
        254    2    1    2    0    0 -0.10428136339E+02  0.50761144340E+03 -0.11029174881E+04  0.15118682132E+04  0.90085536301E+03 0.  0.
         23    2    4    4    0    0  0.11017578340E+02  0.75250325218E+03 -0.70386468551E+03  0.10343619242E+04  0.89980904783E+02 0.  0.
         23    2    4    4    0    0 -0.21445714679E+02 -0.24489180878E+03 -0.39905280262E+03  0.47750628899E+03  0.91308269430E+02 0.  0.
          2    1    3    3  502    0  0.23694578811E+02 -0.40020864102E+03 -0.46601353033E+03  0.61473327538E+03  0.00000000000E+00 0. -1.
         -1    1    3    3    0  502 -0.13266442472E+02 -0.10740280237E+03 -0.18989071013E+03  0.21856313103E+03  0.00000000000E+00 0.  1.
         13    1    5    5    0    0  0.57005221594E+01  0.29089534021E+03 -0.21344909526E+03  0.36085053855E+03  0.00000000000E+00 0.  1.
        -13    1    5    5    0    0  0.53170561806E+01  0.46160791197E+03 -0.49041559025E+03  0.67351138568E+03  0.00000000000E+00 0. -1.
          1    1    6    6  503    0 -0.43973875630E+02 -0.17100083959E+03 -0.32822518021E+03  0.37270196915E+03  0.00000000000E+00 0. -1.
         -1    1    6    6    0  503  0.22528160952E+02 -0.73890969187E+02 -0.70827622402E+02  0.10480431985E+03  0.00000000000E+00 0.  1.
<mgrwt>
<rscale>  0 0.15512393E+04</rscale>
<asrwt>0</asrwt>
<pdfrwt beam="1">  1        2 0.31569126E+00 0.15512393E+04</pdfrwt>
<pdfrwt beam="2">  1       -1 0.45103299E-01 0.15512393E+04</pdfrwt>
<totfact> 0.33427291E+01</totfact>
</mgrwt>
</event>
<event>
12    7  0.1698542E-007  0.1718512E+04  0.7818608E-02  0.8750876E-01
         -1   -1    0    0    0  501 -0.00000000000E+00  0.00000000000E+00  0.62151498048E+03  0.62151498048E+03  0.00000000000E+00 0.  1.
          2   -1    0    0  501    0  0.00000000000E+00 -0.00000000000E+00 -0.11879378549E+04  0.11879378549E+04  0.00000000000E+00 0. -1.
         24    2    1    2    0    0  0.38739158966E+03  0.13900407990E+02 -0.72763784432E+03  0.82836317873E+03  0.80394392225E+02 0.  0.
        254    2    1    2    0    0 -0.38739158966E+03 -0.13900407990E+02  0.16121496987E+03  0.98108965667E+03  0.88672497588E+03 0.  0.
         23    2    4    4    0    0 -0.36298130839E+03 -0.22511724235E+02 -0.31872255572E+03  0.49193004075E+03  0.90271199725E+02 0.  0.
         23    2    4    4    0    0 -0.24410281270E+02  0.86113162448E+01  0.47993752559E+03  0.48915961592E+03  0.90923510595E+02 0.  0.
          2    1    3    3  502    0  0.21517420611E+03  0.31653197222E+02 -0.47097338901E+03  0.51876564749E+03  0.00000000000E+00 0. -1.
         -1    1    3    3    0  502  0.17221738355E+03 -0.17752789232E+02 -0.25666445531E+03  0.30959753123E+03  0.00000000000E+00 0.  1.
         13    1    5    5    0    0 -0.27643936388E+03 -0.27698222315E+02 -0.18942133698E+03  0.33625341087E+03  0.00000000000E+00 0. -1.
        -13    1    5    5    0    0 -0.86541944511E+02  0.51864980802E+01 -0.12930121874E+03  0.15567662988E+03  0.00000000000E+00 0.  1.
          4    1    6    6  503    0 -0.10333132984E+02  0.10561010778E+02  0.76128614395E+01  0.16621198670E+02  0.00000000000E+00 0. -1.
         -4    1    6    6    0  503 -0.14077148285E+02 -0.19496945337E+01  0.47232466415E+03  0.47253841725E+03  0.00000000000E+00 0.  1.
<mgrwt>
<rscale>  0 0.17185123E+04</rscale>
<asrwt>0</asrwt>
<pdfrwt beam="1">  1        2 0.18275967E+00 0.17185123E+04</pdfrwt>
<pdfrwt beam="2">  1       -1 0.95617691E-01 0.17185123E+04</pdfrwt>
<totfact> 0.22022368E+01</totfact>
</mgrwt>
</event>
<event>
12    7  0.1698542E-007  0.3496130E+04  0.7818608E-02  0.8114708E-01
          2   -1    0    0  501    0  0.00000000000E+00  0.00000000000E+00  0.12111450927E+04  0.12111450927E+04  0.00000000000E+00 0. -1.
         -1   -1    0    0    0  501 -0.00000000000E+00 -0.00000000000E+00 -0.25230107586E+04  0.25230107586E+04  0.00000000000E+00 0.  1.
         24    2    1    2    0    0 -0.14631210181E+04 -0.27022955958E+03 -0.13381908178E+04  0.20026408326E+04  0.77900647597E+02 0.  0.
        254    2    1    2    0    0  0.14631210181E+04  0.27022955958E+03  0.26325151930E+02  0.17315150187E+04  0.88527064661E+03 0.  0.
         23    2    4    4    0    0  0.10554152619E+04  0.48351868445E+03  0.28083087292E+03  0.11977437746E+04  0.89624087834E+02 0.  0.
         23    2    4    4    0    0  0.40770575623E+03 -0.21328912487E+03 -0.25450572099E+03  0.53377124410E+03  0.91773332519E+02 0.  0.
          2    1    3    3  502    0 -0.15748016029E+03 -0.18970630074E+02 -0.17328857900E+03  0.23492300292E+03  0.00000000000E+00 0. -1.
         -1    1    3    3    0  502 -0.13056408578E+04 -0.25125892950E+03 -0.11649022388E+04  0.17677178297E+04  0.00000000000E+00 0.  1.
         13    1    5    5    0    0  0.28536299630E+03  0.16495793448E+03  0.53257216761E+02  0.33388544584E+03  0.00000000000E+00 0. -1.
        -13    1    5    5    0    0  0.77005226559E+03  0.31856074997E+03  0.22757365616E+03  0.86385832874E+03  0.00000000000E+00 0.  1.
          1    1    6    6  503    0  0.13669731244E+03 -0.57809455684E+02 -0.13046316511E+03  0.19760750453E+03  0.00000000000E+00 0. -1.
         -1    1    6    6    0  503  0.27100844379E+03 -0.15547966918E+03 -0.12404255588E+03  0.33616373957E+03  0.00000000000E+00 0.  1.
<mgrwt>
<rscale>  0 0.34961305E+04</rscale>
<asrwt>0</asrwt>
<pdfrwt beam="1">  1        2 0.18633002E+00 0.34961305E+04</pdfrwt>
<pdfrwt beam="2">  1       -1 0.38815550E+00 0.34961305E+04</pdfrwt>
<totfact> 0.15034987E-01</totfact>
</mgrwt>
</event>
<event>
12    7  0.1698542E-007  0.1139919E+04  0.7818608E-02  0.9167134E-01
          2   -1    0    0  501    0  0.00000000000E+00  0.00000000000E+00  0.23164944998E+04  0.23164944998E+04  0.00000000000E+00 0. -1.
         -1   -1    0    0    0  501 -0.00000000000E+00 -0.00000000000E+00 -0.14023518421E+03  0.14023518421E+03  0.00000000000E+00 0.  1.
         24    2    1    2    0    0  0.20532236840E+02 -0.48309875372E+02 -0.32786342471E+01  0.95620142391E+02  0.79856404754E+02 0.  0.
        254    2    1    2    0    0 -0.20532236840E+02  0.48309875372E+02  0.21795379499E+04  0.23611095416E+04  0.90647513806E+03 0.  0.
         23    2    4    4    0    0  0.25323393818E+03  0.20347134777E+03  0.28974443096E+03  0.44314313703E+03  0.83042084585E+02 0.  0.
         23    2    4    4    0    0 -0.27376617502E+03 -0.15516147239E+03  0.18897935189E+04  0.19179664046E+04  0.90843734124E+02 0.  0.
          2    1    3    3  502    0  0.35137088376E+02 -0.46174396462E+02  0.25420840321E+02  0.63347525531E+02  0.00000000000E+00 0. -1.
         -1    1    3    3    0  502 -0.14604851537E+02 -0.21354789101E+01 -0.28699474568E+02  0.32272616861E+02  0.00000000000E+00 0.  1.
         13    1    5    5    0    0  0.14571541713E+03  0.63915223375E+02  0.13915762426E+03  0.21138349736E+03  0.00000000000E+00 0.  1.
        -13    1    5    5    0    0  0.10751852106E+03  0.13955612439E+03  0.15058680670E+03  0.23175963966E+03  0.00000000000E+00 0. -1.
          3    1    6    6  503    0 -0.27153799380E+03 -0.16469045284E+03  0.18428234073E+04  0.18699876839E+04  0.00000000000E+00 0. -1.
         -3    1    6    6    0  503 -0.22281812212E+01  0.95289804494E+01  0.46970111624E+02  0.47978720762E+02  0.00000000000E+00 0.  1.
<mgrwt>
<rscale>  0 0.11399194E+04</rscale>
<asrwt>0</asrwt>
<pdfrwt beam="1">  1        2 0.35638374E+00 0.11399194E+04</pdfrwt>
<pdfrwt beam="2">  1       -1 0.21574645E-01 0.11399194E+04</pdfrwt>
<totfact> 0.90595003E+01</totfact>
</mgrwt>
</event>
<event>
12    7  0.1698542E-007  0.1539133E+04  0.7818608E-02  0.8858839E-01
          2   -1    0    0  501    0  0.00000000000E+00  0.00000000000E+00  0.25982229768E+04  0.25982229768E+04  0.00000000000E+00 0. -1.
         -1   -1    0    0    0  501 -0.00000000000E+00 -0.00000000000E+00 -0.22793743927E+03  0.22793743927E+03  0.00000000000E+00 0.  1.
         24    2    1    2    0    0  0.27717598950E+03 -0.32061199387E+03  0.28356122766E+03  0.51542768654E+03  0.75100935114E+02 0.  0.
        254    2    1    2    0    0 -0.27717598950E+03  0.32061199387E+03  0.20867243099E+04  0.23107327295E+04  0.89746800621E+03 0.  0.
         23    2    4    4    0    0 -0.43007660779E+03  0.53185327690E+03  0.17071032060E+04  0.18412845308E+04  0.91069042157E+02 0.  0.
         23    2    4    4    0    0  0.15290061829E+03 -0.21124128303E+03  0.37962110383E+03  0.46944819877E+03  0.90928269107E+02 0.  0.
          4    1    3    3  502    0  0.48650034995E+02 -0.82001502873E+02  0.96939489156E+02  0.13597182405E+03  0.00000000000E+00 0. -1.
         -3    1    3    3    0  502  0.22852595451E+03 -0.23861049099E+03  0.18662173850E+03  0.37945586249E+03  0.00000000000E+00 0.  1.
         13    1    5    5    0    0 -0.33458870731E+03  0.34759297969E+03  0.11865468029E+04  0.12808839908E+04  0.00000000000E+00 0. -1.
        -13    1    5    5    0    0 -0.95487900488E+02  0.18426029721E+03  0.52055640318E+03  0.56040053994E+03  0.00000000000E+00 0.  1.
          3    1    6    6  503    0  0.13838681155E+03 -0.12647068518E+03  0.28928235126E+03  0.34471730820E+03  0.00000000000E+00 0. -1.
         -3    1    6    6    0  503  0.14513806744E+02 -0.84770597858E+02  0.90338752572E+02  0.12473089057E+03  0.00000000000E+00 0.  1.
<mgrwt>
<rscale>  0 0.15391326E+04</rscale>
<asrwt>0</asrwt>
<pdfrwt beam="1">  1        2 0.39972659E+00 0.15391326E+04</pdfrwt>
<pdfrwt beam="2">  1       -1 0.35067300E-01 0.15391326E+04</pdfrwt>
<totfact> 0.25962781E+01</totfact>
</mgrwt>
</event>
<event>
12    7  0.1698542E-007  0.1575993E+04  0.7818608E-02  0.8835434E-01
         -1   -1    0    0    0  501 -0.00000000000E+00  0.00000000000E+00  0.58419301713E+03  0.58419301713E+03  0.00000000000E+00 0.  1.
          2   -1    0    0  501    0  0.00000000000E+00 -0.00000000000E+00 -0.10628995964E+04  0.10628995964E+04  0.00000000000E+00 0. -1.
         24    2    1    2    0    0  0.46298597723E+03  0.19325849500E+03 -0.34145975387E+03  0.61205605636E+03  0.79454336643E+02 0.  0.
        254    2    1    2    0    0 -0.46298597723E+03 -0.19325849500E+03 -0.13724682535E+03  0.10350365571E+04  0.89485145276E+03 0.  0.
         23    2    4    4    0    0 -0.58199703057E+03  0.16388866135E+03 -0.20248422433E+03  0.64379653238E+03  0.88848618955E+02 0.  0.
         23    2    4    4    0    0  0.11901105334E+03 -0.35714715636E+03  0.65237398980E+02  0.39124002474E+03  0.84232515230E+02 0.  0.
          2    1    3    3  502    0  0.38033479726E+03  0.19014704152E+03 -0.28352698808E+03  0.51107534511E+03  0.00000000000E+00 0. -1.
         -1    1    3    3    0  502  0.82651179974E+02  0.31114534835E+01 -0.57932765788E+02  0.10098071126E+03  0.00000000000E+00 0.  1.
         13    1    5    5    0    0 -0.29283505959E+03  0.99062360558E+02 -0.59686741775E+02  0.31484636023E+03  0.00000000000E+00 0. -1.
        -13    1    5    5    0    0 -0.28916197098E+03  0.64826300794E+02 -0.14279748256E+03  0.32895017216E+03  0.00000000000E+00 0.  1.
          3    1    6    6  503    0  0.65420550050E+02 -0.26110059681E+03  0.13015489654E+02  0.26948612764E+03  0.00000000000E+00 0. -1.
         -3    1    6    6    0  503  0.53590503290E+02 -0.96046559548E+02  0.52221909326E+02  0.12175389709E+03  0.00000000000E+00 0.  1.
<mgrwt>
<rscale>  0 0.15759930E+04</rscale>
<asrwt>0</asrwt>
<pdfrwt beam="1">  1        2 0.16352301E+00 0.15759930E+04</pdfrwt>
<pdfrwt beam="2">  1       -1 0.89875849E-01 0.15759930E+04</pdfrwt>
<totfact> 0.30512673E+01</totfact>
</mgrwt>
</event>
<event>
12    7  0.1698542E-007  0.2490688E+04  0.7818608E-02  0.8406311E-01
         -1   -1    0    0    0  501 -0.00000000000E+00  0.00000000000E+00  0.11042283731E+04  0.11042283731E+04  0.00000000000E+00 0.  1.
          2   -1    0    0  501    0  0.00000000000E+00 -0.00000000000E+00 -0.14044931094E+04  0.14044931094E+04  0.00000000000E+00 0. -1.
         24    2    1    2    0    0 -0.43357124883E+03  0.75752198890E+03  0.51298696189E+03  0.10156307479E+04  0.80787384943E+02 0.  0.
        254    2    1    2    0    0  0.43357124883E+03 -0.75752198890E+03 -0.81325169819E+03  0.14930907346E+04  0.89784075749E+03 0.  0.
         23    2    4    4    0    0  0.30227628215E+03 -0.26746752320E+03 -0.88176269159E+03  0.97405473441E+03  0.91473245392E+02 0.  0.
         23    2    4    4    0    0  0.13129496668E+03 -0.49005446570E+03  0.68510993403E+02  0.51903600024E+03  0.85515295113E+02 0.  0.
          4    1    3    3  502    0 -0.49494007934E+02  0.82026607242E+02  0.87329848068E+02  0.12963226250E+03  0.00000000000E+00 0. -1.
         -3    1    3    3    0  502 -0.38407724090E+03  0.67549538166E+03  0.42565711382E+03  0.88599848542E+03  0.00000000000E+00 0.  1.
         13    1    5    5    0    0  0.99683012080E+02 -0.12924247404E+03 -0.27788570622E+03  0.32227439507E+03  0.00000000000E+00 0. -1.
        -13    1    5    5    0    0  0.20259327007E+03 -0.13822504916E+03 -0.60387698537E+03  0.65178033934E+03  0.00000000000E+00 0.  1.
          2    1    6    6  503    0  0.62632288922E+02 -0.37697141543E+03  0.54325884980E+02  0.38598128639E+03  0.00000000000E+00 0. -1.
         -2    1    6    6    0  503  0.68662677762E+02 -0.11308305027E+03  0.14185108423E+02  0.13305471385E+03  0.00000000000E+00 0.  1.
<mgrwt>
<rscale>  0 0.24906876E+04</rscale>
<asrwt>0</asrwt>
<pdfrwt beam="1">  1        2 0.21607586E+00 0.24906876E+04</pdfrwt>
<pdfrwt beam="2">  1       -1 0.16988129E+00 0.24906876E+04</pdfrwt>
<totfact> 0.36066540E+00</totfact>
</mgrwt>
</event>
<event>
12    7  0.1698542E-007  0.1749761E+04  0.7818608E-02  0.8733482E-01
         -1   -1    0    0    0  501 -0.00000000000E+00  0.00000000000E+00  0.34858596726E+03  0.34858596726E+03  0.00000000000E+00 0.  1.
          2   -1    0    0  501    0  0.00000000000E+00 -0.00000000000E+00 -0.21957736514E+04  0.21957736514E+04  0.00000000000E+00 0. -1.
         24    2    1    2    0    0  0.56670622978E+03 -0.17009229504E+03 -0.10601695399E+04  0.12167292763E+04  0.79895799348E+02 0.  0.
        254    2    1    2    0    0 -0.56670622978E+03  0.17009229504E+03 -0.78701814417E+03  0.13276303423E+04  0.89057140467E+03 0.  0.
         23    2    4    4    0    0 -0.30355878299E+03 -0.35300995238E+03 -0.30612058843E+03  0.56448936705E+03  0.90412773690E+02 0.  0.
         23    2    4    4    0    0 -0.26314744679E+03  0.52310224742E+03 -0.48089755574E+03  0.76314097524E+03  0.90769758016E+02 0.  0.
          4    1    3    3  502    0  0.24720521984E+03 -0.85315955909E+02 -0.54719243153E+03  0.60647241502E+03  0.00000000000E+00 0. -1.
         -3    1    3    3    0  502  0.31950100994E+03 -0.84776339136E+02 -0.51297710842E+03  0.61025686132E+03  0.00000000000E+00 0.  1.
         13    1    5    5    0    0 -0.29903479096E+03 -0.35698927067E+03 -0.29337817624E+03  0.55039431308E+03  0.00000000000E+00 0. -1.
        -13    1    5    5    0    0 -0.45239920295E+01  0.39793182935E+01 -0.12742412194E+02  0.14095053972E+02  0.00000000000E+00 0.  1.
          4    1    6    6  503    0 -0.16656858075E+03  0.38926831083E+03 -0.38490866047E+03  0.57221463352E+03  0.00000000000E+00 0. -1.
         -4    1    6    6    0  503 -0.96578866041E+02  0.13383393659E+03 -0.95988895272E+02  0.19092634173E+03  0.00000000000E+00 0.  1.
<mgrwt>
<rscale>  0 0.17497610E+04</rscale>
<asrwt>0</asrwt>
<pdfrwt beam="1">  1        2 0.33781133E+00 0.17497610E+04</pdfrwt>
<pdfrwt beam="2">  1       -1 0.53628611E-01 0.17497610E+04</pdfrwt>
<totfact> 0.19671669E+01</totfact>
</mgrwt>
</event>
<event>
12    7  0.1698542E-007  0.2029383E+04  0.7818608E-02  0.8593005E-01
          2   -1    0    0  501    0  0.00000000000E+00  0.00000000000E+00  0.16018432029E+04  0.16018432029E+04  0.00000000000E+00 0. -1.
         -1   -1    0    0    0  501 -0.00000000000E+00 -0.00000000000E+00 -0.64275895412E+03  0.64275895412E+03  0.00000000000E+00 0.  1.
         24    2    1    2    0    0 -0.76477551687E+03  0.27087491098E+03  0.39314222724E+03  0.90508785383E+03  0.79802278758E+02 0.  0.
        254    2    1    2    0    0  0.76477551687E+03 -0.27087491098E+03  0.56594202155E+03  0.13395143032E+04  0.90319067096E+03 0.  0.
         23    2    4    4    0    0  0.21484298077E+03  0.31364079297E+03  0.28534722512E+03  0.48442640039E+03  0.93369401334E+02 0.  0.
         23    2    4    4    0    0  0.54993253610E+03 -0.58451570396E+03  0.28059479642E+03  0.85508790281E+03  0.91419250233E+02 0.  0.
          4    1    3    3  502    0 -0.29436313654E+03  0.93880655184E+02  0.19172785440E+03  0.36362453675E+03  0.00000000000E+00 0. -1.
         -3    1    3    3    0  502 -0.47041238033E+03  0.17699425580E+03  0.20141437285E+03  0.54146331708E+03  0.00000000000E+00 0.  1.
         13    1    5    5    0    0  0.20083919584E+03  0.31749659547E+03  0.28135615342E+03  0.46936313851E+03  0.00000000000E+00 0.  1.
        -13    1    5    5    0    0  0.14003784932E+02 -0.38558024921E+01  0.39910716970E+01  0.15063261884E+02  0.00000000000E+00 0. -1.
          3    1    6    6  503    0  0.36869031594E+02 -0.77802797356E+02  0.20437353364E+02  0.88488904274E+02  0.00000000000E+00 0. -1.
         -3    1    6    6    0  503  0.51306350451E+03 -0.50671290660E+03  0.26015744306E+03  0.76659899854E+03  0.00000000000E+00 0.  1.
<mgrwt>
<rscale>  0 0.20293832E+04</rscale>
<asrwt>0</asrwt>
<pdfrwt beam="1">  1        2 0.24643741E+00 0.20293832E+04</pdfrwt>
<pdfrwt beam="2">  1       -1 0.98885993E-01 0.20293832E+04</pdfrwt>
<totfact> 0.11485792E+01</totfact>
</mgrwt>
</event>
<event>
12    7  0.1698542E-007  0.1675780E+04  0.7818608E-02  0.8775300E-01
          2   -1    0    0  501    0  0.00000000000E+00  0.00000000000E+00  0.10838305491E+04  0.10838305491E+04  0.00000000000E+00 0. -1.
         -1   -1    0    0    0  501 -0.00000000000E+00 -0.00000000000E+00 -0.64775761517E+03  0.64775761517E+03  0.00000000000E+00 0.  1.
         24    2    1    2    0    0  0.25471103817E+03  0.99578456191E+02 -0.39029144172E+03  0.48326165049E+03  0.80130090796E+02 0.  0.
        254    2    1    2    0    0 -0.25471103817E+03 -0.99578456191E+02  0.82636437561E+03  0.12483265137E+04  0.89478903755E+03 0.  0.
         23    2    4    4    0    0 -0.19146258941E+03  0.19709724823E+03  0.88123907718E+03  0.92756518437E+03  0.91047304751E+02 0.  0.
         23    2    4    4    0    0 -0.63248448766E+02 -0.29667570442E+03 -0.54874701577E+02  0.32076132937E+03  0.88655274418E+02 0.  0.
          2    1    3    3  502    0  0.64161426151E+02  0.22548029615E+01 -0.13973461394E+03  0.15377755062E+03  0.00000000000E+00 0. -1.
         -1    1    3    3    0  502  0.19054961202E+03  0.97323653230E+02 -0.25055682778E+03  0.32948409987E+03  0.00000000000E+00 0.  1.
         13    1    5    5    0    0 -0.10944846312E+03  0.10230446516E+03  0.61951932063E+03  0.63737693582E+03  0.00000000000E+00 0.  1.
        -13    1    5    5    0    0 -0.82014126286E+02  0.94792783063E+02  0.26171975655E+03  0.29018824856E+03  0.00000000000E+00 0. -1.
          3    1    6    6  503    0 -0.13004157168E+02 -0.21971127469E+03 -0.61742687564E+02  0.22859202042E+03  0.00000000000E+00 0. -1.
         -3    1    6    6    0  503 -0.50244291598E+02 -0.76964429726E+02  0.68679859878E+01  0.92169308952E+02  0.00000000000E+00 0.  1.
<mgrwt>
<rscale>  0 0.16757798E+04</rscale>
<asrwt>0</asrwt>
<pdfrwt beam="1">  1        2 0.16674316E+00 0.16757798E+04</pdfrwt>
<pdfrwt beam="2">  1       -1 0.99655018E-01 0.16757798E+04</pdfrwt>
<totfact> 0.23294921E+01</totfact>
</mgrwt>
</event>
<event>
12    7  0.1698542E-007  0.1456835E+04  0.7818608E-02  0.8913675E-01
         -1   -1    0    0    0  501 -0.00000000000E+00  0.00000000000E+00  0.90479640975E+03  0.90479640975E+03  0.00000000000E+00 0.  1.
          2   -1    0    0  501    0  0.00000000000E+00 -0.00000000000E+00 -0.58642170598E+03  0.58642170598E+03  0.00000000000E+00 0. -1.
         24    2    1    2    0    0 -0.24471030806E+03  0.36666197222E+03  0.69979766959E+02  0.45243484294E+03  0.73999882307E+02 0.  0.
        254    2    1    2    0    0  0.24471030806E+03 -0.36666197222E+03  0.24839493681E+03  0.10387832728E+04  0.90721910608E+03 0.  0.
         23    2    4    4    0    0 -0.35544365111E+02  0.26100803376E+03  0.20063304432E+03  0.34375059755E+03  0.92316083439E+02 0.  0.
         23    2    4    4    0    0  0.28025467317E+03 -0.62767000598E+03  0.47761892483E+02  0.69503267523E+03  0.90977486376E+02 0.  0.
          2    1    3    3  502    0 -0.16390013489E+03  0.22392700978E+03  0.96489709119E+01  0.27766825992E+03  0.00000000000E+00 0. -1.
         -1    1    3    3    0  502 -0.80810173171E+02  0.14273496243E+03  0.60330796047E+02  0.17476658302E+03  0.00000000000E+00 0.  1.
         13    1    5    5    0    0 -0.13849970458E+02  0.10171993178E+03  0.25010784394E+02  0.10566127739E+03  0.00000000000E+00 0. -1.
        -13    1    5    5    0    0 -0.21694394653E+02  0.15928810198E+03  0.17562225993E+03  0.23808932016E+03  0.00000000000E+00 0.  1.
          1    1    6    6  503    0  0.19461600938E+03 -0.49998116704E+03  0.64458383753E+02  0.54038083029E+03  0.00000000000E+00 0. -1.
         -1    1    6    6    0  503  0.85638663790E+02 -0.12768883894E+03 -0.16696491270E+02  0.15465184495E+03  0.00000000000E+00 0.  1.
<mgrwt>
<rscale>  0 0.14568353E+04</rscale>
<asrwt>0</asrwt>
<pdfrwt beam="1">  1        2 0.90218724E-01 0.14568353E+04</pdfrwt>
<pdfrwt beam="2">  1       -1 0.13919945E+00 0.14568353E+04</pdfrwt>
<totfact> 0.24035821E+01</totfact>
</mgrwt>
</event>
<event>
12    7  0.1698542E-007  0.2619970E+04  0.7818608E-02  0.8361449E-01
         -1   -1    0    0    0  501 -0.00000000000E+00  0.00000000000E+00  0.83827476025E+03  0.83827476025E+03  0.00000000000E+00 0.  1.
          2   -1    0    0  501    0  0.00000000000E+00 -0.00000000000E+00 -0.20471340899E+04  0.20471340899E+04  0.00000000000E+00 0. -1.
         24    2    1    2    0    0  0.57056222030E+03  0.20066696828E+03 -0.15920353763E+04  0.17050757986E+04  0.83056366877E+02 0.  0.
        254    2    1    2    0    0 -0.57056222030E+03 -0.20066696828E+03  0.38317604665E+03  0.11803330516E+04  0.93837825558E+03 0.  0.
         23    2    4    4    0    0 -0.45096687763E+02 -0.41485366208E+03  0.42680094768E+03  0.60413421061E+03  0.93176302250E+02 0.  0.
         23    2    4    4    0    0 -0.52546553253E+03  0.21418669380E+03 -0.43624901027E+02  0.57619884097E+03  0.90066679019E+02 0.  0.
          4    1    3    3  502    0  0.46813916617E+03  0.16267563951E+03 -0.13847656571E+04  0.14707799181E+04  0.00000000000E+00 0. -1.
         -3    1    3    3    0  502  0.10242305413E+03  0.37991328772E+02 -0.20726971930E+03  0.23429588049E+03  0.00000000000E+00 0.  1.
         13    1    5    5    0    0 -0.28094329797E+02 -0.40797829057E+03  0.40370013188E+03  0.57463847193E+03  0.00000000000E+00 0.  1.
        -13    1    5    5    0    0 -0.17002357966E+02 -0.68753715163E+01  0.23100815797E+02  0.29495738682E+02  0.00000000000E+00 0. -1.
          3    1    6    6  503    0 -0.55604207858E+02  0.53672217053E+02  0.40809434988E+01  0.77389850205E+02  0.00000000000E+00 0. -1.
         -3    1    6    6    0  503 -0.46986132468E+03  0.16051447675E+03 -0.47705844526E+02  0.49880899077E+03  0.00000000000E+00 0.  1.
<mgrwt>
<rscale>  0 0.26199701E+04</rscale>
<asrwt>0</asrwt>
<pdfrwt beam="1">  1        2 0.31494371E+00 0.26199701E+04</pdfrwt>
<pdfrwt beam="2">  1       -1 0.12896535E+00 0.26199701E+04</pdfrwt>
<totfact> 0.32696198E+00</totfact>
</mgrwt>
</event>
<event>
12    7  0.1698542E-007  0.2621958E+04  0.7818608E-02  0.8360781E-01
         -1   -1    0    0    0  501 -0.00000000000E+00  0.00000000000E+00  0.59946475935E+03  0.59946475935E+03  0.00000000000E+00 0.  1.
          2   -1    0    0  501    0  0.00000000000E+00 -0.00000000000E+00 -0.28670012381E+04  0.28670012381E+04  0.00000000000E+00 0. -1.
         24    2    1    2    0    0 -0.18142177784E+03  0.10208386719E+04 -0.16791914948E+04  0.19749669693E+04  0.76059175451E+02 0.  0.
        254    2    1    2    0    0  0.18142177784E+03 -0.10208386719E+04 -0.58834498397E+03  0.14914990282E+04  0.89632252863E+03 0.  0.
         23    2    4    4    0    0  0.52311876412E+03 -0.43877415318E+03 -0.28195232295E+03  0.74489400443E+03  0.95885173795E+02 0.  0.
         23    2    4    4    0    0 -0.34169698627E+03 -0.58206451870E+03 -0.30639266102E+03  0.74660502372E+03  0.89368139499E+02 0.  0.
          4    1    3    3  502    0 -0.90059169017E+02  0.44207632439E+03 -0.66268606862E+03  0.80168257811E+03  0.00000000000E+00 0. -1.
         -3    1    3    3    0  502 -0.91362608825E+02  0.57876234749E+03 -0.10165054262E+04  0.11732843912E+04  0.00000000000E+00 0.  1.
         13    1    5    5    0    0  0.43249290604E+02 -0.15990629491E+02 -0.39404735555E+00  0.46112434794E+02  0.00000000000E+00 0. -1.
        -13    1    5    5    0    0  0.47986947351E+03 -0.42278352369E+03 -0.28155827559E+03  0.69878156964E+03  0.00000000000E+00 0.  1.
          4    1    6    6  503    0 -0.15125512260E+03 -0.34151907765E+03 -0.15370262336E+03  0.40390331633E+03  0.00000000000E+00 0. -1.
         -4    1    6    6    0  503 -0.19044186367E+03 -0.24054544105E+03 -0.15269003767E+03  0.34270170739E+03  0.00000000000E+00 0.  1.
<mgrwt>
<rscale>  0 0.26219582E+04</rscale>
<asrwt>0</asrwt>
<pdfrwt beam="1">  1        2 0.44107711E+00 0.26219582E+04</pdfrwt>
<pdfrwt beam="2">  1       -1 0.92225348E-01 0.26219582E+04</pdfrwt>
<totfact> 0.24175281E+00</totfact>
</mgrwt>
</event>
<event>
12    7  0.1698542E-007  0.1470213E+04  0.7818608E-02  0.8904506E-01
         -1   -1    0    0    0  501 -0.00000000000E+00  0.00000000000E+00  0.61889634381E+03  0.61889634381E+03  0.00000000000E+00 0.  1.
          2   -1    0    0  501    0  0.00000000000E+00 -0.00000000000E+00 -0.87313790435E+03  0.87313790435E+03  0.00000000000E+00 0. -1.
         24    2    1    2    0    0  0.48817398633E+02  0.18811470991E+03 -0.49503863810E+03  0.53773019950E+03  0.79499885210E+02 0.  0.
        254    2    1    2    0    0 -0.48817398633E+02 -0.18811470991E+03  0.24079707756E+03  0.95430404866E+03  0.90274176941E+03 0.  0.
         23    2    4    4    0    0 -0.28461130057E+03 -0.45588498297E+03  0.21122472380E+03  0.58492918506E+03  0.93228522886E+02 0.  0.
         23    2    4    4    0    0  0.23579390194E+03  0.26777027307E+03  0.29572353755E+02  0.36937486360E+03  0.90904248637E+02 0.  0.
          2    1    3    3  502    0 -0.17753712205E+01  0.14001132638E+03 -0.32084753302E+03  0.35007065416E+03  0.00000000000E+00 0. -1.
         -1    1    3    3    0  502  0.50592769854E+02  0.48103383522E+02 -0.17419110509E+03  0.18765954535E+03  0.00000000000E+00 0.  1.
         13    1    5    5    0    0 -0.24452749520E+03 -0.31758732312E+03  0.16789060392E+03  0.43456030490E+03  0.00000000000E+00 0.  1.
        -13    1    5    5    0    0 -0.40083805376E+02 -0.13829765986E+03  0.43334119886E+02  0.15036888016E+03  0.00000000000E+00 0. -1.
          1    1    6    6  503    0  0.20304187072E+03  0.23698525655E+03  0.56258439506E+02  0.31710096988E+03  0.00000000000E+00 0. -1.
         -1    1    6    6    0  503  0.32752031218E+02  0.30785016523E+02 -0.26686085751E+02  0.52273893714E+02  0.00000000000E+00 0.  1.
<mgrwt>
<rscale>  0 0.14702134E+04</rscale>
<asrwt>0</asrwt>
<pdfrwt beam="1">  1        2 0.13432891E+00 0.14702134E+04</pdfrwt>
<pdfrwt beam="2">  1       -1 0.95214823E-01 0.14702134E+04</pdfrwt>
<totfact> 0.36027667E+01</totfact>
</mgrwt>
</event>
<event>
12    7  0.1698542E-007  0.2838008E+04  0.7818608E-02  0.8291564E-01
          2   -1    0    0  501    0  0.00000000000E+00  0.00000000000E+00  0.28103634611E+04  0.28103634611E+04  0.00000000000E+00 0. -1.
         -1   -1    0    0    0  501 -0.00000000000E+00 -0.00000000000E+00 -0.71648136110E+03  0.71648136110E+03  0.00000000000E+00 0.  1.
         24    2    1    2    0    0 -0.85383212360E+03  0.16426948584E+03 -0.21597908115E+03  0.89926964921E+03  0.77622027988E+02 0.  0.
        254    2    1    2    0    0  0.85383212360E+03 -0.16426948584E+03  0.23098611812E+04  0.26275751730E+04  0.90148702395E+03 0.  0.
         23    2    4    4    0    0  0.38444191458E+03  0.20895539513E+03  0.17357652977E+04  0.17923517003E+04  0.90473787314E+02 0.  0.
         23    2    4    4    0    0  0.46939020902E+03 -0.37322488097E+03  0.57409588348E+03  0.83522347268E+03  0.91587039489E+02 0.  0.
          2    1    3    3  502    0 -0.11029792278E+03  0.44826949713E+02 -0.16219213338E+02  0.12015885349E+03  0.00000000000E+00 0. -1.
         -1    1    3    3    0  502 -0.74353420082E+03  0.11944253613E+03 -0.19975986781E+03  0.77911079572E+03  0.00000000000E+00 0.  1.
         13    1    5    5    0    0  0.38264671116E+03  0.20393130633E+03  0.16372621494E+04  0.16937041741E+04  0.00000000000E+00 0. -1.
        -13    1    5    5    0    0  0.17952034191E+01  0.50240887977E+01  0.98503148264E+02  0.98647526282E+02  0.00000000000E+00 0.  1.
          3    1    6    6  503    0  0.41847427648E+03 -0.34471647344E+03  0.54935144866E+03  0.77184012676E+03  0.00000000000E+00 0. -1.
         -3    1    6    6    0  503  0.50915932532E+02 -0.28508407526E+02  0.24744434817E+02  0.63383345918E+02  0.00000000000E+00 0.  1.
<mgrwt>
<rscale>  0 0.28380085E+04</rscale>
<asrwt>0</asrwt>
<pdfrwt beam="1">  1        2 0.43236361E+00 0.28380085E+04</pdfrwt>
<pdfrwt beam="2">  1       -1 0.11022790E+00 0.28380085E+04</pdfrwt>
<totfact> 0.17058692E+00</totfact>
</mgrwt>
</event>
<event>
12    7  0.1698542E-007  0.1773861E+04  0.7818608E-02  0.8720325E-01
          2   -1    0    0  501    0  0.00000000000E+00  0.00000000000E+00  0.93061599051E+03  0.93061599051E+03  0.00000000000E+00 0. -1.
         -1   -1    0    0    0  501 -0.00000000000E+00 -0.00000000000E+00 -0.84529543691E+03  0.84529543691E+03  0.00000000000E+00 0.  1.
         24    2    1    2    0    0 -0.81422360514E+02 -0.61974114591E+03 -0.15307966719E+03  0.65297847595E+03  0.11062918611E+03 0.  0.
        254    2    1    2    0    0  0.81422360514E+02  0.61974114591E+03  0.23840022079E+03  0.11229329515E+04  0.90190634742E+03 0.  0.
         23    2    4    4    0    0  0.32607772158E+02  0.51114967565E+02  0.48325223806E+03  0.49525951126E+03  0.89851272586E+02 0.  0.
         23    2    4    4    0    0  0.48814588356E+02  0.56862617835E+03 -0.24485201727E+03  0.62767344022E+03  0.91119934443E+02 0.  0.
          2    1    3    3  502    0 -0.76848499504E+01 -0.12494122075E+03  0.13038953560E+02  0.12585459813E+03  0.00000000000E+00 0. -1.
         -1    1    3    3    0  502 -0.73737510564E+02 -0.49479992517E+03 -0.16611862075E+03  0.52712387782E+03  0.00000000000E+00 0.  1.
         13    1    5    5    0    0 -0.97202934492E+01  0.63312469966E+02  0.26833144778E+03  0.27587083722E+03  0.00000000000E+00 0. -1.
        -13    1    5    5    0    0  0.42328065608E+02 -0.12197502401E+02  0.21492079028E+03  0.21938867404E+03  0.00000000000E+00 0.  1.
          3    1    6    6  503    0  0.24459877651E+02  0.48278159647E+03 -0.23620366824E+03  0.53802279542E+03  0.00000000000E+00 0. -1.
         -3    1    6    6    0  503  0.24354710705E+02  0.85844581880E+02 -0.86483490377E+01  0.89650644799E+02  0.00000000000E+00 0.  1.
<mgrwt>
<rscale>  0 0.17738607E+04</rscale>
<asrwt>0</asrwt>
<pdfrwt beam="1">  1        2 0.14317169E+00 0.17738607E+04</pdfrwt>
<pdfrwt beam="2">  1       -1 0.13004545E+00 0.17738607E+04</pdfrwt>
<totfact> 0.15298533E+01</totfact>
</mgrwt>
</event>
<event>
12    7  0.1698542E-007  0.2615662E+04  0.7818608E-02  0.8362901E-01
         -1   -1    0    0    0  501 -0.00000000000E+00  0.00000000000E+00  0.16098063473E+04  0.16098063473E+04  0.00000000000E+00 0.  1.
          2   -1    0    0  501    0  0.00000000000E+00 -0.00000000000E+00 -0.10625014603E+04  0.10625014603E+04  0.00000000000E+00 0. -1.
         24    2    1    2    0    0  0.94651744586E+03  0.57698352983E+03 -0.46813824734E+02  0.11125044157E+04  0.81665609023E+02 0.  0.
        254    2    1    2    0    0 -0.94651744586E+03 -0.57698352983E+03  0.59411871165E+03  0.15598033919E+04  0.92260734274E+03 0.  0.
         23    2    4    4    0    0 -0.32898597209E+03  0.21519969976E+03  0.31893378715E+03  0.51435421716E+03  0.91097856811E+02 0.  0.
         23    2    4    4    0    0 -0.61753147377E+03 -0.79218322959E+03  0.27518492450E+03  0.10454491748E+04  0.91311795344E+02 0.  0.
          4    1    3    3  502    0  0.92283743033E+03  0.57283710063E+03 -0.53693539977E+02  0.10874990864E+04  0.00000000000E+00 0. -1.
         -3    1    3    3    0  502  0.23680015529E+02  0.41464292044E+01  0.68797152431E+01  0.25005329280E+02  0.00000000000E+00 0.  1.
         13    1    5    5    0    0 -0.29015576002E+03  0.15142249959E+03  0.24119039756E+03  0.40656112250E+03  0.00000000000E+00 0. -1.
        -13    1    5    5    0    0 -0.38830212072E+02  0.63777200174E+02  0.77743389594E+02  0.10779309466E+03  0.00000000000E+00 0.  1.
          2    1    6    6  503    0 -0.30051843465E+03 -0.32728976253E+03  0.15031408989E+03  0.46906741929E+03  0.00000000000E+00 0.  1.
         -2    1    6    6    0  503 -0.31701303912E+03 -0.46489346706E+03  0.12487083461E+03  0.57638175546E+03  0.00000000000E+00 0. -1.
<mgrwt>
<rscale>  0 0.26156617E+04</rscale>
<asrwt>0</asrwt>
<pdfrwt beam="1">  1        2 0.16346176E+00 0.26156617E+04</pdfrwt>
<pdfrwt beam="2">  1       -1 0.24766251E+00 0.26156617E+04</pdfrwt>
<totfact> 0.16716894E+00</totfact>
</mgrwt>
</event>
<event>
12    7  0.1698542E-007  0.1478563E+04  0.7818608E-02  0.8898835E-01
         -1   -1    0    0    0  501 -0.00000000000E+00  0.00000000000E+00  0.18065766619E+03  0.18065766619E+03  0.00000000000E+00 0.  1.
          2   -1    0    0  501    0  0.00000000000E+00 -0.00000000000E+00 -0.30252625835E+04  0.30252625835E+04  0.00000000000E+00 0. -1.
         24    2    1    2    0    0  0.32205389524E+03 -0.17471410318E+03 -0.28572095901E+03  0.47118031199E+03  0.78298727364E+02 0.  0.
        254    2    1    2    0    0 -0.32205389524E+03  0.17471410318E+03 -0.25588839583E+04  0.27347399377E+04  0.89256466743E+03 0.  0.
         23    2    4    4    0    0  0.86797436283E+02  0.86180187632E+02 -0.12957372729E+02  0.15305376016E+03  0.91086444144E+02 0.  0.
         23    2    4    4    0    0 -0.40885133152E+03  0.88533915550E+02 -0.25459265856E+04  0.25816861776E+04  0.91453128358E+02 0.  0.
          4    1    3    3  502    0  0.84740077588E+02 -0.10508965878E+02 -0.77547033840E+02  0.11534670160E+03  0.00000000000E+00 0. -1.
         -3    1    3    3    0  502  0.23731381765E+03 -0.16420513730E+03 -0.20817392517E+03  0.35583361039E+03  0.00000000000E+00 0.  1.
         13    1    5    5    0    0  0.82463324332E+02  0.24519840171E+02  0.11059383890E+02  0.86739451196E+02  0.00000000000E+00 0.  1.
        -13    1    5    5    0    0  0.43341119510E+01  0.61660347461E+02 -0.24016756619E+02  0.66314308968E+02  0.00000000000E+00 0. -1.
          1    1    6    6  503    0 -0.17034070212E+03 -0.88012423503E+01 -0.10296932835E+04  0.10437249038E+04  0.00000000000E+00 0. -1.
         -1    1    6    6    0  503 -0.23851062940E+03  0.97335157900E+02 -0.15162333021E+04  0.15379612738E+04  0.00000000000E+00 0.  1.
<mgrwt>
<rscale>  0 0.14785627E+04</rscale>
<asrwt>0</asrwt>
<pdfrwt beam="1">  1        2 0.46542505E+00 0.14785627E+04</pdfrwt>
<pdfrwt beam="2">  1       -1 0.27793485E-01 0.14785627E+04</pdfrwt>
<totfact> 0.21748311E+01</totfact>
</mgrwt>
</event>
<event>
12    7  0.1698542E-007  0.1660176E+04  0.7818608E-02  0.8784409E-01
          2   -1    0    0  501    0  0.00000000000E+00  0.00000000000E+00  0.16532242477E+04  0.16532242477E+04  0.00000000000E+00 0. -1.
         -1   -1    0    0    0  501 -0.00000000000E+00 -0.00000000000E+00 -0.41678942880E+03  0.41678942880E+03  0.00000000000E+00 0.  1.
         24    2    1    2    0    0 -0.78158144247E+02  0.13823800865E+03  0.11171990164E+04  0.11313639476E+04  0.81438916426E+02 0.  0.
        254    2    1    2    0    0  0.78158144247E+02 -0.13823800865E+03  0.11923580246E+03  0.93864972887E+03  0.91740268932E+03 0.  0.
         23    2    4    4    0    0 -0.20475434356E+03 -0.29699640218E+03  0.36486979164E+03  0.52148696018E+03  0.93206655702E+02 0.  0.
         23    2    4    4    0    0  0.28291248780E+03  0.15875839353E+03 -0.24563398918E+03  0.41716276870E+03  0.91896766390E+02 0.  0.
          2    1    3    3  502    0 -0.71005759076E+02  0.60334031221E+02  0.76049569717E+03  0.76618256216E+03  0.00000000000E+00 0. -1.
         -1    1    3    3    0  502 -0.71523851710E+01  0.77903977426E+02  0.35670331924E+03  0.36518138544E+03  0.00000000000E+00 0.  1.
         13    1    5    5    0    0 -0.13992993899E+02 -0.89284827855E+02  0.81479174739E+02  0.12168171711E+03  0.00000000000E+00 0. -1.
        -13    1    5    5    0    0 -0.19076134966E+03 -0.20771157433E+03  0.28339061690E+03  0.39980524306E+03  0.00000000000E+00 0.  1.
          2    1    6    6  503    0  0.22698511688E+03  0.81376529291E+02 -0.16485530106E+03  0.29209870437E+03  0.00000000000E+00 0. -1.
         -2    1    6    6    0  503  0.55927370920E+02  0.77381864243E+02 -0.80778688120E+02  0.12506406433E+03  0.00000000000E+00 0.  1.
<mgrwt>
<rscale>  0 0.16601764E+04</rscale>
<asrwt>0</asrwt>
<pdfrwt beam="1">  1        2 0.25434219E+00 0.16601764E+04</pdfrwt>
<pdfrwt beam="2">  1       -1 0.64121452E-01 0.16601764E+04</pdfrwt>
<totfact> 0.27928829E+01</totfact>
</mgrwt>
</event>
<event>
12    7  0.1698542E-007  0.1352158E+04  0.7818608E-02  0.8989196E-01
         -1   -1    0    0    0  501 -0.00000000000E+00  0.00000000000E+00  0.11933212250E+03  0.11933212250E+03  0.00000000000E+00 0.  1.
          2   -1    0    0  501    0  0.00000000000E+00 -0.00000000000E+00 -0.38303413487E+04  0.38303413487E+04  0.00000000000E+00 0. -1.
         24    2    1    2    0    0  0.11514872191E+03 -0.10285099403E+03 -0.71761194899E+02  0.18802514783E+03  0.79788670819E+02 0.  0.
        254    2    1    2    0    0 -0.11514872191E+03  0.10285099403E+03 -0.36392480313E+04  0.37616483234E+04  0.93916682243E+03 0.  0.
         23    2    4    4    0    0 -0.29006871030E+03 -0.20163219588E+03 -0.60494045540E+03  0.70576398158E+03  0.85758055053E+02 0.  0.
         23    2    4    4    0    0  0.17491998839E+03  0.30448318991E+03 -0.30343075759E+04  0.30558843418E+04  0.89997944620E+02 0.  0.
          2    1    3    3  502    0  0.37536423668E+02 -0.23711177545E+01  0.74996323309E+01  0.38351659498E+02  0.00000000000E+00 0. -1.
         -1    1    3    3    0  502  0.77612298240E+02 -0.10047987628E+03 -0.79260827230E+02  0.14967348833E+03  0.00000000000E+00 0.  1.
         13    1    5    5    0    0 -0.19090543900E+03 -0.93211017270E+02 -0.30407306081E+03  0.37093612211E+03  0.00000000000E+00 0. -1.
        -13    1    5    5    0    0 -0.99163271298E+02 -0.10842117861E+03 -0.30086739459E+03  0.33482785947E+03  0.00000000000E+00 0.  1.
          1    1    6    6  503    0  0.61666044898E+02  0.19034745812E+03 -0.18244776686E+04  0.18354164702E+04  0.00000000000E+00 0. -1.
         -1    1    6    6    0  503  0.11325394349E+03  0.11413573179E+03 -0.12098299073E+04  0.12204678716E+04  0.00000000000E+00 0.  1.
<mgrwt>
<rscale>  0 0.13521579E+04</rscale>
<asrwt>0</asrwt>
<pdfrwt beam="1">  1        2 0.58928336E+00 0.13521579E+04</pdfrwt>
<pdfrwt beam="2">  1       -1 0.18358786E-01 0.13521579E+04</pdfrwt>
<totfact> 0.12544874E+01</totfact>
</mgrwt>
</event>
<event>
12    7  0.1698542E-007  0.2058128E+04  0.7818608E-02  0.8579916E-01
          2   -1    0    0  501    0  0.00000000000E+00  0.00000000000E+00  0.26048288708E+04  0.26048288708E+04  0.00000000000E+00 0. -1.
         -1   -1    0    0    0  501 -0.00000000000E+00 -0.00000000000E+00 -0.40654205458E+03  0.40654205458E+03  0.00000000000E+00 0.  1.
         24    2    1    2    0    0 -0.54947778072E+03 -0.54869794906E+03  0.45189306166E+03  0.90181305378E+03  0.77872806357E+02 0.  0.
        254    2    1    2    0    0  0.54947778072E+03  0.54869794906E+03  0.17463937546E+04  0.21095578716E+04  0.89294344551E+03 0.  0.
         23    2    4    4    0    0  0.75940025277E+03  0.55983653819E+03  0.15051199125E+04  0.17787557481E+04  0.92088907352E+02 0.  0.
         23    2    4    4    0    0 -0.20992247204E+03 -0.11138589130E+02  0.24127384206E+03  0.33080212355E+03  0.83818050815E+02 0.  0.
          2    1    3    3  502    0 -0.45739601571E+03 -0.41383946202E+03  0.36737180686E+03  0.71793889711E+03  0.00000000000E+00 0. -1.
         -1    1    3    3    0  502 -0.92081765010E+02 -0.13485848704E+03  0.84521254805E+02  0.18387415666E+03  0.00000000000E+00 0.  1.
         13    1    5    5    0    0  0.71556882644E+03  0.54288352723E+03  0.14561230050E+04  0.17108639558E+04  0.00000000000E+00 0.  1.
        -13    1    5    5    0    0  0.43831426327E+02  0.16953010968E+02  0.48996907530E+02  0.67891792304E+02  0.00000000000E+00 0. -1.
          3    1    6    6  503    0 -0.33490500240E+02  0.24705618333E+02  0.21957003138E+02  0.47054130216E+02  0.00000000000E+00 0. -1.
         -3    1    6    6    0  503 -0.17643197180E+03 -0.35844207463E+02  0.21931683893E+03  0.28374799333E+03  0.00000000000E+00 0.  1.
<mgrwt>
<rscale>  0 0.20581278E+04</rscale>
<asrwt>0</asrwt>
<pdfrwt beam="1">  1        2 0.40074289E+00 0.20581278E+04</pdfrwt>
<pdfrwt beam="2">  1       -1 0.62544933E-01 0.20581278E+04</pdfrwt>
<totfact> 0.82560176E+00</totfact>
</mgrwt>
</event>
<event>
12    7  0.1698542E-007  0.2336601E+04  0.7818608E-02  0.8463628E-01
         -1   -1    0    0    0  501 -0.00000000000E+00  0.00000000000E+00  0.60020331953E+03  0.60020331953E+03  0.00000000000E+00 0.  1.
          2   -1    0    0  501    0  0.00000000000E+00 -0.00000000000E+00 -0.22741067233E+04  0.22741067233E+04  0.00000000000E+00 0. -1.
         24    2    1    2    0    0  0.28347862032E+03  0.66113605873E+01 -0.18807967236E+04  0.19037192921E+04  0.79667995510E+02 0.  0.
        254    2    1    2    0    0 -0.28347862032E+03 -0.66113605873E+01  0.20689331984E+03  0.97059075068E+03  0.90489652516E+03 0.  0.
         23    2    4    4    0    0 -0.32017357019E+03 -0.21868904723E+03  0.47169338391E+03  0.61735255322E+03  0.91068721954E+02 0.  0.
         23    2    4    4    0    0  0.36694949868E+02  0.21207768664E+03 -0.26480006408E+03  0.35323819745E+03  0.91294499780E+02 0.  0.
          2    1    3    3  502    0  0.14788815045E+03 -0.22533038556E+02 -0.11694416254E+04  0.11789708895E+04  0.00000000000E+00 0. -1.
         -1    1    3    3    0  502  0.13559046988E+03  0.29144399143E+02 -0.71135509812E+03  0.72474840265E+03  0.00000000000E+00 0.  1.
         13    1    5    5    0    0 -0.25884585327E+03 -0.19728321302E+03  0.34086536746E+03  0.47128658015E+03  0.00000000000E+00 0.  1.
        -13    1    5    5    0    0 -0.61327716922E+02 -0.21405834202E+02  0.13082801646E+03  0.14606597307E+03  0.00000000000E+00 0. -1.
          3    1    6    6  503    0  0.45471751632E+02  0.49604230985E+02 -0.10814669585E+03  0.12737334003E+03  0.00000000000E+00 0. -1.
         -3    1    6    6    0  503 -0.87768017641E+01  0.16247345565E+03 -0.15665336823E+03  0.22586485742E+03  0.00000000000E+00 0.  1.
<mgrwt>
<rscale>  0 0.23366013E+04</rscale>
<asrwt>0</asrwt>
<pdfrwt beam="1">  1        2 0.34986257E+00 0.23366013E+04</pdfrwt>
<pdfrwt beam="2">  1       -1 0.92338972E-01 0.23366013E+04</pdfrwt>
<totfact> 0.55027367E+00</totfact>
</mgrwt>
</event>
<event>
12    7  0.1698542E-007  0.2139845E+04  0.7818608E-02  0.8543892E-01
         -1   -1    0    0    0  501 -0.00000000000E+00  0.00000000000E+00  0.36124408579E+03  0.36124408579E+03  0.00000000000E+00 0.  1.
          2   -1    0    0  501    0  0.00000000000E+00 -0.00000000000E+00 -0.31688664184E+04  0.31688664184E+04  0.00000000000E+00 0. -1.
         24    2    1    2    0    0 -0.43492422520E+03 -0.61099670632E+02 -0.24137103263E+04  0.24546732727E+04  0.80815128587E+02 0.  0.
        254    2    1    2    0    0  0.43492422520E+03  0.61099670632E+02 -0.39391200628E+03  0.10754372315E+04  0.89916979415E+03 0.  0.
         23    2    4    4    0    0  0.57906169415E+03  0.33610276800E+03 -0.25133502665E+03  0.72088323182E+03  0.90696317510E+02 0.  0.
         23    2    4    4    0    0 -0.14413746895E+03 -0.27500309736E+03 -0.14257697963E+03  0.35455399965E+03  0.94752467143E+02 0.  0.
          4    1    3    3  502    0 -0.32362142296E+03 -0.78685421599E+02 -0.18665338297E+04  0.18960144405E+04  0.00000000000E+00 0. -1.
         -3    1    3    3    0  502 -0.11130280224E+03  0.17585750967E+02 -0.54717649662E+03  0.55865883227E+03  0.00000000000E+00 0.  1.
         13    1    5    5    0    0  0.55101785879E+02  0.52214620917E+02 -0.53910724191E+02  0.93107140582E+02  0.00000000000E+00 0. -1.
        -13    1    5    5    0    0  0.52395990827E+03  0.28388814708E+03 -0.19742430246E+03  0.62777609124E+03  0.00000000000E+00 0.  1.
          4    1    6    6  503    0 -0.64495873553E+02 -0.12020461403E+03 -0.12001484075E+02  0.13694123761E+03  0.00000000000E+00 0. -1.
         -4    1    6    6    0  503 -0.79641595398E+02 -0.15479848334E+03 -0.13057549556E+03  0.21761276204E+03  0.00000000000E+00 0.  1.
<mgrwt>
<rscale>  0 0.21398451E+04</rscale>
<asrwt>0</asrwt>
<pdfrwt beam="1">  1        2 0.48751791E+00 0.21398451E+04</pdfrwt>
<pdfrwt beam="2">  1       -1 0.55576013E-01 0.21398451E+04</pdfrwt>
<totfact> 0.46605420E+00</totfact>
</mgrwt>
</event>
<event>
12    7  0.1698542E-007  0.2674826E+04  0.7818608E-02  0.8343220E-01
         -1   -1    0    0    0  501 -0.00000000000E+00  0.00000000000E+00  0.15764408791E+04  0.15764408791E+04  0.00000000000E+00 0.  1.
          2   -1    0    0  501    0  0.00000000000E+00 -0.00000000000E+00 -0.11346275919E+04  0.11346275919E+04  0.00000000000E+00 0. -1.
         24    2    1    2    0    0 -0.16110819092E+03  0.78029466961E+03 -0.69400068846E+03  0.10597266424E+04  0.81043077484E+02 0.  0.
        254    2    1    2    0    0  0.16110819092E+03 -0.78029466961E+03  0.11358139757E+04  0.16513418286E+04  0.89556732129E+03 0.  0.
         23    2    4    4    0    0  0.18111613024E+03 -0.51767066027E+03  0.12360637707E+04  0.13553579667E+04  0.91409012879E+02 0.  0.
         23    2    4    4    0    0 -0.20007939320E+02 -0.26262400934E+03 -0.10024979495E+03  0.29598386192E+03  0.90469537497E+02 0.  0.
          2    1    3    3  502    0 -0.17040256071E+03  0.75142275616E+03 -0.66590118728E+03  0.10183798812E+04  0.00000000000E+00 0. -1.
         -1    1    3    3    0  502  0.92943697906E+01  0.28871913447E+02 -0.28099501186E+02  0.41346761213E+02  0.00000000000E+00 0.  1.
         13    1    5    5    0    0  0.23621958701E+02 -0.19952803199E+03  0.43497029565E+03  0.47913316581E+03  0.00000000000E+00 0. -1.
        -13    1    5    5    0    0  0.15749417154E+03 -0.31814262829E+03  0.80109347501E+03  0.87622480090E+03  0.00000000000E+00 0.  1.
          2    1    6    6  503    0  0.27265121831E+02 -0.18902338945E+03 -0.70941469198E+02  0.20373001910E+03  0.00000000000E+00 0. -1.
         -2    1    6    6    0  503 -0.47273061151E+02 -0.73600619882E+02 -0.29308325753E+02  0.92253842825E+02  0.00000000000E+00 0.  1.
<mgrwt>
<rscale>  0 0.26748258E+04</rscale>
<asrwt>0</asrwt>
<pdfrwt beam="1">  1        2 0.17455809E+00 0.26748258E+04</pdfrwt>
<pdfrwt beam="2">  1       -1 0.24252937E+00 0.26748258E+04</pdfrwt>
<totfact> 0.16217207E+00</totfact>
</mgrwt>
</event>
<event>
12    7  0.1698542E-007  0.1952977E+04  0.7818608E-02  0.8628927E-01
          2   -1    0    0  501    0  0.00000000000E+00  0.00000000000E+00  0.22289238918E+04  0.22289238918E+04  0.00000000000E+00 0. -1.
         -1   -1    0    0    0  501 -0.00000000000E+00 -0.00000000000E+00 -0.42779811165E+03  0.42779811165E+03  0.00000000000E+00 0.  1.
         24    2    1    2    0    0 -0.42184185873E+03  0.57761082040E+03  0.32798254969E+03  0.79063167414E+03  0.77078386294E+02 0.  0.
        254    2    1    2    0    0  0.42184185873E+03 -0.57761082040E+03  0.14731432304E+04  0.18660903293E+04  0.89473869148E+03 0.  0.
         23    2    4    4    0    0 -0.20031501628E+03 -0.45301338441E+03  0.64739294730E+03  0.82077038385E+03  0.95912265085E+02 0.  0.
         23    2    4    4    0    0  0.62215687502E+03 -0.12459743598E+03  0.82575028314E+03  0.10453199454E+04  0.90700386015E+02 0.  0.
          4    1    3    3  502    0 -0.20107415850E+03  0.26554078012E+03  0.11106445597E+03  0.35110972146E+03  0.00000000000E+00 0. -1.
         -3    1    3    3    0  502 -0.22076770023E+03  0.31207004027E+03  0.21691809372E+03  0.43952195268E+03  0.00000000000E+00 0.  1.
         13    1    5    5    0    0 -0.60394631237E+01 -0.10874201260E+03  0.12818952572E+03  0.16820777307E+03  0.00000000000E+00 0. -1.
        -13    1    5    5    0    0 -0.19427555316E+03 -0.34427137182E+03  0.51920342158E+03  0.65256261078E+03  0.00000000000E+00 0.  1.
          3    1    6    6  503    0  0.15505490408E+03 -0.39020190975E+02  0.14880493070E+03  0.21842047978E+03  0.00000000000E+00 0. -1.
         -3    1    6    6    0  503  0.46710197093E+03 -0.85577245009E+02  0.67694535243E+03  0.82689946565E+03  0.00000000000E+00 0.  1.
<mgrwt>
<rscale>  0 0.19529766E+04</rscale>
<asrwt>0</asrwt>
<pdfrwt beam="1">  1        2 0.34291136E+00 0.19529766E+04</pdfrwt>
<pdfrwt beam="2">  1       -1 0.65815096E-01 0.19529766E+04</pdfrwt>
<totfact> 0.12358186E+01</totfact>
</mgrwt>
</event>
<event>
12    7  0.1698542E-007  0.2042170E+04  0.7818608E-02  0.8587155E-01
          2   -1    0    0  501    0  0.00000000000E+00  0.00000000000E+00  0.17474558792E+04  0.17474558792E+04  0.00000000000E+00 0. -1.
         -1   -1    0    0    0  501 -0.00000000000E+00 -0.00000000000E+00 -0.59664716144E+03  0.59664716144E+03  0.00000000000E+00 0.  1.
         24    2    1    2    0    0 -0.43261157146E+03 -0.42566659694E+03  0.10963129328E+04  0.12557176789E+04  0.81117315231E+02 0.  0.
        254    2    1    2    0    0  0.43261157146E+03  0.42566659694E+03  0.54495784962E+02  0.10883853618E+04  0.90181377328E+03 0.  0.
         23    2    4    4    0    0 -0.16656675409E+03  0.41591247128E+03 -0.85840244513E+02  0.46635692784E+03  0.96915268309E+02 0.  0.
         23    2    4    4    0    0  0.59917832555E+03  0.97541256577E+01  0.14033602948E+03  0.62202843395E+03  0.90085307909E+02 0.  0.
          2    1    3    3  502    0 -0.15374593277E+03 -0.17651621975E+03  0.49589109050E+03  0.54836462442E+03  0.00000000000E+00 0. -1.
         -1    1    3    3    0  502 -0.27886563869E+03 -0.24915037718E+03  0.60042184234E+03  0.70735305445E+03  0.00000000000E+00 0.  1.
         13    1    5    5    0    0 -0.14349415708E+03  0.23534139854E+03 -0.38953838434E+02  0.27837663069E+03  0.00000000000E+00 0.  1.
        -13    1    5    5    0    0 -0.23072597010E+02  0.18057107274E+03 -0.46886406079E+02  0.18798029715E+03  0.00000000000E+00 0. -1.
          4    1    6    6  503    0  0.43181079232E+03 -0.73065016622E+01  0.13932676361E+03  0.45379058208E+03  0.00000000000E+00 0. -1.
         -4    1    6    6    0  503  0.16736753323E+03  0.17060627320E+02  0.10092658681E+01  0.16823785187E+03  0.00000000000E+00 0.  1.
<mgrwt>
<rscale>  0 0.20421700E+04</rscale>
<asrwt>0</asrwt>
<pdfrwt beam="1">  1        2 0.26883936E+00 0.20421700E+04</pdfrwt>
<pdfrwt beam="2">  1       -1 0.91791872E-01 0.20421700E+04</pdfrwt>
<totfact> 0.11251251E+01</totfact>
</mgrwt>
</event>
<event>
12    7  0.1698542E-007  0.2131787E+04  0.7818608E-02  0.8547369E-01
         -1   -1    0    0    0  501 -0.00000000000E+00  0.00000000000E+00  0.51617500301E+03  0.51617500301E+03  0.00000000000E+00 0.  1.
          2   -1    0    0  501    0  0.00000000000E+00 -0.00000000000E+00 -0.22010540873E+04  0.22010540873E+04  0.00000000000E+00 0. -1.
         24    2    1    2    0    0 -0.53070192148E+03 -0.51552801405E+03 -0.12510984048E+04  0.14562205860E+04  0.88980413457E+02 0.  0.
        254    2    1    2    0    0  0.53070192148E+03  0.51552801405E+03 -0.43378067954E+03  0.12610085043E+04  0.92442582574E+03 0.  0.
         23    2    4    4    0    0  0.52299590174E+02  0.35689638840E+03  0.21868471977E+03  0.43167526932E+03  0.91707427745E+02 0.  0.
         23    2    4    4    0    0  0.47840233131E+03  0.15863162566E+03 -0.65246539931E+03  0.82933323500E+03  0.89720310483E+02 0.  0.
          2    1    3    3  502    0 -0.49131296003E+03 -0.44577479782E+03 -0.10835157532E+04  0.12704762818E+04  0.00000000000E+00 0. -1.
         -1    1    3    3    0  502 -0.39388961459E+02 -0.69753216233E+02 -0.16758265157E+03  0.18574430426E+03  0.00000000000E+00 0.  1.
         13    1    5    5    0    0  0.72177142824E+02  0.17646489721E+03  0.11088820549E+03  0.22055746192E+03  0.00000000000E+00 0. -1.
        -13    1    5    5    0    0 -0.19877552650E+02  0.18043149119E+03  0.10779651428E+03  0.21111780740E+03  0.00000000000E+00 0.  1.
          1    1    6    6  503    0  0.58916026402E+02  0.35171773192E+02 -0.13817053600E+03  0.15427005158E+03  0.00000000000E+00 0. -1.
         -1    1    6    6    0  503  0.41948630491E+03  0.12345985247E+03 -0.51429486331E+03  0.67506318342E+03  0.00000000000E+00 0.  1.
<mgrwt>
<rscale>  0 0.21317871E+04</rscale>
<asrwt>0</asrwt>
<pdfrwt beam="1">  1        2 0.33862370E+00 0.21317871E+04</pdfrwt>
<pdfrwt beam="2">  1       -1 0.79411541E-01 0.21317871E+04</pdfrwt>
<totfact> 0.85486303E+00</totfact>
</mgrwt>
</event>
<event>
12    7  0.1698542E-007  0.1933512E+04  0.7818608E-02  0.8638353E-01
          2   -1    0    0  501    0  0.00000000000E+00  0.00000000000E+00  0.88453660369E+03  0.88453660369E+03  0.00000000000E+00 0. -1.
         -3   -1    0    0    0  501 -0.00000000000E+00 -0.00000000000E+00 -0.10566173637E+04  0.10566173637E+04  0.00000000000E+00 0.  1.
         24    2    1    2    0    0 -0.34539559873E+03 -0.59086782452E+03  0.27227121831E+03  0.74161753526E+03  0.86267297448E+02 0.  0.
        254    2    1    2    0    0  0.34539559873E+03  0.59086782452E+03 -0.44435197836E+03  0.11995364322E+04  0.87921332210E+03 0.  0.
         23    2    4    4    0    0  0.46739325869E+03  0.16789343557E+03  0.77400236693E+02  0.51068117085E+03  0.90331598260E+02 0.  0.
         23    2    4    4    0    0 -0.12199765996E+03  0.42297438895E+03 -0.52175221506E+03  0.68885526132E+03  0.92224912002E+02 0.  0.
          2    1    3    3  502    0 -0.58450716927E+02 -0.10870743630E+03  0.85958254471E+02  0.15040815978E+03  0.00000000000E+00 0. -1.
         -1    1    3    3    0  502 -0.28694488181E+03 -0.48216038822E+03  0.18631296383E+03  0.59120937549E+03  0.00000000000E+00 0.  1.
         13    1    5    5    0    0  0.46633301796E+03  0.17422348578E+03  0.79053743067E+02  0.50405337111E+03  0.00000000000E+00 0.  1.
        -13    1    5    5    0    0  0.10602407341E+01 -0.63300502105E+01 -0.16535063733E+01  0.66277997411E+01  0.00000000000E+00 0. -1.
          1    1    6    6  503    0 -0.21216894900E+02  0.11538734069E+03 -0.20367970737E+03  0.23505279878E+03  0.00000000000E+00 0. -1.
         -1    1    6    6    0  503 -0.10078076506E+03  0.30758704826E+03 -0.31807250769E+03  0.45380246254E+03  0.00000000000E+00 0.  1.
<mgrwt>
<rscale>  0 0.19335116E+04</rscale>
<asrwt>0</asrwt>
<pdfrwt beam="1">  1        2 0.13608256E+00 0.19335116E+04</pdfrwt>
<pdfrwt beam="2">  1       -3 0.16255652E+00 0.19335116E+04</pdfrwt>
<totfact> 0.46146946E+00</totfact>
</mgrwt>
</event>
<event>
12    7  0.1698542E-007  0.2228755E+04  0.7818608E-02  0.8506554E-01
         -1   -1    0    0    0  501 -0.00000000000E+00  0.00000000000E+00  0.35424297942E+03  0.35424297942E+03  0.00000000000E+00 0.  1.
          2   -1    0    0  501    0  0.00000000000E+00 -0.00000000000E+00 -0.35056071225E+04  0.35056071225E+04  0.00000000000E+00 0. -1.
         24    2    1    2    0    0  0.27295508802E+03 -0.58035996252E+03 -0.24644955341E+04  0.25478684734E+04  0.81076222889E+02 0.  0.
        254    2    1    2    0    0 -0.27295508802E+03  0.58035996252E+03 -0.68686860897E+03  0.13119816285E+04  0.91552451712E+03 0.  0.
         23    2    4    4    0    0  0.16016524666E+03  0.63433246385E+03 -0.49861431270E+03  0.82767246979E+03  0.91623705926E+02 0.  0.
         23    2    4    4    0    0 -0.43312033468E+03 -0.53972501334E+02 -0.18825429627E+03  0.48430915874E+03  0.92786992444E+02 0.  0.
          2    1    3    3  502    0  0.23692875433E+03 -0.42404337957E+03 -0.18850345432E+04  0.19466132773E+04  0.00000000000E+00 0. -1.
         -1    1    3    3    0  502  0.36026333693E+02 -0.15631658295E+03 -0.57946099098E+03  0.60125519614E+03  0.00000000000E+00 0.  1.
         13    1    5    5    0    0  0.13430125354E+03  0.60285098049E+03 -0.44963345995E+03  0.76396098047E+03  0.00000000000E+00 0. -1.
        -13    1    5    5    0    0  0.25863993121E+02  0.31481483357E+02 -0.48980852750E+02  0.63711489314E+02  0.00000000000E+00 0.  1.
          3    1    6    6  503    0 -0.38616147341E+03 -0.43228994218E+02 -0.13230771869E+03  0.41048113466E+03  0.00000000000E+00 0. -1.
         -3    1    6    6    0  503 -0.46958861270E+02 -0.10743507116E+02 -0.55946577586E+02  0.73828024086E+02  0.00000000000E+00 0.  1.
<mgrwt>
<rscale>  0 0.22287546E+04</rscale>
<asrwt>0</asrwt>
<pdfrwt beam="1">  1        2 0.53932418E+00 0.22287546E+04</pdfrwt>
<pdfrwt beam="2">  1       -1 0.54498919E-01 0.22287546E+04</pdfrwt>
<totfact> 0.28522187E+00</totfact>
</mgrwt>
</event>
<event>
12    7  0.1698542E-007  0.1125813E+04  0.7818608E-02  0.9180391E-01
          2   -1    0    0  501    0  0.00000000000E+00  0.00000000000E+00  0.47548549696E+03  0.47548549696E+03  0.00000000000E+00 0. -1.
         -1   -1    0    0    0  501 -0.00000000000E+00 -0.00000000000E+00 -0.66640069075E+03  0.66640069075E+03  0.00000000000E+00 0.  1.
         24    2    1    2    0    0 -0.44244996951E+02  0.18814153021E+02 -0.23757776827E+03  0.25537159983E+03  0.80373291035E+02 0.  0.
        254    2    1    2    0    0  0.44244996951E+02 -0.18814153021E+02  0.46662574480E+02  0.88651458788E+03  0.88397914374E+03 0.  0.
         23    2    4    4    0    0 -0.17899445979E+03 -0.28044252991E+03  0.29410745577E+03  0.45316402076E+03  0.90395823793E+02 0.  0.
         23    2    4    4    0    0  0.22323945674E+03  0.26162837689E+03 -0.24744488129E+03  0.43335056712E+03  0.90986164395E+02 0.  0.
          4    1    3    3  502    0  0.21553134705E+01  0.29530642959E+01  0.59349917352E+01  0.69706593511E+01  0.00000000000E+00 0. -1.
         -3    1    3    3    0  502 -0.46400310422E+02  0.15861088725E+02 -0.24351276001E+03  0.24840094048E+03  0.00000000000E+00 0.  1.
         13    1    5    5    0    0  0.62813104136E+01 -0.37472595702E+02  0.21360191631E+02  0.43587934978E+02  0.00000000000E+00 0. -1.
        -13    1    5    5    0    0 -0.18527577021E+03 -0.24296993421E+03  0.27274726413E+03  0.40957608578E+03  0.00000000000E+00 0.  1.
          1    1    6    6  503    0  0.51617196709E+02  0.36500780065E+02 -0.10281217944E+02  0.64049554127E+02  0.00000000000E+00 0. -1.
         -1    1    6    6    0  503  0.17162226004E+03  0.22512759682E+03 -0.23716366334E+03  0.36930101300E+03  0.00000000000E+00 0.  1.
<mgrwt>
<rscale>  0 0.11258132E+04</rscale>
<asrwt>0</asrwt>
<pdfrwt beam="1">  1        2 0.73151615E-01 0.11258132E+04</pdfrwt>
<pdfrwt beam="2">  1       -1 0.10252318E+00 0.11258132E+04</pdfrwt>
<totfact> 0.66650215E+01</totfact>
</mgrwt>
</event>
<event>
12    7  0.1698542E-007  0.1736349E+04  0.7818608E-02  0.8740901E-01
          2   -1    0    0  501    0  0.00000000000E+00  0.00000000000E+00  0.32630432979E+04  0.32630432979E+04  0.00000000000E+00 0. -1.
         -1   -1    0    0    0  501 -0.00000000000E+00 -0.00000000000E+00 -0.23098888410E+03  0.23098888410E+03  0.00000000000E+00 0.  1.
         24    2    1    2    0    0  0.12162648921E+03 -0.60308558153E+03  0.14494289777E+04  0.15766397297E+04  0.80269884951E+02 0.  0.
        254    2    1    2    0    0 -0.12162648921E+03  0.60308558153E+03  0.15826254361E+04  0.19173924523E+04  0.89060952361E+03 0.  0.
         23    2    4    4    0    0 -0.23471256790E+03  0.64106822432E+03  0.57158122281E+03  0.89494943410E+03  0.90393238495E+02 0.  0.
         23    2    4    4    0    0  0.11308607869E+03 -0.37982642793E+02  0.10110442133E+04  0.10224430182E+04  0.94594829839E+02 0.  0.
          4    1    3    3  502    0  0.90616725357E+02 -0.54643338261E+03  0.12559356650E+04  0.13726526243E+04  0.00000000000E+00 0. -1.
         -3    1    3    3    0  502  0.31009763857E+02 -0.56652198926E+02  0.19349331266E+03  0.20398710534E+03  0.00000000000E+00 0.  1.
         13    1    5    5    0    0 -0.59330259120E+02  0.25414147143E+03  0.17858175383E+03  0.31622683306E+03  0.00000000000E+00 0. -1.
        -13    1    5    5    0    0 -0.17538230878E+03  0.38692675290E+03  0.39299946897E+03  0.57872260104E+03  0.00000000000E+00 0.  1.
          4    1    6    6  503    0  0.32385537576E+02  0.29989526856E+02  0.39125936950E+03  0.39374114465E+03  0.00000000000E+00 0. -1.
         -4    1    6    6    0  503  0.80700541113E+02 -0.67972169649E+02  0.61978484382E+03  0.62870187356E+03  0.00000000000E+00 0.  1.
<mgrwt>
<rscale>  0 0.17363487E+04</rscale>
<asrwt>0</asrwt>
<pdfrwt beam="1">  1        2 0.50200663E+00 0.17363487E+04</pdfrwt>
<pdfrwt beam="2">  1       -1 0.35536754E-01 0.17363487E+04</pdfrwt>
<totfact> 0.96794582E+00</totfact>
</mgrwt>
</event>
<event>
12    7  0.1698542E-007  0.2036405E+04  0.7818608E-02  0.8589787E-01
         -1   -1    0    0    0  501 -0.00000000000E+00  0.00000000000E+00  0.93188117072E+03  0.93188117072E+03  0.00000000000E+00 0.  1.
          2   -1    0    0  501    0  0.00000000000E+00 -0.00000000000E+00 -0.11125201477E+04  0.11125201477E+04  0.00000000000E+00 0. -1.
         24    2    1    2    0    0 -0.50761946841E+03 -0.57768591005E+03  0.20106862906E+03  0.79888026704E+03  0.79890876115E+02 0.  0.
        254    2    1    2    0    0  0.50761946841E+03  0.57768591005E+03 -0.38170760605E+03  0.12455210514E+04  0.90234331467E+03 0.  0.
         23    2    4    4    0    0  0.23996241077E+03  0.46687500200E+03 -0.65054163801E+03  0.84082640862E+03  0.90721555219E+02 0.  0.
         23    2    4    4    0    0  0.26765705764E+03  0.11081090805E+03  0.26883403196E+03  0.40469464275E+03  0.87101430991E+02 0.  0.
          2    1    3    3  502    0 -0.15459465787E+03 -0.13183548239E+03  0.73467657529E+02  0.21604999274E+03  0.00000000000E+00 0. -1.
         -1    1    3    3    0  502 -0.35302481054E+03 -0.44585042767E+03  0.12760097153E+03  0.58283027430E+03  0.00000000000E+00 0.  1.
         13    1    5    5    0    0  0.10562624934E+03  0.22196802954E+03 -0.37555995288E+03  0.44885631208E+03  0.00000000000E+00 0.  1.
        -13    1    5    5    0    0  0.13433616144E+03  0.24490697246E+03 -0.27498168513E+03  0.39197009655E+03  0.00000000000E+00 0. -1.
          3    1    6    6  503    0  0.18464884529E+03  0.34484978647E+02  0.18946270012E+03  0.26679678513E+03  0.00000000000E+00 0. -1.
         -3    1    6    6    0  503  0.83008212351E+02  0.76325929407E+02  0.79371331841E+02  0.13789785762E+03  0.00000000000E+00 0.  1.
<mgrwt>
<rscale>  0 0.20364052E+04</rscale>
<asrwt>0</asrwt>
<pdfrwt beam="1">  1        2 0.17115695E+00 0.20364052E+04</pdfrwt>
<pdfrwt beam="2">  1       -1 0.14336633E+00 0.20364052E+04</pdfrwt>
<totfact> 0.89024838E+00</totfact>
</mgrwt>
</event>
<event>
12    7  0.1698542E-007  0.2074769E+04  0.7818608E-02  0.8572440E-01
         -1   -1    0    0    0  501 -0.00000000000E+00  0.00000000000E+00  0.45470433254E+03  0.45470433254E+03  0.00000000000E+00 0.  1.
          2   -1    0    0  501    0  0.00000000000E+00 -0.00000000000E+00 -0.23667388202E+04  0.23667388202E+04  0.00000000000E+00 0. -1.
         24    2    1    2    0    0  0.57414380681E+03 -0.60176422403E+03 -0.93272495446E+03  0.12526197978E+04  0.85552469284E+02 0.  0.
        254    2    1    2    0    0 -0.57414380681E+03  0.60176422403E+03 -0.97930953316E+03  0.15688233549E+04  0.90022123108E+03 0.  0.
         23    2    4    4    0    0 -0.26994856090E+03  0.34298688784E+03  0.61623064021E+02  0.45018646819E+03  0.91423319537E+02 0.  0.
         23    2    4    4    0    0 -0.30419524591E+03  0.25877733619E+03 -0.10409325972E+04  0.11186368867E+04  0.91144692977E+02 0.  0.
          2    1    3    3  502    0  0.34217876905E+03 -0.36303566982E+03 -0.49583370510E+03  0.70337207129E+03  0.00000000000E+00 0. -1.
         -1    1    3    3    0  502  0.23196503776E+03 -0.23872855421E+03 -0.43689124936E+03  0.54924772653E+03  0.00000000000E+00 0.  1.
         13    1    5    5    0    0 -0.25447908361E+03  0.29235522126E+03  0.30549160863E+02  0.38879870193E+03  0.00000000000E+00 0. -1.
        -13    1    5    5    0    0 -0.15469477292E+02  0.50631666583E+02  0.31073903158E+02  0.61387766258E+02  0.00000000000E+00 0.  1.
          4    1    6    6  503    0 -0.14046330323E+03  0.17111780387E+03 -0.62742063222E+03  0.66533291824E+03  0.00000000000E+00 0. -1.
         -4    1    6    6    0  503 -0.16373194267E+03  0.87659532315E+02 -0.41351196497E+03  0.45330396847E+03  0.00000000000E+00 0.  1.
<mgrwt>
<rscale>  0 0.20747688E+04</rscale>
<asrwt>0</asrwt>
<pdfrwt beam="1">  1        2 0.36411366E+00 0.20747688E+04</pdfrwt>
<pdfrwt beam="2">  1       -1 0.69954513E-01 0.20747688E+04</pdfrwt>
<totfact> 0.90213203E+00</totfact>
</mgrwt>
</event>
<event>
12    7  0.1698542E-007  0.1300205E+04  0.7818608E-02  0.9029402E-01
          2   -1    0    0  501    0  0.00000000000E+00  0.00000000000E+00  0.26936174008E+04  0.26936174008E+04  0.00000000000E+00 0. -1.
         -1   -1    0    0    0  501 -0.00000000000E+00 -0.00000000000E+00 -0.15690177471E+03  0.15690177471E+03  0.00000000000E+00 0.  1.
         24    2    1    2    0    0 -0.26322245513E+03  0.20495293614E+02  0.23285573995E+03  0.36030966756E+03  0.76779834324E+02 0.  0.
        254    2    1    2    0    0  0.26322245513E+03 -0.20495293614E+02  0.23038598861E+04  0.24902095079E+04  0.90756096247E+03 0.  0.
         23    2    4    4    0    0  0.26086463605E+03 -0.91488236634E+02  0.14036758480E+03  0.32357682951E+03  0.92619921986E+02 0.  0.
         23    2    4    4    0    0  0.23578190782E+01  0.70992943020E+02  0.21634923013E+04  0.21666326784E+04  0.92480636276E+02 0.  0.
          4    1    3    3  502    0 -0.30147610466E+02  0.27893524042E+02  0.26140819691E+02  0.48685414185E+02  0.00000000000E+00 0. -1.
         -3    1    3    3    0  502 -0.23307484467E+03 -0.73982304282E+01  0.20671492026E+03  0.31162425337E+03  0.00000000000E+00 0.  1.
         13    1    5    5    0    0  0.12048421710E+03 -0.80231374625E+02  0.38561638735E+02  0.14980160222E+03  0.00000000000E+00 0.  1.
        -13    1    5    5    0    0  0.14038041895E+03 -0.11256862009E+02  0.10180594606E+03  0.17377522730E+03  0.00000000000E+00 0. -1.
          4    1    6    6  503    0 -0.34874157819E+02  0.51382016897E+02  0.17271251513E+04  0.17282411888E+04  0.00000000000E+00 0. -1.
         -4    1    6    6    0  503  0.37231976897E+02  0.19610926123E+02  0.43636715004E+03  0.43839148960E+03  0.00000000000E+00 0.  1.
<mgrwt>
<rscale>  0 0.13002051E+04</rscale>
<asrwt>0</asrwt>
<pdfrwt beam="1">  1        2 0.41440264E+00 0.13002051E+04</pdfrwt>
<pdfrwt beam="2">  1       -1 0.24138737E-01 0.13002051E+04</pdfrwt>
<totfact> 0.44797593E+01</totfact>
</mgrwt>
</event>
<event>
12    7  0.1698542E-007  0.1428139E+04  0.7818608E-02  0.8933699E-01
          2   -1    0    0  501    0  0.00000000000E+00  0.00000000000E+00  0.19624261363E+04  0.19624261363E+04  0.00000000000E+00 0. -1.
         -1   -1    0    0    0  501 -0.00000000000E+00 -0.00000000000E+00 -0.25982884116E+03  0.25982884116E+03  0.00000000000E+00 0.  1.
         24    2    1    2    0    0  0.26323896278E+03 -0.28815639371E+03  0.77690481074E+03  0.87285678369E+03  0.77259440350E+02 0.  0.
        254    2    1    2    0    0 -0.26323896278E+03  0.28815639371E+03  0.92569248438E+03  0.13493981937E+04  0.90091067864E+03 0.  0.
         23    2    4    4    0    0 -0.42972716150E+03 -0.37259210181E+02  0.11636491449E+03  0.45664909551E+03  0.94519421492E+02 0.  0.
         23    2    4    4    0    0  0.16648819871E+03  0.32541560389E+03  0.80932756989E+03  0.89274909823E+03  0.91521590034E+02 0.  0.
          4    1    3    3  502    0  0.17988785179E+03 -0.21879782922E+03  0.62531091747E+03  0.68647350481E+03  0.00000000000E+00 0. -1.
         -3    1    3    3    0  502  0.83351110989E+02 -0.69358564488E+02  0.15159389327E+03  0.18638327888E+03  0.00000000000E+00 0.  1.
         13    1    5    5    0    0 -0.37919754529E+03 -0.10351919435E+02  0.76732543306E+02  0.38702173556E+03  0.00000000000E+00 0. -1.
        -13    1    5    5    0    0 -0.50529616204E+02 -0.26907290747E+02  0.39632371183E+02  0.69627359957E+02  0.00000000000E+00 0.  1.
          2    1    6    6  503    0  0.76254614590E+02  0.10455150172E+03  0.19824410996E+03  0.23674144101E+03  0.00000000000E+00 0.  1.
         -2    1    6    6    0  503  0.90233584124E+02  0.22086410217E+03  0.61108345993E+03  0.65600765722E+03  0.00000000000E+00 0. -1.
<mgrwt>
<rscale>  0 0.14281385E+04</rscale>
<asrwt>0</asrwt>
<pdfrwt beam="1">  1        2 0.30191170E+00 0.14281385E+04</pdfrwt>
<pdfrwt beam="2">  1       -1 0.39973669E-01 0.14281385E+04</pdfrwt>
<totfact> 0.47324685E+01</totfact>
</mgrwt>
</event>
<event>
12    7  0.3249629E-007  0.2221347E+04  0.7818608E-02  0.8509595E-01
          2   -1    0    0  501    0  0.00000000000E+00  0.00000000000E+00  0.26699415023E+04  0.26699415023E+04  0.00000000000E+00 0. -1.
         -1   -1    0    0    0  501 -0.00000000000E+00 -0.00000000000E+00 -0.46203099364E+03  0.46203099364E+03  0.00000000000E+00 0.  1.
         24    2    1    2    0    0 -0.18576792020E+03 -0.79198582777E+01 -0.35311856350E+03  0.40736344775E+03  0.81730131161E+02 0.  0.
        254    2    1    2    0    0  0.18576792020E+03  0.79198582777E+01  0.25610290722E+04  0.27246090482E+04  0.91107195801E+03 0.  0.
         23    2    4    4    0    0  0.13153433321E+03  0.40268610650E+03  0.73399197066E+03  0.85240601428E+03  0.91621062005E+02 0.  0.
         23    2    4    4    0    0  0.54233586996E+02 -0.39476624822E+03  0.18270371015E+04  0.18722030339E+04  0.91093123877E+02 0.  0.
          4    1    3    3  502    0 -0.12101475017E+02  0.15131372010E+02 -0.84298391009E+02  0.86496374740E+02  0.00000000000E+00 0. -1.
         -3    1    3    3    0  502 -0.17366644519E+03 -0.23051230288E+02 -0.26882017249E+03  0.32086707301E+03  0.00000000000E+00 0.  1.
         13    1    5    5    0    0  0.13231789630E+03  0.38490775832E+03  0.65283961441E+03  0.76932539946E+03  0.00000000000E+00 0.  1.
        -13    1    5    5    0    0 -0.78356308853E+00  0.17778348176E+02  0.81152356250E+02  0.83080614827E+02  0.00000000000E+00 0. -1.
          3    1    6    6  503    0  0.16556626195E+02 -0.31057155257E+02  0.29707593693E+03  0.29915344067E+03  0.00000000000E+00 0. -1.
         -3    1    6    6    0  503  0.37676960802E+02 -0.36370909297E+03  0.15299611646E+04  0.15730495933E+04  0.00000000000E+00 0.  1.
<mgrwt>
<rscale>  0 0.22213471E+04</rscale>
<asrwt>0</asrwt>
<pdfrwt beam="1">  1        2 0.41076022E+00 0.22213471E+04</pdfrwt>
<pdfrwt beam="2">  1       -1 0.71081693E-01 0.22213471E+04</pdfrwt>
<totfact> 0.57448979E+00</totfact>
</mgrwt>
</event>
<event>
12    7  0.1698542E-007  0.1990382E+04  0.7818608E-02  0.8611131E-01
          2   -1    0    0  501    0  0.00000000000E+00  0.00000000000E+00  0.16107275961E+04  0.16107275961E+04  0.00000000000E+00 0. -1.
         -1   -1    0    0    0  501 -0.00000000000E+00 -0.00000000000E+00 -0.61488043678E+03  0.61488043678E+03  0.00000000000E+00 0.  1.
         24    2    1    2    0    0  0.75875304516E+03  0.20761837024E+03  0.43404683445E+03  0.90214854630E+03  0.81631941717E+02 0.  0.
        254    2    1    2    0    0 -0.75875304516E+03 -0.20761837024E+03  0.56180032484E+03  0.13234594865E+04  0.90394349179E+03 0.  0.
         23    2    4    4    0    0 -0.71075631378E+03  0.21682512675E+03  0.44796911266E+03  0.87245878479E+03  0.91215854352E+02 0.  0.
         23    2    4    4    0    0 -0.47996731378E+02 -0.42444349700E+03  0.11383121217E+03  0.45100070176E+03  0.89376281851E+02 0.  0.
          4    1    3    3  502    0  0.55818484252E+03  0.17016526575E+03  0.28468164604E+03  0.64928435656E+03  0.00000000000E+00 0. -1.
         -3    1    3    3    0  502  0.20056820264E+03  0.37453104490E+02  0.14936518841E+03  0.25286418974E+03  0.00000000000E+00 0.  1.
         13    1    5    5    0    0 -0.36133054934E+03  0.15407137479E+03  0.25599912374E+03  0.46886384567E+03  0.00000000000E+00 0.  1.
        -13    1    5    5    0    0 -0.34942576444E+03  0.62753751968E+02  0.19196998892E+03  0.40359493912E+03  0.00000000000E+00 0. -1.
          3    1    6    6  503    0  0.14339607142E+02 -0.24278473359E+03  0.79707650234E+02  0.25593624343E+03  0.00000000000E+00 0. -1.
         -3    1    6    6    0  503 -0.62336338520E+02 -0.18165876341E+03  0.34123561937E+02  0.19506445833E+03  0.00000000000E+00 0.  1.
<mgrwt>
<rscale>  0 0.19903818E+04</rscale>
<asrwt>0</asrwt>
<pdfrwt beam="1">  1        2 0.24780424E+00 0.19903818E+04</pdfrwt>
<pdfrwt beam="2">  1       -1 0.94596991E-01 0.19903818E+04</pdfrwt>
<totfact> 0.12593209E+01</totfact>
</mgrwt>
</event>
<event>
12    7  0.1698542E-007  0.2627512E+04  0.7818608E-02  0.8358916E-01
          2   -1    0    0  501    0  0.00000000000E+00  0.00000000000E+00  0.25382590936E+04  0.25382590936E+04  0.00000000000E+00 0. -1.
         -1   -1    0    0    0  501 -0.00000000000E+00 -0.00000000000E+00 -0.67997596373E+03  0.67997596373E+03  0.00000000000E+00 0.  1.
         24    2    1    2    0    0 -0.54563101443E+03 -0.29287571022E+03  0.20264210764E+04  0.21204277278E+04  0.79636577003E+02 0.  0.
        254    2    1    2    0    0  0.54563101443E+03  0.29287571022E+03 -0.16813794654E+03  0.10978073295E+04  0.89074192567E+03 0.  0.
         23    2    4    4    0    0 -0.20457922142E+02  0.27359302707E+03 -0.38729592438E+03  0.48364540316E+03  0.92968123134E+02 0.  0.
         23    2    4    4    0    0  0.56608893657E+03  0.19282683145E+02  0.21915797783E+03  0.61416192636E+03  0.91302500349E+02 0.  0.
          4    1    3    3  502    0 -0.45249027306E+03 -0.25858632136E+03  0.17812899952E+04  0.18559656193E+04  0.00000000000E+00 0. -1.
         -3    1    3    3    0  502 -0.93140741373E+02 -0.34289388855E+02  0.24513108116E+03  0.26446210852E+03  0.00000000000E+00 0.  1.
         13    1    5    5    0    0 -0.30667285098E+02  0.14831766374E+03 -0.28021261673E+03  0.31852428844E+03  0.00000000000E+00 0.  1.
        -13    1    5    5    0    0  0.10209362957E+02  0.12527536333E+03 -0.10708330765E+03  0.16512111472E+03  0.00000000000E+00 0. -1.
          2    1    6    6  503    0  0.18466231373E+02  0.54179035508E+01  0.27985541680E+02  0.33963891460E+02  0.00000000000E+00 0. -1.
         -2    1    6    6    0  503  0.54762270520E+03  0.13864779594E+02  0.19117243615E+03  0.58019803490E+03  0.00000000000E+00 0.  1.
<mgrwt>
<rscale>  0 0.26275123E+04</rscale>
<asrwt>0</asrwt>
<pdfrwt beam="1">  1        2 0.39050139E+00 0.26275123E+04</pdfrwt>
<pdfrwt beam="2">  1       -1 0.10461169E+00 0.26275123E+04</pdfrwt>
<totfact> 0.28495132E+00</totfact>
</mgrwt>
</event>
<event>
12    7  0.1698542E-007  0.1748685E+04  0.7818608E-02  0.8734074E-01
         -1   -1    0    0    0  501 -0.00000000000E+00  0.00000000000E+00  0.47178591340E+03  0.47178591340E+03  0.00000000000E+00 0.  1.
          2   -1    0    0  501    0  0.00000000000E+00 -0.00000000000E+00 -0.16203849447E+04  0.16203849447E+04  0.00000000000E+00 0. -1.
         24    2    1    2    0    0  0.93958068580E+02 -0.52168065251E+03 -0.85494307872E+03  0.10088900397E+04  0.77153240916E+02 0.  0.
        254    2    1    2    0    0 -0.93958068580E+02  0.52168065251E+03 -0.29365595263E+03  0.10832808184E+04  0.89793356723E+03 0.  0.
         23    2    4    4    0    0  0.17777256948E+02  0.70644004813E+03 -0.38252902311E+01  0.71286193269E+03  0.93722621470E+02 0.  0.
         23    2    4    4    0    0 -0.11173532553E+03 -0.18475939562E+03 -0.28983066240E+03  0.37041888571E+03  0.81163543464E+02 0.  0.
          2    1    3    3  502    0  0.76736832328E+02 -0.50144370067E+03 -0.79153782593E+03  0.94014172137E+03  0.00000000000E+00 0. -1.
         -1    1    3    3    0  502  0.17221236252E+02 -0.20236951838E+02 -0.63405252793E+02  0.68748318375E+02  0.00000000000E+00 0.  1.
         13    1    5    5    0    0  0.46419606386E+02  0.60230869317E+03  0.85592581196E+01  0.60415544574E+03  0.00000000000E+00 0. -1.
        -13    1    5    5    0    0 -0.28642349438E+02  0.10413135496E+03 -0.12384548351E+02  0.10870648695E+03  0.00000000000E+00 0.  1.
          1    1    6    6  503    0 -0.11634555251E+03 -0.18827642804E+03 -0.26670510867E+03  0.34657743137E+03  0.00000000000E+00 0. -1.
         -1    1    6    6    0  503  0.46102269810E+01  0.35170324258E+01 -0.23125553731E+02  0.23841454345E+02  0.00000000000E+00 0.  1.
<mgrwt>
<rscale>  0 0.17486850E+04</rscale>
<asrwt>0</asrwt>
<pdfrwt beam="1">  1        2 0.24929000E+00 0.17486850E+04</pdfrwt>
<pdfrwt beam="2">  1       -1 0.72582447E-01 0.17486850E+04</pdfrwt>
<totfact> 0.22456727E+01</totfact>
</mgrwt>
</event>
<event>
12    7  0.1698542E-007  0.1519771E+04  0.7818608E-02  0.8871411E-01
          2   -1    0    0  501    0  0.00000000000E+00  0.00000000000E+00  0.64941366006E+03  0.64941366006E+03  0.00000000000E+00 0. -1.
         -1   -1    0    0    0  501 -0.00000000000E+00 -0.00000000000E+00 -0.88915001829E+03  0.88915001829E+03  0.00000000000E+00 0.  1.
         24    2    1    2    0    0  0.84259872740E+02 -0.16269809599E+03 -0.55282710044E+03  0.58822943096E+03  0.82617576045E+02 0.  0.
        254    2    1    2    0    0 -0.84259872740E+02  0.16269809599E+03  0.31309074221E+03  0.95033424740E+03  0.87837291188E+03 0.  0.
         23    2    4    4    0    0  0.25979861206E+03 -0.18775758285E+03  0.30362697337E+03  0.45064543300E+03  0.90242664956E+02 0.  0.
         23    2    4    4    0    0 -0.34405848480E+03  0.35045567884E+03  0.94637688371E+01  0.49968881440E+03  0.91672921401E+02 0.  0.
          2    1    3    3  502    0  0.34977699372E+02 -0.90808988567E+02 -0.17262044845E+03  0.19816036708E+03  0.00000000000E+00 0. -1.
         -1    1    3    3    0  502  0.49282173368E+02 -0.71889107418E+02 -0.38020665199E+03  0.39006906387E+03  0.00000000000E+00 0.  1.
         13    1    5    5    0    0  0.14825059246E+03 -0.95858329952E+02  0.10638075090E+03  0.20611628210E+03  0.00000000000E+00 0.  1.
        -13    1    5    5    0    0  0.11154801961E+03 -0.91899252899E+02  0.19724622247E+03  0.24452915090E+03  0.00000000000E+00 0. -1.
          1    1    6    6  503    0 -0.46491772729E+02  0.39213309489E+02  0.31558209813E+02  0.68520720802E+02  0.00000000000E+00 0. -1.
         -1    1    6    6    0  503 -0.29756671207E+03  0.31124236935E+03 -0.22094440976E+02  0.43116809359E+03  0.00000000000E+00 0.  1.
<mgrwt>
<rscale>  0 0.15197713E+04</rscale>
<asrwt>0</asrwt>
<pdfrwt beam="1">  1        2 0.99909794E-01 0.15197713E+04</pdfrwt>
<pdfrwt beam="2">  1       -1 0.13679231E+00 0.15197713E+04</pdfrwt>
<totfact> 0.22093446E+01</totfact>
</mgrwt>
</event>
<event>
12    7  0.1698542E-007  0.2394094E+04  0.7818608E-02  0.8441718E-01
          2   -1    0    0  501    0  0.00000000000E+00  0.00000000000E+00  0.12417619955E+04  0.12417619955E+04  0.00000000000E+00 0. -1.
         -1   -1    0    0    0  501 -0.00000000000E+00 -0.00000000000E+00 -0.11539425879E+04  0.11539425879E+04  0.00000000000E+00 0.  1.
         24    2    1    2    0    0 -0.94240504029E+03  0.20881897591E+03 -0.30298372731E+03  0.10145650526E+04  0.76226520119E+02 0.  0.
        254    2    1    2    0    0  0.94240504029E+03 -0.20881897591E+03  0.39080313498E+03  0.13811395308E+04  0.90724125155E+03 0.  0.
         23    2    4    4    0    0  0.72417134741E+02  0.13292427061E+02  0.46195101217E+03  0.47545777288E+03  0.85090693500E+02 0.  0.
         23    2    4    4    0    0  0.86998790554E+03 -0.22211140297E+03 -0.71147877188E+02  0.90568175791E+03  0.94789213792E+02 0.  0.
          4    1    3    3  502    0 -0.20942700711E+02  0.15330865202E+02 -0.14872286229E+02  0.29913492585E+02  0.00000000000E+00 0. -1.
         -3    1    3    3    0  502 -0.92146233957E+03  0.19348811070E+03 -0.28811144108E+03  0.98465156006E+03  0.00000000000E+00 0.  1.
         13    1    5    5    0    0  0.16831260681E+02 -0.89683812625E+01  0.14344322584E+02  0.23863838522E+02  0.00000000000E+00 0. -1.
        -13    1    5    5    0    0  0.55585874060E+02  0.22260808324E+02  0.44760668959E+03  0.45159393435E+03  0.00000000000E+00 0.  1.
          3    1    6    6  503    0  0.26192221570E+03 -0.10728855497E+03 -0.23191673785E+01  0.28305381051E+03  0.00000000000E+00 0. -1.
         -3    1    6    6    0  503  0.60806568984E+03 -0.11482284800E+03 -0.68828709809E+02  0.62262794740E+03  0.00000000000E+00 0.  1.
<mgrwt>
<rscale>  0 0.23940944E+04</rscale>
<asrwt>0</asrwt>
<pdfrwt beam="1">  1        2 0.19104031E+00 0.23940944E+04</pdfrwt>
<pdfrwt beam="2">  1       -1 0.17752963E+00 0.23940944E+04</pdfrwt>
<totfact> 0.39768593E+00</totfact>
</mgrwt>
</event>
<event>
12    7  0.1698542E-007  0.1424750E+04  0.7818608E-02  0.8936096E-01
          2   -1    0    0  501    0  0.00000000000E+00  0.00000000000E+00  0.81353233987E+03  0.81353233987E+03  0.00000000000E+00 0. -1.
         -1   -1    0    0    0  501 -0.00000000000E+00 -0.00000000000E+00 -0.62379553668E+03  0.62379553668E+03  0.00000000000E+00 0.  1.
         24    2    1    2    0    0 -0.15733326136E+03  0.70307685310E+01 -0.34156462640E+03  0.38414339906E+03  0.78080536613E+02 0.  0.
        254    2    1    2    0    0  0.15733326136E+03 -0.70307685310E+01  0.53130142959E+03  0.10531844775E+04  0.89560769744E+03 0.  0.
         23    2    4    4    0    0  0.45473663773E+03  0.13266973795E+03  0.82150841436E+02  0.48942124453E+03  0.91639100775E+02 0.  0.
         23    2    4    4    0    0 -0.29740337637E+03 -0.13970050649E+03  0.44915058815E+03  0.56376323296E+03  0.90153936193E+02 0.  0.
          2    1    3    3  502    0  0.86596786161E+01  0.27232728488E+01 -0.11381254201E+02  0.14558131609E+02  0.00000000000E+00 0. -1.
         -1    1    3    3    0  502 -0.16599293998E+03  0.43074956822E+01 -0.33018337220E+03  0.36958526745E+03  0.00000000000E+00 0.  1.
         13    1    5    5    0    0  0.40119910139E+03  0.14629361756E+03  0.77140644797E+02  0.43395071214E+03  0.00000000000E+00 0. -1.
        -13    1    5    5    0    0  0.53537536342E+02 -0.13623879605E+02  0.50101966392E+01  0.55470532388E+02  0.00000000000E+00 0.  1.
          1    1    6    6  503    0 -0.25225964515E+03 -0.12277345988E+03  0.31818475402E+03  0.42420489002E+03  0.00000000000E+00 0. -1.
         -1    1    6    6    0  503 -0.45143731214E+02 -0.16927046609E+02  0.13096583413E+03  0.13955834294E+03  0.00000000000E+00 0.  1.
<mgrwt>
<rscale>  0 0.14247496E+04</rscale>
<asrwt>0</asrwt>
<pdfrwt beam="1">  1        2 0.12515882E+00 0.14247496E+04</pdfrwt>
<pdfrwt beam="2">  1       -1 0.95968544E-01 0.14247496E+04</pdfrwt>
<totfact> 0.39114975E+01</totfact>
</mgrwt>
</event>
<event>
12    7  0.1698542E-007  0.3278134E+04  0.7818608E-02  0.8168482E-01
          2   -1    0    0  501    0  0.00000000000E+00  0.00000000000E+00  0.17890637158E+04  0.17890637158E+04  0.00000000000E+00 0. -1.
         -1   -1    0    0    0  501 -0.00000000000E+00 -0.00000000000E+00 -0.15016461013E+04  0.15016461013E+04  0.00000000000E+00 0.  1.
         24    2    1    2    0    0 -0.37594015595E+03  0.81034372542E+03  0.13607347358E+04  0.16296075529E+04  0.77677544990E+02 0.  0.
        254    2    1    2    0    0  0.37594015595E+03 -0.81034372542E+03 -0.10733171213E+04  0.16611022641E+04  0.89959053730E+03 0.  0.
         23    2    4    4    0    0 -0.27674709479E+03 -0.17638222015E+03 -0.18839526438E+03  0.38858693003E+03  0.88359405180E+02 0.  0.
         23    2    4    4    0    0  0.65268725074E+03 -0.63396150527E+03 -0.88492185696E+03  0.12725153341E+04  0.91108425533E+02 0.  0.
          2    1    3    3  502    0 -0.30982500516E+03  0.63388459065E+03  0.11230257615E+04  0.13262684755E+04  0.00000000000E+00 0. -1.
         -1    1    3    3    0  502 -0.66115150792E+02  0.17645913477E+03  0.23770897432E+03  0.30333907740E+03  0.00000000000E+00 0.  1.
         13    1    5    5    0    0 -0.19617066269E+03 -0.74699209774E+02 -0.12309490612E+03  0.24334185163E+03  0.00000000000E+00 0.  1.
        -13    1    5    5    0    0 -0.80576432107E+02 -0.10168301038E+03 -0.65300358258E+02  0.14524507840E+03  0.00000000000E+00 0. -1.
          3    1    6    6  503    0  0.50577375753E+03 -0.48052900772E+03 -0.72876656129E+03  0.10088686346E+04  0.00000000000E+00 0. -1.
         -3    1    6    6    0  503  0.14691349321E+03 -0.15343249755E+03 -0.15615529567E+03  0.26364669950E+03  0.00000000000E+00 0.  1.
<mgrwt>
<rscale>  0 0.32781340E+04</rscale>
<asrwt>0</asrwt>
<pdfrwt beam="1">  1        2 0.27524057E+00 0.32781340E+04</pdfrwt>
<pdfrwt beam="2">  1       -1 0.23102248E+00 0.32781340E+04</pdfrwt>
<totfact> 0.77422012E-01</totfact>
</mgrwt>
</event>
<event>
12    7  0.1698542E-007  0.1621732E+04  0.7818608E-02  0.8807307E-01
          2   -1    0    0  501    0  0.00000000000E+00  0.00000000000E+00  0.39870315194E+04  0.39870315194E+04  0.00000000000E+00 0. -1.
         -1   -1    0    0    0  501 -0.00000000000E+00 -0.00000000000E+00 -0.16491062685E+03  0.16491062685E+03  0.00000000000E+00 0.  1.
         24    2    1    2    0    0 -0.12105929414E+03  0.50262596694E+03  0.83527559092E+03  0.98554039025E+03  0.79475359025E+02 0.  0.
        254    2    1    2    0    0  0.12105929414E+03 -0.50262596694E+03  0.29868453017E+04  0.31664017560E+04  0.91518687117E+03 0.  0.
         23    2    4    4    0    0  0.24292081036E+03 -0.20106792002E+03  0.27090309835E+04  0.27285424650E+04  0.81586061110E+02 0.  0.
         23    2    4    4    0    0 -0.12186151622E+03 -0.30155804692E+03  0.27781431815E+03  0.43785929098E+03  0.93554682014E+02 0.  0.
          4    1    3    3  502    0 -0.14438785961E+02  0.15499764839E+03  0.30715885894E+03  0.34435347271E+03  0.00000000000E+00 0. -1.
         -3    1    3    3    0  502 -0.10662050818E+03  0.34762831855E+03  0.52811673198E+03  0.64118691754E+03  0.00000000000E+00 0.  1.
         13    1    5    5    0    0  0.24797139998E+03 -0.20268941987E+03  0.26532204307E+04  0.26724803965E+04  0.00000000000E+00 0. -1.
        -13    1    5    5    0    0 -0.50505896208E+01  0.16214998556E+01  0.55810552832E+02  0.56062068502E+02  0.00000000000E+00 0.  1.
          4    1    6    6  503    0 -0.13221811171E+03 -0.29032998986E+03  0.27711117943E+03  0.42256802747E+03  0.00000000000E+00 0. -1.
         -4    1    6    6    0  503  0.10356595489E+02 -0.11228057065E+02  0.70313871907E+00  0.15291263507E+02  0.00000000000E+00 0.  1.
<mgrwt>
<rscale>  0 0.16217322E+04</rscale>
<asrwt>0</asrwt>
<pdfrwt beam="1">  1        2 0.61338939E+00 0.16217322E+04</pdfrwt>
<pdfrwt beam="2">  1       -1 0.25370869E-01 0.16217322E+04</pdfrwt>
<totfact> 0.53192195E+00</totfact>
</mgrwt>
</event>
<event>
12    7  0.1698542E-007  0.1910127E+04  0.7818608E-02  0.8649832E-01
         -1   -1    0    0    0  501 -0.00000000000E+00  0.00000000000E+00  0.34001636779E+03  0.34001636779E+03  0.00000000000E+00 0.  1.
          2   -1    0    0  501    0  0.00000000000E+00 -0.00000000000E+00 -0.26826541652E+04  0.26826541652E+04  0.00000000000E+00 0. -1.
         24    2    1    2    0    0  0.55598239347E+03 -0.11985146936E+03 -0.16579473451E+04  0.17548505566E+04  0.85031054418E+02 0.  0.
        254    2    1    2    0    0 -0.55598239347E+03  0.11985146936E+03 -0.68469045223E+03  0.12678199763E+04  0.90282095706E+03 0.  0.
         23    2    4    4    0    0 -0.71501405858E+03  0.15491059769E+03 -0.22443247006E+03  0.77111633706E+03  0.94910876190E+02 0.  0.
         23    2    4    4    0    0  0.15903166512E+03 -0.35059128331E+02 -0.46025798217E+03  0.49670363929E+03  0.91415984036E+02 0.  0.
          4    1    3    3  502    0  0.34812644589E+03 -0.10743791855E+03 -0.97403040464E+03  0.10399375740E+04  0.00000000000E+00 0. -1.
         -3    1    3    3    0  502  0.20785594758E+03 -0.12413550813E+02 -0.68391694050E+03  0.71491298260E+03  0.00000000000E+00 0.  1.
         13    1    5    5    0    0 -0.16047411655E+03  0.20374574811E+01 -0.72886173824E+02  0.17626255317E+03  0.00000000000E+00 0. -1.
        -13    1    5    5    0    0 -0.55453994203E+03  0.15287314021E+03 -0.15154629623E+03  0.59485378389E+03  0.00000000000E+00 0.  1.
          2    1    6    6  503    0  0.71409433063E+02  0.19777674850E+02 -0.11945925221E+03  0.14057374041E+03  0.00000000000E+00 0. -1.
         -2    1    6    6    0  503  0.87622232054E+02 -0.54836803182E+02 -0.34079872996E+03  0.35612989888E+03  0.00000000000E+00 0.  1.
<mgrwt>
<rscale>  0 0.19101270E+04</rscale>
<asrwt>0</asrwt>
<pdfrwt beam="1">  1        2 0.41271601E+00 0.19101270E+04</pdfrwt>
<pdfrwt beam="2">  1       -1 0.52310212E-01 0.19101270E+04</pdfrwt>
<totfact> 0.10680153E+01</totfact>
</mgrwt>
</event>
<event>
12    7  0.1698542E-007  0.2218559E+04  0.7818608E-02  0.8510743E-01
          2   -1    0    0  501    0  0.00000000000E+00  0.00000000000E+00  0.23176314527E+04  0.23176314527E+04  0.00000000000E+00 0. -1.
         -1   -1    0    0    0  501 -0.00000000000E+00 -0.00000000000E+00 -0.53093050682E+03  0.53093050682E+03  0.00000000000E+00 0.  1.
         24    2    1    2    0    0 -0.58677134346E+03 -0.57407746819E+03  0.20250336111E+03  0.84952505414E+03  0.82581216666E+02 0.  0.
        254    2    1    2    0    0  0.58677134346E+03  0.57407746819E+03  0.15841975847E+04  0.19990369053E+04  0.90144384878E+03 0.  0.
         23    2    4    4    0    0  0.72679035385E+03  0.55972247141E+03  0.15826517634E+04  0.18314661285E+04  0.89264282853E+02 0.  0.
         23    2    4    4    0    0 -0.14001901039E+03  0.14354996780E+02  0.15458213572E+01  0.16757077688E+03  0.90918570699E+02 0.  0.
          2    1    3    3  502    0 -0.51878063601E+03 -0.53664334364E+03  0.17087826559E+03  0.76571457360E+03  0.00000000000E+00 0. -1.
         -1    1    3    3    0  502 -0.67990707451E+02 -0.37434124553E+02  0.31625095517E+02  0.83810480533E+02  0.00000000000E+00 0.  1.
         13    1    5    5    0    0  0.62997648152E+03  0.51223395391E+03  0.14324883298E+04  0.16465955198E+04  0.00000000000E+00 0. -1.
        -13    1    5    5    0    0  0.96813872328E+02  0.47488517506E+02  0.15016343355E+03  0.18487060866E+03  0.00000000000E+00 0.  1.
          1    1    6    6  503    0  0.12398135923E+01 -0.21188390385E+02 -0.48380575521E+01  0.21769056611E+02  0.00000000000E+00 0. -1.
         -1    1    6    6    0  503 -0.14125882398E+03  0.35543387166E+02  0.63838789093E+01  0.14580172027E+03  0.00000000000E+00 0.  1.
<mgrwt>
<rscale>  0 0.22185592E+04</rscale>
<asrwt>0</asrwt>
<pdfrwt beam="1">  1        2 0.35655868E+00 0.22185592E+04</pdfrwt>
<pdfrwt beam="2">  1       -1 0.81681617E-01 0.22185592E+04</pdfrwt>
<totfact> 0.68644138E+00</totfact>
</mgrwt>
</event>
<event>
12    7  0.1698542E-007  0.1435372E+04  0.7818608E-02  0.8928605E-01
         -1   -1    0    0    0  501 -0.00000000000E+00  0.00000000000E+00  0.22475323657E+03  0.22475323657E+03  0.00000000000E+00 0.  1.
          2   -1    0    0  501    0  0.00000000000E+00 -0.00000000000E+00 -0.22917271576E+04  0.22917271576E+04  0.00000000000E+00 0. -1.
         24    2    1    2    0    0 -0.57101823516E+02 -0.74985301296E+02 -0.12530669936E+04  0.12592754041E+04  0.81940462622E+02 0.  0.
        254    2    1    2    0    0  0.57101823516E+02  0.74985301296E+02 -0.81390692746E+03  0.12572049900E+04  0.95353892775E+03 0.  0.
         23    2    4    4    0    0 -0.74493487231E+02  0.29762385248E+03 -0.91161627798E+03  0.96627006468E+03  0.92219100100E+02 0.  0.
         23    2    4    4    0    0  0.13159531075E+03 -0.22263855118E+03  0.97709350513E+02  0.29093492536E+03  0.90613262443E+02 0.  0.
          4    1    3    3  502    0 -0.42448927145E+02 -0.88622581384E+02 -0.11558262956E+04  0.11599958185E+04  0.00000000000E+00 0. -1.
         -3    1    3    3    0  502 -0.14652896372E+02  0.13637280088E+02 -0.97240697912E+02  0.99279585568E+02  0.00000000000E+00 0.  1.
         13    1    5    5    0    0 -0.74173500698E+02  0.27842454362E+03 -0.74877232142E+03  0.80229790229E+03  0.00000000000E+00 0.  1.
        -13    1    5    5    0    0 -0.31998653382E+00  0.19199308860E+02 -0.16284395656E+03  0.16397216239E+03  0.00000000000E+00 0. -1.
          3    1    6    6  503    0  0.77070687335E+01 -0.58398245199E+01  0.31006641815E+02  0.32479444199E+02  0.00000000000E+00 0. -1.
         -3    1    6    6    0  503  0.12388824201E+03 -0.21679872666E+03  0.66702708698E+02  0.25845548116E+03  0.00000000000E+00 0.  1.
<mgrwt>
<rscale>  0 0.14353719E+04</rscale>
<asrwt>0</asrwt>
<pdfrwt beam="1">  1        2 0.35257339E+00 0.14353719E+04</pdfrwt>
<pdfrwt beam="2">  1       -1 0.34577423E-01 0.14353719E+04</pdfrwt>
<totfact> 0.40264105E+01</totfact>
</mgrwt>
</event>
<event>
12    7  0.1698542E-007  0.1338613E+04  0.7818608E-02  0.8999493E-01
         -1   -1    0    0    0  501 -0.00000000000E+00  0.00000000000E+00  0.27841024243E+03  0.27841024243E+03  0.00000000000E+00 0.  1.
          2   -1    0    0  501    0  0.00000000000E+00 -0.00000000000E+00 -0.16090335599E+04  0.16090335599E+04  0.00000000000E+00 0. -1.
         24    2    1    2    0    0 -0.15175618148E+03  0.19773327565E+03 -0.35629306445E+00  0.26148492816E+03  0.79030714260E+02 0.  0.
        254    2    1    2    0    0  0.15175618148E+03 -0.19773327565E+03 -0.13302670244E+04  0.16259588741E+04  0.90111237773E+03 0.  0.
         23    2    4    4    0    0  0.39613237496E+03 -0.40792147968E+03 -0.10058646860E+04  0.11597463872E+04  0.99634953131E+02 0.  0.
         23    2    4    4    0    0 -0.24437619348E+03  0.21018820403E+03 -0.32440233837E+03  0.46621248698E+03  0.90655395983E+02 0.  0.
          4    1    3    3  502    0 -0.13028984067E+02  0.27965640375E+02 -0.26527273621E+02  0.40688176577E+02  0.00000000000E+00 0. -1.
         -3    1    3    3    0  502 -0.13872719741E+03  0.16976763528E+03  0.26170980556E+02  0.22079675159E+03  0.00000000000E+00 0.  1.
         13    1    5    5    0    0  0.12559179334E+03 -0.11469522924E+03 -0.21681302697E+03  0.27556520613E+03  0.00000000000E+00 0.  1.
        -13    1    5    5    0    0  0.27054058161E+03 -0.29322625044E+03 -0.78905165904E+03  0.88418118103E+03  0.00000000000E+00 0. -1.
          1    1    6    6  503    0 -0.30582044541E+01  0.31267059692E+02 -0.14492878778E+02  0.34598051557E+02  0.00000000000E+00 0. -1.
         -1    1    6    6    0  503 -0.24131798903E+03  0.17892114434E+03 -0.30990945959E+03  0.43161443542E+03  0.00000000000E+00 0.  1.
<mgrwt>
<rscale>  0 0.13386133E+04</rscale>
<asrwt>0</asrwt>
<pdfrwt beam="1">  1        2 0.24754362E+00 0.13386133E+04</pdfrwt>
<pdfrwt beam="2">  1       -1 0.42832345E-01 0.13386133E+04</pdfrwt>
<totfact> 0.65904222E+01</totfact>
</mgrwt>
</event>
<event>
12    7  0.1698542E-007  0.1610504E+04  0.7818608E-02  0.8814121E-01
         -1   -1    0    0    0  501 -0.00000000000E+00  0.00000000000E+00  0.10986794105E+04  0.10986794105E+04  0.00000000000E+00 0.  1.
          2   -1    0    0  501    0  0.00000000000E+00 -0.00000000000E+00 -0.59019131985E+03  0.59019131985E+03  0.00000000000E+00 0. -1.
         24    2    1    2    0    0  0.53231334509E+03 -0.12903766999E+03  0.14672094622E+03  0.57251292208E+03  0.78967032663E+02 0.  0.
        254    2    1    2    0    0 -0.53231334509E+03  0.12903766999E+03  0.36176714448E+03  0.11163578083E+04  0.90297899850E+03 0.  0.
         23    2    4    4    0    0 -0.24196656845E+01  0.19777473926E+03  0.51118615617E+03  0.55567806852E+03  0.91357141520E+02 0.  0.
         23    2    4    4    0    0 -0.52989367941E+03 -0.68737069273E+02 -0.14941901169E+03  0.56067973980E+03  0.80769012586E+02 0.  0.
          2    1    3    3  502    0  0.13200344136E+03 -0.67132685589E+02  0.31978034267E+02  0.15150676777E+03  0.00000000000E+00 0. -1.
         -1    1    3    3    0  502  0.40030990374E+03 -0.61904984398E+02  0.11474291196E+03  0.42100615431E+03  0.00000000000E+00 0.  1.
         13    1    5    5    0    0  0.22560176640E+02  0.18738770131E+03  0.41783271212E+03  0.45848368291E+03  0.00000000000E+00 0.  1.
        -13    1    5    5    0    0 -0.24979842325E+02  0.10387037951E+02  0.93353444042E+02  0.97194385612E+02  0.00000000000E+00 0. -1.
          3    1    6    6  503    0 -0.14928295780E+03 -0.16319907716E+01 -0.92956119546E+01  0.14958099239E+03  0.00000000000E+00 0. -1.
         -3    1    6    6    0  503 -0.38061072161E+03 -0.67105078502E+02 -0.14012339973E+03  0.41109874741E+03  0.00000000000E+00 0.  1.
<mgrwt>
<rscale>  0 0.16105043E+04</rscale>
<asrwt>0</asrwt>
<pdfrwt beam="1">  1        2 0.90798665E-01 0.16105043E+04</pdfrwt>
<pdfrwt beam="2">  1       -1 0.16902760E+00 0.16105043E+04</pdfrwt>
<totfact> 0.13855483E+01</totfact>
</mgrwt>
</event>
<event>
12    7  0.1698542E-007  0.2165542E+04  0.7818608E-02  0.8532909E-01
         -1   -1    0    0    0  501 -0.00000000000E+00  0.00000000000E+00  0.30835711482E+03  0.30835711482E+03  0.00000000000E+00 0.  1.
          2   -1    0    0  501    0  0.00000000000E+00 -0.00000000000E+00 -0.38020627883E+04  0.38020627883E+04  0.00000000000E+00 0. -1.
         24    2    1    2    0    0  0.82557493504E+03  0.34033298251E+03 -0.14770842433E+04  0.17278997264E+04  0.80368464961E+02 0.  0.
        254    2    1    2    0    0 -0.82557493504E+03 -0.34033298251E+03 -0.20166214301E+04  0.23825201767E+04  0.90124352294E+03 0.  0.
         23    2    4    4    0    0 -0.14014551499E+03  0.26122707659E+03 -0.79784712240E+03  0.85742392322E+03  0.10361178730E+03 0.  0.
         23    2    4    4    0    0 -0.68542942005E+03 -0.60156005910E+03 -0.12187743077E+04  0.15250962535E+04  0.93913655459E+02 0.  0.
          2    1    3    3  502    0  0.47139228187E+03  0.19329691510E+03 -0.91856256265E+03  0.10503959074E+04  0.00000000000E+00 0. -1.
         -1    1    3    3    0  502  0.35418265317E+03  0.14703606742E+03 -0.55852168066E+03  0.67750381895E+03  0.00000000000E+00 0.  1.
         13    1    5    5    0    0 -0.67313745985E+02  0.37505501450E+02 -0.16057904503E+03  0.17811073169E+03  0.00000000000E+00 0.  1.
        -13    1    5    5    0    0 -0.72831769006E+02  0.22372157514E+03 -0.63726807737E+03  0.67931319154E+03  0.00000000000E+00 0. -1.
          4    1    6    6  503    0 -0.44337675815E+03 -0.37054482119E+03 -0.69865176688E+03  0.90664254563E+03  0.00000000000E+00 0. -1.
         -4    1    6    6    0  503 -0.24205266190E+03 -0.23101523791E+03 -0.52012254085E+03  0.61845370787E+03  0.00000000000E+00 0.  1.
<mgrwt>
<rscale>  0 0.21655421E+04</rscale>
<asrwt>0</asrwt>
<pdfrwt beam="1">  1        2 0.58493274E+00 0.21655421E+04</pdfrwt>
<pdfrwt beam="2">  1       -1 0.47439556E-01 0.21655421E+04</pdfrwt>
<totfact> 0.22772985E+00</totfact>
</mgrwt>
</event>
<event>
12    7  0.1698542E-007  0.1191045E+04  0.7818608E-02  0.9120731E-01
          2   -1    0    0  501    0  0.00000000000E+00  0.00000000000E+00  0.28752512748E+03  0.28752512748E+03  0.00000000000E+00 0. -1.
         -1   -1    0    0    0  501 -0.00000000000E+00 -0.00000000000E+00 -0.12334471593E+04  0.12334471593E+04  0.00000000000E+00 0.  1.
         24    2    1    2    0    0 -0.14715563803E+03  0.21660465132E+03 -0.12241899940E+03  0.29990405441E+03  0.79897895205E+02 0.  0.
        254    2    1    2    0    0  0.14715563803E+03 -0.21660465132E+03 -0.82350303237E+03  0.12210682323E+04  0.86271549592E+03 0.  0.
         23    2    4    4    0    0  0.45621542314E+03  0.65709415964E+02 -0.47284277509E+03  0.66739953128E+03  0.96910292244E+02 0.  0.
         23    2    4    4    0    0 -0.30905978510E+03 -0.28231406728E+03 -0.35066025728E+03  0.55366870104E+03  0.91472570364E+02 0.  0.
          2    1    3    3  502    0 -0.40583805107E+02  0.84262870383E+02 -0.55815866044E+01  0.93693279755E+02  0.00000000000E+00 0. -1.
         -1    1    3    3    0  502 -0.10657183293E+03  0.13234178094E+03 -0.11683741279E+03  0.20621077465E+03  0.00000000000E+00 0.  1.
         13    1    5    5    0    0  0.28393526177E+03  0.65307235291E+01 -0.24048335197E+03  0.37214798911E+03  0.00000000000E+00 0.  1.
        -13    1    5    5    0    0  0.17228016137E+03  0.59178692435E+02 -0.23235942312E+03  0.29525154217E+03  0.00000000000E+00 0. -1.
          4    1    6    6  503    0 -0.94511986415E+01  0.69427570143E+01 -0.64974268759E+01  0.13406848501E+02  0.00000000000E+00 0. -1.
         -4    1    6    6    0  503 -0.29960858646E+03 -0.28925682430E+03 -0.34416283040E+03  0.54026185254E+03  0.00000000000E+00 0.  1.
<mgrwt>
<rscale>  0 0.11910450E+04</rscale>
<asrwt>0</asrwt>
<pdfrwt beam="1">  1        2 0.44234635E-01 0.11910450E+04</pdfrwt>
<pdfrwt beam="2">  1       -1 0.18976110E+00 0.11910450E+04</pdfrwt>
<totfact> 0.23108707E+01</totfact>
</mgrwt>
</event>
<event>
12    7  0.1698542E-007  0.3467802E+04  0.7818608E-02  0.8121463E-01
          2   -1    0    0  501    0  0.00000000000E+00  0.00000000000E+00  0.13815385644E+04  0.13815385644E+04  0.00000000000E+00 0. -1.
         -1   -1    0    0    0  501 -0.00000000000E+00 -0.00000000000E+00 -0.21761334448E+04  0.21761334448E+04  0.00000000000E+00 0.  1.
         24    2    1    2    0    0 -0.48633765854E+02 -0.88364000411E+03  0.10145597860E+04  0.13487024950E+04  0.80510623927E+02 0.  0.
        254    2    1    2    0    0  0.48633765854E+02  0.88364000411E+03 -0.18091546663E+04  0.22089695142E+04  0.90737027051E+03 0.  0.
         23    2    4    4    0    0  0.36323534026E+03  0.70381064899E+03 -0.15819715307E+04  0.17715499583E+04  0.92010806446E+02 0.  0.
         23    2    4    4    0    0 -0.31460157441E+03  0.17982935512E+03 -0.22718313559E+03  0.43741955591E+03  0.91711194612E+02 0.  0.
          2    1    3    3  502    0 -0.64324745994E+02 -0.78418787470E+03  0.87688344887E+03  0.11781395837E+04  0.00000000000E+00 0. -1.
         -1    1    3    3    0  502  0.15690980140E+02 -0.99452129412E+02  0.13767633709E+03  0.17056291126E+03  0.00000000000E+00 0.  1.
         13    1    5    5    0    0  0.32277954604E+03  0.65157706813E+03 -0.14937340180E+04  0.16613189422E+04  0.00000000000E+00 0. -1.
        -13    1    5    5    0    0  0.40455794225E+02  0.52233580863E+02 -0.88237512719E+02  0.11023101608E+03  0.00000000000E+00 0.  1.
          3    1    6    6  503    0 -0.27965630481E+03  0.17424304030E+03 -0.17153912990E+03  0.37147538142E+03  0.00000000000E+00 0. -1.
         -3    1    6    6    0  503 -0.34945269600E+02  0.55863148176E+01 -0.55644005694E+02  0.65944174499E+02  0.00000000000E+00 0.  1.
<mgrwt>
<rscale>  0 0.34678018E+04</rscale>
<asrwt>0</asrwt>
<pdfrwt beam="1">  1        2 0.21254440E+00 0.34678018E+04</pdfrwt>
<pdfrwt beam="2">  1       -1 0.33478976E+00 0.34678018E+04</pdfrwt>
<totfact> 0.27232080E-01</totfact>
</mgrwt>
</event>
<event>
12    7  0.1698542E-007  0.1316266E+04  0.7818608E-02  0.9016765E-01
          2   -1    0    0  501    0  0.00000000000E+00  0.00000000000E+00  0.22030051612E+04  0.22030051612E+04  0.00000000000E+00 0. -1.
         -1   -1    0    0    0  501 -0.00000000000E+00 -0.00000000000E+00 -0.19661274269E+03  0.19661274269E+03  0.00000000000E+00 0.  1.
         24    2    1    2    0    0 -0.66781066824E+02  0.38230149570E+02  0.11135769531E+04  0.11191688134E+04  0.81018190706E+02 0.  0.
        254    2    1    2    0    0  0.66781066824E+02 -0.38230149570E+02  0.89281546537E+03  0.12804490904E+04  0.91460874846E+03 0.  0.
         23    2    4    4    0    0 -0.20528828494E+03  0.33327764599E+03  0.22022237785E+03  0.46016248559E+03  0.10017159368E+03 0.  0.
         23    2    4    4    0    0  0.27206935176E+03 -0.37150779556E+03  0.67259308752E+03  0.82028660484E+03  0.91917780511E+02 0.  0.
          4    1    3    3  502    0 -0.60969920254E+02  0.13188783763E+02  0.10260599109E+04  0.10279543842E+04  0.00000000000E+00 0. -1.
         -3    1    3    3    0  502 -0.58111465698E+01  0.25041365808E+02  0.87517042204E+02  0.91214429243E+02  0.00000000000E+00 0.  1.
         13    1    5    5    0    0 -0.16498499936E+03  0.26505705537E+03  0.12504829680E+03  0.33632182377E+03  0.00000000000E+00 0.  1.
        -13    1    5    5    0    0 -0.40303285577E+02  0.68220590626E+02  0.95174081052E+02  0.12384066181E+03  0.00000000000E+00 0. -1.
          1    1    6    6  503    0  0.14033667379E+03 -0.19883555873E+03  0.27487652346E+03  0.36713357865E+03  0.00000000000E+00 0. -1.
         -1    1    6    6    0  503  0.13173267798E+03 -0.17267223684E+03  0.39771656405E+03  0.45315302619E+03  0.00000000000E+00 0.  1.
<mgrwt>
<rscale>  0 0.13162658E+04</rscale>
<asrwt>0</asrwt>
<pdfrwt beam="1">  1        2 0.33892385E+00 0.13162658E+04</pdfrwt>
<pdfrwt beam="2">  1       -1 0.30248116E-01 0.13162658E+04</pdfrwt>
<totfact> 0.57808076E+01</totfact>
</mgrwt>
</event>
<event>
12    7  0.1698542E-007  0.1618450E+04  0.7818608E-02  0.8809293E-01
         -1   -1    0    0    0  501 -0.00000000000E+00  0.00000000000E+00  0.22269749735E+03  0.22269749735E+03  0.00000000000E+00 0.  1.
          2   -1    0    0  501    0  0.00000000000E+00 -0.00000000000E+00 -0.29405145090E+04  0.29405145090E+04  0.00000000000E+00 0. -1.
         24    2    1    2    0    0 -0.36603659550E+03  0.38821695801E+03 -0.12135670292E+04  0.13280482495E+04  0.79196105418E+02 0.  0.
        254    2    1    2    0    0  0.36603659550E+03 -0.38821695801E+03 -0.15042499825E+04  0.18351637569E+04  0.90573881929E+03 0.  0.
         23    2    4    4    0    0  0.37322126487E+03  0.44831695692E+02 -0.12843029685E+04  0.13411718868E+04  0.89464638246E+02 0.  0.
         23    2    4    4    0    0 -0.71846693672E+01 -0.43304865370E+03 -0.21994701405E+03  0.49399187009E+03  0.89824956299E+02 0.  0.
          4    1    3    3  502    0 -0.23493245128E+03  0.28166289793E+03 -0.89994112588E+03  0.97181339504E+03  0.00000000000E+00 0. -1.
         -3    1    3    3    0  502 -0.13110414422E+03  0.10655406008E+03 -0.31362590328E+03  0.35623485450E+03  0.00000000000E+00 0.  1.
         13    1    5    5    0    0  0.34448405937E+03  0.28981039629E+02 -0.12305951077E+04  0.12782306079E+04  0.00000000000E+00 0. -1.
        -13    1    5    5    0    0  0.28737205503E+02  0.15850656063E+02 -0.53707860772E+02  0.62941278875E+02  0.00000000000E+00 0.  1.
          2    1    6    6  503    0  0.25235537876E+02 -0.33461854329E+03 -0.14227881162E+03  0.36448547587E+03  0.00000000000E+00 0. -1.
         -2    1    6    6    0  503 -0.32420207244E+02 -0.98430110410E+02 -0.77668202430E+02  0.12950639421E+03  0.00000000000E+00 0.  1.
<mgrwt>
<rscale>  0 0.16184502E+04</rscale>
<asrwt>0</asrwt>
<pdfrwt beam="1">  1        2 0.45238684E+00 0.16184502E+04</pdfrwt>
<pdfrwt beam="2">  1       -1 0.34261154E-01 0.16184502E+04</pdfrwt>
<totfact> 0.16758887E+01</totfact>
</mgrwt>
</event>
<event>
12    7  0.1698542E-007  0.2914892E+04  0.7818608E-02  0.8268461E-01
          2   -1    0    0  501    0  0.00000000000E+00  0.00000000000E+00  0.17880072981E+04  0.17880072981E+04  0.00000000000E+00 0. -1.
         -1   -1    0    0    0  501 -0.00000000000E+00 -0.00000000000E+00 -0.11879975270E+04  0.11879975270E+04  0.00000000000E+00 0.  1.
         24    2    1    2    0    0 -0.32269299285E+03  0.85343659361E+03 -0.71754175948E+03  0.11634770310E+04  0.79547709323E+02 0.  0.
        254    2    1    2    0    0  0.32269299285E+03 -0.85343659361E+03  0.13175515306E+04  0.18125277941E+04  0.84665824382E+03 0.  0.
         23    2    4    4    0    0  0.45297503557E+03 -0.12071032924E+03  0.37323823439E+03  0.60655255043E+03  0.94031113903E+02 0.  0.
         23    2    4    4    0    0 -0.13028204272E+03 -0.73272626437E+03  0.94431329616E+03  0.12059752437E+04  0.93741655251E+02 0.  0.
          4    1    3    3  502    0 -0.45689078645E+02  0.11925044329E+03 -0.13757278892E+03  0.18770837057E+03  0.00000000000E+00 0. -1.
         -3    1    3    3    0  502 -0.27700391420E+03  0.73418615032E+03 -0.57996897056E+03  0.97576866040E+03  0.00000000000E+00 0.  1.
         13    1    5    5    0    0  0.19455494997E+03 -0.18115558795E+02  0.11297073882E+03  0.22570376572E+03  0.00000000000E+00 0. -1.
        -13    1    5    5    0    0  0.25842008559E+03 -0.10259477044E+03  0.26026749558E+03  0.38084878471E+03  0.00000000000E+00 0.  1.
          1    1    6    6  503    0 -0.81011160385E+02 -0.63385444293E+03  0.82197522658E+03  0.10411424187E+04  0.00000000000E+00 0. -1.
         -1    1    6    6    0  503 -0.49270882335E+02 -0.98871821439E+02  0.12233806958E+03  0.16483282497E+03  0.00000000000E+00 0.  1.
<mgrwt>
<rscale>  0 0.29148916E+04</rscale>
<asrwt>0</asrwt>
<pdfrwt beam="1">  1        2 0.27507805E+00 0.29148916E+04</pdfrwt>
<pdfrwt beam="2">  1       -1 0.18276885E+00 0.29148916E+04</pdfrwt>
<totfact> 0.17090299E+00</totfact>
</mgrwt>
</event>
<event>
12    7  0.1698542E-007  0.2586850E+04  0.7818608E-02  0.8372682E-01
         -3   -1    0    0    0  501 -0.00000000000E+00  0.00000000000E+00  0.38792510951E+03  0.38792510951E+03  0.00000000000E+00 0.  1.
          2   -1    0    0  501    0  0.00000000000E+00 -0.00000000000E+00 -0.43125534408E+04  0.43125534408E+04  0.00000000000E+00 0. -1.
         24    2    1    2    0    0 -0.82807835618E+03  0.50158307007E+03 -0.63874944279E+03  0.11624939344E+04  0.78050988281E+02 0.  0.
        254    2    1    2    0    0  0.82807835618E+03 -0.50158307007E+03 -0.32858788885E+04  0.35379846159E+04  0.88489306252E+03 0.  0.
         23    2    4    4    0    0  0.73903923447E+03 -0.72096740556E+03 -0.23537205838E+04  0.25718237247E+04  0.91124610179E+02 0.  0.
         23    2    4    4    0    0  0.89039121708E+02  0.21938433549E+03 -0.93215830476E+03  0.96616089118E+03  0.92142881787E+02 0.  0.
          4    1    3    3  502    0 -0.38212482889E+03  0.22250890500E+03 -0.24625369824E+03  0.50613286947E+03  0.00000000000E+00 0. -1.
         -3    1    3    3    0  502 -0.44595352729E+03  0.27907416507E+03 -0.39249574454E+03  0.65636106496E+03  0.00000000000E+00 0.  1.
         13    1    5    5    0    0  0.75213238235E+02 -0.82493756248E+02 -0.32990368534E+03  0.34827961845E+03  0.00000000000E+00 0. -1.
        -13    1    5    5    0    0  0.66382599624E+03 -0.63847364931E+03 -0.20238168984E+04  0.22235441063E+04  0.00000000000E+00 0.  1.
          4    1    6    6  503    0  0.29434393899E+02  0.46901914571E+01 -0.80588029829E+02  0.85923291323E+02  0.00000000000E+00 0. -1.
         -4    1    6    6    0  503  0.59604727809E+02  0.21469414403E+03 -0.85157027493E+03  0.88023759986E+03  0.00000000000E+00 0.  1.
<mgrwt>
<rscale>  0 0.25868496E+04</rscale>
<asrwt>0</asrwt>
<pdfrwt beam="1">  1        2 0.66346977E+00 0.25868496E+04</pdfrwt>
<pdfrwt beam="2">  1       -3 0.59680786E-01 0.25868496E+04</pdfrwt>
<totfact> 0.29147907E-01</totfact>
</mgrwt>
</event>
<event>
12    7  0.1698542E-007  0.2324254E+04  0.7818608E-02  0.8468419E-01
         -1   -1    0    0    0  501 -0.00000000000E+00  0.00000000000E+00  0.60824855266E+03  0.60824855266E+03  0.00000000000E+00 0.  1.
          2   -1    0    0  501    0  0.00000000000E+00 -0.00000000000E+00 -0.22203743013E+04  0.22203743013E+04  0.00000000000E+00 0. -1.
         24    2    1    2    0    0  0.60909417081E+03  0.18175906352E+03 -0.15931338953E+04  0.17170850892E+04  0.79205613296E+02 0.  0.
        254    2    1    2    0    0 -0.60909417081E+03 -0.18175906352E+03 -0.18991853330E+02  0.11115377647E+04  0.91165972043E+03 0.  0.
         23    2    4    4    0    0 -0.65437130852E+03 -0.32601600980E+03  0.26020072894E+03  0.78123541901E+03  0.90200401983E+02 0.  0.
         23    2    4    4    0    0  0.45277137702E+02  0.14425694629E+03 -0.27919258227E+03  0.33030234572E+03  0.91055235149E+02 0.  0.
          2    1    3    3  502    0  0.23897326178E+03  0.68243395477E+02 -0.52216534606E+03  0.57829233913E+03  0.00000000000E+00 0. -1.
         -1    1    3    3    0  502  0.37012090904E+03  0.11351566804E+03 -0.10709685492E+04  0.11387927501E+04  0.00000000000E+00 0.  1.
         13    1    5    5    0    0 -0.47838845396E+03 -0.20420245834E+03  0.15501490224E+03  0.54275572479E+03  0.00000000000E+00 0.  1.
        -13    1    5    5    0    0 -0.17598285456E+03 -0.12181355146E+03  0.10518582669E+03  0.23847969422E+03  0.00000000000E+00 0. -1.
          1    1    6    6  503    0  0.18048517098E+02  0.14333502940E+03 -0.25835325689E+03  0.29600183271E+03  0.00000000000E+00 0. -1.
         -1    1    6    6    0  503  0.27228620604E+02  0.92191688552E+00 -0.20839325373E+02  0.34300513010E+02  0.00000000000E+00 0.  1.
<mgrwt>
<rscale>  0 0.23242543E+04</rscale>
<asrwt>0</asrwt>
<pdfrwt beam="1">  1        2 0.34159605E+00 0.23242543E+04</pdfrwt>
<pdfrwt beam="2">  1       -1 0.93576701E-01 0.23242543E+04</pdfrwt>
<totfact> 0.57344307E+00</totfact>
</mgrwt>
</event>
<event>
12    7  0.1698542E-007  0.2086619E+04  0.7818608E-02  0.8567161E-01
          2   -1    0    0  501    0  0.00000000000E+00  0.00000000000E+00  0.13884543279E+04  0.13884543279E+04  0.00000000000E+00 0. -1.
         -1   -1    0    0    0  501 -0.00000000000E+00 -0.00000000000E+00 -0.78396117013E+03  0.78396117013E+03  0.00000000000E+00 0.  1.
         24    2    1    2    0    0 -0.18110815861E+03  0.25057959932E+03  0.10709983706E+04  0.11179350802E+04  0.84563780717E+02 0.  0.
        254    2    1    2    0    0  0.18110815861E+03 -0.25057959932E+03 -0.46650521292E+03  0.10544804177E+04  0.89370662805E+03 0.  0.
         23    2    4    4    0    0  0.44080439505E+01  0.32409046564E+03 -0.14726528666E+03  0.36764499777E+03  0.91769924054E+02 0.  0.
         23    2    4    4    0    0  0.17670011466E+03 -0.57467006496E+03 -0.31923992625E+03  0.68683541998E+03  0.91433853343E+02 0.  0.
          2    1    3    3  502    0 -0.15108548481E+03  0.18139331679E+03  0.91039200976E+03  0.94050197795E+03  0.00000000000E+00 0. -1.
         -1    1    3    3    0  502 -0.30022673796E+02  0.69186282536E+02  0.16060636088E+03  0.17743310229E+03  0.00000000000E+00 0.  1.
         13    1    5    5    0    0  0.19489234298E+02  0.30757511016E+03 -0.15367289006E+03  0.34438007460E+03  0.00000000000E+00 0. -1.
        -13    1    5    5    0    0 -0.15081190347E+02  0.16515355480E+02  0.64076033946E+01  0.23264923172E+02  0.00000000000E+00 0.  1.
          2    1    6    6  503    0  0.48523685673E+02 -0.89474668736E+02 -0.23953774360E+02  0.10456599697E+03  0.00000000000E+00 0. -1.
         -2    1    6    6    0  503  0.12817642899E+03 -0.48519539622E+03 -0.29528615189E+03  0.58226942300E+03  0.00000000000E+00 0.  1.
<mgrwt>
<rscale>  0 0.20866186E+04</rscale>
<asrwt>0</asrwt>
<pdfrwt beam="1">  1        2 0.21360836E+00 0.20866186E+04</pdfrwt>
<pdfrwt beam="2">  1       -1 0.12060941E+00 0.20866186E+04</pdfrwt>
<totfact> 0.94453984E+00</totfact>
</mgrwt>
</event>
<event>
12    7  0.1698542E-007  0.1527310E+04  0.7818608E-02  0.8866492E-01
         -1   -1    0    0    0  501 -0.00000000000E+00  0.00000000000E+00  0.41942125481E+03  0.41942125481E+03  0.00000000000E+00 0.  1.
          2   -1    0    0  501    0  0.00000000000E+00 -0.00000000000E+00 -0.13904137515E+04  0.13904137515E+04  0.00000000000E+00 0. -1.
         24    2    1    2    0    0  0.18767622517E+02 -0.93612438367E+02 -0.89851726500E+03  0.90709998497E+03  0.79884885694E+02 0.  0.
        254    2    1    2    0    0 -0.18767622517E+02  0.93612438367E+02 -0.72475231661E+02  0.90273502130E+03  0.89474149742E+03 0.  0.
         23    2    4    4    0    0 -0.36469294799E+03 -0.81799396296E+02  0.18656236164E+03  0.42767682992E+03  0.91705335270E+02 0.  0.
         23    2    4    4    0    0  0.34592532548E+03  0.17541183466E+03 -0.25903759330E+03  0.47505819138E+03  0.90256123960E+02 0.  0.
          4    1    3    3  502    0 -0.17102423314E+02 -0.86052080855E+02 -0.64952904817E+03  0.65542767559E+03  0.00000000000E+00 0. -1.
         -3    1    3    3    0  502  0.35870045831E+02 -0.75603575118E+01 -0.24898821682E+03  0.25167230938E+03  0.00000000000E+00 0.  1.
         13    1    5    5    0    0 -0.14017736152E+03 -0.87717674976E+01  0.27825444125E+02  0.14318132535E+03  0.00000000000E+00 0.  1.
        -13    1    5    5    0    0 -0.22451558647E+03 -0.73027628798E+02  0.15873691752E+03  0.28449550457E+03  0.00000000000E+00 0. -1.
          2    1    6    6  503    0  0.28916676650E+03  0.18063735058E+03 -0.21565897498E+03  0.40343037163E+03  0.00000000000E+00 0. -1.
         -2    1    6    6    0  503  0.56758558981E+02 -0.52255159173E+01 -0.43378618326E+02  0.71627819750E+02  0.00000000000E+00 0.  1.
<mgrwt>
<rscale>  0 0.15273102E+04</rscale>
<asrwt>0</asrwt>
<pdfrwt beam="1">  1        2 0.21390981E+00 0.15273102E+04</pdfrwt>
<pdfrwt beam="2">  1       -1 0.64526347E-01 0.15273102E+04</pdfrwt>
<totfact> 0.39221174E+01</totfact>
</mgrwt>
</event>
<event>
12    7  0.1698542E-007  0.1244921E+04  0.7818608E-02  0.9074421E-01
          2   -1    0    0  501    0  0.00000000000E+00  0.00000000000E+00  0.12694389202E+04  0.12694389202E+04  0.00000000000E+00 0. -1.
         -1   -1    0    0    0  501 -0.00000000000E+00 -0.00000000000E+00 -0.30521935423E+03  0.30521935423E+03  0.00000000000E+00 0.  1.
         24    2    1    2    0    0  0.23562426148E+03  0.62965109387E+02  0.43354797625E+03  0.50376250949E+03  0.79557656211E+02 0.  0.
        254    2    1    2    0    0 -0.23562426148E+03 -0.62965109387E+02  0.53067158976E+03  0.10708957650E+04  0.89762019011E+03 0.  0.
         23    2    4    4    0    0  0.32736435377E+03 -0.97442826809E+01  0.30282375300E+03  0.45460067833E+03  0.87733575029E+02 0.  0.
         23    2    4    4    0    0 -0.56298861525E+03 -0.53220826706E+02  0.22784783675E+03  0.61629508666E+03  0.90090842092E+02 0.  0.
          2    1    3    3  502    0  0.19924902593E+03  0.31286223339E+02  0.29756072725E+03  0.35947376608E+03  0.00000000000E+00 0. -1.
         -1    1    3    3    0  502  0.36375235554E+02  0.31678886048E+02  0.13598724900E+03  0.14428874341E+03  0.00000000000E+00 0.  1.
         13    1    5    5    0    0  0.18130343863E+03 -0.37601014156E+02  0.12801478974E+03  0.22510566300E+03  0.00000000000E+00 0. -1.
        -13    1    5    5    0    0  0.14606091514E+03  0.27856731475E+02  0.17480896327E+03  0.22949501533E+03  0.00000000000E+00 0.  1.
          3    1    6    6  503    0 -0.80067605469E+02  0.16538158191E+02  0.55508088691E+02  0.98820443391E+02  0.00000000000E+00 0. -1.
         -3    1    6    6    0  503 -0.48292100978E+03 -0.69758984896E+02  0.17233974806E+03  0.51747464327E+03  0.00000000000E+00 0.  1.
<mgrwt>
<rscale>  0 0.12449214E+04</rscale>
<asrwt>0</asrwt>
<pdfrwt beam="1">  1        2 0.19529829E+00 0.12449214E+04</pdfrwt>
<pdfrwt beam="2">  1       -1 0.46956825E-01 0.12449214E+04</pdfrwt>
<totfact> 0.87317338E+01</totfact>
</mgrwt>
</event>
<event>
12    7  0.1698542E-007  0.1790336E+04  0.7818608E-02  0.8711456E-01
         -1   -1    0    0    0  501 -0.00000000000E+00  0.00000000000E+00  0.42556677945E+03  0.42556677945E+03  0.00000000000E+00 0.  1.
          2   -1    0    0  501    0  0.00000000000E+00 -0.00000000000E+00 -0.18829610730E+04  0.18829610730E+04  0.00000000000E+00 0. -1.
         24    2    1    2    0    0  0.28957517343E+03  0.21626581069E+03 -0.12738491444E+04  0.13267830600E+04  0.83886612040E+02 0.  0.
        254    2    1    2    0    0 -0.28957517343E+03 -0.21626581069E+03 -0.18354514923E+03  0.98174479252E+03  0.89415285824E+03 0.  0.
         23    2    4    4    0    0 -0.35072573276E+03  0.27834915108E+03 -0.69613563520E+02  0.46231664922E+03  0.91672495269E+02 0.  0.
         23    2    4    4    0    0  0.61150559334E+02 -0.49461496177E+03 -0.11393158571E+03  0.51942814330E+03  0.91879478259E+02 0.  0.
          2    1    3    3  502    0  0.23576260127E+03  0.20879780582E+03 -0.11282217931E+04  0.11713517585E+04  0.00000000000E+00 0. -1.
         -1    1    3    3    0  502  0.53812572156E+02  0.74680048650E+01 -0.14562735132E+03  0.15543130145E+03  0.00000000000E+00 0.  1.
         13    1    5    5    0    0 -0.30420589192E+02  0.66008534593E+02 -0.13991805995E+02  0.74015603226E+02  0.00000000000E+00 0. -1.
        -13    1    5    5    0    0 -0.32030514357E+03  0.21234061649E+03 -0.55621757524E+02  0.38830104599E+03  0.00000000000E+00 0.  1.
          3    1    6    6  503    0  0.14653912348E+02 -0.86468843532E+01 -0.11705749282E+02  0.20652610546E+02  0.00000000000E+00 0. -1.
         -3    1    6    6    0  503  0.46496646986E+02 -0.48596807741E+03 -0.10222583642E+03  0.49877553276E+03  0.00000000000E+00 0.  1.
<mgrwt>
<rscale>  0 0.17903359E+04</rscale>
<asrwt>0</asrwt>
<pdfrwt beam="1">  1        2 0.28968632E+00 0.17903359E+04</pdfrwt>
<pdfrwt beam="2">  1       -1 0.65471813E-01 0.17903359E+04</pdfrwt>
<totfact> 0.19747757E+01</totfact>
</mgrwt>
</event>
<event>
12    7  0.1698542E-007  0.2145766E+04  0.7818608E-02  0.8541347E-01
          2   -1    0    0  501    0  0.00000000000E+00  0.00000000000E+00  0.50868518551E+04  0.50868518551E+04  0.00000000000E+00 0. -1.
         -3   -1    0    0    0  501 -0.00000000000E+00 -0.00000000000E+00 -0.22628494544E+03  0.22628494544E+03  0.00000000000E+00 0.  1.
         24    2    1    2    0    0 -0.86564260322E+03 -0.16225615009E+03  0.18203259799E+04  0.20237120400E+04  0.78482946958E+02 0.  0.
        254    2    1    2    0    0  0.86564260322E+03  0.16225615009E+03  0.30402409297E+04  0.32894247605E+04  0.89531344764E+03 0.  0.
         23    2    4    4    0    0  0.52196895989E+03 -0.84214213563E+02  0.26600971765E+04  0.27136639803E+04  0.91167868677E+02 0.  0.
         23    2    4    4    0    0  0.34367364333E+03  0.24647036365E+03  0.38014375321E+03  0.57576078028E+03  0.90177545521E+02 0.  0.
          2    1    3    3  502    0 -0.71912863673E+03 -0.13001265003E+03  0.14388194705E+04  0.16137691142E+04  0.00000000000E+00 0. -1.
         -3    1    3    3    0  502 -0.14651396650E+03 -0.32243500063E+02  0.38150650945E+03  0.40994292581E+03  0.00000000000E+00 0.  1.
         13    1    5    5    0    0  0.38384676020E+02  0.99583810903E+01  0.30656297602E+03  0.30911714765E+03  0.00000000000E+00 0. -1.
        -13    1    5    5    0    0  0.48358428387E+03 -0.94172594653E+02  0.23535342005E+04  0.24045468326E+04  0.00000000000E+00 0.  1.
          1    1    6    6  503    0  0.50871397800E+02  0.12940880463E+02  0.20002461305E+02  0.56173516532E+02  0.00000000000E+00 0. -1.
         -1    1    6    6    0  503  0.29280224553E+03  0.23352948319E+03  0.36014129191E+03  0.51958726374E+03  0.00000000000E+00 0.  1.
<mgrwt>
<rscale>  0 0.21457661E+04</rscale>
<asrwt>0</asrwt>
<pdfrwt beam="1">  1        2 0.78259250E+00 0.21457661E+04</pdfrwt>
<pdfrwt beam="2">  1       -3 0.34813073E-01 0.21457661E+04</pdfrwt>
<totfact> 0.13208063E-01</totfact>
</mgrwt>
</event>
<event>
12    7  0.1698542E-007  0.2331647E+04  0.7818608E-02  0.8465547E-01
         -1   -1    0    0    0  501 -0.00000000000E+00  0.00000000000E+00  0.10139727551E+04  0.10139727551E+04  0.00000000000E+00 0.  1.
          2   -1    0    0  501    0  0.00000000000E+00 -0.00000000000E+00 -0.13404148997E+04  0.13404148997E+04  0.00000000000E+00 0. -1.
         24    2    1    2    0    0  0.37579896604E+03 -0.77033360128E+03 -0.63949397856E+03  0.10724453218E+04  0.80917856662E+02 0.  0.
        254    2    1    2    0    0 -0.37579896604E+03  0.77033360128E+03  0.31305183402E+03  0.12819423330E+04  0.90040878166E+03 0.  0.
         23    2    4    4    0    0  0.75864589590E+02 -0.16219577794E+03  0.77368808268E+02  0.21529890479E+03  0.91130563361E+02 0.  0.
         23    2    4    4    0    0 -0.45166355563E+03  0.93252937922E+03  0.23568302575E+03  0.10666434282E+04  0.92578094694E+02 0.  0.
          2    1    3    3  502    0  0.62413576167E+02 -0.75089872373E+02 -0.59537680298E+02  0.11436205139E+03  0.00000000000E+00 0. -1.
         -3    1    3    3    0  502  0.31338538987E+03 -0.69524372891E+03 -0.57995629826E+03  0.95808327042E+03  0.00000000000E+00 0.  1.
         13    1    5    5    0    0  0.92643681923E+02 -0.10564008252E+03  0.42607145485E+02  0.14682659051E+03  0.00000000000E+00 0.  1.
        -13    1    5    5    0    0 -0.16779092333E+02 -0.56555695418E+02  0.34761662783E+02  0.68472314283E+02  0.00000000000E+00 0. -1.
          3    1    6    6  503    0 -0.24930880713E+03  0.60494648312E+03  0.17011370260E+03  0.67605754235E+03  0.00000000000E+00 0. -1.
         -3    1    6    6    0  503 -0.20235474850E+03  0.32758289610E+03  0.65569323155E+02  0.39058588582E+03  0.00000000000E+00 0.  1.
<mgrwt>
<rscale>  0 0.23316468E+04</rscale>
<asrwt>0</asrwt>
<pdfrwt beam="1">  1        2 0.20621768E+00 0.23316468E+04</pdfrwt>
<pdfrwt beam="2">  1       -1 0.15599581E+00 0.23316468E+04</pdfrwt>
<totfact> 0.50600823E+00</totfact>
</mgrwt>
</event>
<event>
12    7  0.1698542E-007  0.1710710E+04  0.7818608E-02  0.8755279E-01
         -1   -1    0    0    0  501 -0.00000000000E+00  0.00000000000E+00  0.46576382218E+03  0.46576382218E+03  0.00000000000E+00 0.  1.
          2   -1    0    0  501    0  0.00000000000E+00 -0.00000000000E+00 -0.15708230826E+04  0.15708230826E+04  0.00000000000E+00 0. -1.
         24    2    1    2    0    0 -0.59664751966E+03 -0.89504378190E+02 -0.41454528793E+03  0.73628294256E+03  0.79154780769E+02 0.  0.
        254    2    1    2    0    0  0.59664751966E+03  0.89504378190E+02 -0.69051397246E+03  0.13003039622E+04  0.92194444057E+03 0.  0.
         23    2    4    4    0    0  0.44121484923E+02  0.53935404224E+02 -0.72877473736E+03  0.73797395245E+03  0.92936555907E+02 0.  0.
         23    2    4    4    0    0  0.55252603474E+03  0.35568973965E+02  0.38260764898E+02  0.56233000975E+03  0.90559277568E+02 0.  0.
          2    1    3    3  502    0 -0.47271144333E+02 -0.29169298855E+02 -0.44305337659E+02  0.71051896719E+02  0.00000000000E+00 0. -1.
         -1    1    3    3    0  502 -0.54937637533E+03 -0.60335079335E+02 -0.37023995027E+03  0.66523104584E+03  0.00000000000E+00 0.  1.
         13    1    5    5    0    0 -0.86708219022E+01  0.59645151168E+01 -0.69022403619E+01  0.12585686912E+02  0.00000000000E+00 0. -1.
        -13    1    5    5    0    0  0.52792306826E+02  0.47970889108E+02 -0.72187249699E+03  0.72538826554E+03  0.00000000000E+00 0.  1.
          3    1    6    6  503    0  0.32962138415E+02  0.10097306549E+02 -0.18379761188E+02  0.39067554182E+02  0.00000000000E+00 0. -1.
         -3    1    6    6    0  503  0.51956389633E+03  0.25471667417E+02  0.56640526086E+02  0.52326245556E+03  0.00000000000E+00 0.  1.
<mgrwt>
<rscale>  0 0.17107105E+04</rscale>
<asrwt>0</asrwt>
<pdfrwt beam="1">  1        2 0.24166509E+00 0.17107105E+04</pdfrwt>
<pdfrwt beam="2">  1       -1 0.71655972E-01 0.17107105E+04</pdfrwt>
<totfact> 0.24661340E+01</totfact>
</mgrwt>
</event>
<event>
12    7  0.1698542E-007  0.1689960E+04  0.7818608E-02  0.8767111E-01
         -1   -1    0    0    0  501 -0.00000000000E+00  0.00000000000E+00  0.69453811151E+03  0.69453811151E+03  0.00000000000E+00 0.  1.
          2   -1    0    0  501    0  0.00000000000E+00 -0.00000000000E+00 -0.10280090210E+04  0.10280090210E+04  0.00000000000E+00 0. -1.
         24    2    1    2    0    0  0.18787610246E+02  0.58181419027E+03 -0.26285934313E+03  0.64378765673E+03  0.80664653904E+02 0.  0.
        254    2    1    2    0    0 -0.18787610246E+02 -0.58181419027E+03 -0.70611566395E+02  0.10787594758E+04  0.90546964998E+03 0.  0.
         23    2    4    4    0    0 -0.33322256284E+03 -0.65427641934E+03 -0.70076803975E+02  0.74371623311E+03  0.95331881566E+02 0.  0.
         23    2    4    4    0    0  0.31443495260E+03  0.72462229067E+02 -0.53476242083E+00  0.33504324270E+03  0.90186331837E+02 0.  0.
          2    1    3    3  502    0 -0.42105936463E+01 -0.10395315559E+01 -0.25622884296E+01  0.50373650559E+01  0.00000000000E+00 0. -1.
         -1    1    3    3    0  502  0.22998203892E+02  0.58285372183E+03 -0.26029705470E+03  0.63875029167E+03  0.00000000000E+00 0.  1.
         13    1    5    5    0    0 -0.13518439763E+03 -0.20491483880E+03 -0.59220426457E+02  0.25253112963E+03  0.00000000000E+00 0.  1.
        -13    1    5    5    0    0 -0.19803816521E+03 -0.44936158053E+03 -0.10856377517E+02  0.49118510347E+03  0.00000000000E+00 0. -1.
          3    1    6    6  503    0  0.10945611834E+03  0.33342412152E+02 -0.42732635567E+02  0.12214105138E+03  0.00000000000E+00 0. -1.
         -3    1    6    6    0  503  0.20497883426E+03  0.39119816916E+02  0.42197873146E+02  0.21290219132E+03  0.00000000000E+00 0.  1.
<mgrwt>
<rscale>  0 0.16899603E+04</rscale>
<asrwt>0</asrwt>
<pdfrwt beam="1">  1        2 0.15815523E+00 0.16899603E+04</pdfrwt>
<pdfrwt beam="2">  1       -1 0.10685202E+00 0.16899603E+04</pdfrwt>
<totfact> 0.21463644E+01</totfact>
</mgrwt>
</event>
<event>
12    7  0.1698542E-007  0.1232591E+04  0.7818608E-02  0.9084799E-01
          2   -1    0    0  501    0  0.00000000000E+00  0.00000000000E+00  0.72300892743E+03  0.72300892743E+03  0.00000000000E+00 0. -1.
         -1   -1    0    0    0  501 -0.00000000000E+00 -0.00000000000E+00 -0.52533246027E+03  0.52533246027E+03  0.00000000000E+00 0.  1.
         24    2    1    2    0    0  0.16494975716E+03  0.10612129282E+03 -0.14806280266E+03  0.25821559024E+03  0.79262515331E+02 0.  0.
        254    2    1    2    0    0 -0.16494975716E+03 -0.10612129282E+03  0.34573926981E+03  0.99012579746E+03  0.90683146225E+03 0.  0.
         23    2    4    4    0    0 -0.47289065308E+03  0.15424117002E+03  0.25636794186E+03  0.56720803087E+03  0.92652686752E+02 0.  0.
         23    2    4    4    0    0  0.30794089593E+03 -0.26036246283E+03  0.89371327950E+02  0.42291776659E+03  0.90862509328E+02 0.  0.
          2    1    3    3  502    0  0.44979589879E+02  0.14022988832E+02 -0.80212398999E+00  0.47121663005E+02  0.00000000000E+00 0. -1.
         -1    1    3    3    0  502  0.11997016728E+03  0.92098303984E+02 -0.14726067867E+03  0.21109392723E+03  0.00000000000E+00 0.  1.
         13    1    5    5    0    0 -0.23604994599E+03  0.95984947239E+02  0.83097530965E+02  0.26802590687E+03  0.00000000000E+00 0.  1.
        -13    1    5    5    0    0 -0.23684070709E+03  0.58256222776E+02  0.17327041090E+03  0.29918212400E+03  0.00000000000E+00 0. -1.
          4    1    6    6  503    0  0.30492636768E+03 -0.22964998880E+03  0.75701787666E+02  0.38916573297E+03  0.00000000000E+00 0. -1.
         -4    1    6    6    0  503  0.30145282451E+01 -0.30712474036E+02  0.13669540283E+02  0.33752033620E+02  0.00000000000E+00 0.  1.
<mgrwt>
<rscale>  0 0.12325909E+04</rscale>
<asrwt>0</asrwt>
<pdfrwt beam="1">  1        2 0.11123214E+00 0.12325909E+04</pdfrwt>
<pdfrwt beam="2">  1       -1 0.80820378E-01 0.12325909E+04</pdfrwt>
<totfact> 0.67513368E+01</totfact>
</mgrwt>
</event>
<event>
12    7  0.1698542E-007  0.1449444E+04  0.7818608E-02  0.8918786E-01
         -1   -1    0    0    0  501 -0.00000000000E+00  0.00000000000E+00  0.41250533646E+03  0.41250533646E+03  0.00000000000E+00 0.  1.
          2   -1    0    0  501    0  0.00000000000E+00 -0.00000000000E+00 -0.12732490918E+04  0.12732490918E+04  0.00000000000E+00 0. -1.
         24    2    1    2    0    0  0.37337093504E+03  0.24921299241E+03 -0.30278255720E+03  0.54736264348E+03  0.80097539391E+02 0.  0.
        254    2    1    2    0    0 -0.37337093504E+03 -0.24921299241E+03 -0.55796119815E+03  0.11383917848E+04  0.88493061101E+03 0.  0.
         23    2    4    4    0    0 -0.11108791125E+03 -0.44919046366E+01  0.22671688091E+03  0.27068008033E+03  0.97501079823E+02 0.  0.
         23    2    4    4    0    0 -0.26228302378E+03 -0.24472108777E+03 -0.78467807906E+03  0.86771170445E+03  0.92320739394E+02 0.  0.
          2    1    3    3  502    0  0.19354081167E+02  0.37199028547E+02 -0.41224076941E+02  0.58802829033E+02  0.00000000000E+00 0. -1.
         -1    1    3    3    0  502  0.35401685387E+03  0.21201396386E+03 -0.26155848026E+03  0.48855981445E+03  0.00000000000E+00 0.  1.
         13    1    5    5    0    0 -0.63741405128E+02  0.14856976542E+02  0.39152036530E+02  0.76266496210E+02  0.00000000000E+00 0.  1.
        -13    1    5    5    0    0 -0.47346506124E+02 -0.19348881178E+02  0.18756484438E+03  0.19441358412E+03  0.00000000000E+00 0. -1.
          1    1    6    6  503    0 -0.21826181483E+03 -0.17374736854E+03 -0.67074010965E+03  0.72644247024E+03  0.00000000000E+00 0. -1.
         -1    1    6    6    0  503 -0.44021208958E+02 -0.70973719233E+02 -0.11393796941E+03  0.14126923421E+03  0.00000000000E+00 0.  1.
<mgrwt>
<rscale>  0 0.14494441E+04</rscale>
<asrwt>0</asrwt>
<pdfrwt beam="1">  1        2 0.19588448E+00 0.14494441E+04</pdfrwt>
<pdfrwt beam="2">  1       -1 0.63462359E-01 0.14494441E+04</pdfrwt>
<totfact> 0.47717120E+01</totfact>
</mgrwt>
</event>
<event>
12    7  0.1698542E-007  0.1657873E+04  0.7818608E-02  0.8785762E-01
          2   -1    0    0  501    0  0.00000000000E+00  0.00000000000E+00  0.21796223424E+04  0.21796223424E+04  0.00000000000E+00 0. -1.
         -1   -1    0    0    0  501 -0.00000000000E+00 -0.00000000000E+00 -0.31525455388E+03  0.31525455388E+03  0.00000000000E+00 0.  1.
         24    2    1    2    0    0  0.12325700687E+03  0.52804599171E+03  0.33782022523E+03  0.64432634657E+03  0.83720231800E+02 0.  0.
        254    2    1    2    0    0 -0.12325700687E+03 -0.52804599171E+03  0.15265475632E+04  0.18505505497E+04  0.89451943236E+03 0.  0.
         23    2    4    4    0    0  0.58565825134E+02 -0.45462216750E+03  0.15623766578E+04  0.16307421000E+04  0.90485938005E+02 0.  0.
         23    2    4    4    0    0 -0.18182283200E+03 -0.73423824209E+02 -0.35829094531E+02  0.21980844963E+03  0.92636009817E+02 0.  0.
          4    1    3    3  502    0  0.11999689875E+03  0.48902534509E+03  0.33556994569E+03  0.60510514153E+03  0.00000000000E+00 0. -1.
         -3    1    3    3    0  502  0.32601081174E+01  0.39020646616E+02  0.22502795405E+01  0.39221205047E+02  0.00000000000E+00 0.  1.
         13    1    5    5    0    0  0.40478575608E+02 -0.29138559523E+03  0.11457003200E+04  0.11828665620E+04  0.00000000000E+00 0. -1.
        -13    1    5    5    0    0  0.18087249525E+02 -0.16323657227E+03  0.41667633778E+03  0.44787553805E+03  0.00000000000E+00 0.  1.
          4    1    6    6  503    0 -0.19115129230E+03 -0.74375450767E+02 -0.26912745386E+02  0.20686908926E+03  0.00000000000E+00 0. -1.
         -4    1    6    6    0  503  0.93284603027E+01  0.95162655799E+00 -0.89163491450E+01  0.12939360371E+02  0.00000000000E+00 0.  1.
<mgrwt>
<rscale>  0 0.16578732E+04</rscale>
<asrwt>0</asrwt>
<pdfrwt beam="1">  1        2 0.33532650E+00 0.16578732E+04</pdfrwt>
<pdfrwt beam="2">  1       -1 0.48500702E-01 0.16578732E+04</pdfrwt>
<totfact> 0.24531040E+01</totfact>
</mgrwt>
</event>
<event>
12    7  0.1698542E-007  0.3178427E+04  0.7818608E-02  0.8194538E-01
          2   -1    0    0  501    0  0.00000000000E+00  0.00000000000E+00  0.16194275984E+04  0.16194275984E+04  0.00000000000E+00 0. -1.
         -1   -1    0    0    0  501 -0.00000000000E+00 -0.00000000000E+00 -0.15595631798E+04  0.15595631798E+04  0.00000000000E+00 0.  1.
         24    2    1    2    0    0 -0.14524414909E+04  0.45235422155E+02 -0.12970507733E+03  0.14612476621E+04  0.82394144828E+02 0.  0.
        254    2    1    2    0    0  0.14524414909E+04 -0.45235422155E+02  0.18956949589E+03  0.17177431161E+04  0.89614300837E+03 0.  0.
         23    2    4    4    0    0  0.11901851967E+04  0.29025152956E+03 -0.32433912289E+02  0.12289342006E+04  0.91872508106E+02 0.  0.
         23    2    4    4    0    0  0.26225629412E+03 -0.33548695171E+03  0.22200340818E+03  0.48880891555E+03  0.91207368682E+02 0.  0.
          2    1    3    3  502    0 -0.11697493859E+04  0.99414888569E+01 -0.85013782371E+02  0.11728767209E+04  0.00000000000E+00 0. -1.
         -1    1    3    3    0  502 -0.28269210492E+03  0.35293933298E+02 -0.44691294960E+02  0.28837094125E+03  0.00000000000E+00 0.  1.
         13    1    5    5    0    0  0.79963392348E+03  0.20042726706E+03 -0.64604343260E+02  0.82689734679E+03  0.00000000000E+00 0. -1.
        -13    1    5    5    0    0  0.39055127327E+03  0.89824262500E+02  0.32170430971E+02  0.40203685380E+03  0.00000000000E+00 0.  1.
          3    1    6    6  503    0  0.23207471818E+03 -0.33191570774E+03  0.20389848416E+03  0.45343279955E+03  0.00000000000E+00 0. -1.
         -3    1    6    6    0  503  0.30181575934E+02 -0.35712439726E+01  0.18104924021E+02  0.35376115999E+02  0.00000000000E+00 0.  1.
<mgrwt>
<rscale>  0 0.31784271E+04</rscale>
<asrwt>0</asrwt>
<pdfrwt beam="1">  1        2 0.24914271E+00 0.31784271E+04</pdfrwt>
<pdfrwt beam="2">  1       -1 0.23993280E+00 0.31784271E+04</pdfrwt>
<totfact> 0.84757543E-01</totfact>
</mgrwt>
</event>
<event>
12    7  0.1698542E-007  0.2179644E+04  0.7818608E-02  0.8526949E-01
          2   -1    0    0  501    0  0.00000000000E+00  0.00000000000E+00  0.23976325850E+04  0.23976325850E+04  0.00000000000E+00 0. -1.
         -1   -1    0    0    0  501 -0.00000000000E+00 -0.00000000000E+00 -0.49536868077E+03  0.49536868077E+03  0.00000000000E+00 0.  1.
         24    2    1    2    0    0  0.51597116360E+03  0.10977827236E+03  0.17649472409E+04  0.18437924321E+04  0.79083872500E+02 0.  0.
        254    2    1    2    0    0 -0.51597116360E+03 -0.10977827236E+03  0.13731666337E+03  0.10492088337E+04  0.89649640260E+03 0.  0.
         23    2    4    4    0    0 -0.28093952122E+03  0.21550660315E+03  0.41476076438E+03  0.55269986930E+03  0.89891842018E+02 0.  0.
         23    2    4    4    0    0 -0.23503164237E+03 -0.32528487551E+03 -0.27744410101E+03  0.49650896438E+03  0.92172660623E+02 0.  0.
          4    1    3    3  502    0  0.37122447424E+03  0.42733620521E+02  0.12608330195E+04  0.13150413209E+04  0.00000000000E+00 0. -1.
         -3    1    3    3    0  502  0.14474668936E+03  0.67044651837E+02  0.50411422135E+03  0.52875111119E+03  0.00000000000E+00 0.  1.
         13    1    5    5    0    0 -0.28003246972E+03  0.20640276390E+03  0.41722169037E+03  0.54322575782E+03  0.00000000000E+00 0.  1.
        -13    1    5    5    0    0 -0.90705150802E+00  0.91038392555E+01 -0.24609259876E+01  0.94741114805E+01  0.00000000000E+00 0. -1.
          3    1    6    6  503    0 -0.56270315089E+02 -0.13112871090E+03 -0.60985268064E+02  0.15517825267E+03  0.00000000000E+00 0. -1.
         -3    1    6    6    0  503 -0.17876132728E+03 -0.19415616461E+03 -0.21645883295E+03  0.34133071170E+03  0.00000000000E+00 0.  1.
<mgrwt>
<rscale>  0 0.21796441E+04</rscale>
<asrwt>0</asrwt>
<pdfrwt beam="1">  1        2 0.36886655E+00 0.21796441E+04</pdfrwt>
<pdfrwt beam="2">  1       -1 0.76210567E-01 0.21796441E+04</pdfrwt>
<totfact> 0.71837462E+00</totfact>
</mgrwt>
</event>
<event>
12    7  0.1698542E-007  0.1473991E+04  0.7818608E-02  0.8901935E-01
         -1   -1    0    0    0  501 -0.00000000000E+00  0.00000000000E+00  0.33325467900E+03  0.33325467900E+03  0.00000000000E+00 0.  1.
          2   -1    0    0  501    0  0.00000000000E+00 -0.00000000000E+00 -0.16298722443E+04  0.16298722443E+04  0.00000000000E+00 0. -1.
         24    2    1    2    0    0  0.22414541674E+03 -0.25806537339E+03 -0.84499244094E+03  0.91564968908E+03  0.86966792920E+02 0.  0.
        254    2    1    2    0    0 -0.22414541674E+03  0.25806537339E+03 -0.45162512434E+03  0.10474772342E+04  0.88113812677E+03 0.  0.
         23    2    4    4    0    0  0.16261144182E+03  0.46285609482E+03 -0.24618758177E+03  0.55550028865E+03  0.85404916412E+02 0.  0.
         23    2    4    4    0    0 -0.38675685856E+03 -0.20479072142E+03 -0.20543754257E+03  0.49197694556E+03  0.91195525314E+02 0.  0.
          4    1    3    3  502    0  0.17530942425E+03 -0.23086957655E+03 -0.76482098731E+03  0.81791521457E+03  0.00000000000E+00 0. -1.
         -3    1    3    3    0  502  0.48835992495E+02 -0.27195796848E+02 -0.80171453636E+02  0.97734474508E+02  0.00000000000E+00 0.  1.
         13    1    5    5    0    0  0.62503381535E+02  0.20732051882E+03 -0.62934778083E+02  0.22549779715E+03  0.00000000000E+00 0. -1.
        -13    1    5    5    0    0  0.10010806028E+03  0.25553557600E+03 -0.18325280369E+03  0.33000249149E+03  0.00000000000E+00 0.  1.
          2    1    6    6  503    0 -0.25823837281E+03 -0.16900185916E+03 -0.17627758085E+03  0.35541872644E+03  0.00000000000E+00 0. -1.
         -2    1    6    6    0  503 -0.12851848575E+03 -0.35788862264E+02 -0.29159961716E+02  0.13655821912E+03  0.00000000000E+00 0.  1.
<mgrwt>
<rscale>  0 0.14739913E+04</rscale>
<asrwt>0</asrwt>
<pdfrwt beam="1">  1        2 0.25074958E+00 0.14739913E+04</pdfrwt>
<pdfrwt beam="2">  1       -1 0.51269950E-01 0.14739913E+04</pdfrwt>
<totfact> 0.45279554E+01</totfact>
</mgrwt>
</event>
<event>
12    7  0.1698542E-007  0.2387713E+04  0.7818608E-02  0.8444118E-01
         -1   -1    0    0    0  501 -0.00000000000E+00  0.00000000000E+00  0.13168154833E+04  0.13168154833E+04  0.00000000000E+00 0.  1.
          2   -1    0    0  501    0  0.00000000000E+00 -0.00000000000E+00 -0.10823788557E+04  0.10823788557E+04  0.00000000000E+00 0. -1.
         24    2    1    2    0    0 -0.65556559877E+03  0.36495445926E+02 -0.68414310511E+03  0.95151666460E+03  0.78955702060E+02 0.  0.
        254    2    1    2    0    0  0.65556559877E+03 -0.36495445926E+02  0.91857973270E+03  0.14476776745E+04  0.90602635281E+03 0.  0.
         23    2    4    4    0    0  0.44828751310E+02  0.37716427188E+02  0.80915119555E+03  0.81649715412E+03  0.92248575080E+02 0.  0.
         23    2    4    4    0    0  0.61073684745E+03 -0.74211873114E+02  0.10942853715E+03  0.63118052035E+03  0.88923256696E+02 0.  0.
          4    1    3    3  502    0 -0.54990092585E+03  0.45291746565E+02 -0.53520383912E+03  0.76869078306E+03  0.00000000000E+00 0. -1.
         -3    1    3    3    0  502 -0.10566467292E+03 -0.87963006383E+01 -0.14893926598E+03  0.18282588154E+03  0.00000000000E+00 0.  1.
         13    1    5    5    0    0  0.59786234944E+02 -0.18694363039E+01  0.60845578436E+03  0.61138885351E+03  0.00000000000E+00 0. -1.
        -13    1    5    5    0    0 -0.14957483634E+02  0.39585863492E+02  0.20069541119E+03  0.20510830061E+03  0.00000000000E+00 0.  1.
          3    1    6    6  503    0  0.60145084079E+03 -0.62507403461E+02  0.98478381355E+02  0.61265673992E+03  0.00000000000E+00 0. -1.
         -3    1    6    6    0  503  0.92860066639E+01 -0.11704469653E+02  0.10950155795E+02  0.18523780434E+02  0.00000000000E+00 0.  1.
<mgrwt>
<rscale>  0 0.23877129E+04</rscale>
<asrwt>0</asrwt>
<pdfrwt beam="1">  1        2 0.16651982E+00 0.23877129E+04</pdfrwt>
<pdfrwt beam="2">  1       -1 0.20258700E+00 0.23877129E+04</pdfrwt>
<totfact> 0.33117832E+00</totfact>
</mgrwt>
</event>
<event>
12    7  0.1698542E-007  0.2046968E+04  0.7818608E-02  0.8584971E-01
         -1   -1    0    0    0  501 -0.00000000000E+00  0.00000000000E+00  0.81952833475E+03  0.81952833475E+03  0.00000000000E+00 0.  1.
          2   -1    0    0  501    0  0.00000000000E+00 -0.00000000000E+00 -0.12781978549E+04  0.12781978549E+04  0.00000000000E+00 0. -1.
         24    2    1    2    0    0  0.24844154441E+00 -0.58624199510E+03  0.40730685056E+03  0.71832636380E+03  0.80088425297E+02 0.  0.
        254    2    1    2    0    0 -0.24844154441E+00  0.58624199510E+03 -0.86597637067E+03  0.13793998258E+04  0.89952713486E+03 0.  0.
         23    2    4    4    0    0 -0.35397358908E+03 -0.18071820554E+02 -0.28890021651E+03  0.46669100727E+03  0.93344891154E+02 0.  0.
         23    2    4    4    0    0  0.35372514754E+03  0.60431381566E+03 -0.57707615416E+03  0.91270881854E+03  0.98508029842E+02 0.  0.
          2    1    3    3  502    0 -0.52304023556E+01 -0.11179293326E+03  0.42103253380E+02  0.11957299437E+03  0.00000000000E+00 0. -1.
         -1    1    3    3    0  502  0.54788439000E+01 -0.47444906184E+03  0.36520359718E+03  0.59875336943E+03  0.00000000000E+00 0.  1.
         13    1    5    5    0    0 -0.11384515388E+03  0.32578352535E+02 -0.68279018955E+02  0.13668976752E+03  0.00000000000E+00 0.  1.
        -13    1    5    5    0    0 -0.24012843520E+03 -0.50650173089E+02 -0.22062119755E+03  0.33000123975E+03  0.00000000000E+00 0. -1.
          1    1    6    6  503    0  0.30496728377E+03  0.51928404372E+03 -0.44770895717E+03  0.75040274024E+03  0.00000000000E+00 0. -1.
         -1    1    6    6    0  503  0.48757863771E+02  0.85029771937E+02 -0.12936719699E+03  0.16230607830E+03  0.00000000000E+00 0.  1.
<mgrwt>
<rscale>  0 0.20469679E+04</rscale>
<asrwt>0</asrwt>
<pdfrwt beam="1">  1        2 0.19664582E+00 0.20469679E+04</pdfrwt>
<pdfrwt beam="2">  1       -1 0.12608128E+00 0.20469679E+04</pdfrwt>
<totfact> 0.98385163E+00</totfact>
</mgrwt>
</event>
<event>
12    7  0.1698542E-007  0.1763341E+04  0.7818608E-02  0.8726041E-01
         -1   -1    0    0    0  501 -0.00000000000E+00  0.00000000000E+00  0.83908476460E+03  0.83908476460E+03  0.00000000000E+00 0.  1.
          2   -1    0    0  501    0  0.00000000000E+00 -0.00000000000E+00 -0.92641788401E+03  0.92641788401E+03  0.00000000000E+00 0. -1.
         24    2    1    2    0    0  0.15099535302E+03  0.59918082451E+03 -0.21913918372E+03  0.66037919417E+03  0.79129268647E+02 0.  0.
        254    2    1    2    0    0 -0.15099535302E+03 -0.59918082451E+03  0.13180606431E+03  0.11051234544E+04  0.90670157927E+03 0.  0.
         23    2    4    4    0    0  0.14557761441E+03 -0.10033018687E+03 -0.31098928729E+03  0.36936047244E+03  0.91944731120E+02 0.  0.
         23    2    4    4    0    0 -0.29657296743E+03 -0.49885063764E+03  0.44279535160E+03  0.73576298199E+03  0.92043242986E+02 0.  0.
          4    1    3    3  502    0  0.85988298323E+02  0.26066240786E+03 -0.61221404440E+02  0.28122400089E+03  0.00000000000E+00 0. -1.
         -3    1    3    3    0  502  0.65007054701E+02  0.33851841666E+03 -0.15791777928E+03  0.37915519328E+03  0.00000000000E+00 0.  1.
         13    1    5    5    0    0  0.11120301262E+02 -0.44681130581E+02 -0.12498819939E+03  0.13319952897E+03  0.00000000000E+00 0. -1.
        -13    1    5    5    0    0  0.13445731314E+03 -0.55649056291E+02 -0.18600108790E+03  0.23616094348E+03  0.00000000000E+00 0.  1.
          3    1    6    6  503    0 -0.96290590053E+02 -0.90090757550E+02  0.11298572670E+03  0.17364906210E+03  0.00000000000E+00 0. -1.
         -3    1    6    6    0  503 -0.20028237738E+03 -0.40875988009E+03  0.32980962490E+03  0.56211391989E+03  0.00000000000E+00 0.  1.
<mgrwt>
<rscale>  0 0.17633413E+04</rscale>
<asrwt>0</asrwt>
<pdfrwt beam="1">  1        2 0.14252583E+00 0.17633413E+04</pdfrwt>
<pdfrwt beam="2">  1       -1 0.12908996E+00 0.17633413E+04</pdfrwt>
<totfact> 0.15700502E+01</totfact>
</mgrwt>
</event>
<event>
12    7  0.1698542E-007  0.1363448E+04  0.7818608E-02  0.8980710E-01
          2   -1    0    0  501    0  0.00000000000E+00  0.00000000000E+00  0.96753849807E+03  0.96753849807E+03  0.00000000000E+00 0. -1.
         -1   -1    0    0    0  501 -0.00000000000E+00 -0.00000000000E+00 -0.48034037597E+03  0.48034037597E+03  0.00000000000E+00 0.  1.
         24    2    1    2    0    0 -0.15491735321E+03 -0.13490162826E+03 -0.18312796401E+03  0.28668137178E+03  0.80327592340E+02 0.  0.
        254    2    1    2    0    0  0.15491735321E+03  0.13490162826E+03  0.67032608611E+03  0.11611975023E+04  0.92565908513E+03 0.  0.
         23    2    4    4    0    0 -0.12298415333E+03  0.46668006557E+03  0.24789315317E+03  0.55025174362E+03  0.91709216523E+02 0.  0.
         23    2    4    4    0    0  0.27790150653E+03 -0.33177843732E+03  0.42243293293E+03  0.61094575863E+03  0.86596526263E+02 0.  0.
          2    1    3    3  502    0 -0.44374245598E+02 -0.62330239266E+02 -0.24879180274E+02  0.80455615158E+02  0.00000000000E+00 0. -1.
         -1    1    3    3    0  502 -0.11054310761E+03 -0.72571388993E+02 -0.15824878373E+03  0.20622575662E+03  0.00000000000E+00 0.  1.
         13    1    5    5    0    0 -0.12217642762E+03  0.31211410432E+03  0.14935462811E+03  0.36694563428E+03  0.00000000000E+00 0. -1.
        -13    1    5    5    0    0 -0.80772570659E+00  0.15456596126E+03  0.98538525069E+02  0.18330610935E+03  0.00000000000E+00 0.  1.
          4    1    6    6  503    0  0.25759979133E+03 -0.29116312864E+03  0.33831440967E+03  0.51535449912E+03  0.00000000000E+00 0. -1.
         -4    1    6    6    0  503  0.20301715202E+02 -0.40615308680E+02  0.84118523260E+02  0.95591259510E+02  0.00000000000E+00 0.  1.
<mgrwt>
<rscale>  0 0.13634483E+04</rscale>
<asrwt>0</asrwt>
<pdfrwt beam="1">  1        2 0.14885208E+00 0.13634483E+04</pdfrwt>
<pdfrwt beam="2">  1       -1 0.73898519E-01 0.13634483E+04</pdfrwt>
<totfact> 0.54300168E+01</totfact>
</mgrwt>
</event>
<event>
12    7  0.1698542E-007  0.1581476E+04  0.7818608E-02  0.8832010E-01
          2   -1    0    0  501    0  0.00000000000E+00  0.00000000000E+00  0.88864152596E+03  0.88864152596E+03  0.00000000000E+00 0. -1.
         -1   -1    0    0    0  501 -0.00000000000E+00 -0.00000000000E+00 -0.70362068348E+03  0.70362068348E+03  0.00000000000E+00 0.  1.
         24    2    1    2    0    0 -0.40116961165E+03  0.30682277549E+03 -0.60411823541E+01  0.51124572640E+03  0.79110201658E+02 0.  0.
        254    2    1    2    0    0  0.40116961165E+03 -0.30682277549E+03  0.19106202483E+03  0.10810164830E+04  0.93649061202E+03 0.  0.
         23    2    4    4    0    0  0.30717213463E+03  0.30234119292E+03  0.62134088054E+02  0.44459878866E+03  0.89680102318E+02 0.  0.
         23    2    4    4    0    0  0.93997477025E+02 -0.60916396840E+03  0.12892793678E+03  0.63641769438E+03  0.92134698972E+02 0.  0.
          2    1    3    3  502    0 -0.39403068622E+03  0.30526238200E+03 -0.16230351476E+02  0.49870705615E+03  0.00000000000E+00 0. -1.
         -3    1    3    3    0  502 -0.71389254300E+01  0.15603934882E+01  0.10189169122E+02  0.12538670246E+02  0.00000000000E+00 0.  1.
         13    1    5    5    0    0  0.29695818716E+03  0.29188861683E+03  0.40318481277E+02  0.41834042296E+03  0.00000000000E+00 0. -1.
        -13    1    5    5    0    0  0.10213947471E+02  0.10452576086E+02  0.21815606777E+02  0.26258365692E+02  0.00000000000E+00 0.  1.
          4    1    6    6  503    0 -0.32835600120E+01 -0.59233786299E+00  0.75869315020E+01  0.82881940200E+01  0.00000000000E+00 0.  1.
         -4    1    6    6    0  503  0.97281037037E+02 -0.60857163054E+03  0.12134100528E+03  0.62812950036E+03  0.00000000000E+00 0. -1.
<mgrwt>
<rscale>  0 0.15814760E+04</rscale>
<asrwt>0</asrwt>
<pdfrwt beam="1">  1        2 0.13671408E+00 0.15814760E+04</pdfrwt>
<pdfrwt beam="2">  1       -1 0.10824934E+00 0.15814760E+04</pdfrwt>
<totfact> 0.25937303E+01</totfact>
</mgrwt>
</event>
<event>
12    7  0.1698542E-007  0.1306714E+04  0.7818608E-02  0.9024258E-01
         -1   -1    0    0    0  501 -0.00000000000E+00  0.00000000000E+00  0.33711606238E+03  0.33711606238E+03  0.00000000000E+00 0.  1.
          2   -1    0    0  501    0  0.00000000000E+00 -0.00000000000E+00 -0.12662564205E+04  0.12662564205E+04  0.00000000000E+00 0. -1.
         24    2    1    2    0    0  0.34460983296E+02  0.14850226509E+03 -0.65515021998E+03  0.67695244368E+03  0.76172949007E+02 0.  0.
        254    2    1    2    0    0 -0.34460983296E+02 -0.14850226509E+03 -0.27399013810E+03  0.92642003917E+03  0.87174710271E+03 0.  0.
         23    2    4    4    0    0  0.18188606964E+03 -0.29588644980E+03 -0.46621308991E+03  0.58925397878E+03  0.96095123722E+02 0.  0.
         23    2    4    4    0    0 -0.21634705293E+03  0.14738418471E+03  0.19222295181E+03  0.33716606038E+03  0.90571208757E+02 0.  0.
          2    1    3    3  502    0  0.21155496812E+02  0.15436466225E+03 -0.60451003569E+03  0.62426627913E+03  0.00000000000E+00 0. -1.
         -1    1    3    3    0  502  0.13305486484E+02 -0.58623971664E+01 -0.50640184286E+02  0.52686164556E+02  0.00000000000E+00 0.  1.
         13    1    5    5    0    0  0.94187387189E+02 -0.20741131125E+03 -0.35753656802E+03  0.42393762915E+03  0.00000000000E+00 0. -1.
        -13    1    5    5    0    0  0.87698682449E+02 -0.88475138553E+02 -0.10867652189E+03  0.16531634963E+03  0.00000000000E+00 0.  1.
          1    1    6    6  503    0 -0.62632337804E+02  0.56456388561E+02  0.11497477248E+03  0.14258096596E+03  0.00000000000E+00 0. -1.
         -1    1    6    6    0  503 -0.15371471513E+03  0.90927796152E+02  0.77248179325E+02  0.19458509442E+03  0.00000000000E+00 0.  1.
<mgrwt>
<rscale>  0 0.13067140E+04</rscale>
<asrwt>0</asrwt>
<pdfrwt beam="1">  1        2 0.19480868E+00 0.13067140E+04</pdfrwt>
<pdfrwt beam="2">  1       -1 0.51864011E-01 0.13067140E+04</pdfrwt>
<totfact> 0.72298988E+01</totfact>
</mgrwt>
</event>
<event>
12    7  0.1698542E-007  0.1245976E+04  0.7818608E-02  0.9073539E-01
         -1   -1    0    0    0  501 -0.00000000000E+00  0.00000000000E+00  0.15421524600E+03  0.15421524600E+03  0.00000000000E+00 0.  1.
          2   -1    0    0  501    0  0.00000000000E+00 -0.00000000000E+00 -0.25167043626E+04  0.25167043626E+04  0.00000000000E+00 0. -1.
         24    2    1    2    0    0 -0.83157156255E+02 -0.73130227841E+02  0.88079442737E+00  0.13272493566E+03  0.73157295514E+02 0.  0.
        254    2    1    2    0    0  0.83157156255E+02  0.73130227841E+02 -0.23633699110E+04  0.25381946729E+04  0.91904935585E+03 0.  0.
         23    2    4    4    0    0  0.45708354260E+03 -0.13639165626E+03 -0.11566288517E+04  0.12543539743E+04  0.89919650492E+02 0.  0.
         23    2    4    4    0    0 -0.37392638634E+03  0.20952188410E+03 -0.12067410593E+04  0.12838406986E+04  0.91118564417E+02 0.  0.
          2    1    3    3  502    0 -0.19026265784E+02 -0.48774439944E+02 -0.26722508643E+02  0.58779564899E+02  0.00000000000E+00 0. -1.
         -1    1    3    3    0  502 -0.64130890471E+02 -0.24355787897E+02  0.27603303071E+02  0.73945370762E+02  0.00000000000E+00 0.  1.
         13    1    5    5    0    0  0.17113926712E+03 -0.13131923122E+02 -0.35325544582E+03  0.39274738211E+03  0.00000000000E+00 0. -1.
        -13    1    5    5    0    0  0.28594427547E+03 -0.12325973313E+03 -0.80337340588E+03  0.86160659222E+03  0.00000000000E+00 0.  1.
          2    1    6    6  503    0 -0.12669629981E+02  0.14641512958E+02 -0.13146343609E+03  0.13288163324E+03  0.00000000000E+00 0. -1.
         -2    1    6    6    0  503 -0.36125675636E+03  0.19488037114E+03 -0.10752776232E+04  0.11509590653E+04  0.00000000000E+00 0.  1.
<mgrwt>
<rscale>  0 0.12459762E+04</rscale>
<asrwt>0</asrwt>
<pdfrwt beam="1">  1        2 0.38718528E+00 0.12459762E+04</pdfrwt>
<pdfrwt beam="2">  1       -1 0.23725423E-01 0.12459762E+04</pdfrwt>
<totfact> 0.58777728E+01</totfact>
</mgrwt>
</event>
<event>
12    7  0.1698542E-007  0.1159635E+04  0.7818608E-02  0.9148940E-01
          2   -1    0    0  501    0  0.00000000000E+00  0.00000000000E+00  0.93194877453E+03  0.93194877453E+03  0.00000000000E+00 0. -1.
         -1   -1    0    0    0  501 -0.00000000000E+00 -0.00000000000E+00 -0.36073703654E+03  0.36073703654E+03  0.00000000000E+00 0.  1.
         24    2    1    2    0    0 -0.10406570075E+03 -0.83929592998E+01  0.32502709364E+03  0.35046728928E+03  0.79275452783E+02 0.  0.
        254    2    1    2    0    0  0.10406570075E+03  0.83929592998E+01  0.24618464435E+03  0.94221852179E+03  0.90347592766E+03 0.  0.
         23    2    4    4    0    0 -0.37569158616E+03 -0.11339160340E+03  0.14785111101E+03  0.42937332437E+03  0.92193692973E+02 0.  0.
         23    2    4    4    0    0  0.47975728690E+03  0.12178456270E+03  0.98333533340E+02  0.51284519742E+03  0.91335528095E+02 0.  0.
          2    1    3    3  502    0 -0.25229188216E+02 -0.20651203883E+01  0.20606179334E+03  0.20761078810E+03  0.00000000000E+00 0. -1.
         -1    1    3    3    0  502 -0.78836512529E+02 -0.63278389115E+01  0.11896530031E+03  0.14285650118E+03  0.00000000000E+00 0.  1.
         13    1    5    5    0    0 -0.10435744469E+02 -0.13057632058E+02 -0.94754695410E+01  0.19214344657E+02  0.00000000000E+00 0.  1.
        -13    1    5    5    0    0 -0.36525584169E+03 -0.10033397134E+03  0.15732658055E+03  0.41015897971E+03  0.00000000000E+00 0. -1.
          1    1    6    6  503    0  0.46217512725E+03  0.13222564013E+03  0.10354505419E+03  0.49174286614E+03  0.00000000000E+00 0. -1.
         -1    1    6    6    0  503  0.17582159655E+02 -0.10441077430E+02 -0.52115208450E+01  0.21102331282E+02  0.00000000000E+00 0.  1.
<mgrwt>
<rscale>  0 0.11596352E+04</rscale>
<asrwt>0</asrwt>
<pdfrwt beam="1">  1        2 0.14337673E+00 0.11596352E+04</pdfrwt>
<pdfrwt beam="2">  1       -1 0.55498006E-01 0.11596352E+04</pdfrwt>
<totfact> 0.10340137E+02</totfact>
</mgrwt>
</event>
<event>
12    7  0.1698542E-007  0.1407976E+04  0.7818608E-02  0.8948066E-01
          2   -1    0    0  501    0  0.00000000000E+00  0.00000000000E+00  0.64107920338E+03  0.64107920338E+03  0.00000000000E+00 0. -1.
         -1   -1    0    0    0  501 -0.00000000000E+00 -0.00000000000E+00 -0.77306961491E+03  0.77306961491E+03  0.00000000000E+00 0.  1.
         24    2    1    2    0    0 -0.19146970503E+03 -0.17218443932E+03  0.27938176135E+03  0.38815712945E+03  0.79395588570E+02 0.  0.
        254    2    1    2    0    0  0.19146970503E+03  0.17218443932E+03 -0.41137217288E+03  0.10259916888E+04  0.90394897636E+03 0.  0.
         23    2    4    4    0    0  0.12323270668E+03  0.15081025446E+03 -0.69057600569E+03  0.72341315334E+03  0.92202700335E+02 0.  0.
         23    2    4    4    0    0  0.68236998349E+02  0.21374184859E+02  0.27920383281E+03  0.30257853550E+03  0.92118652653E+02 0.  0.
          2    1    3    3  502    0 -0.60280498685E+02 -0.98455044192E+02  0.15282728467E+03  0.19152888343E+03  0.00000000000E+00 0. -1.
         -1    1    3    3    0  502 -0.13118920634E+03 -0.73729395127E+02  0.12655447668E+03  0.19662824602E+03  0.00000000000E+00 0.  1.
         13    1    5    5    0    0  0.45708831078E+02  0.52027288592E-01 -0.16130446304E+03  0.16765568807E+03  0.00000000000E+00 0.  1.
        -13    1    5    5    0    0  0.77523875598E+02  0.15075822717E+03 -0.52927154264E+03  0.55575746527E+03  0.00000000000E+00 0. -1.
          3    1    6    6  503    0  0.68054607762E+02 -0.19686132260E+02  0.21496482310E+03  0.22633790803E+03  0.00000000000E+00 0. -1.
         -3    1    6    6    0  503  0.18239058717E+00  0.41060317119E+02  0.64239009707E+02  0.76240627466E+02  0.00000000000E+00 0.  1.
<mgrwt>
<rscale>  0 0.14079756E+04</rscale>
<asrwt>0</asrwt>
<pdfrwt beam="1">  1        2 0.98627570E-01 0.14079756E+04</pdfrwt>
<pdfrwt beam="2">  1       -1 0.11893379E+00 0.14079756E+04</pdfrwt>
<totfact> 0.32176623E+01</totfact>
</mgrwt>
</event>
<event>
12    7  0.1698542E-007  0.1276595E+04  0.7818608E-02  0.9048334E-01
          2   -1    0    0  501    0  0.00000000000E+00  0.00000000000E+00  0.13350407424E+03  0.13350407424E+03  0.00000000000E+00 0. -1.
         -1   -1    0    0    0  501 -0.00000000000E+00 -0.00000000000E+00 -0.30517707292E+04  0.30517707292E+04  0.00000000000E+00 0.  1.
         24    2    1    2    0    0  0.16080828912E+03 -0.30704923737E+03 -0.56780414227E+03  0.67017320108E+03  0.81191350762E+02 0.  0.
        254    2    1    2    0    0 -0.16080828912E+03  0.30704923737E+03 -0.23504625127E+04  0.25151016023E+04  0.82518089329E+03 0.  0.
         23    2    4    4    0    0 -0.28356886319E+03 -0.12006266614E+03 -0.40112098566E+03  0.51372050886E+03  0.90467519727E+02 0.  0.
         23    2    4    4    0    0  0.12276057407E+03  0.42711190351E+03 -0.19493415270E+04  0.20013810935E+04  0.89995309586E+02 0.  0.
          2    1    3    3  502    0  0.15764195850E+03 -0.30830323107E+03 -0.53556857520E+03  0.63775823641E+03  0.00000000000E+00 0. -1.
         -1    1    3    3    0  502  0.31663306165E+01  0.12539936969E+01 -0.32235567072E+02  0.32414964665E+02  0.00000000000E+00 0.  1.
         13    1    5    5    0    0 -0.11287303208E+03 -0.35393781706E+02 -0.22524232544E+03  0.25441530285E+03  0.00000000000E+00 0.  1.
        -13    1    5    5    0    0 -0.17069583110E+03 -0.84668884433E+02 -0.17587866022E+03  0.25930520602E+03  0.00000000000E+00 0. -1.
          2    1    6    6  503    0  0.15148902226E+02  0.21081077409E+03 -0.95561331702E+03  0.97870704676E+03  0.00000000000E+00 0. -1.
         -2    1    6    6    0  503  0.10761167184E+03  0.21630112943E+03 -0.99372820997E+03  0.10226740467E+04  0.00000000000E+00 0.  1.
<mgrwt>
<rscale>  0 0.12765952E+04</rscale>
<asrwt>0</asrwt>
<pdfrwt beam="1">  1        2 0.20539091E-01 0.12765952E+04</pdfrwt>
<pdfrwt beam="2">  1       -1 0.46950314E+00 0.12765952E+04</pdfrwt>
<totfact> 0.74790159E-01</totfact>
</mgrwt>
</event>
<event>
12    7  0.1698542E-007  0.2296826E+04  0.7818608E-02  0.8479174E-01
          2   -1    0    0  501    0  0.00000000000E+00  0.00000000000E+00  0.14978957466E+04  0.14978957466E+04  0.00000000000E+00 0. -1.
         -1   -1    0    0    0  501 -0.00000000000E+00 -0.00000000000E+00 -0.88047011262E+03  0.88047011262E+03  0.00000000000E+00 0.  1.
         24    2    1    2    0    0 -0.62711894260E+03  0.70417117814E+03  0.45472625258E+03  0.10498430845E+04  0.79115871272E+02 0.  0.
        254    2    1    2    0    0  0.62711894260E+03 -0.70417117814E+03  0.16269938142E+03  0.13285227747E+04  0.92161079522E+03 0.  0.
         23    2    4    4    0    0  0.63176542729E+03 -0.52945550213E+03  0.47645245045E+03  0.95645620695E+03  0.91383009420E+02 0.  0.
         23    2    4    4    0    0 -0.46464846930E+01 -0.17471567601E+03 -0.31375306903E+03  0.37206656774E+03  0.97187371834E+02 0.  0.
          4    1    3    3  502    0 -0.55314145017E+03  0.63204487947E+03  0.37745547678E+03  0.92082508139E+03  0.00000000000E+00 0. -1.
         -3    1    3    3    0  502 -0.73977492426E+02  0.72126298672E+02  0.77270775792E+02  0.12901800315E+03  0.00000000000E+00 0.  1.
         13    1    5    5    0    0  0.47536875858E+03 -0.43834391700E+03  0.34626394034E+03  0.73349816809E+03  0.00000000000E+00 0.  1.
        -13    1    5    5    0    0  0.15639666871E+03 -0.91111585139E+02  0.13018851011E+03  0.22295803887E+03  0.00000000000E+00 0. -1.
          4    1    6    6  503    0 -0.12282665024E+02 -0.18409862011E+03 -0.30708822343E+03  0.35825457814E+03  0.00000000000E+00 0. -1.
         -4    1    6    6    0  503  0.76361803307E+01  0.93829440999E+01 -0.66648455955E+01  0.13811989605E+02  0.00000000000E+00 0.  1.
<mgrwt>
<rscale>  0 0.22968260E+04</rscale>
<asrwt>0</asrwt>
<pdfrwt beam="1">  1        2 0.23044550E+00 0.22968260E+04</pdfrwt>
<pdfrwt beam="2">  1       -1 0.13545694E+00 0.22968260E+04</pdfrwt>
<totfact> 0.60049511E+00</totfact>
</mgrwt>
</event>
<event>
12    7  0.1698542E-007  0.1947382E+04  0.7818608E-02  0.8631624E-01
          2   -1    0    0  501    0  0.00000000000E+00  0.00000000000E+00  0.12987401815E+04  0.12987401815E+04  0.00000000000E+00 0. -1.
         -1   -1    0    0    0  501 -0.00000000000E+00 -0.00000000000E+00 -0.72999504056E+03  0.72999504056E+03  0.00000000000E+00 0.  1.
         24    2    1    2    0    0 -0.70697488908E+03  0.56322674941E+02 -0.79103615312E+02  0.71792745403E+03  0.78592046591E+02 0.  0.
        254    2    1    2    0    0  0.70697488908E+03 -0.56322674941E+02  0.64784875626E+03  0.13108077680E+04  0.89192110427E+03 0.  0.
         23    2    4    4    0    0 -0.50022891542E+02 -0.20184444601E+03  0.45964403397E+03  0.51196279773E+03  0.87119448075E+02 0.  0.
         23    2    4    4    0    0  0.75699778062E+03  0.14552177107E+03  0.18820472229E+03  0.79884497030E+03  0.92249896235E+02 0.  0.
          4    1    3    3  502    0 -0.69316274697E+03  0.66369027079E+02 -0.74985760441E+02  0.70035869796E+03  0.00000000000E+00 0. -1.
         -3    1    3    3    0  502 -0.13812142115E+02 -0.10046352138E+02 -0.41178548706E+01  0.17568756069E+02  0.00000000000E+00 0.  1.
         13    1    5    5    0    0  0.16983994910E+02 -0.10753285666E+03  0.24578996617E+03  0.26882053272E+03  0.00000000000E+00 0. -1.
        -13    1    5    5    0    0 -0.67006886452E+02 -0.94311589357E+02  0.21385406780E+03  0.24314226501E+03  0.00000000000E+00 0.  1.
          1    1    6    6  503    0  0.57321444691E+02  0.35569383809E+02  0.25610853026E+02  0.72158470596E+02  0.00000000000E+00 0. -1.
         -1    1    6    6    0  503  0.69967633593E+03  0.10995238726E+03  0.16259386926E+03  0.72668649970E+03  0.00000000000E+00 0.  1.
<mgrwt>
<rscale>  0 0.19473817E+04</rscale>
<asrwt>0</asrwt>
<pdfrwt beam="1">  1        2 0.19980618E+00 0.19473817E+04</pdfrwt>
<pdfrwt beam="2">  1       -1 0.11230693E+00 0.19473817E+04</pdfrwt>
<totfact> 0.12795235E+01</totfact>
</mgrwt>
</event>
<event>
12    7  0.1698542E-007  0.1309387E+04  0.7818608E-02  0.9022154E-01
         -1   -1    0    0    0  501 -0.00000000000E+00  0.00000000000E+00  0.20979253121E+03  0.20979253121E+03  0.00000000000E+00 0.  1.
          2   -1    0    0  501    0  0.00000000000E+00 -0.00000000000E+00 -0.20430845946E+04  0.20430845946E+04  0.00000000000E+00 0. -1.
         24    2    1    2    0    0 -0.28513077715E+03  0.72784993292E+02 -0.74180484581E+03  0.80187384976E+03  0.78294484626E+02 0.  0.
        254    2    1    2    0    0  0.28513077715E+03 -0.72784993292E+02 -0.10914872176E+04  0.14510032761E+04  0.90965320077E+03 0.  0.
         23    2    4    4    0    0  0.46416322671E+03 -0.21713507252E+03 -0.10856269464E+04  0.12041398874E+04  0.93658213604E+02 0.  0.
         23    2    4    4    0    0 -0.17903244956E+03  0.14435007922E+03 -0.58602711848E+01  0.24686338865E+03  0.89541200065E+02 0.  0.
          4    1    3    3  502    0 -0.26569447472E+03  0.54715998081E+02 -0.71221452010E+03  0.76212657543E+03  0.00000000000E+00 0. -1.
         -3    1    3    3    0  502 -0.19436302434E+02  0.18068995212E+02 -0.29590325716E+02  0.39747274325E+02  0.00000000000E+00 0.  1.
         13    1    5    5    0    0  0.14589026733E+03 -0.54635812070E+02 -0.24027959090E+03  0.28636222493E+03  0.00000000000E+00 0. -1.
        -13    1    5    5    0    0  0.31827295938E+03 -0.16249926045E+03 -0.84534735548E+03  0.91777766247E+03  0.00000000000E+00 0.  1.
          1    1    6    6  503    0 -0.13348385709E+03  0.56745287847E+02 -0.22353002804E+02  0.14675702549E+03  0.00000000000E+00 0. -1.
         -1    1    6    6    0  503 -0.45548592468E+02  0.87604791378E+02  0.16492731619E+02  0.10010636316E+03  0.00000000000E+00 0.  1.
<mgrwt>
<rscale>  0 0.13093875E+04</rscale>
<asrwt>0</asrwt>
<pdfrwt beam="1">  1        2 0.31432071E+00 0.13093875E+04</pdfrwt>
<pdfrwt beam="2">  1       -1 0.32275774E-01 0.13093875E+04</pdfrwt>
<totfact> 0.63326076E+01</totfact>
</mgrwt>
</event>
<event>
12    7  0.1698542E-007  0.1402430E+04  0.7818608E-02  0.8952062E-01
         -1   -1    0    0    0  501 -0.00000000000E+00  0.00000000000E+00  0.42355137777E+03  0.42355137777E+03  0.00000000000E+00 0.  1.
          2   -1    0    0  501    0  0.00000000000E+00 -0.00000000000E+00 -0.11609036046E+04  0.11609036046E+04  0.00000000000E+00 0. -1.
         24    2    1    2    0    0 -0.20493400437E+03 -0.53310149396E+02 -0.60715831684E+03  0.65000866610E+03  0.95026975794E+02 0.  0.
        254    2    1    2    0    0  0.20493400437E+03  0.53310149396E+02 -0.13019390999E+03  0.93444631627E+03  0.90077718977E+03 0.  0.
         23    2    4    4    0    0 -0.40193796793E+01 -0.39462507935E+02  0.36702474803E+03  0.37960302682E+03  0.88418591677E+02 0.  0.
         23    2    4    4    0    0  0.20895338405E+03  0.92772657331E+02 -0.49721865803E+03  0.55484328945E+03  0.91413343169E+02 0.  0.
          4    1    3    3  502    0 -0.67708381091E+02 -0.44709365905E+02 -0.33997188706E+03  0.34952000838E+03  0.00000000000E+00 0. -1.
         -1    1    3    3    0  502 -0.13722562328E+03 -0.86007834912E+01 -0.26718642978E+03  0.30048865772E+03  0.00000000000E+00 0.  1.
         13    1    5    5    0    0 -0.99699178406E+01 -0.44735554319E+02  0.36864973417E+03  0.37148794810E+03  0.00000000000E+00 0.  1.
        -13    1    5    5    0    0  0.59505381613E+01  0.52730463841E+01 -0.16249861375E+01  0.81150787134E+01  0.00000000000E+00 0. -1.
          3    1    6    6  503    0 -0.48690137889E+01  0.84161357160E+01 -0.36697320517E+01  0.10392572781E+02  0.00000000000E+00 0. -1.
         -3    1    6    6    0  503  0.21382239784E+03  0.84356521615E+02 -0.49354892597E+03  0.54445071667E+03  0.00000000000E+00 0.  1.
<mgrwt>
<rscale>  0 0.14024298E+04</rscale>
<asrwt>0</asrwt>
<pdfrwt beam="1">  1        2 0.17860056E+00 0.14024298E+04</pdfrwt>
<pdfrwt beam="2">  1       -1 0.65161750E-01 0.14024298E+04</pdfrwt>
<totfact> 0.52982532E+01</totfact>
</mgrwt>
</event>
<event>
12    7  0.1698542E-007  0.1526382E+04  0.7818608E-02  0.8867096E-01
          2   -1    0    0  501    0  0.00000000000E+00  0.00000000000E+00  0.34620435692E+03  0.34620435692E+03  0.00000000000E+00 0. -1.
         -1   -1    0    0    0  501 -0.00000000000E+00 -0.00000000000E+00 -0.16824180963E+04  0.16824180963E+04  0.00000000000E+00 0.  1.
         24    2    1    2    0    0 -0.42169089711E+03 -0.24696244556E+03 -0.36352663298E+03  0.61439326514E+03  0.80708172694E+02 0.  0.
        254    2    1    2    0    0  0.42169089711E+03  0.24696244556E+03 -0.97268710643E+03  0.14142291881E+04  0.90283460680E+03 0.  0.
         23    2    4    4    0    0  0.64337309427E+03  0.37863017982E+03 -0.74856216885E+03  0.10610606634E+04  0.90634757623E+02 0.  0.
         23    2    4    4    0    0 -0.22168219716E+03 -0.13166773427E+03 -0.22412493757E+03  0.35316852469E+03  0.89535637644E+02 0.  0.
          4    1    3    3  502    0 -0.12343958666E+02  0.58096852791E+01 -0.55807578552E+01  0.14740102334E+02  0.00000000000E+00 0. -1.
         -3    1    3    3    0  502 -0.40934693845E+03 -0.25277213084E+03 -0.35794587513E+03  0.59965316281E+03  0.00000000000E+00 0.  1.
         13    1    5    5    0    0  0.47174142465E+03  0.25142776938E+03 -0.58143110718E+03  0.78982151613E+03  0.00000000000E+00 0.  1.
        -13    1    5    5    0    0  0.17163166962E+03  0.12720241045E+03 -0.16713106167E+03  0.27123914728E+03  0.00000000000E+00 0. -1.
          4    1    6    6  503    0 -0.48746937123E+02 -0.44488539784E+02 -0.11027907942E+03  0.12851836215E+03  0.00000000000E+00 0. -1.
         -4    1    6    6    0  503 -0.17293526003E+03 -0.87179194482E+02 -0.11384585815E+03  0.22465016255E+03  0.00000000000E+00 0.  1.
<mgrwt>
<rscale>  0 0.15263820E+04</rscale>
<asrwt>0</asrwt>
<pdfrwt beam="1">  1        2 0.53262208E-01 0.15263820E+04</pdfrwt>
<pdfrwt beam="2">  1       -1 0.25883356E+00 0.15263820E+04</pdfrwt>
<totfact> 0.63086880E+00</totfact>
</mgrwt>
</event>
<event>
12    7  0.1698542E-007  0.2232719E+04  0.7818608E-02  0.8504932E-01
         -1   -1    0    0    0  501 -0.00000000000E+00  0.00000000000E+00  0.68159825777E+03  0.68159825777E+03  0.00000000000E+00 0.  1.
          2   -1    0    0  501    0  0.00000000000E+00 -0.00000000000E+00 -0.18284363761E+04  0.18284363761E+04  0.00000000000E+00 0. -1.
         24    2    1    2    0    0 -0.25117740806E+03 -0.88015710680E+03 -0.67055882352E+03  0.11374440462E+04  0.79769664885E+02 0.  0.
        254    2    1    2    0    0  0.25117740806E+03  0.88015710680E+03 -0.47627929486E+03  0.13725905877E+04  0.90520513247E+03 0.  0.
         23    2    4    4    0    0  0.25051868055E+03  0.24469588587E+03 -0.61702195602E+03  0.71494012974E+03  0.88247430751E+02 0.  0.
         23    2    4    4    0    0  0.65872750594E+00  0.63546122093E+03  0.14074266115E+03  0.65765045800E+03  0.94256198762E+02 0.  0.
          4    1    3    3  502    0 -0.25661766144E+03 -0.87171898291E+03 -0.66244565979E+03  0.11245358427E+04  0.00000000000E+00 0. -1.
         -3    1    3    3    0  502  0.54402533847E+01 -0.84381238849E+01 -0.81131637296E+01  0.12908203488E+02  0.00000000000E+00 0.  1.
         13    1    5    5    0    0  0.22284569550E+03  0.19626406617E+03 -0.45264703357E+03  0.54135859158E+03  0.00000000000E+00 0. -1.
        -13    1    5    5    0    0  0.27672985052E+02  0.48431819698E+02 -0.16437492245E+03  0.17358153816E+03  0.00000000000E+00 0.  1.
          3    1    6    6  503    0 -0.41604193460E+02  0.41339486017E+03  0.10752030905E+03  0.42916993859E+03  0.00000000000E+00 0. -1.
         -3    1    6    6    0  503  0.42262920966E+02  0.22206636076E+03  0.33222352101E+02  0.22848051941E+03  0.00000000000E+00 0.  1.
<mgrwt>
<rscale>  0 0.22327195E+04</rscale>
<asrwt>0</asrwt>
<pdfrwt beam="1">  1        2 0.28129790E+00 0.22327195E+04</pdfrwt>
<pdfrwt beam="2">  1       -1 0.10486127E+00 0.22327195E+04</pdfrwt>
<totfact> 0.73743014E+00</totfact>
</mgrwt>
</event>
<event>
12    7  0.1698542E-007  0.1520506E+04  0.7818608E-02  0.8870930E-01
          2   -1    0    0  501    0  0.00000000000E+00  0.00000000000E+00  0.21822494558E+04  0.21822494558E+04  0.00000000000E+00 0. -1.
         -1   -1    0    0    0  501 -0.00000000000E+00 -0.00000000000E+00 -0.26485740061E+03  0.26485740061E+03  0.00000000000E+00 0.  1.
         24    2    1    2    0    0 -0.45784346139E+03 -0.55716938434E+02  0.34959040183E+03  0.58198487889E+03  0.61383530663E+02 0.  0.
        254    2    1    2    0    0  0.45784346139E+03  0.55716938434E+02  0.15678016534E+04  0.18651219776E+04  0.89886203303E+03 0.  0.
         23    2    4    4    0    0  0.21198208465E+03 -0.40941235058E+03  0.83724401457E+03  0.96013202733E+03  0.91220024984E+02 0.  0.
         23    2    4    4    0    0  0.24586137674E+03  0.46512928901E+03  0.73055763883E+03  0.90498995023E+03  0.92191508813E+02 0.  0.
          2    1    3    3  502    0 -0.32897735886E+02  0.11335835258E+02  0.31746009770E+02  0.47101712535E+02  0.00000000000E+00 0. -1.
         -1    1    3    3    0  502 -0.42494572550E+03 -0.67052773692E+02  0.31784439206E+03  0.53488316635E+03  0.00000000000E+00 0.  1.
         13    1    5    5    0    0  0.15516166777E+03 -0.36885890360E+03  0.71375384090E+03  0.81827659096E+03  0.00000000000E+00 0. -1.
        -13    1    5    5    0    0  0.56820416876E+02 -0.40553446978E+02  0.12349017367E+03  0.14185543637E+03  0.00000000000E+00 0.  1.
          3    1    6    6  503    0  0.24776407581E+03  0.44292071297E+03  0.67038930571E+03  0.84082555649E+03  0.00000000000E+00 0. -1.
         -3    1    6    6    0  503 -0.19026990735E+01  0.22208576049E+02  0.60168333115E+02  0.64164393737E+02  0.00000000000E+00 0.  1.
<mgrwt>
<rscale>  0 0.15205064E+04</rscale>
<asrwt>0</asrwt>
<pdfrwt beam="1">  1        2 0.33573067E+00 0.15205064E+04</pdfrwt>
<pdfrwt beam="2">  1       -1 0.40747294E-01 0.15205064E+04</pdfrwt>
<totfact> 0.34213115E+01</totfact>
</mgrwt>
</event>
<event>
12    7  0.1698542E-007  0.1190836E+04  0.7818608E-02  0.9120916E-01
         -1   -1    0    0    0  501 -0.00000000000E+00  0.00000000000E+00  0.42683781129E+03  0.42683781129E+03  0.00000000000E+00 0.  1.
          2   -1    0    0  501    0  0.00000000000E+00 -0.00000000000E+00 -0.83057946887E+03  0.83057946887E+03  0.00000000000E+00 0. -1.
         24    2    1    2    0    0  0.19674629977E+03 -0.17368014872E+03 -0.83077552155E+02  0.28691472397E+03  0.80896715785E+02 0.  0.
        254    2    1    2    0    0 -0.19674629977E+03  0.17368014872E+03 -0.32066410542E+03  0.97050255619E+03  0.87759662860E+03 0.  0.
         23    2    4    4    0    0 -0.13856531060E+03 -0.21091214050E+02  0.28211147106E+03  0.32759950030E+03  0.89940902166E+02 0.  0.
         23    2    4    4    0    0 -0.58180989176E+02  0.19477136277E+03 -0.60277557648E+03  0.64290305589E+03  0.93086155890E+02 0.  0.
          4    1    3    3  502    0  0.10581312470E+03 -0.12492929162E+03 -0.83400414267E+02  0.18373724272E+03  0.00000000000E+00 0. -1.
         -3    1    3    3    0  502  0.90933175072E+02 -0.48750857104E+02  0.32286211159E+00  0.10317748125E+03  0.00000000000E+00 0.  1.
         13    1    5    5    0    0  0.83381958522E+01 -0.10015193150E+02  0.57693392414E+02  0.59146911434E+02  0.00000000000E+00 0. -1.
        -13    1    5    5    0    0 -0.14690350645E+03 -0.11076020901E+02  0.22441807864E+03  0.26845258887E+03  0.00000000000E+00 0.  1.
          1    1    6    6  503    0  0.86304623957E+01 -0.64430310973E+01 -0.42808687647E+02  0.44142737443E+02  0.00000000000E+00 0. -1.
         -1    1    6    6    0  503 -0.66811451572E+02  0.20121439387E+03 -0.55996688883E+03  0.59876031845E+03  0.00000000000E+00 0.  1.
<mgrwt>
<rscale>  0 0.11908362E+04</rscale>
<asrwt>0</asrwt>
<pdfrwt beam="1">  1        2 0.12778145E+00 0.11908362E+04</pdfrwt>
<pdfrwt beam="2">  1       -1 0.65667357E-01 0.11908362E+04</pdfrwt>
<totfact> 0.86785242E+01</totfact>
</mgrwt>
</event>
<event>
12    7  0.1698542E-007  0.2408078E+04  0.7818608E-02  0.8436485E-01
          2   -1    0    0  501    0  0.00000000000E+00  0.00000000000E+00  0.19580170961E+04  0.19580170961E+04  0.00000000000E+00 0. -1.
         -1   -1    0    0    0  501 -0.00000000000E+00 -0.00000000000E+00 -0.74039698573E+03  0.74039698573E+03  0.00000000000E+00 0.  1.
         24    2    1    2    0    0  0.80364943553E+03  0.25935289247E+03 -0.14479275728E+03  0.86049367625E+03  0.79800289713E+02 0.  0.
        254    2    1    2    0    0 -0.80364943553E+03 -0.25935289247E+03  0.13624128676E+04  0.18379204056E+04  0.89925872655E+03 0.  0.
         23    2    4    4    0    0 -0.63927569591E+03  0.92462236709E+02  0.32999498153E+03  0.73108599192E+03  0.91473270145E+02 0.  0.
         23    2    4    4    0    0 -0.16437373962E+03 -0.35181512918E+03  0.10324178861E+04  0.11068344137E+04  0.91668513161E+02 0.  0.
          4    1    3    3  502    0  0.78584918380E+02  0.12632399740E+02  0.62938119147E+01  0.79842213073E+02  0.00000000000E+00 0. -1.
         -3    1    3    3    0  502  0.72506451715E+03  0.24672049273E+03 -0.15108656920E+03  0.78065146317E+03  0.00000000000E+00 0.  1.
         13    1    5    5    0    0 -0.61989953915E+03  0.10568473092E+03  0.31608703427E+03  0.70381511366E+03  0.00000000000E+00 0. -1.
        -13    1    5    5    0    0 -0.19376156762E+02 -0.13222494213E+02  0.13907947259E+02  0.27270878259E+02  0.00000000000E+00 0.  1.
          4    1    6    6  503    0 -0.50444704479E+02 -0.64272769481E+02  0.13710591257E+03  0.15960478805E+03  0.00000000000E+00 0.  1.
         -4    1    6    6    0  503 -0.11392903514E+03 -0.28754235970E+03  0.89531197353E+03  0.94722962560E+03  0.00000000000E+00 0. -1.
<mgrwt>
<rscale>  0 0.24080780E+04</rscale>
<asrwt>0</asrwt>
<pdfrwt beam="1">  1        2 0.30123340E+00 0.24080780E+04</pdfrwt>
<pdfrwt beam="2">  1       -1 0.11390723E+00 0.24080780E+04</pdfrwt>
<totfact> 0.50635943E+00</totfact>
</mgrwt>
</event>
<event>
12    7  0.1698542E-007  0.1660758E+04  0.7818608E-02  0.8784067E-01
         -1   -1    0    0    0  501 -0.00000000000E+00  0.00000000000E+00  0.52791527575E+03  0.52791527575E+03  0.00000000000E+00 0.  1.
          2   -1    0    0  501    0  0.00000000000E+00 -0.00000000000E+00 -0.13061363257E+04  0.13061363257E+04  0.00000000000E+00 0. -1.
         24    2    1    2    0    0 -0.12242658507E+03 -0.29090996844E+03 -0.81874574190E+03  0.88130469289E+03  0.82076143728E+02 0.  0.
        254    2    1    2    0    0  0.12242658507E+03  0.29090996844E+03  0.40524691985E+02  0.95274690852E+03  0.89803537935E+03 0.  0.
         23    2    4    4    0    0  0.38644397926E+03 -0.14281962462E+03 -0.62001458503E+02  0.42670713867E+03  0.92186805224E+02 0.  0.
         23    2    4    4    0    0 -0.26401739419E+03  0.43372959306E+03  0.10252615049E+03  0.52603976985E+03  0.91540611743E+02 0.  0.
          4    1    3    3  502    0 -0.55659981772E+02 -0.22345798951E+03 -0.60899898929E+03  0.65108469158E+03  0.00000000000E+00 0. -1.
         -1    1    3    3    0  502 -0.66766603294E+02 -0.67451978926E+02 -0.20974675261E+03  0.23022000131E+03  0.00000000000E+00 0.  1.
         13    1    5    5    0    0  0.21454563290E+03 -0.37364815317E+02 -0.79422685238E+01  0.21791979637E+03  0.00000000000E+00 0.  1.
        -13    1    5    5    0    0  0.17189834636E+03 -0.10545480930E+03 -0.54059189979E+02  0.20878734231E+03  0.00000000000E+00 0. -1.
          3    1    6    6  503    0 -0.38724374763E+02  0.12903024889E+03  0.48918015526E+02  0.14332255430E+03  0.00000000000E+00 0. -1.
         -3    1    6    6    0  503 -0.22529301943E+03  0.30469934417E+03  0.53608134963E+02  0.38271721555E+03  0.00000000000E+00 0.  1.
<mgrwt>
<rscale>  0 0.16607580E+04</rscale>
<asrwt>0</asrwt>
<pdfrwt beam="1">  1        2 0.20094405E+00 0.16607580E+04</pdfrwt>
<pdfrwt beam="2">  1       -1 0.81217736E-01 0.16607580E+04</pdfrwt>
<totfact> 0.26945249E+01</totfact>
</mgrwt>
</event>
<event>
12    7  0.1698542E-007  0.2031504E+04  0.7818608E-02  0.8592032E-01
          2   -1    0    0  501    0  0.00000000000E+00  0.00000000000E+00  0.79156928793E+03  0.79156928793E+03  0.00000000000E+00 0. -1.
         -1   -1    0    0    0  501 -0.00000000000E+00 -0.00000000000E+00 -0.13034262793E+04  0.13034262793E+04  0.00000000000E+00 0.  1.
         24    2    1    2    0    0  0.65824052823E+03 -0.47660700586E+03 -0.10038435197E+03  0.82282703175E+03  0.80823728105E+02 0.  0.
        254    2    1    2    0    0 -0.65824052823E+03  0.47660700586E+03 -0.41147263936E+03  0.12721685355E+04  0.88806994016E+03 0.  0.
         23    2    4    4    0    0 -0.43896191524E+03 -0.91913668759E+02 -0.46553467201E+03  0.65296805764E+03  0.92244609141E+02 0.  0.
         23    2    4    4    0    0 -0.21927861298E+03  0.56852067462E+03  0.54062032652E+02  0.61920047781E+03  0.95852286192E+02 0.  0.
          2    1    3    3  502    0  0.57283676414E+03 -0.37932535163E+03 -0.78044283977E+02  0.69146264613E+03  0.00000000000E+00 0. -1.
         -1    1    3    3    0  502  0.85403764084E+02 -0.97281654232E+02 -0.22340067994E+02  0.13136438561E+03  0.00000000000E+00 0.  1.
         13    1    5    5    0    0 -0.33661205063E+03 -0.10448071380E+03 -0.38628166203E+03  0.52291243493E+03  0.00000000000E+00 0. -1.
        -13    1    5    5    0    0 -0.10234986461E+03  0.12567045040E+02 -0.79253009984E+02  0.13005562271E+03  0.00000000000E+00 0.  1.
          1    1    6    6  503    0 -0.19098098623E+03  0.51405910794E+03  0.19438496157E+02  0.54873341313E+03  0.00000000000E+00 0. -1.
         -1    1    6    6    0  503 -0.28297626751E+02  0.54461566679E+02  0.34623536495E+02  0.70467064678E+02  0.00000000000E+00 0.  1.
<mgrwt>
<rscale>  0 0.20315041E+04</rscale>
<asrwt>0</asrwt>
<pdfrwt beam="1">  1        2 0.12177989E+00 0.20315041E+04</pdfrwt>
<pdfrwt beam="2">  1       -1 0.20052712E+00 0.20315041E+04</pdfrwt>
<totfact> 0.55136775E+00</totfact>
</mgrwt>
</event>
<event>
12    7  0.1698542E-007  0.1540749E+04  0.7818608E-02  0.8857798E-01
          2   -1    0    0  501    0  0.00000000000E+00  0.00000000000E+00  0.10439022629E+04  0.10439022629E+04  0.00000000000E+00 0. -1.
         -1   -1    0    0    0  501 -0.00000000000E+00 -0.00000000000E+00 -0.56851769416E+03  0.56851769416E+03  0.00000000000E+00 0.  1.
         24    2    1    2    0    0 -0.42964142393E+03  0.19978739569E+03 -0.22750926261E+02  0.48093897338E+03  0.79233419952E+02 0.  0.
        254    2    1    2    0    0  0.42964142393E+03 -0.19978739569E+03  0.49813549505E+03  0.11314809837E+04  0.89866761847E+03 0.  0.
         23    2    4    4    0    0  0.17119690077E+03  0.24492410907E+03  0.52226756647E+03  0.60856372310E+03  0.91050513737E+02 0.  0.
         23    2    4    4    0    0  0.25844452316E+03 -0.44471150476E+03 -0.24132071422E+02  0.52291726063E+03  0.91094514520E+02 0.  0.
          4    1    3    3  502    0 -0.34615028104E+02  0.35757704694E+02 -0.18777286871E+02  0.53192105785E+02  0.00000000000E+00 0. -1.
         -3    1    3    3    0  502 -0.39502639582E+03  0.16402969099E+03 -0.39736393898E+01  0.42774686759E+03  0.00000000000E+00 0.  1.
         13    1    5    5    0    0  0.14334144184E+03  0.13209945031E+03  0.35296135970E+03  0.40321055934E+03  0.00000000000E+00 0.  1.
        -13    1    5    5    0    0  0.27855458931E+02  0.11282465876E+03  0.16930620677E+03  0.20535316376E+03  0.00000000000E+00 0. -1.
          1    1    6    6  503    0  0.10098592053E+03 -0.19420468730E+03  0.33596481324E+02  0.22145505249E+03  0.00000000000E+00 0. -1.
         -1    1    6    6    0  503  0.15745860263E+03 -0.25050681746E+03 -0.57728552746E+02  0.30146220814E+03  0.00000000000E+00 0.  1.
<mgrwt>
<rscale>  0 0.15407490E+04</rscale>
<asrwt>0</asrwt>
<pdfrwt beam="1">  1        2 0.16060035E+00 0.15407490E+04</pdfrwt>
<pdfrwt beam="2">  1       -1 0.87464260E-01 0.15407490E+04</pdfrwt>
<totfact> 0.33388945E+01</totfact>
</mgrwt>
</event>
<event>
12    7  0.1698542E-007  0.2731826E+04  0.7818608E-02  0.8324752E-01
          2   -1    0    0  501    0  0.00000000000E+00  0.00000000000E+00  0.17990771194E+04  0.17990771194E+04  0.00000000000E+00 0. -1.
         -1   -1    0    0    0  501 -0.00000000000E+00 -0.00000000000E+00 -0.10370417781E+04  0.10370417781E+04  0.00000000000E+00 0.  1.
         24    2    1    2    0    0 -0.71685554534E+03  0.96809251030E+03  0.17402774345E+03  0.12197712350E+04  0.80443948448E+02 0.  0.
        254    2    1    2    0    0  0.71685554534E+03 -0.96809251030E+03  0.58800759786E+03  0.16163476625E+04  0.90318428318E+03 0.  0.
         23    2    4    4    0    0  0.26475054144E+03 -0.81359151861E+03  0.70786285729E+03  0.11144539350E+04  0.94412606112E+02 0.  0.
         23    2    4    4    0    0  0.45210500390E+03 -0.15450099169E+03 -0.11985525943E+03  0.50189372743E+03  0.96242087668E+02 0.  0.
          2    1    3    3  502    0 -0.19273543136E+03  0.23113768384E+03  0.74118022108E+02  0.30994363454E+03  0.00000000000E+00 0. -1.
         -1    1    3    3    0  502 -0.52412011398E+03  0.73695482646E+03  0.99909721341E+02  0.90982760045E+03  0.00000000000E+00 0.  1.
         13    1    5    5    0    0  0.12570778285E+03 -0.38181030162E+03  0.27184287483E+03  0.48526292017E+03  0.00000000000E+00 0. -1.
        -13    1    5    5    0    0  0.13904275859E+03 -0.43178121699E+03  0.43601998246E+03  0.62919101485E+03  0.00000000000E+00 0.  1.
          4    1    6    6  503    0  0.17266270344E+03 -0.10912054970E+03 -0.52203062948E+02  0.21081950410E+03  0.00000000000E+00 0.  1.
         -4    1    6    6    0  503  0.27944230046E+03 -0.45380441983E+02 -0.67652196487E+02  0.29107422333E+03  0.00000000000E+00 0. -1.
<mgrwt>
<rscale>  0 0.27318259E+04</rscale>
<asrwt>0</asrwt>
<pdfrwt beam="1">  1        2 0.27678110E+00 0.27318259E+04</pdfrwt>
<pdfrwt beam="2">  1       -1 0.15954489E+00 0.27318259E+04</pdfrwt>
<totfact> 0.25343911E+00</totfact>
</mgrwt>
</event>
<event>
12    7  0.1698542E-007  0.1350504E+04  0.7818608E-02  0.8990447E-01
         -1   -1    0    0    0  501 -0.00000000000E+00  0.00000000000E+00  0.37955545179E+03  0.37955545179E+03  0.00000000000E+00 0.  1.
          2   -1    0    0  501    0  0.00000000000E+00 -0.00000000000E+00 -0.12013136674E+04  0.12013136674E+04  0.00000000000E+00 0. -1.
         24    2    1    2    0    0 -0.88087447962E+01 -0.17138538330E+03 -0.61416605776E+03  0.64161889303E+03  0.70882394133E+02 0.  0.
        254    2    1    2    0    0  0.88087447962E+01  0.17138538330E+03 -0.20759215787E+03  0.93925022618E+03  0.89980327838E+03 0.  0.
         23    2    4    4    0    0 -0.20284018841E+03  0.15612783888E+03 -0.49854998665E+03  0.56758467291E+03  0.89890086368E+02 0.  0.
         23    2    4    4    0    0  0.21164893321E+03  0.15257544415E+02  0.29095782877E+03  0.37166555327E+03  0.91928024971E+02 0.  0.
          2    1    3    3  502    0  0.16166546981E+01 -0.17196269062E+03 -0.54001354721E+03  0.56673486897E+03  0.00000000000E+00 0. -1.
         -1    1    3    3    0  502 -0.10425399494E+02  0.57730732787E+00 -0.74152510553E+02  0.74884024061E+02  0.00000000000E+00 0.  1.
         13    1    5    5    0    0 -0.60400645323E+02  0.26801546060E+01 -0.88571307785E+02  0.10723944119E+03  0.00000000000E+00 0.  1.
        -13    1    5    5    0    0 -0.14243954309E+03  0.15344768427E+03 -0.40997867886E+03  0.46034523172E+03  0.00000000000E+00 0. -1.
          3    1    6    6  503    0  0.17406881189E+03  0.48298379283E+02  0.23820008820E+03  0.29895144544E+03  0.00000000000E+00 0. -1.
         -3    1    6    6    0  503  0.37580121317E+02 -0.33040834867E+02  0.52757740576E+02  0.72714107831E+02  0.00000000000E+00 0.  1.
<mgrwt>
<rscale>  0 0.13505038E+04</rscale>
<asrwt>0</asrwt>
<pdfrwt beam="1">  1        2 0.18481749E+00 0.13505038E+04</pdfrwt>
<pdfrwt beam="2">  1       -1 0.58393147E-01 0.13505038E+04</pdfrwt>
<totfact> 0.62567901E+01</totfact>
</mgrwt>
</event>
<event>
12    7  0.1698542E-007  0.2668776E+04  0.7818608E-02  0.8345208E-01
          2   -1    0    0  501    0  0.00000000000E+00  0.00000000000E+00  0.28513629020E+04  0.28513629020E+04  0.00000000000E+00 0. -1.
         -1   -1    0    0    0  501 -0.00000000000E+00 -0.00000000000E+00 -0.62447006641E+03  0.62447006641E+03  0.00000000000E+00 0.  1.
         24    2    1    2    0    0  0.94655220578E+03 -0.54993367464E+03  0.15395852473E+04  0.18908562431E+04  0.81403155657E+02 0.  0.
        254    2    1    2    0    0 -0.94655220578E+03  0.54993367464E+03  0.68730758832E+03  0.15849767253E+04  0.91726297973E+03 0.  0.
         23    2    4    4    0    0 -0.13830737314E+03 -0.22604092629E+03  0.25905930663E+03  0.38175372434E+03  0.91655615598E+02 0.  0.
         23    2    4    4    0    0 -0.80824483264E+03  0.77597460093E+03  0.42824828169E+03  0.12032230010E+04  0.94618753306E+02 0.  0.
          4    1    3    3  502    0  0.62365843320E+03 -0.35055075786E+03  0.94037185423E+03  0.11815815246E+04  0.00000000000E+00 0. -1.
         -3    1    3    3    0  502  0.32289377258E+03 -0.19938291678E+03  0.59921339303E+03  0.70927471847E+03  0.00000000000E+00 0.  1.
         13    1    5    5    0    0 -0.56179725509E+02 -0.31546185058E+02  0.32824931792E+02  0.72310438369E+02  0.00000000000E+00 0.  1.
        -13    1    5    5    0    0 -0.82127647631E+02 -0.19449474123E+03  0.22623437484E+03  0.30944328597E+03  0.00000000000E+00 0. -1.
          1    1    6    6  503    0 -0.76188805688E+03  0.69954867040E+03  0.38232691471E+03  0.11027309840E+04  0.00000000000E+00 0. -1.
         -1    1    6    6    0  503 -0.46356775767E+02  0.76425930530E+02  0.45921366980E+02  0.10049201691E+03  0.00000000000E+00 0.  1.
<mgrwt>
<rscale>  0 0.26687756E+04</rscale>
<asrwt>0</asrwt>
<pdfrwt beam="1">  1        2 0.43867121E+00 0.26687756E+04</pdfrwt>
<pdfrwt beam="2">  1       -1 0.96072320E-01 0.26687756E+04</pdfrwt>
<totfact> 0.22458744E+00</totfact>
</mgrwt>
</event>
<event>
12    7  0.1698542E-007  0.2801551E+04  0.7818608E-02  0.8302787E-01
         -1   -1    0    0    0  501 -0.00000000000E+00  0.00000000000E+00  0.55803293610E+03  0.55803293610E+03  0.00000000000E+00 0.  1.
          2   -1    0    0  501    0  0.00000000000E+00 -0.00000000000E+00 -0.35162303877E+04  0.35162303877E+04  0.00000000000E+00 0. -1.
         24    2    1    2    0    0 -0.73672216202E+03 -0.11566074031E+03  0.13760444644E+03  0.76249461547E+03  0.79536809585E+02 0.  0.
        254    2    1    2    0    0  0.73672216202E+03  0.11566074031E+03 -0.30958018981E+04  0.33117687084E+04  0.90977229829E+03 0.  0.
         23    2    4    4    0    0  0.88199007895E+03 -0.57418938636E+02 -0.27439157045E+04  0.28841593806E+04  0.89991697045E+02 0.  0.
         23    2    4    4    0    0 -0.14526791693E+03  0.17307967894E+03 -0.35188619355E+03  0.42760932773E+03  0.89255257507E+02 0.  0.
          2    1    3    3  502    0 -0.39133606259E+03 -0.56782318022E+02  0.32826037695E+02  0.39679427198E+03  0.00000000000E+00 0. -1.
         -1    1    3    3    0  502 -0.34538609943E+03 -0.58878422283E+02  0.10477840875E+03  0.36570034349E+03  0.00000000000E+00 0.  1.
         13    1    5    5    0    0  0.64454550067E+03 -0.77383935886E+02 -0.20655174380E+04  0.21651303569E+04  0.00000000000E+00 0.  1.
        -13    1    5    5    0    0  0.23744457828E+03  0.19964997250E+02 -0.67839826655E+03  0.71902902370E+03  0.00000000000E+00 0. -1.
          2    1    6    6  503    0 -0.10429040809E+02 -0.45145172987E+01 -0.41432632499E+00  0.11371781960E+02  0.00000000000E+00 0. -1.
         -2    1    6    6    0  503 -0.13483887612E+03  0.17759419624E+03 -0.35147186723E+03  0.41623754577E+03  0.00000000000E+00 0.  1.
<mgrwt>
<rscale>  0 0.28015513E+04</rscale>
<asrwt>0</asrwt>
<pdfrwt beam="1">  1        2 0.54095853E+00 0.28015513E+04</pdfrwt>
<pdfrwt beam="2">  1       -1 0.85851219E-01 0.28015513E+04</pdfrwt>
<totfact> 0.10489339E+00</totfact>
</mgrwt>
</event>
<event>
12    7  0.1698542E-007  0.2403919E+04  0.7818608E-02  0.8438038E-01
         -1   -1    0    0    0  501 -0.00000000000E+00  0.00000000000E+00  0.68257988344E+03  0.68257988344E+03  0.00000000000E+00 0.  1.
          2   -1    0    0  501    0  0.00000000000E+00 -0.00000000000E+00 -0.21165378303E+04  0.21165378303E+04  0.00000000000E+00 0. -1.
         24    2    1    2    0    0 -0.65723231130E+03  0.80110660564E+03 -0.63361360286E+03  0.12177297984E+04  0.87598856002E+02 0.  0.
        254    2    1    2    0    0  0.65723231130E+03 -0.80110660564E+03 -0.80034434398E+03  0.15813879153E+04  0.88685430890E+03 0.  0.
         23    2    4    4    0    0  0.54177520157E+03 -0.91872622393E+03 -0.87208357557E+03  0.13807136803E+04  0.90896978053E+02 0.  0.
         23    2    4    4    0    0  0.11545710972E+03  0.11761961830E+03  0.71739231586E+02  0.20067423503E+03  0.89212737112E+02 0.  0.
          4    1    3    3  502    0 -0.48597947213E+03  0.60138110581E+03 -0.51585953481E+03  0.92948713891E+03  0.00000000000E+00 0. -1.
         -3    1    3    3    0  502 -0.17125283917E+03  0.19972549983E+03 -0.11775406806E+03  0.28824265949E+03  0.00000000000E+00 0.  1.
         13    1    5    5    0    0  0.12732185489E+02 -0.19638473855E+02 -0.39896202451E+02  0.46254569209E+02  0.00000000000E+00 0. -1.
        -13    1    5    5    0    0  0.52904301608E+03 -0.89908775008E+03 -0.83218737312E+03  0.13344591111E+04  0.00000000000E+00 0.  1.
          1    1    6    6  503    0  0.14723485471E+02  0.14343003948E+02 -0.20827728966E+02  0.29262554238E+02  0.00000000000E+00 0. -1.
         -1    1    6    6    0  503  0.10073362425E+03  0.10327661435E+03  0.92566960553E+02  0.17141168079E+03  0.00000000000E+00 0.  1.
<mgrwt>
<rscale>  0 0.24039186E+04</rscale>
<asrwt>0</asrwt>
<pdfrwt beam="1">  1        2 0.32562120E+00 0.24039186E+04</pdfrwt>
<pdfrwt beam="2">  1       -1 0.10501229E+00 0.24039186E+04</pdfrwt>
<totfact> 0.50069991E+00</totfact>
</mgrwt>
</event>
<event>
12    7  0.1698542E-007  0.1715142E+04  0.7818608E-02  0.8752775E-01
          2   -1    0    0  501    0  0.00000000000E+00  0.00000000000E+00  0.16389740966E+04  0.16389740966E+04  0.00000000000E+00 0. -1.
         -1   -1    0    0    0  501 -0.00000000000E+00 -0.00000000000E+00 -0.44871250967E+03  0.44871250967E+03  0.00000000000E+00 0.  1.
         24    2    1    2    0    0 -0.35607171980E+02  0.12694128949E+03  0.11686820083E+04  0.11794442099E+04  0.88820302620E+02 0.  0.
        254    2    1    2    0    0  0.35607171980E+02 -0.12694128949E+03  0.21579578631E+02  0.90824239633E+03  0.89836329544E+03 0.  0.
         23    2    4    4    0    0 -0.21417854715E+03  0.28790752442E+03  0.15243792344E+03  0.39949473035E+03  0.87152317218E+02 0.  0.
         23    2    4    4    0    0  0.24978571913E+03 -0.41484881391E+03 -0.13085834481E+03  0.50874766598E+03  0.84898983201E+02 0.  0.
          4    1    3    3  502    0 -0.54400879004E+02  0.59685656269E+02  0.81086535264E+03  0.81487695593E+03  0.00000000000E+00 0. -1.
         -3    1    3    3    0  502  0.18793707024E+02  0.67255633221E+02  0.35781665563E+03  0.36456725397E+03  0.00000000000E+00 0.  1.
         13    1    5    5    0    0 -0.42787219431E+02  0.27754217761E+02 -0.34814298669E+01  0.51119107035E+02  0.00000000000E+00 0. -1.
        -13    1    5    5    0    0 -0.17139132772E+03  0.26015330666E+03  0.15591935331E+03  0.34837562331E+03  0.00000000000E+00 0.  1.
          1    1    6    6  503    0  0.30360601107E+02 -0.76917576494E+02  0.67720647051E+01  0.82969515689E+02  0.00000000000E+00 0. -1.
         -1    1    6    6    0  503  0.21942511802E+03 -0.33793123742E+03 -0.13763040952E+03  0.42577815029E+03  0.00000000000E+00 0.  1.
<mgrwt>
<rscale>  0 0.17151422E+04</rscale>
<asrwt>0</asrwt>
<pdfrwt beam="1">  1        2 0.25214986E+00 0.17151422E+04</pdfrwt>
<pdfrwt beam="2">  1       -1 0.69032694E-01 0.17151422E+04</pdfrwt>
<totfact> 0.24379936E+01</totfact>
</mgrwt>
</event>
<event>
12    7  0.1698542E-007  0.1190246E+04  0.7818608E-02  0.9121438E-01
          2   -1    0    0  501    0  0.00000000000E+00  0.00000000000E+00  0.24129419043E+04  0.24129419043E+04  0.00000000000E+00 0. -1.
         -1   -1    0    0    0  501 -0.00000000000E+00 -0.00000000000E+00 -0.14677982316E+03  0.14677982316E+03  0.00000000000E+00 0.  1.
         24    2    1    2    0    0 -0.18785313861E+03 -0.61037825924E+02  0.13488037879E+03  0.25181531143E+03  0.78764310508E+02 0.  0.
        254    2    1    2    0    0  0.18785313861E+03  0.61037825924E+02  0.21312817023E+04  0.23079064160E+04  0.86316621367E+03 0.  0.
         23    2    4    4    0    0  0.18100254315E+03 -0.17604400502E+02  0.33338785518E+02  0.20650409193E+03  0.91981681964E+02 0.  0.
         23    2    4    4    0    0  0.68505954598E+01  0.78642226426E+02  0.20979429168E+04  0.21014023241E+04  0.91080815613E+02 0.  0.
          2    1    3    3  502    0 -0.36295947115E+02  0.10630742339E+01 -0.47078829266E+01  0.36615434798E+02  0.00000000000E+00 0. -1.
         -1    1    3    3    0  502 -0.15155719150E+03 -0.62100900158E+02  0.13958826171E+03  0.21519987663E+03  0.00000000000E+00 0.  1.
         13    1    5    5    0    0  0.10092054043E+02  0.20282078382E+02  0.21196316632E+02  0.31024121214E+02  0.00000000000E+00 0.  1.
        -13    1    5    5    0    0  0.17091048911E+03 -0.37886478885E+02  0.12142468886E+02  0.17547997071E+03  0.00000000000E+00 0. -1.
          1    1    6    6  503    0  0.84818318133E+01  0.47813233492E+02  0.19321169275E+04  0.19327270547E+04  0.00000000000E+00 0. -1.
         -1    1    6    6    0  503 -0.16312363535E+01  0.30828992934E+02  0.16582598935E+03  0.16867526933E+03  0.00000000000E+00 0.  1.
<mgrwt>
<rscale>  0 0.11902457E+04</rscale>
<asrwt>0</asrwt>
<pdfrwt beam="1">  1        2 0.37122180E+00 0.11902457E+04</pdfrwt>
<pdfrwt beam="2">  1       -1 0.22581513E-01 0.11902457E+04</pdfrwt>
<totfact> 0.73651936E+01</totfact>
</mgrwt>
</event>
<event>
12    7  0.1698542E-007  0.1670495E+04  0.7818608E-02  0.8778374E-01
         -1   -1    0    0    0  501 -0.00000000000E+00  0.00000000000E+00  0.82871049518E+03  0.82871049518E+03  0.00000000000E+00 0.  1.
          2   -1    0    0  501    0  0.00000000000E+00 -0.00000000000E+00 -0.84183558003E+03  0.84183558003E+03  0.00000000000E+00 0. -1.
         24    2    1    2    0    0 -0.13985434613E+03 -0.56723368207E+03 -0.16718239024E+03  0.61306555010E+03  0.81154968439E+02 0.  0.
        254    2    1    2    0    0  0.13985434613E+03  0.56723368207E+03  0.15405730539E+03  0.10574805251E+04  0.86788139711E+03 0.  0.
         23    2    4    4    0    0  0.36256395490E+03  0.11206114373E+03  0.33202602848E+03  0.51203929648E+03  0.89065348063E+02 0.  0.
         23    2    4    4    0    0 -0.22270960877E+03  0.45517253834E+03 -0.17796872308E+03  0.54544122864E+03  0.95140201863E+02 0.  0.
          2    1    3    3  502    0 -0.91576938966E+02 -0.40145867435E+03 -0.15498894793E+03  0.43997383666E+03  0.00000000000E+00 0. -1.
         -1    1    3    3    0  502 -0.48277407161E+02 -0.16577500772E+03 -0.12193442317E+02  0.17309171344E+03  0.00000000000E+00 0.  1.
         13    1    5    5    0    0  0.81942575326E+02  0.65773370710E+02  0.80623601665E+02  0.13244201407E+03  0.00000000000E+00 0.  1.
        -13    1    5    5    0    0  0.28062137957E+03  0.46287773022E+02  0.25140242681E+03  0.37959728241E+03  0.00000000000E+00 0. -1.
          4    1    6    6  503    0 -0.18378423668E+03  0.38740807007E+03 -0.11201324558E+03  0.44318012770E+03  0.00000000000E+00 0. -1.
         -4    1    6    6    0  503 -0.38925372090E+02  0.67764468268E+02 -0.65955477504E+02  0.10226110094E+03  0.00000000000E+00 0.  1.
<mgrwt>
<rscale>  0 0.16704945E+04</rscale>
<asrwt>0</asrwt>
<pdfrwt beam="1">  1        2 0.12951317E+00 0.16704945E+04</pdfrwt>
<pdfrwt beam="2">  1       -1 0.12749392E+00 0.16704945E+04</pdfrwt>
<totfact> 0.18651863E+01</totfact>
</mgrwt>
</event>
<event>
12    7  0.1698542E-007  0.2264149E+04  0.7818608E-02  0.8492192E-01
         -1   -1    0    0    0  501 -0.00000000000E+00  0.00000000000E+00  0.14865963196E+04  0.14865963196E+04  0.00000000000E+00 0.  1.
          2   -1    0    0  501    0  0.00000000000E+00 -0.00000000000E+00 -0.86209862009E+03  0.86209862009E+03  0.00000000000E+00 0. -1.
         24    2    1    2    0    0  0.89107955672E+03 -0.27032230137E+03  0.19189503597E+03  0.95429385982E+03  0.82195760446E+02 0.  0.
        254    2    1    2    0    0 -0.89107955672E+03  0.27032230137E+03  0.43260266351E+03  0.13944010798E+04  0.94345767469E+03 0.  0.
         23    2    4    4    0    0 -0.30917144978E+02 -0.23349488384E+03 -0.87165444842E+02  0.26666011293E+03  0.89632976201E+02 0.  0.
         23    2    4    4    0    0 -0.86016241175E+03  0.50381718521E+03  0.51976810835E+03  0.11277409669E+04  0.89048701694E+02 0.  0.
          4    1    3    3  502    0  0.81484096847E+03 -0.25559049648E+03  0.15350360328E+03  0.86767255461E+03  0.00000000000E+00 0. -1.
         -3    1    3    3    0  502  0.76238588250E+02 -0.14731804886E+02  0.38391432687E+02  0.86621305216E+02  0.00000000000E+00 0.  1.
         13    1    5    5    0    0 -0.45701890584E+02 -0.18427082151E+03 -0.34297531263E+02  0.19292671954E+03  0.00000000000E+00 0.  1.
        -13    1    5    5    0    0  0.14784745606E+02 -0.49224062332E+02 -0.52867913579E+02  0.73733393393E+02  0.00000000000E+00 0. -1.
          1    1    6    6  503    0 -0.58151953007E+03  0.29277181120E+03  0.34927365261E+03  0.73883176819E+03  0.00000000000E+00 0. -1.
         -1    1    6    6    0  503 -0.27864288168E+03  0.21104537401E+03  0.17049445574E+03  0.38890919871E+03  0.00000000000E+00 0.  1.
<mgrwt>
<rscale>  0 0.22641490E+04</rscale>
<asrwt>0</asrwt>
<pdfrwt beam="1">  1        2 0.13263056E+00 0.22641490E+04</pdfrwt>
<pdfrwt beam="2">  1       -1 0.22870713E+00 0.22641490E+04</pdfrwt>
<totfact> 0.31083178E+00</totfact>
</mgrwt>
</event>
<event>
12    7  0.1698542E-007  0.2243128E+04  0.7818608E-02  0.8500689E-01
          2   -1    0    0  501    0  0.00000000000E+00  0.00000000000E+00  0.80372110205E+03  0.80372110205E+03  0.00000000000E+00 0. -1.
         -1   -1    0    0    0  501 -0.00000000000E+00 -0.00000000000E+00 -0.15651025577E+04  0.15651025577E+04  0.00000000000E+00 0.  1.
         24    2    1    2    0    0  0.38795570953E+03  0.86002510837E+03 -0.23521425930E+03  0.97556574075E+03  0.79056607424E+02 0.  0.
        254    2    1    2    0    0 -0.38795570953E+03 -0.86002510837E+03 -0.52616719632E+03  0.13932579190E+04  0.87986526848E+03 0.  0.
         23    2    4    4    0    0  0.19959878251E+03 -0.52985385362E+03 -0.40757408339E+03  0.70348641416E+03  0.90508128263E+02 0.  0.
         23    2    4    4    0    0 -0.58755449204E+03 -0.33017125474E+03 -0.11859311293E+03  0.68977150480E+03  0.86527821062E+02 0.  0.
          2    1    3    3  502    0  0.40617565802E+02  0.96058713181E+02 -0.10824938815E+01  0.10429877671E+03  0.00000000000E+00 0. -1.
         -1    1    3    3    0  502  0.34733814373E+03  0.76396639518E+03 -0.23413176542E+03  0.87126696405E+03  0.00000000000E+00 0.  1.
         13    1    5    5    0    0  0.15441489029E+03 -0.39083692704E+03 -0.34806518206E+03  0.54566183012E+03  0.00000000000E+00 0.  1.
        -13    1    5    5    0    0  0.45183892219E+02 -0.13901692658E+03 -0.59508901331E+02  0.15782458405E+03  0.00000000000E+00 0. -1.
          1    1    6    6  503    0 -0.35987712387E+03 -0.24589715201E+03 -0.59466147638E+02  0.43990132571E+03  0.00000000000E+00 0. -1.
         -1    1    6    6    0  503 -0.22767736818E+03 -0.84274102735E+02 -0.59126965292E+02  0.24987017909E+03  0.00000000000E+00 0.  1.
<mgrwt>
<rscale>  0 0.22431281E+04</rscale>
<asrwt>0</asrwt>
<pdfrwt beam="1">  1        2 0.12364940E+00 0.22431281E+04</pdfrwt>
<pdfrwt beam="2">  1       -1 0.24078501E+00 0.22431281E+04</pdfrwt>
<totfact> 0.28498539E+00</totfact>
</mgrwt>
</event>
<event>
12    7  0.1698542E-007  0.1933831E+04  0.7818608E-02  0.8638197E-01
         -1   -1    0    0    0  501 -0.00000000000E+00  0.00000000000E+00  0.62014320524E+03  0.62014320524E+03  0.00000000000E+00 0.  1.
          2   -1    0    0  501    0  0.00000000000E+00 -0.00000000000E+00 -0.15075959550E+04  0.15075959550E+04  0.00000000000E+00 0. -1.
         24    2    1    2    0    0  0.11308536433E+03 -0.73329269601E+03 -0.19306954319E+03  0.77090875195E+03  0.80733993324E+02 0.  0.
        254    2    1    2    0    0 -0.11308536433E+03  0.73329269601E+03 -0.69438320656E+03  0.13568304083E+04  0.89906297978E+03 0.  0.
         23    2    4    4    0    0 -0.88384277782E+02  0.70951062575E+03 -0.88571220540E+03  0.11417245002E+04  0.88496411705E+02 0.  0.
         23    2    4    4    0    0 -0.24701086552E+02  0.23782070267E+02  0.19132899884E+03  0.21510590810E+03  0.92130534353E+02 0.  0.
          2    1    3    3  502    0  0.49491597566E+02 -0.33116850751E+03 -0.12870961932E+03  0.35873132663E+03  0.00000000000E+00 0. -1.
         -1    1    3    3    0  502  0.63593766768E+02 -0.40212418850E+03 -0.64359923871E+02  0.41217742533E+03  0.00000000000E+00 0.  1.
         13    1    5    5    0    0 -0.98962165650E+02  0.45320861380E+03 -0.57626939546E+03  0.73978238287E+03  0.00000000000E+00 0.  1.
        -13    1    5    5    0    0  0.10577887867E+02  0.25630201195E+03 -0.30944280994E+03  0.40194211730E+03  0.00000000000E+00 0. -1.
          4    1    6    6  503    0 -0.56107847553E+02  0.27146707585E+01  0.81790026921E+02  0.99222318548E+02  0.00000000000E+00 0. -1.
         -4    1    6    6    0  503  0.31406761001E+02  0.21067399509E+02  0.10953897192E+03  0.11588358956E+03  0.00000000000E+00 0.  1.
<mgrwt>
<rscale>  0 0.19338308E+04</rscale>
<asrwt>0</asrwt>
<pdfrwt beam="1">  1        2 0.23193784E+00 0.19338308E+04</pdfrwt>
<pdfrwt beam="2">  1       -1 0.95406647E-01 0.19338308E+04</pdfrwt>
<totfact> 0.14185813E+01</totfact>
</mgrwt>
</event>
<event>
12    7  0.1698542E-007  0.2905959E+04  0.7818608E-02  0.8271107E-01
         -1   -1    0    0    0  501 -0.00000000000E+00  0.00000000000E+00  0.91738692483E+03  0.91738692483E+03  0.00000000000E+00 0.  1.
          2   -1    0    0  501    0  0.00000000000E+00 -0.00000000000E+00 -0.23012638216E+04  0.23012638216E+04  0.00000000000E+00 0. -1.
         24    2    1    2    0    0 -0.51966733107E+03 -0.15942535452E+03  0.69916594287E+03  0.88951434739E+03  0.83259713523E+02 0.  0.
        254    2    1    2    0    0  0.51966733107E+03  0.15942535452E+03 -0.20830428396E+04  0.23291363990E+04  0.88900973833E+03 0.  0.
         23    2    4    4    0    0 -0.11808529063E+03  0.30120964569E+03 -0.40800618203E+03  0.52885327998E+03  0.92441119900E+02 0.  0.
         23    2    4    4    0    0  0.63775262170E+03 -0.14178429117E+03 -0.16750366576E+04  0.18002831190E+04  0.91871174416E+02 0.  0.
          4    1    3    3  502    0 -0.60836290233E+02 -0.48485948225E+02  0.10374517187E+03  0.12967267280E+03  0.00000000000E+00 0. -1.
         -3    1    3    3    0  502 -0.45883104084E+03 -0.11093940630E+03  0.59542077100E+03  0.75984167459E+03  0.00000000000E+00 0.  1.
         13    1    5    5    0    0 -0.71293490440E+02  0.27163364104E+03 -0.34870902789E+03  0.44773383036E+03  0.00000000000E+00 0. -1.
        -13    1    5    5    0    0 -0.46791800190E+02  0.29576004653E+02 -0.59297154145E+02  0.81119449616E+02  0.00000000000E+00 0.  1.
          2    1    6    6  503    0  0.51122198394E+03 -0.14857207075E+03 -0.13838283221E+04  0.14827010495E+04  0.00000000000E+00 0. -1.
         -2    1    6    6    0  503  0.12653063776E+03  0.67877795827E+01 -0.29120833548E+03  0.31758206955E+03  0.00000000000E+00 0.  1.
<mgrwt>
<rscale>  0 0.29059589E+04</rscale>
<asrwt>0</asrwt>
<pdfrwt beam="1">  1        2 0.35404058E+00 0.29059589E+04</pdfrwt>
<pdfrwt beam="2">  1       -1 0.14113645E+00 0.29059589E+04</pdfrwt>
<totfact> 0.18214934E+00</totfact>
</mgrwt>
</event>
<event>
12    7  0.1698542E-007  0.1362461E+04  0.7818608E-02  0.8981448E-01
          2   -1    0    0  501    0  0.00000000000E+00  0.00000000000E+00  0.76901922964E+03  0.76901922964E+03  0.00000000000E+00 0. -1.
         -1   -1    0    0    0  501 -0.00000000000E+00 -0.00000000000E+00 -0.60346379388E+03  0.60346379388E+03  0.00000000000E+00 0.  1.
         24    2    1    2    0    0  0.45715732434E+02  0.85008944268E+01 -0.33492800286E+03  0.34742788719E+03  0.79794588158E+02 0.  0.
        254    2    1    2    0    0 -0.45715732434E+02 -0.85008944268E+01  0.50048343862E+03  0.10250551363E+04  0.89336004320E+03 0.  0.
         23    2    4    4    0    0 -0.44341369439E+03  0.84600383246E+02  0.35729236833E+03  0.58245662409E+03  0.88458765887E+02 0.  0.
         23    2    4    4    0    0  0.39769796195E+03 -0.93101277673E+02  0.14319107028E+03  0.44259851224E+03  0.92510775483E+02 0.  0.
          2    1    3    3  502    0  0.30093487319E+02  0.26572188432E+02 -0.64680193415E+02  0.76126385684E+02  0.00000000000E+00 0. -1.
         -1    1    3    3    0  502  0.15622245115E+02 -0.18071294005E+02 -0.27024780944E+03  0.27130150150E+03  0.00000000000E+00 0.  1.
         13    1    5    5    0    0 -0.37753125188E+03  0.10299002565E+03  0.29688157876E+03  0.49119798792E+03  0.00000000000E+00 0. -1.
        -13    1    5    5    0    0 -0.65882442504E+02 -0.18389642409E+02  0.60410789575E+02  0.91258636168E+02  0.00000000000E+00 0.  1.
          2    1    6    6  503    0  0.28045576702E+03 -0.10046743485E+03  0.12763933373E+03  0.32410020400E+03  0.00000000000E+00 0. -1.
         -2    1    6    6    0  503  0.11724219493E+03  0.73661571807E+01  0.15551736553E+02  0.11849830823E+03  0.00000000000E+00 0.  1.
<mgrwt>
<rscale>  0 0.13624614E+04</rscale>
<asrwt>0</asrwt>
<pdfrwt beam="1">  1        2 0.11831065E+00 0.13624614E+04</pdfrwt>
<pdfrwt beam="2">  1       -1 0.92840583E-01 0.13624614E+04</pdfrwt>
<totfact> 0.45616281E+01</totfact>
</mgrwt>
</event>
<event>
12    7  0.1698542E-007  0.3425261E+04  0.7818608E-02  0.8131734E-01
         -1   -1    0    0    0  501 -0.00000000000E+00  0.00000000000E+00  0.71642737224E+03  0.71642737224E+03  0.00000000000E+00 0.  1.
          2   -1    0    0  501    0  0.00000000000E+00 -0.00000000000E+00 -0.40940690951E+04  0.40940690951E+04  0.00000000000E+00 0. -1.
         24    2    1    2    0    0 -0.63824433284E+03  0.12163558401E+04 -0.27094105089E+04  0.30387678176E+04  0.79543608596E+02 0.  0.
        254    2    1    2    0    0  0.63824433284E+03 -0.12163558401E+04 -0.66823121397E+03  0.17717286497E+04  0.89755896453E+03 0.  0.
         23    2    4    4    0    0 -0.13146212454E+03  0.25212213904E+02  0.22757045015E+01  0.16183023482E+03  0.90916995946E+02 0.  0.
         23    2    4    4    0    0  0.76970645738E+03 -0.12415680540E+04 -0.67050691847E+03  0.16098984149E+04  0.90852162126E+02 0.  0.
          4    1    3    3  502    0 -0.35714432787E+03  0.70748405029E+03 -0.14799945347E+04  0.16788298231E+04  0.00000000000E+00 0. -1.
         -3    1    3    3    0  502 -0.28110000497E+03  0.50887178978E+03 -0.12294159742E+04  0.13599379945E+04  0.00000000000E+00 0.  1.
         13    1    5    5    0    0 -0.13078018153E+02 -0.15620394107E+01  0.33929734622E+02  0.36396447869E+02  0.00000000000E+00 0.  1.
        -13    1    5    5    0    0 -0.11838410639E+03  0.26774253315E+02 -0.31654030121E+02  0.12543378695E+03  0.00000000000E+00 0. -1.
          4    1    6    6  503    0  0.64436358545E+01 -0.43718107889E+00 -0.43944959671E+01  0.78117325304E+01  0.00000000000E+00 0.  1.
         -4    1    6    6    0  503  0.76326282153E+03 -0.12411308729E+04 -0.66611242251E+03  0.16020866824E+04  0.00000000000E+00 0. -1.
<mgrwt>
<rscale>  0 0.34252610E+04</rscale>
<asrwt>0</asrwt>
<pdfrwt beam="1">  1        2 0.62985678E+00 0.34252610E+04</pdfrwt>
<pdfrwt beam="2">  1       -1 0.11021960E+00 0.34252610E+04</pdfrwt>
<totfact> 0.20348012E-01</totfact>
</mgrwt>
</event>
<event>
12    7  0.1698542E-007  0.1663098E+04  0.7818608E-02  0.8782695E-01
         -1   -1    0    0    0  501 -0.00000000000E+00  0.00000000000E+00  0.60780917074E+03  0.60780917074E+03  0.00000000000E+00 0.  1.
          2   -1    0    0  501    0  0.00000000000E+00 -0.00000000000E+00 -0.11376500495E+04  0.11376500495E+04  0.00000000000E+00 0. -1.
         24    2    1    2    0    0 -0.72239366966E+02 -0.19008683460E+03 -0.76303879862E+03  0.79353115998E+03  0.78179043451E+02 0.  0.
        254    2    1    2    0    0  0.72239366966E+02  0.19008683460E+03  0.23319791989E+03  0.95192806023E+03  0.90024120722E+03 0.  0.
         23    2    4    4    0    0 -0.10236684806E+02  0.16009055853E+03  0.56592341953E+03  0.59522350014E+03  0.91038023400E+02 0.  0.
         23    2    4    4    0    0  0.82476051771E+02  0.29996276075E+02 -0.33272549963E+03  0.35670456009E+03  0.93967065448E+02 0.  0.
          2    1    3    3  502    0 -0.73177351282E+02 -0.19687583400E+03 -0.72223665399E+03  0.75215743241E+03  0.00000000000E+00 0. -1.
         -1    1    3    3    0  502  0.93798431614E+00  0.67889993959E+01 -0.40802144629E+02  0.41373727578E+02  0.00000000000E+00 0.  1.
         13    1    5    5    0    0 -0.14473999267E+02  0.16477705221E+03  0.56514853977E+03  0.58885808613E+03  0.00000000000E+00 0.  1.
        -13    1    5    5    0    0  0.42373144615E+01 -0.46864936871E+01  0.77487975554E+00  0.63654140133E+01  0.00000000000E+00 0. -1.
          4    1    6    6  503    0  0.59436329252E+02  0.25232390713E+02 -0.79638168292E+02  0.10252603877E+03  0.00000000000E+00 0. -1.
         -4    1    6    6    0  503  0.23039722520E+02  0.47638853625E+01 -0.25308733134E+03  0.25417852133E+03  0.00000000000E+00 0.  1.
<mgrwt>
<rscale>  0 0.16630985E+04</rscale>
<asrwt>0</asrwt>
<pdfrwt beam="1">  1        2 0.17502308E+00 0.16630985E+04</pdfrwt>
<pdfrwt beam="2">  1       -1 0.93509105E-01 0.16630985E+04</pdfrwt>
<totfact> 0.24945832E+01</totfact>
</mgrwt>
</event>
<event>
12    7  0.1698542E-007  0.1120674E+04  0.7818608E-02  0.9185273E-01
          2   -1    0    0  501    0  0.00000000000E+00  0.00000000000E+00  0.53712543660E+03  0.53712543660E+03  0.00000000000E+00 0. -1.
         -1   -1    0    0    0  501 -0.00000000000E+00 -0.00000000000E+00 -0.58455137365E+03  0.58455137365E+03  0.00000000000E+00 0.  1.
         24    2    1    2    0    0 -0.67769172255E+01 -0.17257339895E+03 -0.61977155315E+02  0.20013554153E+03  0.79909715113E+02 0.  0.
        254    2    1    2    0    0  0.67769172255E+01  0.17257339895E+03  0.14551218263E+02  0.92154126873E+03  0.90509616472E+03 0.  0.
         23    2    4    4    0    0 -0.29927082286E+03 -0.16932993805E+03 -0.19855468106E+03  0.40723646605E+03  0.90453991467E+02 0.  0.
         23    2    4    4    0    0  0.30604774009E+03  0.34190333699E+03  0.21310589932E+03  0.51430480268E+03  0.92369879702E+02 0.  0.
          4    1    3    3  502    0  0.23467578468E+02 -0.37226994725E+02  0.81090926138E+01  0.44747444155E+02  0.00000000000E+00 0. -1.
         -3    1    3    3    0  502 -0.30244495693E+02 -0.13534640422E+03 -0.70086247929E+02  0.15538809737E+03  0.00000000000E+00 0.  1.
         13    1    5    5    0    0 -0.69451229489E+02 -0.61946526668E+00 -0.51378087708E+02  0.86391926193E+02  0.00000000000E+00 0. -1.
        -13    1    5    5    0    0 -0.22981959337E+03 -0.16871047278E+03 -0.14717659335E+03  0.32084453985E+03  0.00000000000E+00 0.  1.
          4    1    6    6  503    0  0.28284529949E+03  0.34319538176E+03  0.20488211813E+03  0.48965417984E+03  0.00000000000E+00 0.  1.
         -4    1    6    6    0  503  0.23202440600E+02 -0.12920447677E+01  0.82237811946E+01  0.24650622844E+02  0.00000000000E+00 0. -1.
<mgrwt>
<rscale>  0 0.11206737E+04</rscale>
<asrwt>0</asrwt>
<pdfrwt beam="1">  1        2 0.82634682E-01 0.11206737E+04</pdfrwt>
<pdfrwt beam="2">  1       -1 0.89930981E-01 0.11206737E+04</pdfrwt>
<totfact> 0.77715970E+01</totfact>
</mgrwt>
</event>
<event>
12    7  0.1698542E-007  0.2061261E+04  0.7818608E-02  0.8578503E-01
         -1   -1    0    0    0  501 -0.00000000000E+00  0.00000000000E+00  0.75546672942E+03  0.75546672942E+03  0.00000000000E+00 0.  1.
          2   -1    0    0  501    0  0.00000000000E+00 -0.00000000000E+00 -0.14060169377E+04  0.14060169377E+04  0.00000000000E+00 0. -1.
         24    2    1    2    0    0  0.77855555233E+03  0.20270514400E+03 -0.46238362902E+03  0.93130907654E+03  0.79371608181E+02 0.  0.
        254    2    1    2    0    0 -0.77855555233E+03 -0.20270514400E+03 -0.18816657928E+03  0.12301745906E+04  0.91141907942E+03 0.  0.
         23    2    4    4    0    0 -0.89595733503E+03 -0.38397419909E+03 -0.18462660571E+03  0.99633024432E+03  0.91712815090E+02 0.  0.
         23    2    4    4    0    0  0.11740178270E+03  0.18126905509E+03 -0.35399735679E+01  0.23384434628E+03  0.89604675995E+02 0.  0.
          2    1    3    3  502    0  0.19904577860E+03  0.39193115343E+02 -0.15465852741E+03  0.25509720181E+03  0.00000000000E+00 0. -1.
         -1    1    3    3    0  502  0.57950977373E+03  0.16351202865E+03 -0.30772510161E+03  0.67621187473E+03  0.00000000000E+00 0.  1.
         13    1    5    5    0    0 -0.26635905156E+03 -0.85887564639E+02 -0.86031663149E+02  0.29278877227E+03  0.00000000000E+00 0. -1.
        -13    1    5    5    0    0 -0.62959828347E+03 -0.29808663445E+03 -0.98594942565E+02  0.70354147205E+03  0.00000000000E+00 0.  1.
          3    1    6    6  503    0 -0.47669493946E+01  0.23471030569E+02 -0.23163140479E+02  0.33318825900E+02  0.00000000000E+00 0. -1.
         -3    1    6    6    0  503  0.12216873209E+03  0.15779802452E+03  0.19623166912E+02  0.20052552038E+03  0.00000000000E+00 0.  1.
<mgrwt>
<rscale>  0 0.20612608E+04</rscale>
<asrwt>0</asrwt>
<pdfrwt beam="1">  1        2 0.21631030E+00 0.20612608E+04</pdfrwt>
<pdfrwt beam="2">  1       -1 0.11622565E+00 0.20612608E+04</pdfrwt>
<totfact> 0.10120137E+01</totfact>
</mgrwt>
</event>
<event>
12    7  0.1698542E-007  0.2423069E+04  0.7818608E-02  0.8430917E-01
          2   -1    0    0  501    0  0.00000000000E+00  0.00000000000E+00  0.20366232234E+04  0.20366232234E+04  0.00000000000E+00 0. -1.
         -1   -1    0    0    0  501 -0.00000000000E+00 -0.00000000000E+00 -0.72071082305E+03  0.72071082305E+03  0.00000000000E+00 0.  1.
         24    2    1    2    0    0 -0.33146209797E+03 -0.14854186297E+03 -0.54490543470E+03  0.65981347798E+03  0.80623107769E+02 0.  0.
        254    2    1    2    0    0  0.33146209797E+03  0.14854186297E+03  0.18608178351E+04  0.20975205685E+04  0.89722779298E+03 0.  0.
         23    2    4    4    0    0  0.32357395230E+03  0.11499356056E+03  0.15264092930E+03  0.38657889349E+03  0.90666234149E+02 0.  0.
         23    2    4    4    0    0  0.78881456722E+01  0.33548302406E+02  0.17081769058E+04  0.17109416750E+04  0.90914038583E+02 0.  0.
          4    1    3    3  502    0 -0.60593293793E+02  0.25840951615E+01 -0.70374838010E+02  0.92902328418E+02  0.00000000000E+00 0. -1.
         -3    1    3    3    0  502 -0.27086880418E+03 -0.15112595813E+03 -0.47453059669E+03  0.56691114956E+03  0.00000000000E+00 0.  1.
         13    1    5    5    0    0  0.56390162223E+02  0.63913597535E+01  0.62470904741E+02  0.84399726387E+02  0.00000000000E+00 0. -1.
        -13    1    5    5    0    0  0.26718379008E+03  0.10860220081E+03  0.90170024556E+02  0.30217916710E+03  0.00000000000E+00 0.  1.
          4    1    6    6  503    0 -0.23007197595E+02  0.26566531829E+02  0.25399417074E+03  0.25641402170E+03  0.00000000000E+00 0. -1.
         -4    1    6    6    0  503  0.30895343267E+02  0.69817705772E+01  0.14541827351E+04  0.14545276533E+04  0.00000000000E+00 0.  1.
<mgrwt>
<rscale>  0 0.24230695E+04</rscale>
<asrwt>0</asrwt>
<pdfrwt beam="1">  1        2 0.31332665E+00 0.24230695E+04</pdfrwt>
<pdfrwt beam="2">  1       -1 0.11087859E+00 0.24230695E+04</pdfrwt>
<totfact> 0.48754553E+00</totfact>
</mgrwt>
</event>
<event>
12    7  0.1698542E-007  0.1683953E+04  0.7818608E-02  0.8770570E-01
         -1   -1    0    0    0  501 -0.00000000000E+00  0.00000000000E+00  0.14654056349E+04  0.14654056349E+04  0.00000000000E+00 0.  1.
          2   -1    0    0  501    0  0.00000000000E+00 -0.00000000000E+00 -0.48377340080E+03  0.48377340080E+03  0.00000000000E+00 0. -1.
         24    2    1    2    0    0 -0.10651084314E+03  0.46933524574E+02  0.86948728083E+03  0.88080659655E+03  0.79150575292E+02 0.  0.
        254    2    1    2    0    0  0.10651084314E+03 -0.46933524574E+02  0.11214495331E+03  0.10683724392E+04  0.10560756899E+04 0.  0.
         23    2    4    4    0    0 -0.43570678333E+02 -0.19226475722E+03 -0.42943829485E+03  0.48103299378E+03  0.90063039821E+02 0.  0.
         23    2    4    4    0    0  0.15008152147E+03  0.14533123265E+03  0.54158324816E+03  0.58733944541E+03  0.89496252307E+02 0.  0.
          4    1    3    3  502    0 -0.86696956633E+02  0.32505592024E+02  0.39580306416E+03  0.40648867316E+03  0.00000000000E+00 0. -1.
         -3    1    3    3    0  502 -0.19813886503E+02  0.14427932550E+02  0.47368421667E+03  0.47431792340E+03  0.00000000000E+00 0.  1.
         13    1    5    5    0    0  0.58855560608E+01 -0.10172881924E+03 -0.29140987799E+03  0.30871201698E+03  0.00000000000E+00 0. -1.
        -13    1    5    5    0    0 -0.49456234393E+02 -0.90535937980E+02 -0.13802841686E+03  0.17232097680E+03  0.00000000000E+00 0.  1.
          1    1    6    6  503    0  0.15046681664E+02  0.55283432681E+02  0.21702625888E+03  0.22446170632E+03  0.00000000000E+00 0. -1.
         -1    1    6    6    0  503  0.13503483981E+03  0.90047799967E+02  0.32455698927E+03  0.36287773909E+03  0.00000000000E+00 0.  1.
<mgrwt>
<rscale>  0 0.16839528E+04</rscale>
<asrwt>0</asrwt>
<pdfrwt beam="1">  1        2 0.74426678E-01 0.16839528E+04</pdfrwt>
<pdfrwt beam="2">  1       -1 0.22544702E+00 0.16839528E+04</pdfrwt>
<totfact> 0.70517668E+00</totfact>
</mgrwt>
</event>
<event>
12    7  0.1698542E-007  0.2539431E+04  0.7818608E-02  0.8389071E-01
         -1   -1    0    0    0  501 -0.00000000000E+00  0.00000000000E+00  0.72040804436E+03  0.72040804436E+03  0.00000000000E+00 0.  1.
          2   -1    0    0  501    0  0.00000000000E+00 -0.00000000000E+00 -0.22378673872E+04  0.22378673872E+04  0.00000000000E+00 0. -1.
         24    2    1    2    0    0 -0.11058457473E+04 -0.73737782194E+02 -0.67103857933E+03  0.12982267154E+04  0.82266349410E+02 0.  0.
        254    2    1    2    0    0  0.11058457473E+04  0.73737782194E+02 -0.84642076346E+03  0.16600487161E+04  0.90055624679E+03 0.  0.
         23    2    4    4    0    0  0.91754615438E+03  0.25777154501E+03 -0.23098134957E+03  0.98484369312E+03  0.90706125499E+02 0.  0.
         23    2    4    4    0    0  0.18829959295E+03 -0.18403376282E+03 -0.61543941390E+03  0.67520502299E+03  0.88379795937E+02 0.  0.
          4    1    3    3  502    0 -0.97775669410E+03 -0.58112427897E+02 -0.56181574455E+03  0.11291687819E+04  0.00000000000E+00 0. -1.
         -3    1    3    3    0  502 -0.12808905322E+03 -0.15625354298E+02 -0.10922283478E+03  0.16905793353E+03  0.00000000000E+00 0.  1.
         13    1    5    5    0    0  0.56456421079E+03  0.19603312660E+03 -0.11850853778E+03  0.60926677930E+03  0.00000000000E+00 0.  1.
        -13    1    5    5    0    0  0.35298194359E+03  0.61738418418E+02 -0.11247281178E+03  0.37557691382E+03  0.00000000000E+00 0. -1.
          2    1    6    6  503    0  0.84239846730E+02 -0.28969258347E+02 -0.23723655978E+03  0.25341025039E+03  0.00000000000E+00 0. -1.
         -2    1    6    6    0  503  0.10405974622E+03 -0.15506450447E+03 -0.37820285412E+03  0.42179477260E+03  0.00000000000E+00 0.  1.
<mgrwt>
<rscale>  0 0.25394312E+04</rscale>
<asrwt>0</asrwt>
<pdfrwt beam="1">  1        2 0.34428728E+00 0.25394312E+04</pdfrwt>
<pdfrwt beam="2">  1       -1 0.11083201E+00 0.25394312E+04</pdfrwt>
<totfact> 0.37262628E+00</totfact>
</mgrwt>
</event>
<event>
12    7  0.1698542E-007  0.1581433E+04  0.7818608E-02  0.8832036E-01
          2   -1    0    0  501    0  0.00000000000E+00  0.00000000000E+00  0.15769823058E+04  0.15769823058E+04  0.00000000000E+00 0. -1.
         -1   -1    0    0    0  501 -0.00000000000E+00 -0.00000000000E+00 -0.39647406001E+03  0.39647406001E+03  0.00000000000E+00 0.  1.
         24    2    1    2    0    0 -0.45667215925E+03 -0.14239708654E+03  0.70010270665E+03  0.85187604882E+03  0.81991532518E+02 0.  0.
        254    2    1    2    0    0  0.45667215925E+03  0.14239708654E+03  0.48040553912E+03  0.11215803170E+04  0.89349120538E+03 0.  0.
         23    2    4    4    0    0  0.18843998038E+03  0.33288141274E+03  0.63434097067E+03  0.74627670396E+03  0.90668575820E+02 0.  0.
         23    2    4    4    0    0  0.26823217887E+03 -0.19048432620E+03 -0.15393543155E+03  0.37530361301E+03  0.94466420180E+02 0.  0.
          4    1    3    3  502    0 -0.26552642654E+03 -0.11799074517E+03  0.45886794666E+03  0.54312603658E+03  0.00000000000E+00 0. -1.
         -3    1    3    3    0  502 -0.19114573270E+03 -0.24406341374E+02  0.24123475999E+03  0.30875001224E+03  0.00000000000E+00 0.  1.
         13    1    5    5    0    0  0.11811728077E+02  0.47780919061E+01  0.28692822426E+01  0.13060622612E+02  0.00000000000E+00 0. -1.
        -13    1    5    5    0    0  0.17662825230E+03  0.32810332084E+03  0.63147168843E+03  0.73321608134E+03  0.00000000000E+00 0.  1.
          4    1    6    6  503    0  0.53937702475E+02 -0.13011650026E+01 -0.41763859160E+02  0.68228943349E+02  0.00000000000E+00 0. -1.
         -4    1    6    6    0  503  0.21429447639E+03 -0.18918316119E+03 -0.11217157239E+03  0.30707466966E+03  0.00000000000E+00 0.  1.
<mgrwt>
<rscale>  0 0.15814330E+04</rscale>
<asrwt>0</asrwt>
<pdfrwt beam="1">  1        2 0.24261266E+00 0.15814330E+04</pdfrwt>
<pdfrwt beam="2">  1       -1 0.60996010E-01 0.15814330E+04</pdfrwt>
<totfact> 0.34261873E+01</totfact>
</mgrwt>
</event>
<event>
12    7  0.1698542E-007  0.1590142E+04  0.7818608E-02  0.8826627E-01
         -1   -1    0    0    0  501 -0.00000000000E+00  0.00000000000E+00  0.42456955836E+03  0.42456955836E+03  0.00000000000E+00 0.  1.
          2   -1    0    0  501    0  0.00000000000E+00 -0.00000000000E+00 -0.14888912965E+04  0.14888912965E+04  0.00000000000E+00 0. -1.
         24    2    1    2    0    0  0.42890420446E+03 -0.23389628684E+03 -0.94880587226E+02  0.50364851077E+03  0.77415805673E+02 0.  0.
        254    2    1    2    0    0 -0.42890420446E+03  0.23389628684E+03 -0.96944115093E+03  0.14098123441E+04  0.89949341904E+03 0.  0.
         23    2    4    4    0    0 -0.97580085925E+02 -0.33453437404E+03 -0.36120464450E+03  0.50902662241E+03  0.84877479535E+02 0.  0.
         23    2    4    4    0    0 -0.33132411853E+03  0.56843066088E+03 -0.60823650643E+03  0.90078572170E+03  0.92596873205E+02 0.  0.
          4    1    3    3  502    0  0.84196184920E+01  0.55717112356E+01 -0.57395218769E+01  0.11613614985E+02  0.00000000000E+00 0. -1.
         -3    1    3    3    0  502  0.42048458597E+03 -0.23946799808E+03 -0.89141065349E+02  0.49203489578E+03  0.00000000000E+00 0.  1.
         13    1    5    5    0    0 -0.11252565731E+03 -0.27888371243E+03 -0.29511672913E+03  0.42134550244E+03  0.00000000000E+00 0.  1.
        -13    1    5    5    0    0  0.14945571390E+02 -0.55650661605E+02 -0.66087915367E+02  0.87681119968E+02  0.00000000000E+00 0. -1.
          3    1    6    6  503    0 -0.79280947195E+02  0.72512162576E+02 -0.83709347508E+02  0.13620109093E+03  0.00000000000E+00 0. -1.
         -3    1    6    6    0  503 -0.25204317134E+03  0.49591849830E+03 -0.52452715892E+03  0.76458463078E+03  0.00000000000E+00 0.  1.
<mgrwt>
<rscale>  0 0.15901420E+04</rscale>
<asrwt>0</asrwt>
<pdfrwt beam="1">  1        2 0.22906020E+00 0.15901420E+04</pdfrwt>
<pdfrwt beam="2">  1       -1 0.65318395E-01 0.15901420E+04</pdfrwt>
<totfact> 0.33463421E+01</totfact>
</mgrwt>
</event>
<event>
12    7  0.1698542E-007  0.2046138E+04  0.7818608E-02  0.8585348E-01
         -1   -1    0    0    0  501 -0.00000000000E+00  0.00000000000E+00  0.98239465616E+03  0.98239465616E+03  0.00000000000E+00 0.  1.
          2   -1    0    0  501    0  0.00000000000E+00 -0.00000000000E+00 -0.10654271506E+04  0.10654271506E+04  0.00000000000E+00 0. -1.
         24    2    1    2    0    0  0.26873641772E+03 -0.17212448763E+03  0.75371494943E+03  0.82246815318E+03  0.80756031107E+02 0.  0.
        254    2    1    2    0    0 -0.26873641772E+03  0.17212448763E+03 -0.83674744384E+03  0.12253536536E+04  0.83636068179E+03 0.  0.
         23    2    4    4    0    0  0.10993704861E+03  0.40153244197E+03 -0.29533985696E+03  0.51934436221E+03  0.95804377957E+02 0.  0.
         23    2    4    4    0    0 -0.37867346633E+03 -0.22940795434E+03 -0.54140758688E+03  0.70600929134E+03  0.96464193957E+02 0.  0.
          2    1    3    3  502    0  0.59244159572E+02 -0.61616175887E+02  0.28135126558E+03  0.29404924455E+03  0.00000000000E+00 0. -1.
         -1    1    3    3    0  502  0.20949225815E+03 -0.11050831174E+03  0.47236368384E+03  0.52841890863E+03  0.00000000000E+00 0.  1.
         13    1    5    5    0    0  0.55228886491E+02  0.10769328447E+03 -0.13061836990E+03  0.17807086224E+03  0.00000000000E+00 0.  1.
        -13    1    5    5    0    0  0.54708162115E+02  0.29383915750E+03 -0.16472148707E+03  0.34127349997E+03  0.00000000000E+00 0. -1.
          2    1    6    6  503    0 -0.37310752656E+02 -0.41097980341E+02 -0.30465559588E+02  0.63318927446E+02  0.00000000000E+00 0.  1.
         -2    1    6    6    0  503 -0.34136271367E+03 -0.18830997400E+03 -0.51094202729E+03  0.64269036390E+03  0.00000000000E+00 0. -1.
<mgrwt>
<rscale>  0 0.20461378E+04</rscale>
<asrwt>0</asrwt>
<pdfrwt beam="1">  1        2 0.16391187E+00 0.20461378E+04</pdfrwt>
<pdfrwt beam="2">  1       -1 0.15113764E+00 0.20461378E+04</pdfrwt>
<totfact> 0.82612433E+00</totfact>
</mgrwt>
</event>
<event>
12    7  0.2670496E-007  0.3364531E+04  0.7818608E-02  0.8146667E-01
          2   -1    0    0  501    0  0.00000000000E+00  0.00000000000E+00  0.33900571239E+04  0.33900571239E+04  0.00000000000E+00 0. -1.
         -1   -1    0    0    0  501 -0.00000000000E+00 -0.00000000000E+00 -0.83479951667E+03  0.83479951667E+03  0.00000000000E+00 0.  1.
         24    2    1    2    0    0 -0.86036395957E+03 -0.96300415242E+03  0.23005560014E+04  0.26394309064E+04  0.80215045721E+02 0.  0.
        254    2    1    2    0    0  0.86036395957E+03  0.96300415242E+03  0.25470160589E+03  0.15854257342E+04  0.88379788991E+03 0.  0.
         23    2    4    4    0    0  0.46860799583E+03  0.61579507390E+03 -0.28319919210E+03  0.82908374826E+03  0.91548088068E+02 0.  0.
         23    2    4    4    0    0  0.39175596374E+03  0.34720907852E+03  0.53790079799E+03  0.75634198597E+03  0.93215084231E+02 0.  0.
          4    1    3    3  502    0 -0.85404674894E+03 -0.94572899662E+03  0.22523218543E+04  0.25878085168E+04  0.00000000000E+00 0. -1.
         -3    1    3    3    0  502 -0.63172106329E+01 -0.17275155798E+02  0.48234147110E+02  0.51622389575E+02  0.00000000000E+00 0.  1.
         13    1    5    5    0    0  0.45075744911E+03  0.58912637786E+03 -0.28967754001E+03  0.79634492790E+03  0.00000000000E+00 0.  1.
        -13    1    5    5    0    0  0.17850546717E+02  0.26668696045E+02  0.64783479031E+01  0.32738820357E+02  0.00000000000E+00 0. -1.
          2    1    6    6  503    0  0.26411028604E+02  0.37784504105E+02  0.17767169339E+02  0.49405298184E+02  0.00000000000E+00 0. -1.
         -2    1    6    6    0  503  0.36534493514E+03  0.30942457441E+03  0.52013362865E+03  0.70693668779E+03  0.00000000000E+00 0.  1.
<mgrwt>
<rscale>  0 0.33645315E+04</rscale>
<asrwt>0</asrwt>
<pdfrwt beam="1">  1        2 0.52154724E+00 0.33645315E+04</pdfrwt>
<pdfrwt beam="2">  1       -1 0.12843070E+00 0.33645315E+04</pdfrwt>
<totfact> 0.47708493E-01</totfact>
</mgrwt>
</event>
<event>
12    7  0.1698542E-007  0.1501552E+04  0.7818608E-02  0.8883422E-01
         -3   -1    0    0    0  501 -0.00000000000E+00  0.00000000000E+00  0.62466095572E+03  0.62466095572E+03  0.00000000000E+00 0.  1.
          4   -1    0    0  501    0  0.00000000000E+00 -0.00000000000E+00 -0.90235255301E+03  0.90235255301E+03  0.00000000000E+00 0. -1.
         24    2    1    2    0    0  0.27798572598E+03  0.20717624675E+03  0.24122206420E+03  0.43050819113E+03  0.83373600806E+02 0.  0.
        254    2    1    2    0    0 -0.27798572598E+03 -0.20717624675E+03 -0.51891366149E+03  0.10965053176E+04  0.90158441778E+03 0.  0.
         23    2    4    4    0    0 -0.42361843421E+03 -0.35799757977E+03 -0.62594021030E+03  0.84149490928E+03  0.93261409752E+02 0.  0.
         23    2    4    4    0    0  0.14563270823E+03  0.15082133302E+03  0.10702654881E+03  0.25501040832E+03  0.98079895999E+02 0.  0.
          4    1    3    3  502    0  0.10745989555E+03  0.13194833968E+03  0.11778783530E+03  0.20695885495E+03  0.00000000000E+00 0. -1.
         -3    1    3    3    0  502  0.17052583043E+03  0.75227907067E+02  0.12343422890E+03  0.22354933619E+03  0.00000000000E+00 0.  1.
         13    1    5    5    0    0 -0.95166633994E+02 -0.10117596173E+03 -0.10428608139E+03  0.17369182545E+03  0.00000000000E+00 0. -1.
        -13    1    5    5    0    0 -0.32845180022E+03 -0.25682161804E+03 -0.52165412891E+03  0.66780308383E+03  0.00000000000E+00 0.  1.
          2    1    6    6  503    0  0.39732663511E+02  0.14571315940E+02 -0.13614187231E+02  0.44456201950E+02  0.00000000000E+00 0. -1.
         -2    1    6    6    0  503  0.10590004472E+03  0.13625001708E+03  0.12064073604E+03  0.21055420637E+03  0.00000000000E+00 0.  1.
<mgrwt>
<rscale>  0 0.15015517E+04</rscale>
<asrwt>0</asrwt>
<pdfrwt beam="1">  1        4 0.13882347E+00 0.15015517E+04</pdfrwt>
<pdfrwt beam="2">  1       -3 0.96101685E-01 0.15015517E+04</pdfrwt>
<totfact> 0.77369872E-01</totfact>
</mgrwt>
</event>
<event>
12    7  0.1698542E-007  0.1376497E+04  0.7818608E-02  0.8971009E-01
          2   -1    0    0  501    0  0.00000000000E+00  0.00000000000E+00  0.52112700286E+03  0.52112700286E+03  0.00000000000E+00 0. -1.
         -1   -1    0    0    0  501 -0.00000000000E+00 -0.00000000000E+00 -0.90896466398E+03  0.90896466398E+03  0.00000000000E+00 0.  1.
         24    2    1    2    0    0  0.38248213440E+03  0.68977152291E+02 -0.15383978521E+03  0.42768220693E+03  0.90526018037E+02 0.  0.
        254    2    1    2    0    0 -0.38248213440E+03 -0.68977152291E+02 -0.23399787591E+03  0.10024094599E+04  0.89387878861E+03 0.  0.
         23    2    4    4    0    0 -0.60655761347E+02  0.36779006487E+03 -0.23995628182E+03  0.45209896085E+03  0.88689345544E+02 0.  0.
         23    2    4    4    0    0 -0.32182637305E+03 -0.43676721716E+03  0.59584059161E+01  0.55031049906E+03  0.92023510046E+02 0.  0.
          4    1    3    3  502    0  0.33438794657E+03  0.28629818444E+02 -0.13844259155E+03  0.36304451031E+03  0.00000000000E+00 0. -1.
         -3    1    3    3    0  502  0.48094187830E+02  0.40347333847E+02 -0.15397193659E+02  0.64637696619E+02  0.00000000000E+00 0.  1.
         13    1    5    5    0    0 -0.83797794310E+01 -0.28436269612E+01 -0.50016401499E+01  0.10164808006E+02  0.00000000000E+00 0.  1.
        -13    1    5    5    0    0 -0.52275981917E+02  0.37063369183E+03 -0.23495464167E+03  0.44193415284E+03  0.00000000000E+00 0. -1.
          3    1    6    6  503    0 -0.32707373496E+03 -0.43587083511E+03  0.62842817728E+01  0.54497716025E+03  0.00000000000E+00 0. -1.
         -3    1    6    6    0  503  0.52473619107E+01 -0.89638205372E+00 -0.32587585672E+00  0.53333388119E+01  0.00000000000E+00 0.  1.
<mgrwt>
<rscale>  0 0.13764970E+04</rscale>
<asrwt>0</asrwt>
<pdfrwt beam="1">  1        2 0.80173387E-01 0.13764970E+04</pdfrwt>
<pdfrwt beam="2">  1       -1 0.13984071E+00 0.13764970E+04</pdfrwt>
<totfact> 0.27498633E+01</totfact>
</mgrwt>
</event>
<event>
12    7  0.1698542E-007  0.2019019E+04  0.7818608E-02  0.8597780E-01
         -1   -1    0    0    0  501 -0.00000000000E+00  0.00000000000E+00  0.73851458939E+03  0.73851458939E+03  0.00000000000E+00 0.  1.
          2   -1    0    0  501    0  0.00000000000E+00 -0.00000000000E+00 -0.13799447488E+04  0.13799447488E+04  0.00000000000E+00 0. -1.
         24    2    1    2    0    0  0.42992705027E+03 -0.62572317405E+03  0.27467998615E+02  0.76388950036E+03  0.80036983415E+02 0.  0.
        254    2    1    2    0    0 -0.42992705027E+03  0.62572317405E+03 -0.66889815803E+03  0.13545698378E+04  0.90059310493E+03 0.  0.
         23    2    4    4    0    0  0.14716982589E+03  0.14755150131E+03 -0.54352671264E+03  0.58935482207E+03  0.92127171572E+02 0.  0.
         23    2    4    4    0    0 -0.57709687616E+03  0.47817167273E+03 -0.12537144539E+03  0.76521501577E+03  0.90261109875E+02 0.  0.
          4    1    3    3  502    0  0.11119182177E+03 -0.20444031694E+03 -0.19477921520E+02  0.23353555156E+03  0.00000000000E+00 0. -1.
         -3    1    3    3    0  502  0.31873522850E+03 -0.42128285711E+03  0.46945920135E+02  0.53035394879E+03  0.00000000000E+00 0.  1.
         13    1    5    5    0    0  0.13876239896E+03  0.12781293353E+03 -0.53310777349E+03  0.56550424180E+03  0.00000000000E+00 0.  1.
        -13    1    5    5    0    0  0.84074269292E+01  0.19738567785E+02 -0.10418939156E+02  0.23850580263E+02  0.00000000000E+00 0. -1.
          1    1    6    6  503    0 -0.16244955214E+03  0.16872613990E+03 -0.62987957821E+01  0.23430331219E+03  0.00000000000E+00 0. -1.
         -1    1    6    6    0  503 -0.41464732402E+03  0.30944553284E+03 -0.11907264960E+03  0.53091170357E+03  0.00000000000E+00 0.  1.
<mgrwt>
<rscale>  0 0.20190189E+04</rscale>
<asrwt>0</asrwt>
<pdfrwt beam="1">  1        2 0.21229919E+00 0.20190189E+04</pdfrwt>
<pdfrwt beam="2">  1       -1 0.11361763E+00 0.20190189E+04</pdfrwt>
<totfact> 0.11100647E+01</totfact>
</mgrwt>
</event>
<event>
12    7  0.1698542E-007  0.1806014E+04  0.7818608E-02  0.8703108E-01
          2   -1    0    0  501    0  0.00000000000E+00  0.00000000000E+00  0.14720592880E+04  0.14720592880E+04  0.00000000000E+00 0. -1.
         -1   -1    0    0    0  501 -0.00000000000E+00 -0.00000000000E+00 -0.55393261947E+03  0.55393261947E+03  0.00000000000E+00 0.  1.
         24    2    1    2    0    0  0.14915880103E+03 -0.55825411768E+03  0.73788744419E+03  0.94065434732E+03  0.80353674594E+02 0.  0.
        254    2    1    2    0    0 -0.14915880103E+03  0.55825411768E+03  0.18023922432E+03  0.10853375601E+04  0.90087481571E+03 0.  0.
         23    2    4    4    0    0 -0.31771166371E+02  0.14460291206E+03 -0.35329190568E+03  0.39393849401E+03  0.91939965484E+02 0.  0.
         23    2    4    4    0    0 -0.11738763466E+03  0.41365120562E+03  0.53353113000E+03  0.69139906610E+03  0.92141333015E+02 0.  0.
          2    1    3    3  502    0  0.83615388290E+02 -0.29595131177E+03  0.45648842963E+03  0.55041838495E+03  0.00000000000E+00 0. -1.
         -1    1    3    3    0  502  0.65543412744E+02 -0.26230280591E+03  0.28139901455E+03  0.39023596238E+03  0.00000000000E+00 0.  1.
         13    1    5    5    0    0  0.14133096605E+02 -0.56364288277E+01 -0.51588677182E+02  0.53785735683E+02  0.00000000000E+00 0. -1.
        -13    1    5    5    0    0 -0.45904262976E+02  0.15023934089E+03 -0.30170322850E+03  0.34015275833E+03  0.00000000000E+00 0.  1.
          1    1    6    6  503    0 -0.51288061460E+02  0.87526124811E+02  0.17475489975E+03  0.20206573871E+03  0.00000000000E+00 0. -1.
         -1    1    6    6    0  503 -0.66099573204E+02  0.32612508081E+03  0.35877623025E+03  0.48933332740E+03  0.00000000000E+00 0.  1.
<mgrwt>
<rscale>  0 0.18060140E+04</rscale>
<asrwt>0</asrwt>
<pdfrwt beam="1">  1        2 0.22647066E+00 0.18060140E+04</pdfrwt>
<pdfrwt beam="2">  1       -1 0.85220404E-01 0.18060140E+04</pdfrwt>
<totfact> 0.19271946E+01</totfact>
</mgrwt>
</event>
<event>
12    7  0.1698542E-007  0.1089932E+04  0.7818608E-02  0.9215061E-01
         -1   -1    0    0    0  501 -0.00000000000E+00  0.00000000000E+00  0.65872654938E+03  0.65872654938E+03  0.00000000000E+00 0.  1.
          2   -1    0    0  501    0  0.00000000000E+00 -0.00000000000E+00 -0.45085170372E+03  0.45085170372E+03  0.00000000000E+00 0. -1.
         24    2    1    2    0    0 -0.69058471148E+01 -0.13684264336E+03 -0.47948389082E+02  0.16290447583E+03  0.73927129421E+02 0.  0.
        254    2    1    2    0    0  0.69058471148E+01  0.13684264336E+03  0.25582323474E+03  0.94667377726E+03  0.90109495246E+03 0.  0.
         23    2    4    4    0    0 -0.13307719390E+03  0.49121577113E+03  0.18030916156E+03  0.54728498406E+03  0.89481767372E+02 0.  0.
         23    2    4    4    0    0  0.13998304101E+03 -0.35437312777E+03  0.75514073184E+02  0.39938879321E+03  0.92916454055E+02 0.  0.
          2    1    3    3  502    0  0.17900729965E+02 -0.12563040937E+03 -0.48021418027E+02  0.13568158490E+03  0.00000000000E+00 0. -1.
         -1    1    3    3    0  502 -0.24806577080E+02 -0.11212233991E+02  0.73028944867E-01  0.27222890932E+02  0.00000000000E+00 0.  1.
         13    1    5    5    0    0 -0.11924264248E+03  0.47217926355E+03  0.15136964601E+03  0.50998513159E+03  0.00000000000E+00 0. -1.
        -13    1    5    5    0    0 -0.13834551417E+02  0.19036507579E+02  0.28939515549E+02  0.37299852465E+02  0.00000000000E+00 0.  1.
          2    1    6    6  503    0  0.84712879042E+02 -0.30104503759E+03  0.41822347764E+02  0.31552099028E+03  0.00000000000E+00 0. -1.
         -2    1    6    6    0  503  0.55270161968E+02 -0.53328090177E+02  0.33691725420E+02  0.83867802926E+02  0.00000000000E+00 0.  1.
<mgrwt>
<rscale>  0 0.10899321E+04</rscale>
<asrwt>0</asrwt>
<pdfrwt beam="1">  1        2 0.69361801E-01 0.10899321E+04</pdfrwt>
<pdfrwt beam="2">  1       -1 0.10134255E+00 0.10899321E+04</pdfrwt>
<totfact> 0.72950058E+01</totfact>
</mgrwt>
</event>
<event>
12    7  0.1698542E-007  0.1889286E+04  0.7818608E-02  0.8660208E-01
          2   -1    0    0  501    0  0.00000000000E+00  0.00000000000E+00  0.14683319010E+04  0.14683319010E+04  0.00000000000E+00 0. -1.
         -1   -1    0    0    0  501 -0.00000000000E+00 -0.00000000000E+00 -0.60773062004E+03  0.60773062004E+03  0.00000000000E+00 0.  1.
         24    2    1    2    0    0  0.30138210341E+03  0.32886679876E+03 -0.29471578735E+03  0.54063992143E+03  0.80309312956E+02 0.  0.
        254    2    1    2    0    0 -0.30138210341E+03 -0.32886679876E+03  0.11553170683E+04  0.15354225996E+04  0.90762353840E+03 0.  0.
         23    2    4    4    0    0 -0.50929459572E+03 -0.28753350905E+03  0.32826678394E+03  0.67695939244E+03  0.91969742438E+02 0.  0.
         23    2    4    4    0    0  0.20791249230E+03 -0.41333289707E+02  0.82705028436E+03  0.85846320715E+03  0.89503407075E+02 0.  0.
          4    1    3    3  502    0  0.85643021789E+02  0.57661512448E+02 -0.40752534365E+02  0.11099705517E+03  0.00000000000E+00 0. -1.
         -3    1    3    3    0  502  0.21573908162E+03  0.27120528631E+03 -0.25396325299E+03  0.42964286626E+03  0.00000000000E+00 0.  1.
         13    1    5    5    0    0 -0.25153158551E+03 -0.14292763677E+03  0.21499087882E+03  0.36044073832E+03  0.00000000000E+00 0. -1.
        -13    1    5    5    0    0 -0.25776301020E+03 -0.14460587228E+03  0.11327590512E+03  0.31651865412E+03  0.00000000000E+00 0.  1.
          4    1    6    6  503    0  0.60409789397E+02 -0.63049709240E+01  0.11091416644E+03  0.12645571410E+03  0.00000000000E+00 0. -1.
         -4    1    6    6    0  503  0.14750270291E+03 -0.35028318783E+02  0.71613611792E+03  0.73200749305E+03  0.00000000000E+00 0.  1.
<mgrwt>
<rscale>  0 0.18892859E+04</rscale>
<asrwt>0</asrwt>
<pdfrwt beam="1">  1        2 0.22589721E+00 0.18892859E+04</pdfrwt>
<pdfrwt beam="2">  1       -1 0.93497019E-01 0.18892859E+04</pdfrwt>
<totfact> 0.15681588E+01</totfact>
</mgrwt>
</event>
<event>
12    7  0.1698542E-007  0.1261060E+04  0.7818608E-02  0.9061028E-01
          2   -1    0    0  501    0  0.00000000000E+00  0.00000000000E+00  0.33949717859E+04  0.33949717859E+04  0.00000000000E+00 0. -1.
         -1   -1    0    0    0  501 -0.00000000000E+00 -0.00000000000E+00 -0.11710495373E+03  0.11710495373E+03  0.00000000000E+00 0.  1.
         24    2    1    2    0    0 -0.14444338748E+03 -0.14373497331E+03  0.19364168004E+03  0.29256507023E+03  0.81077650008E+02 0.  0.
        254    2    1    2    0    0  0.14444338748E+03  0.14373497331E+03  0.30842251522E+04  0.32195116694E+04  0.90071469713E+03 0.  0.
         23    2    4    4    0    0 -0.36932486834E+03  0.11383585177E+03  0.14883085682E+04  0.15401462854E+04  0.87342583958E+02 0.  0.
         23    2    4    4    0    0  0.51376825582E+03  0.29899121538E+02  0.15959165840E+04  0.16793653840E+04  0.92013975553E+02 0.  0.
          4    1    3    3  502    0 -0.18978382947E+02  0.69366863207E+01  0.34743940766E+02  0.40192512441E+02  0.00000000000E+00 0. -1.
         -3    1    3    3    0  502 -0.12546500453E+03 -0.15067165963E+03  0.15889773928E+03  0.25237255779E+03  0.00000000000E+00 0.  1.
         13    1    5    5    0    0 -0.35280405269E+03  0.12120066550E+03  0.14569070362E+04  0.15039077143E+04  0.00000000000E+00 0. -1.
        -13    1    5    5    0    0 -0.16520815646E+02 -0.73648137300E+01  0.31401531957E+02  0.36238571166E+02  0.00000000000E+00 0.  1.
          4    1    6    6  503    0  0.12983540467E+03 -0.24479044941E+02  0.48712656551E+03  0.50472640784E+03  0.00000000000E+00 0.  1.
         -4    1    6    6    0  503  0.38393285115E+03  0.54378166478E+02  0.11087900185E+04  0.11746389761E+04  0.00000000000E+00 0. -1.
<mgrwt>
<rscale>  0 0.12610599E+04</rscale>
<asrwt>0</asrwt>
<pdfrwt beam="1">  1        2 0.52230328E+00 0.12610599E+04</pdfrwt>
<pdfrwt beam="2">  1       -1 0.18016149E-01 0.12610599E+04</pdfrwt>
<totfact> 0.26722158E+01</totfact>
</mgrwt>
</event>
<event>
12    7  0.1698542E-007  0.1172770E+04  0.7818608E-02  0.9137030E-01
         -1   -1    0    0    0  501 -0.00000000000E+00  0.00000000000E+00  0.14455272769E+03  0.14455272769E+03  0.00000000000E+00 0.  1.
          2   -1    0    0  501    0  0.00000000000E+00 -0.00000000000E+00 -0.23786996986E+04  0.23786996986E+04  0.00000000000E+00 0. -1.
         24    2    1    2    0    0 -0.25730781143E+01 -0.22309699522E+03 -0.65634235181E+03  0.69772545972E+03  0.79098952963E+02 0.  0.
        254    2    1    2    0    0  0.25730781143E+01  0.22309699522E+03 -0.15778046191E+04  0.18255269666E+04  0.89067524926E+03 0.  0.
         23    2    4    4    0    0  0.41028308352E+03  0.26349910692E+03 -0.79647313355E+03  0.93855673680E+03  0.93569801504E+02 0.  0.
         23    2    4    4    0    0 -0.40771000541E+03 -0.40402111701E+02 -0.78133148557E+03  0.88697022979E+03  0.91528788171E+02 0.  0.
          4    1    3    3  502    0 -0.14751343924E+02 -0.15218632079E+03 -0.53727661681E+03  0.55860938173E+03  0.00000000000E+00 0. -1.
         -3    1    3    3    0  502  0.12178265810E+02 -0.70910674425E+02 -0.11906573500E+03  0.13911607800E+03  0.00000000000E+00 0.  1.
         13    1    5    5    0    0  0.20464684628E+03  0.15136122024E+03 -0.49675954959E+03  0.55817613778E+03  0.00000000000E+00 0.  1.
        -13    1    5    5    0    0  0.20563623724E+03  0.11213788667E+03 -0.29971358396E+03  0.38038059901E+03  0.00000000000E+00 0. -1.
          3    1    6    6  503    0 -0.29701053383E+03 -0.64480381387E+02 -0.61079544502E+03  0.68223460220E+03  0.00000000000E+00 0. -1.
         -3    1    6    6    0  503 -0.11069947158E+03  0.24078269686E+02 -0.17053604055E+03  0.20473562759E+03  0.00000000000E+00 0.  1.
<mgrwt>
<rscale>  0 0.11727703E+04</rscale>
<asrwt>0</asrwt>
<pdfrwt beam="1">  1        2 0.36595376E+00 0.11727703E+04</pdfrwt>
<pdfrwt beam="2">  1       -1 0.22238883E-01 0.11727703E+04</pdfrwt>
<totfact> 0.79162354E+01</totfact>
</mgrwt>
</event>
<event>
12    7  0.1698542E-007  0.1690194E+04  0.7818608E-02  0.8766977E-01
         -1   -1    0    0    0  501 -0.00000000000E+00  0.00000000000E+00  0.41213406581E+03  0.41213406581E+03  0.00000000000E+00 0.  1.
          2   -1    0    0  501    0  0.00000000000E+00 -0.00000000000E+00 -0.17329050099E+04  0.17329050099E+04  0.00000000000E+00 0. -1.
         24    2    1    2    0    0 -0.19105575365E+02  0.37627406483E+03 -0.11108789824E+04  0.11758830320E+04  0.81863279486E+02 0.  0.
        254    2    1    2    0    0  0.19105575365E+02 -0.37627406483E+03 -0.20989196166E+03  0.96915604369E+03  0.86790645036E+03 0.  0.
         23    2    4    4    0    0  0.62511815573E+02  0.24455464760E+02 -0.46829333391E+03  0.48180080332E+03  0.91255523959E+02 0.  0.
         23    2    4    4    0    0 -0.43406240208E+02 -0.40072952959E+03  0.25840137225E+03  0.48735524037E+03  0.90970344402E+02 0.  0.
          4    1    3    3  502    0 -0.50124388826E+02  0.21710126509E+03 -0.61110576017E+03  0.65045804151E+03  0.00000000000E+00 0. -1.
         -3    1    3    3    0  502  0.31018813461E+02  0.15917279975E+03 -0.49977322223E+03  0.52542499048E+03  0.00000000000E+00 0.  1.
         13    1    5    5    0    0  0.40741056256E+02 -0.69671993919E-03 -0.61984803804E+02  0.74175127691E+02  0.00000000000E+00 0. -1.
        -13    1    5    5    0    0  0.21770759316E+02  0.24456161480E+02 -0.40630853011E+03  0.40762567563E+03  0.00000000000E+00 0.  1.
          3    1    6    6  503    0 -0.22534465793E+02 -0.23472640508E+02  0.37640913882E+02  0.49755455971E+02  0.00000000000E+00 0. -1.
         -3    1    6    6    0  503 -0.20871774415E+02 -0.37725688909E+03  0.22076045837E+03  0.43759978440E+03  0.00000000000E+00 0.  1.
<mgrwt>
<rscale>  0 0.16901943E+04</rscale>
<asrwt>0</asrwt>
<pdfrwt beam="1">  1        2 0.26660077E+00 0.16901943E+04</pdfrwt>
<pdfrwt beam="2">  1       -1 0.63405241E-01 0.16901943E+04</pdfrwt>
<totfact> 0.25729422E+01</totfact>
</mgrwt>
</event>
<event>
12    7  0.1698542E-007  0.1359271E+04  0.7818608E-02  0.8983840E-01
         -1   -1    0    0    0  501 -0.00000000000E+00  0.00000000000E+00  0.17261892761E+03  0.17261892761E+03  0.00000000000E+00 0.  1.
          2   -1    0    0  501    0  0.00000000000E+00 -0.00000000000E+00 -0.26758615243E+04  0.26758615243E+04  0.00000000000E+00 0. -1.
         24    2    1    2    0    0 -0.24352646782E+03  0.23241374022E+03 -0.10338370882E+04  0.10901629042E+04  0.79465373575E+02 0.  0.
        254    2    1    2    0    0  0.24352646782E+03 -0.23241374022E+03 -0.14694055085E+04  0.17583175477E+04  0.90510041596E+03 0.  0.
         23    2    4    4    0    0  0.18085656532E+03 -0.28426094480E+03 -0.71595893982E+02  0.35521277251E+03  0.86814513546E+02 0.  0.
         23    2    4    4    0    0  0.62669902503E+02  0.51847204575E+02 -0.13978096145E+04  0.14031047752E+04  0.90640181232E+02 0.  0.
          4    1    3    3  502    0 -0.65494751072E+02  0.39938831544E+02 -0.15332480237E+03  0.17144435746E+03  0.00000000000E+00 0. -1.
         -3    1    3    3    0  502 -0.17803171675E+03  0.19247490868E+03 -0.88051228582E+03  0.91871854674E+03  0.00000000000E+00 0.  1.
         13    1    5    5    0    0  0.11054671629E+03 -0.98300887967E+02 -0.16102058756E+02  0.14880496414E+03  0.00000000000E+00 0. -1.
        -13    1    5    5    0    0  0.70309849034E+02 -0.18596005683E+03 -0.55493835226E+02  0.20640780837E+03  0.00000000000E+00 0.  1.
          3    1    6    6  503    0 -0.13354707707E+00 -0.22903211667E+01  0.49245771527E+00  0.23464697888E+01  0.00000000000E+00 0. -1.
         -3    1    6    6    0  503  0.62803449580E+02  0.54137525742E+02 -0.13983020722E+04  0.14007583054E+04  0.00000000000E+00 0.  1.
<mgrwt>
<rscale>  0 0.13592709E+04</rscale>
<asrwt>0</asrwt>
<pdfrwt beam="1">  1        2 0.41167095E+00 0.13592709E+04</pdfrwt>
<pdfrwt beam="2">  1       -1 0.26556761E-01 0.13592709E+04</pdfrwt>
<totfact> 0.38741887E+01</totfact>
</mgrwt>
</event>
<event>
12    7  0.1698542E-007  0.1697677E+04  0.7818608E-02  0.8762690E-01
         -1   -1    0    0    0  501 -0.00000000000E+00  0.00000000000E+00  0.91305448467E+03  0.91305448467E+03  0.00000000000E+00 0.  1.
          2   -1    0    0  501    0  0.00000000000E+00 -0.00000000000E+00 -0.78913905020E+03  0.78913905020E+03  0.00000000000E+00 0. -1.
         24    2    1    2    0    0  0.24278756958E+03 -0.23584191223E+03 -0.46171135495E+03  0.57667486004E+03  0.69349170172E+02 0.  0.
        254    2    1    2    0    0 -0.24278756958E+03  0.23584191223E+03  0.58562678943E+03  0.11255186748E+04  0.89959231844E+03 0.  0.
         23    2    4    4    0    0 -0.32198549045E+03  0.31573417763E+03 -0.59722002296E+02  0.46433830648E+03  0.93169835932E+02 0.  0.
         23    2    4    4    0    0  0.79197920874E+02 -0.79892265391E+02  0.64534879172E+03  0.66118036835E+03  0.89606538666E+02 0.  0.
          2    1    3    3  502    0  0.16381275829E+03 -0.11443471575E+03 -0.28747387719E+03  0.35010163384E+03  0.00000000000E+00 0. -1.
         -1    1    3    3    0  502  0.78974811285E+02 -0.12140719649E+03 -0.17423747776E+03  0.22657322620E+03  0.00000000000E+00 0.  1.
         13    1    5    5    0    0 -0.30100332174E+03  0.25273019679E+03 -0.39991297601E+02  0.39506310375E+03  0.00000000000E+00 0.  1.
        -13    1    5    5    0    0 -0.20982168716E+02  0.63003980836E+02 -0.19730704695E+02  0.69275202728E+02  0.00000000000E+00 0. -1.
          2    1    6    6  503    0  0.59926028509E+02 -0.15884168647E+02  0.45974065369E+03  0.46390182621E+03  0.00000000000E+00 0. -1.
         -2    1    6    6    0  503  0.19271892365E+02 -0.64008096744E+02  0.18560813803E+03  0.19727854214E+03  0.00000000000E+00 0.  1.
<mgrwt>
<rscale>  0 0.16976772E+04</rscale>
<asrwt>0</asrwt>
<pdfrwt beam="1">  1        2 0.12140601E+00 0.16976772E+04</pdfrwt>
<pdfrwt beam="2">  1       -1 0.14046992E+00 0.16976772E+04</pdfrwt>
<totfact> 0.15837607E+01</totfact>
</mgrwt>
</event>
<event>
12    7  0.1698542E-007  0.2552669E+04  0.7818608E-02  0.8384459E-01
         -1   -1    0    0    0  501 -0.00000000000E+00  0.00000000000E+00  0.38148189861E+03  0.38148189861E+03  0.00000000000E+00 0.  1.
          2   -1    0    0  501    0  0.00000000000E+00 -0.00000000000E+00 -0.42702678269E+04  0.42702678269E+04  0.00000000000E+00 0. -1.
         24    2    1    2    0    0  0.67478402907E+03  0.68949465333E+02 -0.90315827302E+02  0.68911561185E+03  0.81460807587E+02 0.  0.
        254    2    1    2    0    0 -0.67478402907E+03 -0.68949465333E+02 -0.37984701010E+04  0.39626341137E+04  0.90222308550E+03 0.  0.
         23    2    4    4    0    0 -0.14929383004E+03  0.38790872297E+03 -0.15066709327E+04  0.15656072909E+04  0.91143100987E+02 0.  0.
         23    2    4    4    0    0 -0.52549019904E+03 -0.45685818830E+03 -0.22917991683E+04  0.23970268227E+04  0.92384023200E+02 0.  0.
          2    1    3    3  502    0  0.97449889322E+02  0.33591397422E+02 -0.31153565317E+02  0.10768197408E+03  0.00000000000E+00 0. -1.
         -1    1    3    3    0  502  0.57733413975E+03  0.35358067911E+02 -0.59162261985E+02  0.58143363777E+03  0.00000000000E+00 0.  1.
         13    1    5    5    0    0 -0.13678687038E+03  0.30062778633E+03 -0.12916682192E+04  0.13332271008E+04  0.00000000000E+00 0. -1.
        -13    1    5    5    0    0 -0.12506959653E+02  0.87280936638E+02 -0.21500271347E+03  0.23238019008E+03  0.00000000000E+00 0.  1.
          2    1    6    6  503    0 -0.37038325244E+03 -0.34614221573E+03 -0.15322291792E+04  0.16139158729E+04  0.00000000000E+00 0. -1.
         -2    1    6    6    0  503 -0.15510694659E+03 -0.11071597258E+03 -0.75956998909E+03  0.78311094986E+03  0.00000000000E+00 0.  1.
<mgrwt>
<rscale>  0 0.25526691E+04</rscale>
<asrwt>0</asrwt>
<pdfrwt beam="1">  1        2 0.65696425E+00 0.25526691E+04</pdfrwt>
<pdfrwt beam="2">  1       -1 0.58689526E-01 0.25526691E+04</pdfrwt>
<totfact> 0.60166844E-01</totfact>
</mgrwt>
</event>
<event>
12    7  0.1698542E-007  0.2642676E+04  0.7818608E-02  0.8353848E-01
          4   -1    0    0  501    0  0.00000000000E+00  0.00000000000E+00  0.18716465106E+04  0.18716465106E+04  0.00000000000E+00 0. -1.
         -3   -1    0    0    0  501 -0.00000000000E+00 -0.00000000000E+00 -0.93283290481E+03  0.93283290481E+03  0.00000000000E+00 0.  1.
         24    2    1    2    0    0 -0.18186428377E+03 -0.56673631586E+03 -0.64904401797E+03  0.88476439977E+03  0.85353596320E+02 0.  0.
        254    2    1    2    0    0  0.18186428377E+03  0.56673631586E+03  0.15878576237E+04  0.19197150156E+04  0.89986067728E+03 0.  0.
         23    2    4    4    0    0  0.12849990047E+03  0.26985020827E+03  0.15733763578E+04  0.16044545408E+04  0.97107419528E+02 0.  0.
         23    2    4    4    0    0  0.53364383308E+02  0.29688610759E+03  0.14481265967E+02  0.31526047484E+03  0.90500506344E+02 0.  0.
          4    1    3    3  502    0 -0.35383093761E+02 -0.24356789760E+03 -0.25106305754E+03  0.35158205717E+03  0.00000000000E+00 0. -1.
         -3    1    3    3    0  502 -0.14648119001E+03 -0.32316841826E+03 -0.39798096043E+03  0.53318234259E+03  0.00000000000E+00 0.  1.
         13    1    5    5    0    0  0.37095824648E+02  0.18365114061E+03  0.87008168805E+03  0.89002583420E+03  0.00000000000E+00 0. -1.
        -13    1    5    5    0    0  0.91404075819E+02  0.86199067659E+02  0.70329466970E+03  0.71442870657E+03  0.00000000000E+00 0.  1.
          3    1    6    6  503    0  0.69541138629E+02  0.15628171747E+03 -0.11182825180E+02  0.17142053773E+03  0.00000000000E+00 0. -1.
         -3    1    6    6    0  503 -0.16176755322E+02  0.14060439012E+03  0.25664091147E+02  0.14383993711E+03  0.00000000000E+00 0.  1.
<mgrwt>
<rscale>  0 0.26426755E+04</rscale>
<asrwt>0</asrwt>
<pdfrwt beam="1">  1        4 0.28794562E+00 0.26426755E+04</pdfrwt>
<pdfrwt beam="2">  1       -3 0.14351275E+00 0.26426755E+04</pdfrwt>
<totfact> 0.26575322E-02</totfact>
</mgrwt>
</event>
<event>
12    7  0.1698542E-007  0.1898818E+04  0.7818608E-02  0.8655445E-01
         -1   -1    0    0    0  501 -0.00000000000E+00  0.00000000000E+00  0.41936987754E+03  0.41936987754E+03  0.00000000000E+00 0.  1.
          2   -1    0    0  501    0  0.00000000000E+00 -0.00000000000E+00 -0.21493615329E+04  0.21493615329E+04  0.00000000000E+00 0. -1.
         24    2    1    2    0    0 -0.39087689544E+03  0.54218222239E+03 -0.10697049758E+04  0.12639377992E+04  0.80769519041E+02 0.  0.
        254    2    1    2    0    0  0.39087689544E+03 -0.54218222239E+03 -0.66028667952E+03  0.13047936113E+04  0.90540684730E+03 0.  0.
         23    2    4    4    0    0 -0.60068593231E+02 -0.21251777064E+03  0.17193924453E+03  0.29835640164E+03  0.10335085807E+03 0.  0.
         23    2    4    4    0    0  0.45094548867E+03 -0.32966445176E+03 -0.83222592406E+03  0.10064372096E+04  0.91024083112E+02 0.  0.
          2    1    3    3  502    0 -0.18419385158E+03  0.22693016670E+03 -0.53633774218E+03  0.61080508283E+03  0.00000000000E+00 0. -1.
         -1    1    3    3    0  502 -0.20668304386E+03  0.31525205569E+03 -0.53336723364E+03  0.65313271634E+03  0.00000000000E+00 0.  1.
         13    1    5    5    0    0 -0.41821505599E+02 -0.15254530035E+03  0.58304931610E+02  0.16857808885E+03  0.00000000000E+00 0.  1.
        -13    1    5    5    0    0 -0.18247087632E+02 -0.59972470287E+02  0.11363431292E+03  0.12977831280E+03  0.00000000000E+00 0. -1.
          1    1    6    6  503    0  0.31566519855E+03 -0.17882357780E+03 -0.55502828766E+03  0.66308279246E+03  0.00000000000E+00 0. -1.
         -1    1    6    6    0  503  0.13528029013E+03 -0.15084087396E+03 -0.27719763639E+03  0.34335441715E+03  0.00000000000E+00 0.  1.
<mgrwt>
<rscale>  0 0.18988180E+04</rscale>
<asrwt>0</asrwt>
<pdfrwt beam="1">  1        2 0.33067101E+00 0.18988180E+04</pdfrwt>
<pdfrwt beam="2">  1       -1 0.64518442E-01 0.18988180E+04</pdfrwt>
<totfact> 0.14324904E+01</totfact>
</mgrwt>
</event>
<event>
12    7  0.1698542E-007  0.2481842E+04  0.7818608E-02  0.8409483E-01
          2   -1    0    0  501    0  0.00000000000E+00  0.00000000000E+00  0.24987537367E+04  0.24987537367E+04  0.00000000000E+00 0. -1.
         -1   -1    0    0    0  501 -0.00000000000E+00 -0.00000000000E+00 -0.61626131055E+03  0.61626131055E+03  0.00000000000E+00 0.  1.
         24    2    1    2    0    0 -0.62469316956E+03  0.87452195637E+03  0.72716720336E+03  0.12998151937E+04  0.75612088313E+02 0.  0.
        254    2    1    2    0    0  0.62469316956E+03 -0.87452195637E+03  0.11553252228E+04  0.18151998535E+04  0.89729812748E+03 0.  0.
         23    2    4    4    0    0  0.35802663131E+03 -0.49562478460E+03  0.11906128046E+04  0.13415597260E+04  0.91633248591E+02 0.  0.
         23    2    4    4    0    0  0.26666653825E+03 -0.37889717177E+03 -0.35287581782E+02  0.47364012750E+03  0.91736838578E+02 0.  0.
          2    1    3    3  502    0 -0.13162809565E+03  0.23953664470E+03  0.19297671839E+03  0.33457999576E+03  0.00000000000E+00 0. -1.
         -1    1    3    3    0  502 -0.49306507392E+03  0.63498531167E+03  0.53419048496E+03  0.96523519796E+03  0.00000000000E+00 0.  1.
         13    1    5    5    0    0  0.44958838801E+02 -0.27928505740E+02  0.14047335757E+03  0.15011349975E+03  0.00000000000E+00 0. -1.
        -13    1    5    5    0    0  0.31306779251E+03 -0.46769627886E+03  0.10501394470E+04  0.11914462263E+04  0.00000000000E+00 0.  1.
          2    1    6    6  503    0  0.11767020245E+03 -0.20009075076E+03  0.24273706479E+02  0.23339194054E+03  0.00000000000E+00 0. -1.
         -2    1    6    6    0  503  0.14899633581E+03 -0.17880642101E+03 -0.59561288261E+02  0.24024818696E+03  0.00000000000E+00 0.  1.
<mgrwt>
<rscale>  0 0.24818423E+04</rscale>
<asrwt>0</asrwt>
<pdfrwt beam="1">  1        2 0.38442364E+00 0.24818423E+04</pdfrwt>
<pdfrwt beam="2">  1       -1 0.94809434E-01 0.24818423E+04</pdfrwt>
<totfact> 0.38097205E+00</totfact>
</mgrwt>
</event>
<event>
12    7  0.1698542E-007  0.1231756E+04  0.7818608E-02  0.9085506E-01
          2   -1    0    0  501    0  0.00000000000E+00  0.00000000000E+00  0.28434140823E+04  0.28434140823E+04  0.00000000000E+00 0. -1.
         -1   -1    0    0    0  501 -0.00000000000E+00 -0.00000000000E+00 -0.13339788860E+03  0.13339788860E+03  0.00000000000E+00 0.  1.
         24    2    1    2    0    0 -0.74549639212E+02  0.17431593391E+03  0.16594085893E+03  0.27082619578E+03  0.99331596877E+02 0.  0.
        254    2    1    2    0    0  0.74549639212E+02 -0.17431593391E+03  0.25440753348E+04  0.27059857751E+04  0.90227269303E+03 0.  0.
         23    2    4    4    0    0 -0.38923341324E+03 -0.11776218875E+02  0.84487321051E+03  0.93480431149E+03  0.91689855625E+02 0.  0.
         23    2    4    4    0    0  0.46378305246E+03 -0.16253971503E+03  0.16992021243E+04  0.17711814636E+04  0.91005710136E+02 0.  0.
          4    1    3    3  502    0 -0.15445106258E+02  0.25441075854E+02 -0.11386192099E+02  0.31866048052E+02  0.00000000000E+00 0. -1.
         -3    1    3    3    0  502 -0.59104532954E+02  0.14887485806E+03  0.17732705103E+03  0.23896014773E+03  0.00000000000E+00 0.  1.
         13    1    5    5    0    0 -0.27123362067E+03 -0.19685207293E+02  0.67588454201E+03  0.72854313427E+03  0.00000000000E+00 0.  1.
        -13    1    5    5    0    0 -0.11799979258E+03  0.79089884171E+01  0.16898866850E+03  0.20626117722E+03  0.00000000000E+00 0. -1.
          1    1    6    6  503    0  0.20496376938E+03 -0.66050720089E+02  0.90670156204E+03  0.93192304778E+03  0.00000000000E+00 0. -1.
         -1    1    6    6    0  503  0.25881928308E+03 -0.96488994945E+02  0.79250056224E+03  0.83925841586E+03  0.00000000000E+00 0.  1.
<mgrwt>
<rscale>  0 0.12317556E+04</rscale>
<asrwt>0</asrwt>
<pdfrwt beam="1">  1        2 0.43744827E+00 0.12317556E+04</pdfrwt>
<pdfrwt beam="2">  1       -1 0.20522754E-01 0.12317556E+04</pdfrwt>
<totfact> 0.48320480E+01</totfact>
</mgrwt>
</event>
<event>
12    7  0.1698542E-007  0.2305270E+04  0.7818608E-02  0.8475846E-01
         -1   -1    0    0    0  501 -0.00000000000E+00  0.00000000000E+00  0.46182054733E+03  0.46182054733E+03  0.00000000000E+00 0.  1.
          2   -1    0    0  501    0  0.00000000000E+00 -0.00000000000E+00 -0.28768033144E+04  0.28768033144E+04  0.00000000000E+00 0. -1.
         24    2    1    2    0    0  0.75413129216E+03 -0.12367421105E+03 -0.18957398027E+04  0.20462333057E+04  0.96083431029E+02 0.  0.
        254    2    1    2    0    0 -0.75413129216E+03  0.12367421105E+03 -0.51924296440E+03  0.12923905560E+04  0.90368732254E+03 0.  0.
         23    2    4    4    0    0 -0.20356210454E+03 -0.33192348544E+03 -0.39187427019E+03  0.56063020552E+03  0.95551311437E+02 0.  0.
         23    2    4    4    0    0 -0.55056918762E+03  0.45559769649E+03 -0.12736869421E+03  0.73176035049E+03  0.92491809875E+02 0.  0.
          4    1    3    3  502    0  0.73211370720E+03 -0.10596002336E+03 -0.17911910606E+04  0.19379327703E+04  0.00000000000E+00 0. -1.
         -3    1    3    3    0  502  0.22017584957E+02 -0.17714187684E+02 -0.10454874210E+03  0.10830053540E+03  0.00000000000E+00 0.  1.
         13    1    5    5    0    0 -0.10344723596E+03 -0.21160921543E+03 -0.29116848596E+03  0.37451151905E+03  0.00000000000E+00 0. -1.
        -13    1    5    5    0    0 -0.10011486857E+03 -0.12031427001E+03 -0.10070578423E+03  0.18611868647E+03  0.00000000000E+00 0.  1.
          4    1    6    6  503    0 -0.18609670350E+03  0.11309368682E+03 -0.67797499893E+02  0.22807600936E+03  0.00000000000E+00 0.  1.
         -4    1    6    6    0  503 -0.36447248412E+03  0.34250400966E+03 -0.59571194318E+02  0.50368434114E+03  0.00000000000E+00 0. -1.
<mgrwt>
<rscale>  0 0.23052695E+04</rscale>
<asrwt>0</asrwt>
<pdfrwt beam="1">  1        2 0.44258512E+00 0.23052695E+04</pdfrwt>
<pdfrwt beam="2">  1       -1 0.71049316E-01 0.23052695E+04</pdfrwt>
<totfact> 0.42850200E+00</totfact>
</mgrwt>
</event>
<event>
12    7  0.1698542E-007  0.3408240E+04  0.7818608E-02  0.8135887E-01
         -1   -1    0    0    0  501 -0.00000000000E+00  0.00000000000E+00  0.21685642666E+04  0.21685642666E+04  0.00000000000E+00 0.  1.
          2   -1    0    0  501    0  0.00000000000E+00 -0.00000000000E+00 -0.13391462089E+04  0.13391462089E+04  0.00000000000E+00 0. -1.
         24    2    1    2    0    0 -0.12636400922E+04 -0.55594665934E+03 -0.41413275627E+03  0.14435462276E+04  0.80354220647E+02 0.  0.
        254    2    1    2    0    0  0.12636400922E+04  0.55594665934E+03  0.12435508140E+04  0.20641642479E+04  0.89916207932E+03 0.  0.
         23    2    4    4    0    0  0.68785717069E+03 -0.14229712697E+03  0.74240856898E+03  0.10256853215E+04  0.86394072701E+02 0.  0.
         23    2    4    4    0    0  0.57578292148E+03  0.69824378631E+03  0.50114224498E+03  0.10384789264E+04  0.90689432409E+02 0.  0.
          4    1    3    3  502    0 -0.11178166611E+04 -0.46566081453E+03 -0.37445280887E+03  0.12675050249E+04  0.00000000000E+00 0. -1.
         -3    1    3    3    0  502 -0.14582343103E+03 -0.90285844817E+02 -0.39679947401E+02  0.17604120267E+03  0.00000000000E+00 0.  1.
         13    1    5    5    0    0  0.11071015514E+03 -0.46752414134E+02  0.95566846029E+02  0.15354331226E+03  0.00000000000E+00 0.  1.
        -13    1    5    5    0    0  0.57714701555E+03 -0.95544712831E+02  0.64684172295E+03  0.87214200923E+03  0.00000000000E+00 0. -1.
          2    1    6    6  503    0  0.34120778164E+03  0.39720521357E+03  0.23980519620E+03  0.57593512140E+03  0.00000000000E+00 0. -1.
         -2    1    6    6    0  503  0.23457513985E+03  0.30103857274E+03  0.26133704877E+03  0.46254380503E+03  0.00000000000E+00 0.  1.
<mgrwt>
<rscale>  0 0.34082398E+04</rscale>
<asrwt>0</asrwt>
<pdfrwt beam="1">  1        2 0.20602249E+00 0.34082398E+04</pdfrwt>
<pdfrwt beam="2">  1       -1 0.33362527E+00 0.34082398E+04</pdfrwt>
<totfact> 0.29466916E-01</totfact>
</mgrwt>
</event>
<event>
12    7  0.1698542E-007  0.2468612E+04  0.7818608E-02  0.8414254E-01
         -1   -1    0    0    0  501 -0.00000000000E+00  0.00000000000E+00  0.22670329849E+04  0.22670329849E+04  0.00000000000E+00 0.  1.
          2   -1    0    0  501    0  0.00000000000E+00 -0.00000000000E+00 -0.67202883411E+03  0.67202883411E+03  0.00000000000E+00 0. -1.
         24    2    1    2    0    0 -0.39990913953E+03  0.94927884670E+03  0.10313235778E+04  0.14599400537E+04  0.82091349052E+02 0.  0.
        254    2    1    2    0    0  0.39990913953E+03 -0.94927884670E+03  0.56368057300E+03  0.14791217653E+04  0.89944858642E+03 0.  0.
         23    2    4    4    0    0  0.18410967783E+03 -0.12411914116E+03  0.57322810416E+03  0.62138700322E+03  0.90716115995E+02 0.  0.
         23    2    4    4    0    0  0.21579946171E+03 -0.82515970555E+03 -0.95475311585E+01  0.85773476211E+03  0.90331718987E+02 0.  0.
          4    1    3    3  502    0 -0.88468644330E+02  0.29041873980E+03  0.27462058324E+03  0.40937294756E+03  0.00000000000E+00 0. -1.
         -3    1    3    3    0  502 -0.31144049520E+03  0.65886010690E+03  0.75670299457E+03  0.10505671061E+04  0.00000000000E+00 0.  1.
         13    1    5    5    0    0  0.10190365633E+03 -0.14776863571E+02  0.23778425250E+03  0.25912171196E+03  0.00000000000E+00 0. -1.
        -13    1    5    5    0    0  0.82206021499E+02 -0.10934227759E+03  0.33544385166E+03  0.36226529126E+03  0.00000000000E+00 0.  1.
          4    1    6    6  503    0  0.20145124350E+03 -0.81139880337E+03 -0.84531564308E+00  0.83603309514E+03  0.00000000000E+00 0. -1.
         -4    1    6    6    0  503  0.14348218202E+02 -0.13760902176E+02 -0.87022155154E+01  0.21701666967E+02  0.00000000000E+00 0.  1.
<mgrwt>
<rscale>  0 0.24686122E+04</rscale>
<asrwt>0</asrwt>
<pdfrwt beam="1">  1        2 0.10338905E+00 0.24686122E+04</pdfrwt>
<pdfrwt beam="2">  1       -1 0.34877430E+00 0.24686122E+04</pdfrwt>
<totfact> 0.69687030E-01</totfact>
</mgrwt>
</event>
<event>
12    7  0.1698542E-007  0.1242107E+04  0.7818608E-02  0.9076779E-01
         -1   -1    0    0    0  501 -0.00000000000E+00  0.00000000000E+00  0.99960383932E+02  0.99960383932E+02  0.00000000000E+00 0.  1.
          2   -1    0    0  501    0  0.00000000000E+00 -0.00000000000E+00 -0.38586012460E+04  0.38586012460E+04  0.00000000000E+00 0. -1.
         24    2    1    2    0    0 -0.98347751914E+02 -0.20133243821E+03 -0.15438765713E+04  0.15620983955E+04  0.79934341668E+02 0.  0.
        254    2    1    2    0    0  0.98347751914E+02  0.20133243821E+03 -0.22147642909E+04  0.23964632345E+04  0.88749543050E+03 0.  0.
         23    2    4    4    0    0 -0.14204837154E+03 -0.30374392804E+03 -0.77897552531E+03  0.85288933811E+03  0.90439152767E+02 0.  0.
         23    2    4    4    0    0  0.24039612346E+03  0.50507636624E+03 -0.14357887655E+04  0.15435738964E+04  0.90766526610E+02 0.  0.
          4    1    3    3  502    0 -0.96567546674E+02 -0.13023491983E+03 -0.12034532680E+04  0.12143254069E+04  0.00000000000E+00 0. -1.
         -3    1    3    3    0  502 -0.17802052399E+01 -0.71097518378E+02 -0.34042330324E+03  0.34777298865E+03  0.00000000000E+00 0.  1.
         13    1    5    5    0    0 -0.13608095569E+03 -0.19324033169E+03 -0.54652316308E+03  0.59543884663E+03  0.00000000000E+00 0. -1.
        -13    1    5    5    0    0 -0.59674158598E+01 -0.11050359635E+03 -0.23245236223E+03  0.25745049148E+03  0.00000000000E+00 0.  1.
          4    1    6    6  503    0  0.18889399746E+02  0.11564547958E+02 -0.29923371246E+02  0.37228434549E+02  0.00000000000E+00 0.  1.
         -4    1    6    6    0  503  0.22150672371E+03  0.49351181828E+03 -0.14058653943E+04  0.15063454618E+04  0.00000000000E+00 0. -1.
<mgrwt>
<rscale>  0 0.12421067E+04</rscale>
<asrwt>0</asrwt>
<pdfrwt beam="1">  1        2 0.59363085E+00 0.12421067E+04</pdfrwt>
<pdfrwt beam="2">  1       -1 0.15378524E-01 0.12421067E+04</pdfrwt>
<totfact> 0.16202981E+01</totfact>
</mgrwt>
</event>
<event>
12    7  0.1698542E-007  0.2420393E+04  0.7818608E-02  0.8431908E-01
         -1   -1    0    0    0  501 -0.00000000000E+00  0.00000000000E+00  0.11620563475E+04  0.11620563475E+04  0.00000000000E+00 0.  1.
          2   -1    0    0  501    0  0.00000000000E+00 -0.00000000000E+00 -0.12603312014E+04  0.12603312014E+04  0.00000000000E+00 0. -1.
         24    2    1    2    0    0  0.56963170980E+03 -0.18827660166E+03  0.81022369836E+03  0.10112986895E+04  0.79587903926E+02 0.  0.
        254    2    1    2    0    0 -0.56963170980E+03  0.18827660166E+03 -0.90849855232E+03  0.14110888594E+04  0.89770473208E+03 0.  0.
         23    2    4    4    0    0  0.18087367442E+02 -0.29498402827E+03 -0.21078875144E+03  0.37461985046E+03  0.92549472344E+02 0.  0.
         23    2    4    4    0    0 -0.58771907724E+03  0.48326062993E+03 -0.69770980088E+03  0.10364690089E+04  0.92273994387E+02 0.  0.
          2    1    3    3  502    0  0.28334844080E+03 -0.55544836442E+02  0.41470639287E+03  0.50532460859E+03  0.00000000000E+00 0. -1.
         -1    1    3    3    0  502  0.28628326900E+03 -0.13273176522E+03  0.39551730548E+03  0.50597408090E+03  0.00000000000E+00 0.  1.
         13    1    5    5    0    0  0.30598650570E+02 -0.15172994469E+03 -0.15868056867E+03  0.22167042294E+03  0.00000000000E+00 0. -1.
        -13    1    5    5    0    0 -0.12511283128E+02 -0.14325408358E+03 -0.52108182763E+02  0.15294942752E+03  0.00000000000E+00 0.  1.
          3    1    6    6  503    0 -0.54849453609E+03  0.42090375213E+03 -0.61083429331E+03  0.92256423005E+03  0.00000000000E+00 0. -1.
         -3    1    6    6    0  503 -0.39224541152E+02  0.62356877806E+02 -0.86875507569E+02  0.11390477889E+03  0.00000000000E+00 0.  1.
<mgrwt>
<rscale>  0 0.24203933E+04</rscale>
<asrwt>0</asrwt>
<pdfrwt beam="1">  1        2 0.19389711E+00 0.24203933E+04</pdfrwt>
<pdfrwt beam="2">  1       -1 0.17877790E+00 0.24203933E+04</pdfrwt>
<totfact> 0.37896194E+00</totfact>
</mgrwt>
</event>
<event>
12    7  0.1698542E-007  0.1297280E+04  0.7818608E-02  0.9031725E-01
         -1   -1    0    0    0  501 -0.00000000000E+00  0.00000000000E+00  0.40874308784E+03  0.40874308784E+03  0.00000000000E+00 0.  1.
          2   -1    0    0  501    0  0.00000000000E+00 -0.00000000000E+00 -0.10293350626E+04  0.10293350626E+04  0.00000000000E+00 0. -1.
         24    2    1    2    0    0  0.36310642282E+03 -0.34691629021E+02 -0.42437025590E+03  0.56481898459E+03  0.76684990953E+02 0.  0.
        254    2    1    2    0    0 -0.36310642282E+03  0.34691629021E+02 -0.19622171882E+03  0.87325916581E+03  0.76878399067E+03 0.  0.
         23    2    4    4    0    0 -0.19035184013E+03 -0.19783050760E+03 -0.40989656049E+03  0.50122404248E+03  0.88541615553E+02 0.  0.
         23    2    4    4    0    0 -0.17275458269E+03  0.23252213662E+03  0.21367484167E+03  0.37203512332E+03  0.94034595562E+02 0.  0.
          2    1    3    3  502    0  0.34539202965E+03 -0.30437976319E+02 -0.42241744705E+03  0.54649668262E+03  0.00000000000E+00 0. -1.
         -1    1    3    3    0  502  0.17714393173E+02 -0.42536527022E+01 -0.19528088512E+01  0.18322301962E+02  0.00000000000E+00 0.  1.
         13    1    5    5    0    0 -0.14180281698E+03 -0.13623442886E+03 -0.35388201551E+03  0.40484606878E+03  0.00000000000E+00 0. -1.
        -13    1    5    5    0    0 -0.48549023150E+02 -0.61596078742E+02 -0.56014544985E+02  0.96377973703E+02  0.00000000000E+00 0.  1.
          2    1    6    6  503    0 -0.13129949048E+03  0.13476109487E+03  0.18064133025E+03  0.26082829426E+03  0.00000000000E+00 0. -1.
         -2    1    6    6    0  503 -0.41455092214E+02  0.97761041748E+02  0.33033511425E+02  0.11120682907E+03  0.00000000000E+00 0.  1.
<mgrwt>
<rscale>  0 0.12972796E+04</rscale>
<asrwt>0</asrwt>
<pdfrwt beam="1">  1        2 0.15835924E+00 0.12972796E+04</pdfrwt>
<pdfrwt beam="2">  1       -1 0.62883552E-01 0.12972796E+04</pdfrwt>
<totfact> 0.69199801E+01</totfact>
</mgrwt>
</event>
<event>
12    7  0.1698542E-007  0.2524294E+04  0.7818608E-02  0.8394381E-01
         -1   -1    0    0    0  501 -0.00000000000E+00  0.00000000000E+00  0.84050315647E+03  0.84050315647E+03  0.00000000000E+00 0.  1.
          2   -1    0    0  501    0  0.00000000000E+00 -0.00000000000E+00 -0.18953111917E+04  0.18953111917E+04  0.00000000000E+00 0. -1.
         24    2    1    2    0    0 -0.50807210731E+03 -0.67165591667E+03 -0.12112644085E+04  0.14774291489E+04  0.79852902975E+02 0.  0.
        254    2    1    2    0    0  0.50807210731E+03  0.67165591667E+03  0.15645637326E+03  0.12583851993E+04  0.92184368327E+03 0.  0.
         23    2    4    4    0    0  0.49818991817E+02 -0.11995102750E+03 -0.21418000155E+03  0.26663881827E+03  0.91394777759E+02 0.  0.
         23    2    4    4    0    0  0.45825311549E+03  0.79160694417E+03  0.37063637481E+03  0.99174638100E+03  0.97734794135E+02 0.  0.
          2    1    3    3  502    0 -0.32444660560E+00 -0.12222368181E+02 -0.30238852229E+02  0.32617169308E+02  0.00000000000E+00 0. -1.
         -1    1    3    3    0  502 -0.50774766070E+03 -0.65943354849E+03 -0.11810255562E+04  0.14448119796E+04  0.00000000000E+00 0.  1.
         13    1    5    5    0    0  0.13769360192E+02 -0.50214127219E+02 -0.17597684729E+02  0.54961189582E+02  0.00000000000E+00 0.  1.
        -13    1    5    5    0    0  0.36049631625E+02 -0.69736900279E+02 -0.19658231682E+03  0.21167762869E+03  0.00000000000E+00 0. -1.
          1    1    6    6  503    0  0.29843733563E+03  0.42829558835E+03  0.23293527839E+03  0.57162994867E+03  0.00000000000E+00 0. -1.
         -1    1    6    6    0  503  0.15981577986E+03  0.36331135582E+03  0.13770109642E+03  0.42011643233E+03  0.00000000000E+00 0.  1.
<mgrwt>
<rscale>  0 0.25242940E+04</rscale>
<asrwt>0</asrwt>
<pdfrwt beam="1">  1        2 0.29158634E+00 0.25242940E+04</pdfrwt>
<pdfrwt beam="2">  1       -1 0.12930818E+00 0.25242940E+04</pdfrwt>
<totfact> 0.39776272E+00</totfact>
</mgrwt>
</event>
<event>
12    7  0.1698542E-007  0.1444559E+04  0.7818608E-02  0.8922181E-01
          2   -1    0    0  501    0  0.00000000000E+00  0.00000000000E+00  0.25599460786E+04  0.25599460786E+04  0.00000000000E+00 0. -1.
         -1   -1    0    0    0  501 -0.00000000000E+00 -0.00000000000E+00 -0.20378855037E+03  0.20378855037E+03  0.00000000000E+00 0.  1.
         24    2    1    2    0    0  0.82344557079E+02 -0.24908920701E+03  0.13951271422E+04  0.14218872288E+04  0.80978326504E+02 0.  0.
        254    2    1    2    0    0 -0.82344557079E+02  0.24908920701E+03  0.96103038597E+03  0.13418474001E+04  0.89897106925E+03 0.  0.
         23    2    4    4    0    0  0.92343168478E+02  0.46104962296E+03  0.93607438157E+03  0.10512653423E+04  0.88484781344E+02 0.  0.
         23    2    4    4    0    0 -0.17468772556E+03 -0.21196041595E+03  0.24956004394E+02  0.29058205781E+03  0.91499239203E+02 0.  0.
          2    1    3    3  502    0  0.55187204106E+02 -0.22666107365E+03  0.10868247253E+04  0.11115794408E+04  0.00000000000E+00 0. -1.
         -1    1    3    3    0  502  0.27157352972E+02 -0.22428133355E+02  0.30830241697E+03  0.31030778801E+03  0.00000000000E+00 0.  1.
         13    1    5    5    0    0  0.34419906636E+02  0.26845011668E+03  0.44843084541E+03  0.52377516001E+03  0.00000000000E+00 0. -1.
        -13    1    5    5    0    0  0.57923261842E+02  0.19259950628E+03  0.48764353616E+03  0.52749018231E+03  0.00000000000E+00 0.  1.
          4    1    6    6  503    0 -0.11455613745E+03 -0.12542771331E+03  0.59034903397E+02  0.17983420062E+03  0.00000000000E+00 0. -1.
         -4    1    6    6    0  503 -0.60131588109E+02 -0.86532702642E+02 -0.34078899003E+02  0.11074785719E+03  0.00000000000E+00 0.  1.
<mgrwt>
<rscale>  0 0.14445590E+04</rscale>
<asrwt>0</asrwt>
<pdfrwt beam="1">  1        2 0.39383784E+00 0.14445590E+04</pdfrwt>
<pdfrwt beam="2">  1       -1 0.31352086E-01 0.14445590E+04</pdfrwt>
<totfact> 0.33633233E+01</totfact>
</mgrwt>
</event>
<event>
12    7  0.1698542E-007  0.1896195E+04  0.7818608E-02  0.8656752E-01
          2   -1    0    0  501    0  0.00000000000E+00  0.00000000000E+00  0.21433038303E+04  0.21433038303E+04  0.00000000000E+00 0. -1.
         -1   -1    0    0    0  501 -0.00000000000E+00 -0.00000000000E+00 -0.41939422244E+03  0.41939422244E+03  0.00000000000E+00 0.  1.
         24    2    1    2    0    0  0.12633181972E+03  0.64187113355E+03  0.28132401178E+03  0.71652380783E+03  0.79403317529E+02 0.  0.
        254    2    1    2    0    0 -0.12633181972E+03 -0.64187113355E+03  0.14425855960E+04  0.18461742449E+04  0.94833952766E+03 0.  0.
         23    2    4    4    0    0 -0.11312673113E+02  0.17093000048E+03  0.72993207444E+03  0.75537786730E+03  0.91923051936E+02 0.  0.
         23    2    4    4    0    0 -0.11501914661E+03 -0.81280113403E+03  0.71265352160E+03  0.10907963776E+04  0.89925568535E+02 0.  0.
          2    1    3    3  502    0  0.40852176451E+01  0.13284704691E+03  0.83119980935E+02  0.15676083091E+03  0.00000000000E+00 0. -1.
         -1    1    3    3    0  502  0.12224660208E+03  0.50902408664E+03  0.19820403084E+03  0.55976297693E+03  0.00000000000E+00 0.  1.
         13    1    5    5    0    0 -0.36833119701E+02  0.21433237500E+02  0.17202220634E+03  0.17722218217E+03  0.00000000000E+00 0. -1.
        -13    1    5    5    0    0  0.25520446588E+02  0.14949676298E+03  0.55790986809E+03  0.57815568513E+03  0.00000000000E+00 0.  1.
          4    1    6    6  503    0 -0.99076117766E+02 -0.41684249278E+03  0.34239122509E+03  0.54845737475E+03  0.00000000000E+00 0. -1.
         -4    1    6    6    0  503 -0.15943028841E+02 -0.39595864125E+03  0.37026229651E+03  0.54233900281E+03  0.00000000000E+00 0.  1.
<mgrwt>
<rscale>  0 0.18961954E+04</rscale>
<asrwt>0</asrwt>
<pdfrwt beam="1">  1        2 0.32973904E+00 0.18961954E+04</pdfrwt>
<pdfrwt beam="2">  1       -1 0.64522189E-01 0.18961954E+04</pdfrwt>
<totfact> 0.14438762E+01</totfact>
</mgrwt>
</event>
<event>
12    7  0.1698542E-007  0.1845800E+04  0.7818608E-02  0.8682316E-01
          2   -1    0    0  501    0  0.00000000000E+00  0.00000000000E+00  0.13206633489E+04  0.13206633489E+04  0.00000000000E+00 0. -1.
         -1   -1    0    0    0  501 -0.00000000000E+00 -0.00000000000E+00 -0.64493654323E+03  0.64493654323E+03  0.00000000000E+00 0.  1.
         24    2    1    2    0    0 -0.56513016300E+03  0.32902279999E+03  0.51390902279E+03  0.83577220439E+03  0.82368621925E+02 0.  0.
        254    2    1    2    0    0  0.56513016300E+03 -0.32902279999E+03  0.16181778285E+03  0.11298276877E+04  0.90702673887E+03 0.  0.
         23    2    4    4    0    0 -0.12276040838E+03  0.19626431930E+03  0.35599007012E+02  0.25068308306E+03  0.89358368007E+02 0.  0.
         23    2    4    4    0    0  0.68789057138E+03 -0.52528711929E+03  0.12621877584E+03  0.87914460466E+03  0.88566701619E+02 0.  0.
          4    1    3    3  502    0 -0.75857557762E+02  0.71156164237E+02  0.10638664098E+03  0.14878066460E+03  0.00000000000E+00 0. -1.
         -3    1    3    3    0  502 -0.48927260524E+03  0.25786663575E+03  0.40752238181E+03  0.68699153979E+03  0.00000000000E+00 0.  1.
         13    1    5    5    0    0 -0.73032445864E+02  0.66360767567E+02  0.50394452595E+02  0.11080203280E+03  0.00000000000E+00 0.  1.
        -13    1    5    5    0    0 -0.49727962516E+02  0.12990355174E+03 -0.14795445583E+02  0.13988105025E+03  0.00000000000E+00 0. -1.
          3    1    6    6  503    0  0.56855820010E+03 -0.47262675197E+03  0.11485595253E+03  0.74821545253E+03  0.00000000000E+00 0. -1.
         -3    1    6    6    0  503  0.11933237129E+03 -0.52660367320E+02  0.11362823304E+02  0.13092915213E+03  0.00000000000E+00 0.  1.
<mgrwt>
<rscale>  0 0.18457996E+04</rscale>
<asrwt>0</asrwt>
<pdfrwt beam="1">  1        2 0.20317898E+00 0.18457996E+04</pdfrwt>
<pdfrwt beam="2">  1       -1 0.99221007E-01 0.18457996E+04</pdfrwt>
<totfact> 0.16729913E+01</totfact>
</mgrwt>
</event>
<event>
12    7  0.1698542E-007  0.2829726E+04  0.7818608E-02  0.8294099E-01
         -1   -1    0    0    0  501 -0.00000000000E+00  0.00000000000E+00  0.58992086208E+03  0.58992086208E+03  0.00000000000E+00 0.  1.
          2   -1    0    0  501    0  0.00000000000E+00 -0.00000000000E+00 -0.33934001699E+04  0.33934001699E+04  0.00000000000E+00 0. -1.
         24    2    1    2    0    0  0.10614239636E+04 -0.70158951082E+02 -0.26624634055E+03  0.10994620515E+04  0.79916079336E+02 0.  0.
        254    2    1    2    0    0 -0.10614239636E+04  0.70158951082E+02 -0.25372329673E+04  0.28838589805E+04  0.86460880196E+03 0.  0.
         23    2    4    4    0    0 -0.38483641055E+02 -0.26954827485E+03 -0.47096576584E+03  0.55153249556E+03  0.90785890745E+02 0.  0.
         23    2    4    4    0    0 -0.10229403226E+04  0.33970722594E+03 -0.20662672014E+04  0.23323264850E+04  0.92080301450E+02 0.  0.
          4    1    3    3  502    0  0.25412229491E+03  0.26341146434E+01 -0.34928062101E+02  0.25652494782E+03  0.00000000000E+00 0. -1.
         -3    1    3    3    0  502  0.80730166872E+03 -0.72793065726E+02 -0.23131827845E+03  0.84293710363E+03  0.00000000000E+00 0.  1.
         13    1    5    5    0    0 -0.26901855330E+02 -0.22736732157E+03 -0.31413826777E+03  0.38871899879E+03  0.00000000000E+00 0.  1.
        -13    1    5    5    0    0 -0.11581785725E+02 -0.42180953278E+02 -0.15682749807E+03  0.16281349677E+03  0.00000000000E+00 0. -1.
          1    1    6    6  503    0 -0.18480240798E+03  0.57095336111E+02 -0.29964252691E+03  0.35664751693E+03  0.00000000000E+00 0. -1.
         -1    1    6    6    0  503 -0.83813791460E+03  0.28261188982E+03 -0.17666246745E+04  0.19756789680E+04  0.00000000000E+00 0.  1.
<mgrwt>
<rscale>  0 0.28297262E+04</rscale>
<asrwt>0</asrwt>
<pdfrwt beam="1">  1        2 0.52206156E+00 0.28297262E+04</pdfrwt>
<pdfrwt beam="2">  1       -1 0.90757057E-01 0.28297262E+04</pdfrwt>
<totfact> 0.11264481E+00</totfact>
</mgrwt>
</event>
<event>
12    7  0.1698542E-007  0.2312383E+04  0.7818608E-02  0.8473055E-01
          2   -1    0    0  501    0  0.00000000000E+00  0.00000000000E+00  0.19175056246E+04  0.19175056246E+04  0.00000000000E+00 0. -1.
         -1   -1    0    0    0  501 -0.00000000000E+00 -0.00000000000E+00 -0.69714446802E+03  0.69714446802E+03  0.00000000000E+00 0.  1.
         24    2    1    2    0    0  0.36669078578E+03  0.56128905318E+02 -0.50134059826E+03  0.62910456142E+03  0.82568561441E+02 0.  0.
        254    2    1    2    0    0 -0.36669078578E+03 -0.56128905318E+02  0.17217017548E+04  0.19855455312E+04  0.91679961685E+03 0.  0.
         23    2    4    4    0    0 -0.56809862074E+03 -0.29946136677E+03  0.98961892012E+03  0.11830282567E+04  0.88301166092E+02 0.  0.
         23    2    4    4    0    0  0.20140783496E+03  0.24333246145E+03  0.73208283470E+03  0.80251727452E+03  0.91175085734E+02 0.  0.
          2    1    3    3  502    0  0.91308038327E+01 -0.11744272481E+02 -0.31118606707E+02  0.34491552561E+02  0.00000000000E+00 0. -1.
         -1    1    3    3    0  502  0.35755998195E+03  0.67873177799E+02 -0.47022199156E+03  0.59461300886E+03  0.00000000000E+00 0.  1.
         13    1    5    5    0    0 -0.56386845992E+02 -0.25310873074E+02  0.54694696426E+02  0.82532578500E+02  0.00000000000E+00 0.  1.
        -13    1    5    5    0    0 -0.51171177475E+03 -0.27415049370E+03  0.93492422369E+03  0.11004956782E+04  0.00000000000E+00 0. -1.
          2    1    6    6  503    0  0.19773694047E+03  0.22108944292E+03  0.60907358442E+03  0.67745927600E+03  0.00000000000E+00 0. -1.
         -2    1    6    6    0  503  0.36708944899E+01  0.22243018537E+02  0.12300925028E+03  0.12505799852E+03  0.00000000000E+00 0.  1.
<mgrwt>
<rscale>  0 0.23123827E+04</rscale>
<asrwt>0</asrwt>
<pdfrwt beam="1">  1        2 0.29500086E+00 0.23123827E+04</pdfrwt>
<pdfrwt beam="2">  1       -1 0.10725300E+00 0.23123827E+04</pdfrwt>
<totfact> 0.62006498E+00</totfact>
</mgrwt>
</event>
<event>
12    7  0.1698542E-007  0.1864340E+04  0.7818608E-02  0.8672813E-01
         -1   -1    0    0    0  501 -0.00000000000E+00  0.00000000000E+00  0.62581588687E+03  0.62581588687E+03  0.00000000000E+00 0.  1.
          2   -1    0    0  501    0  0.00000000000E+00 -0.00000000000E+00 -0.13884935438E+04  0.13884935438E+04  0.00000000000E+00 0. -1.
         24    2    1    2    0    0 -0.62424206163E+02 -0.56779659300E+03  0.17846782495E+03  0.60388292254E+03  0.80833576257E+02 0.  0.
        254    2    1    2    0    0  0.62424206163E+02  0.56779659300E+03 -0.94114548185E+03  0.14104265081E+04  0.88162257469E+03 0.  0.
         23    2    4    4    0    0  0.28700608911E+03 -0.11441801333E+03 -0.36116258427E+03  0.48313668651E+03  0.86710256692E+02 0.  0.
         23    2    4    4    0    0 -0.22458188294E+03  0.68221460634E+03 -0.57998289759E+03  0.92728982160E+03  0.87363954228E+02 0.  0.
          2    1    3    3  502    0  0.42209283813E+01 -0.15126316610E+03  0.17284549611E+02  0.15230599893E+03  0.00000000000E+00 0. -1.
         -1    1    3    3    0  502 -0.66645134545E+02 -0.41653342690E+03  0.16118327534E+03  0.45157692360E+03  0.00000000000E+00 0.  1.
         13    1    5    5    0    0  0.14116947342E+03 -0.53494735952E+02 -0.11160198239E+03  0.18773787437E+03  0.00000000000E+00 0.  1.
        -13    1    5    5    0    0  0.14583661569E+03 -0.60923277383E+02 -0.24956060188E+03  0.29539881214E+03  0.00000000000E+00 0. -1.
          3    1    6    6  503    0 -0.56208168140E+02  0.11969677097E+03 -0.70312887720E+02  0.14976841231E+03  0.00000000000E+00 0. -1.
         -3    1    6    6    0  503 -0.16837371480E+03  0.56251783537E+03 -0.50967000987E+03  0.77752140929E+03  0.00000000000E+00 0.  1.
<mgrwt>
<rscale>  0 0.18643404E+04</rscale>
<asrwt>0</asrwt>
<pdfrwt beam="1">  1        2 0.21361439E+00 0.18643404E+04</pdfrwt>
<pdfrwt beam="2">  1       -1 0.96279369E-01 0.18643404E+04</pdfrwt>
<totfact> 0.16340686E+01</totfact>
</mgrwt>
</event>
<event>
12    7  0.1698542E-007  0.1742852E+04  0.7818608E-02  0.8737295E-01
          2   -1    0    0  501    0  0.00000000000E+00  0.00000000000E+00  0.19378649544E+04  0.19378649544E+04  0.00000000000E+00 0. -1.
         -1   -1    0    0    0  501 -0.00000000000E+00 -0.00000000000E+00 -0.39186576718E+03  0.39186576718E+03  0.00000000000E+00 0.  1.
         24    2    1    2    0    0 -0.18729175203E+03 -0.67186692824E+02  0.13571041838E+04  0.13739670416E+04  0.80382918784E+02 0.  0.
        254    2    1    2    0    0  0.18729175203E+03  0.67186692824E+02  0.18889500343E+03  0.95576367999E+03  0.91553844136E+03 0.  0.
         23    2    4    4    0    0  0.30322732288E+03  0.36061445757E+03  0.34652406703E+03  0.59160783470E+03  0.89057872773E+02 0.  0.
         23    2    4    4    0    0 -0.11593557085E+03 -0.29342776474E+03 -0.15762906360E+03  0.36415584529E+03  0.90673305080E+02 0.  0.
          2    1    3    3  502    0 -0.10697817903E+03 -0.20704963553E+02  0.96004340107E+03  0.96620720254E+03  0.00000000000E+00 0. -1.
         -1    1    3    3    0  502 -0.80313572998E+02 -0.46481729272E+02  0.39706078277E+03  0.40775983909E+03  0.00000000000E+00 0.  1.
         13    1    5    5    0    0  0.52393756544E+02  0.77977024718E+02  0.29850161875E+02  0.98572583778E+02  0.00000000000E+00 0.  1.
        -13    1    5    5    0    0  0.25083356634E+03  0.28263743285E+03  0.31667390515E+03  0.49303525093E+03  0.00000000000E+00 0. -1.
          2    1    6    6  503    0 -0.12215138160E+03 -0.20136237584E+03 -0.12202152258E+03  0.26524897437E+03  0.00000000000E+00 0. -1.
         -2    1    6    6    0  503  0.62158107513E+01 -0.92065388903E+02 -0.35607541023E+02  0.98906870918E+02  0.00000000000E+00 0.  1.
<mgrwt>
<rscale>  0 0.17428516E+04</rscale>
<asrwt>0</asrwt>
<pdfrwt beam="1">  1        2 0.29813307E+00 0.17428516E+04</pdfrwt>
<pdfrwt beam="2">  1       -1 0.60287042E-01 0.17428516E+04</pdfrwt>
<totfact> 0.21801558E+01</totfact>
</mgrwt>
</event>
<event>
12    7  0.1698542E-007  0.1564791E+04  0.7818608E-02  0.8842475E-01
         -1   -1    0    0    0  501 -0.00000000000E+00  0.00000000000E+00  0.21374057615E+03  0.21374057615E+03  0.00000000000E+00 0.  1.
          2   -1    0    0  501    0  0.00000000000E+00 -0.00000000000E+00 -0.28639503263E+04  0.28639503263E+04  0.00000000000E+00 0. -1.
         24    2    1    2    0    0  0.35716553900E+03 -0.13587061513E+03 -0.19364634252E+03  0.43665888850E+03  0.84522379458E+02 0.  0.
        254    2    1    2    0    0 -0.35716553900E+03  0.13587061513E+03 -0.24565634076E+04  0.26410320139E+04  0.89124535155E+03 0.  0.
         23    2    4    4    0    0 -0.43631966947E+02 -0.25283327968E+03 -0.22657868902E+03  0.35407200817E+03  0.90557544131E+02 0.  0.
         23    2    4    4    0    0 -0.31353357205E+03  0.38870389481E+03 -0.22299847186E+04  0.22869600058E+04  0.89219976100E+02 0.  0.
          4    1    3    3  502    0  0.17613031008E+03 -0.11208239031E+03 -0.10159608213E+03  0.23217689862E+03  0.00000000000E+00 0. -1.
         -3    1    3    3    0  502  0.18103522892E+03 -0.23788224829E+02 -0.92050260383E+02  0.20448198988E+03  0.00000000000E+00 0.  1.
         13    1    5    5    0    0  0.22156599063E+02 -0.69528639835E+02 -0.91610811987E+02  0.11712253204E+03  0.00000000000E+00 0. -1.
        -13    1    5    5    0    0 -0.65788566010E+02 -0.18330463984E+03 -0.13496787703E+03  0.23694947612E+03  0.00000000000E+00 0.  1.
          2    1    6    6  503    0 -0.14462431411E+03  0.22810814344E+03 -0.10503020631E+04  0.10844740389E+04  0.00000000000E+00 0. -1.
         -2    1    6    6    0  503 -0.16890925794E+03  0.16059575137E+03 -0.11796826555E+04  0.12024859668E+04  0.00000000000E+00 0.  1.
<mgrwt>
<rscale>  0 0.15647906E+04</rscale>
<asrwt>0</asrwt>
<pdfrwt beam="1">  1        2 0.44060775E+00 0.15647906E+04</pdfrwt>
<pdfrwt beam="2">  1       -1 0.32883165E-01 0.15647906E+04</pdfrwt>
<totfact> 0.20183496E+01</totfact>
</mgrwt>
</event>
<event>
12    7  0.1698542E-007  0.1886113E+04  0.7818608E-02  0.8661800E-01
         -1   -1    0    0    0  501 -0.00000000000E+00  0.00000000000E+00  0.23583403608E+04  0.23583403608E+04  0.00000000000E+00 0.  1.
          2   -1    0    0  501    0  0.00000000000E+00 -0.00000000000E+00 -0.37711064662E+03  0.37711064662E+03  0.00000000000E+00 0. -1.
         24    2    1    2    0    0 -0.33002354514E+03  0.43333500436E+02  0.17009714350E+04  0.17347802022E+04  0.73247489019E+02 0.  0.
        254    2    1    2    0    0  0.33002354514E+03 -0.43333500436E+02  0.28025827923E+03  0.10006708053E+04  0.90111265934E+03 0.  0.
         23    2    4    4    0    0 -0.36681528706E+02  0.35875881200E+03 -0.18256239064E+02  0.37335229858E+03  0.94895884282E+02 0.  0.
         23    2    4    4    0    0  0.36670507385E+03 -0.40209231244E+03  0.29851451829E+03  0.62731850668E+03  0.90921682141E+02 0.  0.
          2    1    3    3  502    0 -0.13166354418E+03  0.48137364545E+02  0.60884582349E+03  0.62477654527E+03  0.00000000000E+00 0. -1.
         -3    1    3    3    0  502 -0.19836000096E+03 -0.48038641091E+01  0.10921256115E+04  0.11100036569E+04  0.00000000000E+00 0.  1.
         13    1    5    5    0    0 -0.34584326126E+01  0.37110800315E+02  0.28113069028E+02  0.46685296469E+02  0.00000000000E+00 0.  1.
        -13    1    5    5    0    0 -0.33223096094E+02  0.32164801169E+03 -0.46369308092E+02  0.32666700211E+03  0.00000000000E+00 0. -1.
          3    1    6    6  503    0  0.19373752627E+03 -0.22614952237E+03  0.11250804244E+03  0.31833299416E+03  0.00000000000E+00 0. -1.
         -3    1    6    6    0  503  0.17296754758E+03 -0.17594279007E+03  0.18600647585E+03  0.30898551253E+03  0.00000000000E+00 0.  1.
<mgrwt>
<rscale>  0 0.18861127E+04</rscale>
<asrwt>0</asrwt>
<pdfrwt beam="1">  1        2 0.58017024E-01 0.18861127E+04</pdfrwt>
<pdfrwt beam="2">  1       -1 0.36282159E+00 0.18861127E+04</pdfrwt>
<totfact> 0.11654779E+00</totfact>
</mgrwt>
</event>
<event>
12    7  0.1698542E-007  0.2063068E+04  0.7818608E-02  0.8577689E-01
          2   -1    0    0  501    0  0.00000000000E+00  0.00000000000E+00  0.14661000124E+04  0.14661000124E+04  0.00000000000E+00 0. -1.
         -1   -1    0    0    0  501 -0.00000000000E+00 -0.00000000000E+00 -0.72577767027E+03  0.72577767027E+03  0.00000000000E+00 0.  1.
         24    2    1    2    0    0  0.35783700262E+03 -0.68878369975E+03  0.61254502174E+03  0.99267890130E+03  0.87918666646E+02 0.  0.
        254    2    1    2    0    0 -0.35783700262E+03  0.68878369975E+03  0.12777732040E+03  0.11991987814E+04  0.90514107638E+03 0.  0.
         23    2    4    4    0    0  0.22371404779E+03  0.18205763586E+03 -0.19267990501E+03  0.35850160952E+03  0.90580904629E+02 0.  0.
         23    2    4    4    0    0 -0.58155105041E+03  0.50672606389E+03  0.32045722541E+03  0.84069717185E+03  0.95425224008E+02 0.  0.
          2    1    3    3  502    0  0.15734148456E+02 -0.81329270037E+01  0.53275117457E+01  0.18495683569E+02  0.00000000000E+00 0. -1.
         -1    1    3    3    0  502  0.34210285416E+03 -0.68065077275E+03  0.60721750999E+03  0.97418321773E+03  0.00000000000E+00 0.  1.
         13    1    5    5    0    0  0.16028952528E+03  0.13027819216E+03 -0.85319098060E+02  0.22348263414E+03  0.00000000000E+00 0. -1.
        -13    1    5    5    0    0  0.63424522509E+02  0.51779443698E+02 -0.10736080695E+03  0.13501897539E+03  0.00000000000E+00 0.  1.
          4    1    6    6  503    0 -0.21519875747E+03  0.13097176953E+03  0.89706395847E+02  0.26741605615E+03  0.00000000000E+00 0.  1.
         -4    1    6    6    0  503 -0.36635229294E+03  0.37575429436E+03  0.23075082957E+03  0.57328111570E+03  0.00000000000E+00 0. -1.
<mgrwt>
<rscale>  0 0.20630683E+04</rscale>
<asrwt>0</asrwt>
<pdfrwt beam="1">  1        2 0.22555385E+00 0.20630683E+04</pdfrwt>
<pdfrwt beam="2">  1       -1 0.11165810E+00 0.20630683E+04</pdfrwt>
<totfact> 0.10292397E+01</totfact>
</mgrwt>
</event>
<event>
12    7  0.1698542E-007  0.2004224E+04  0.7818608E-02  0.8604648E-01
          2   -1    0    0  501    0  0.00000000000E+00  0.00000000000E+00  0.24377195613E+04  0.24377195613E+04  0.00000000000E+00 0. -1.
         -1   -1    0    0    0  501 -0.00000000000E+00 -0.00000000000E+00 -0.41195417606E+03  0.41195417606E+03  0.00000000000E+00 0.  1.
         24    2    1    2    0    0 -0.43999506483E+03  0.44028670030E+03  0.15476223950E+04  0.16697775027E+04  0.74657854796E+02 0.  0.
        254    2    1    2    0    0  0.43999506483E+03 -0.44028670030E+03  0.47814299021E+03  0.11798962347E+04  0.88095764370E+03 0.  0.
         23    2    4    4    0    0 -0.14329331730E+03 -0.32743412449E+03 -0.58970329508E+02  0.37387169674E+03  0.92501163254E+02 0.  0.
         23    2    4    4    0    0  0.58328838213E+03 -0.11285257582E+03  0.53711331972E+03  0.80602453795E+03  0.90685152872E+02 0.  0.
          2    1    3    3  502    0 -0.43121501734E+03  0.41550523275E+03  0.15042195639E+04  0.16190328860E+04  0.00000000000E+00 0. -1.
         -1    1    3    3    0  502 -0.87800474966E+01  0.24781467557E+02  0.43402831149E+02  0.50744616661E+02  0.00000000000E+00 0.  1.
         13    1    5    5    0    0 -0.22421865283E+02 -0.13414798510E+02  0.13895343430E+02  0.29593536978E+02  0.00000000000E+00 0.  1.
        -13    1    5    5    0    0 -0.12087145201E+03 -0.31401932598E+03 -0.72865672938E+02  0.34427815976E+03  0.00000000000E+00 0. -1.
          2    1    6    6  503    0  0.24656674515E+03 -0.32195665996E+01  0.20844764447E+03  0.32288689337E+03  0.00000000000E+00 0.  1.
         -2    1    6    6    0  503  0.33672163698E+03 -0.10963300922E+03  0.32866567525E+03  0.48313764458E+03  0.00000000000E+00 0. -1.
<mgrwt>
<rscale>  0 0.20042243E+04</rscale>
<asrwt>0</asrwt>
<pdfrwt beam="1">  1        2 0.37503377E+00 0.20042243E+04</pdfrwt>
<pdfrwt beam="2">  1       -1 0.63377567E-01 0.20042243E+04</pdfrwt>
<totfact> 0.10099920E+01</totfact>
</mgrwt>
</event>
<event>
12    7  0.1698542E-007  0.1369991E+04  0.7818608E-02  0.8975831E-01
         -1   -1    0    0    0  501 -0.00000000000E+00  0.00000000000E+00  0.45384044671E+03  0.45384044671E+03  0.00000000000E+00 0.  1.
          2   -1    0    0  501    0  0.00000000000E+00 -0.00000000000E+00 -0.10338853702E+04  0.10338853702E+04  0.00000000000E+00 0. -1.
         24    2    1    2    0    0 -0.24887883943E+03 -0.42697774572E+01 -0.47782700679E+03  0.54464132448E+03  0.79728390144E+02 0.  0.
        254    2    1    2    0    0  0.24887883943E+03  0.42697774572E+01 -0.10221791672E+03  0.94308449245E+03  0.90388104841E+03 0.  0.
         23    2    4    4    0    0 -0.13792832756E+03 -0.32518985675E+03  0.11366483330E+03  0.38372375328E+03  0.97732072659E+02 0.  0.
         23    2    4    4    0    0  0.38680716699E+03  0.32945963421E+03 -0.21588275002E+03  0.55936073917E+03  0.90086845646E+02 0.  0.
          2    1    3    3  502    0 -0.20969689204E+03 -0.33632827688E+02 -0.39159687825E+03  0.44547959401E+03  0.00000000000E+00 0. -1.
         -1    1    3    3    0  502 -0.39181947394E+02  0.29363050231E+02 -0.86230128541E+02  0.99161730464E+02  0.00000000000E+00 0.  1.
         13    1    5    5    0    0 -0.13514460157E+03 -0.30467721793E+03  0.77723510734E+02  0.34224730033E+03  0.00000000000E+00 0.  1.
        -13    1    5    5    0    0 -0.27837259883E+01 -0.20512638817E+02  0.35941322568E+02  0.41476452953E+02  0.00000000000E+00 0. -1.
          3    1    6    6  503    0  0.10771051426E+03  0.79874255533E+02 -0.16329031321E+02  0.13508548717E+03  0.00000000000E+00 0. -1.
         -3    1    6    6    0  503  0.27909665273E+03  0.24958537868E+03 -0.19955371870E+03  0.42427525200E+03  0.00000000000E+00 0.  1.
<mgrwt>
<rscale>  0 0.13699912E+04</rscale>
<asrwt>0</asrwt>
<pdfrwt beam="1">  1        2 0.15905929E+00 0.13699912E+04</pdfrwt>
<pdfrwt beam="2">  1       -1 0.69821608E-01 0.13699912E+04</pdfrwt>
<totfact> 0.55312042E+01</totfact>
</mgrwt>
</event>
<event>
12    7  0.1698542E-007  0.1652865E+04  0.7818608E-02  0.8788713E-01
         -1   -1    0    0    0  501 -0.00000000000E+00  0.00000000000E+00  0.71673237823E+03  0.71673237823E+03  0.00000000000E+00 0.  1.
          2   -1    0    0  501    0  0.00000000000E+00 -0.00000000000E+00 -0.95292282441E+03  0.95292282441E+03  0.00000000000E+00 0. -1.
         24    2    1    2    0    0 -0.53080463174E+03  0.20374766929E+03 -0.14463381224E+03  0.59217557985E+03  0.80537617948E+02 0.  0.
        254    2    1    2    0    0  0.53080463174E+03 -0.20374766929E+03 -0.91556633945E+02  0.10774796228E+04  0.91066626735E+03 0.  0.
         23    2    4    4    0    0  0.54945953016E+03 -0.30562239135E+03 -0.39304656501E+03  0.74681390235E+03  0.89076265612E+02 0.  0.
         23    2    4    4    0    0 -0.18654898421E+02  0.10187472206E+03  0.30148993107E+03  0.33066572044E+03  0.87847458167E+02 0.  0.
          2    1    3    3  502    0 -0.45815671445E+03  0.20026256648E+03 -0.14026075645E+03  0.51931276735E+03  0.00000000000E+00 0. -1.
         -1    1    3    3    0  502 -0.72647917290E+02  0.34851028077E+01 -0.43730557848E+01  0.72862812498E+02  0.00000000000E+00 0.  1.
         13    1    5    5    0    0  0.40488536958E+03 -0.22118960083E+03 -0.24035423281E+03  0.52021837650E+03  0.00000000000E+00 0. -1.
        -13    1    5    5    0    0  0.14457416058E+03 -0.84432790522E+02 -0.15269233221E+03  0.22659552586E+03  0.00000000000E+00 0.  1.
          1    1    6    6  503    0 -0.13215849911E+02  0.11793158238E+03  0.26920504444E+03  0.29420039558E+03  0.00000000000E+00 0. -1.
         -1    1    6    6    0  503 -0.54390485094E+01 -0.16056860316E+02  0.32284886634E+02  0.36465324856E+02  0.00000000000E+00 0.  1.
<mgrwt>
<rscale>  0 0.16528650E+04</rscale>
<asrwt>0</asrwt>
<pdfrwt beam="1">  1        2 0.14660351E+00 0.16528650E+04</pdfrwt>
<pdfrwt beam="2">  1       -1 0.11026652E+00 0.16528650E+04</pdfrwt>
<totfact> 0.22356995E+01</totfact>
</mgrwt>
</event>
<event>
12    7  0.1698542E-007  0.1130264E+04  0.7818608E-02  0.9176187E-01
          2   -1    0    0  501    0  0.00000000000E+00  0.00000000000E+00  0.98730750554E+03  0.98730750554E+03  0.00000000000E+00 0. -1.
         -1   -1    0    0    0  501 -0.00000000000E+00 -0.00000000000E+00 -0.32347975953E+03  0.32347975953E+03  0.00000000000E+00 0.  1.
         24    2    1    2    0    0 -0.66689741601E+02 -0.10412255503E+03  0.29708540975E+03  0.33242039897E+03  0.83393961826E+02 0.  0.
        254    2    1    2    0    0  0.66689741601E+02  0.10412255503E+03  0.36674233626E+03  0.97836686610E+03  0.89856149227E+03 0.  0.
         23    2    4    4    0    0 -0.15937629099E+03 -0.34522391009E+03  0.19220915513E+03  0.43600268176E+03  0.92593892674E+02 0.  0.
         23    2    4    4    0    0  0.22606603259E+03  0.44934646512E+03  0.17453318113E+03  0.54236418434E+03  0.10333915197E+03 0.  0.
          2    1    3    3  502    0 -0.99175173451E+01 -0.82944271135E+02  0.12839738652E+03  0.15317962701E+03  0.00000000000E+00 0. -1.
         -1    1    3    3    0  502 -0.56772224256E+02 -0.21178283892E+02  0.16868802322E+03  0.17924077196E+03  0.00000000000E+00 0.  1.
         13    1    5    5    0    0 -0.16777623090E+01 -0.79845092348E+02  0.61380035672E+02  0.10072518274E+03  0.00000000000E+00 0. -1.
        -13    1    5    5    0    0 -0.15769852868E+03 -0.26537881775E+03  0.13082911946E+03  0.33527749903E+03  0.00000000000E+00 0.  1.
          3    1    6    6  503    0  0.18483595063E+03  0.25692021742E+03  0.99872363180E+02  0.33188373821E+03  0.00000000000E+00 0.  1.
         -3    1    6    6    0  503  0.41230081956E+02  0.19242624771E+03  0.74660817952E+02  0.21048044613E+03  0.00000000000E+00 0. -1.
<mgrwt>
<rscale>  0 0.11302637E+04</rscale>
<asrwt>0</asrwt>
<pdfrwt beam="1">  1        2 0.15189346E+00 0.11302637E+04</pdfrwt>
<pdfrwt beam="2">  1       -1 0.49766117E-01 0.11302637E+04</pdfrwt>
<totfact> 0.11747246E+02</totfact>
</mgrwt>
</event>
<event>
12    7  0.1698542E-007  0.1532769E+04  0.7818608E-02  0.8862950E-01
          2   -1    0    0  501    0  0.00000000000E+00  0.00000000000E+00  0.71810066395E+03  0.71810066395E+03  0.00000000000E+00 0. -1.
         -3   -1    0    0    0  501 -0.00000000000E+00 -0.00000000000E+00 -0.81791492242E+03  0.81791492242E+03  0.00000000000E+00 0.  1.
         24    2    1    2    0    0 -0.96216093412E+02  0.29531025025E+03 -0.41475206234E+03  0.52436092803E+03  0.80432761359E+02 0.  0.
        254    2    1    2    0    0  0.96216093412E+02 -0.29531025025E+03  0.31493780387E+03  0.10116546583E+04  0.90983165854E+03 0.  0.
         23    2    4    4    0    0 -0.98320332687E+02 -0.51792221036E+03  0.42477020518E+03  0.68320763634E+03  0.91829425205E+02 0.  0.
         23    2    4    4    0    0  0.19453642610E+03  0.22261196011E+03 -0.10983240131E+03  0.32844702199E+03  0.91726681039E+02 0.  0.
          4    1    3    3  502    0 -0.21094008727E+02  0.13875575643E+02 -0.13814436013E+02  0.28780678344E+02  0.00000000000E+00 0. -1.
         -3    1    3    3    0  502 -0.75122084685E+02  0.28143467461E+03 -0.40093762632E+03  0.49558024969E+03  0.00000000000E+00 0.  1.
         13    1    5    5    0    0 -0.94646779682E+01 -0.11969623268E+02  0.35627837456E+02  0.38758158006E+02  0.00000000000E+00 0. -1.
        -13    1    5    5    0    0 -0.88855654718E+02 -0.50595258710E+03  0.38914236773E+03  0.64444947833E+03  0.00000000000E+00 0.  1.
          3    1    6    6  503    0  0.87937161379E+02  0.81704308378E+02  0.69418634348E+00  0.12003757851E+03  0.00000000000E+00 0. -1.
         -3    1    6    6    0  503  0.10659926472E+03  0.14090765173E+03 -0.11052658766E+03  0.20840944349E+03  0.00000000000E+00 0.  1.
<mgrwt>
<rscale>  0 0.15327691E+04</rscale>
<asrwt>0</asrwt>
<pdfrwt beam="1">  1        2 0.11047703E+00 0.15327691E+04</pdfrwt>
<pdfrwt beam="2">  1       -3 0.12583307E+00 0.15327691E+04</pdfrwt>
<totfact> 0.12128251E+01</totfact>
</mgrwt>
</event>
<event>
12    7  0.1698542E-007  0.2191645E+04  0.7818608E-02  0.8521914E-01
         -1   -1    0    0    0  501 -0.00000000000E+00  0.00000000000E+00  0.12179056785E+04  0.12179056785E+04  0.00000000000E+00 0.  1.
          2   -1    0    0  501    0  0.00000000000E+00 -0.00000000000E+00 -0.98597726939E+03  0.98597726939E+03  0.00000000000E+00 0. -1.
         24    2    1    2    0    0 -0.47291633424E+03 -0.64661652633E+03  0.52885109607E+03  0.96296087383E+03  0.76468107086E+02 0.  0.
        254    2    1    2    0    0  0.47291633424E+03  0.64661652633E+03 -0.29692268700E+03  0.12409220740E+04  0.89997873331E+03 0.  0.
         23    2    4    4    0    0 -0.25773845137E+03  0.20848488099E+03 -0.13172259336E+03  0.36825024635E+03  0.91445871539E+02 0.  0.
         23    2    4    4    0    0  0.73065478561E+03  0.43813164534E+03 -0.16520009364E+03  0.87267182767E+03  0.91920038531E+02 0.  0.
          2    1    3    3  502    0 -0.44126269925E+03 -0.56697072795E+03  0.46081027590E+03  0.85353071795E+03  0.00000000000E+00 0. -1.
         -1    1    3    3    0  502 -0.31653634986E+02 -0.79645798382E+02  0.68040820164E+02  0.10943015588E+03  0.00000000000E+00 0.  1.
         13    1    5    5    0    0 -0.18275787201E+03  0.11185308259E+03 -0.11947587584E+03  0.24532842635E+03  0.00000000000E+00 0. -1.
        -13    1    5    5    0    0 -0.74980579360E+02  0.96631798402E+02 -0.12246717517E+02  0.12292182001E+03  0.00000000000E+00 0.  1.
          4    1    6    6  503    0  0.47739207012E+03  0.26970955744E+03 -0.63544642169E+02  0.55198220582E+03  0.00000000000E+00 0. -1.
         -4    1    6    6    0  503  0.25326271549E+03  0.16842208791E+03 -0.10165545147E+03  0.32068962185E+03  0.00000000000E+00 0.  1.
<mgrwt>
<rscale>  0 0.21916453E+04</rscale>
<asrwt>0</asrwt>
<pdfrwt beam="1">  1        2 0.15168881E+00 0.21916453E+04</pdfrwt>
<pdfrwt beam="2">  1       -1 0.18737010E+00 0.21916453E+04</pdfrwt>
<totfact> 0.49473613E+00</totfact>
</mgrwt>
</event>
<event>
12    7  0.1698542E-007  0.1920948E+04  0.7818608E-02  0.8644499E-01
         -1   -1    0    0    0  501 -0.00000000000E+00  0.00000000000E+00  0.34687662919E+03  0.34687662919E+03  0.00000000000E+00 0.  1.
          2   -1    0    0  501    0  0.00000000000E+00 -0.00000000000E+00 -0.26594774671E+04  0.26594774671E+04  0.00000000000E+00 0. -1.
         24    2    1    2    0    0  0.54358654337E+03  0.38933983695E+03 -0.36885053183E+03  0.76774818745E+03  0.79465248524E+02 0.  0.
        254    2    1    2    0    0 -0.54358654337E+03 -0.38933983695E+03 -0.19437503061E+04  0.22386059089E+04  0.88663370337E+03 0.  0.
         23    2    4    4    0    0 -0.15142386808E+01 -0.49500624015E+03 -0.12487224811E+04  0.13462895626E+04  0.90301057058E+02 0.  0.
         23    2    4    4    0    0 -0.54207230469E+03  0.10566640320E+03 -0.69502782503E+03  0.89231634626E+03  0.90316177792E+02 0.  0.
          4    1    3    3  502    0  0.49220554214E+03  0.37118752913E+03 -0.32009408331E+03  0.69462702198E+03  0.00000000000E+00 0. -1.
         -3    1    3    3    0  502  0.51381001233E+02  0.18152307821E+02 -0.48756448517E+02  0.73121165465E+02  0.00000000000E+00 0.  1.
         13    1    5    5    0    0  0.27569242120E+02 -0.40535200941E+03 -0.10634971875E+04  0.11384623764E+04  0.00000000000E+00 0.  1.
        -13    1    5    5    0    0 -0.29083480801E+02 -0.89654230740E+02 -0.18522529360E+03  0.20782718622E+03  0.00000000000E+00 0. -1.
          1    1    6    6  503    0 -0.13960483927E+03  0.50641551728E+02 -0.24114034474E+03  0.28320088943E+03  0.00000000000E+00 0. -1.
         -1    1    6    6    0  503 -0.40246746542E+03  0.55024851471E+02 -0.45388748029E+03  0.60911545684E+03  0.00000000000E+00 0.  1.
<mgrwt>
<rscale>  0 0.19209483E+04</rscale>
<asrwt>0</asrwt>
<pdfrwt beam="1">  1        2 0.40915038E+00 0.19209483E+04</pdfrwt>
<pdfrwt beam="2">  1       -1 0.53365636E-01 0.19209483E+04</pdfrwt>
<totfact> 0.10596805E+01</totfact>
</mgrwt>
</event>
<event>
12    7  0.1698542E-007  0.1436489E+04  0.7818608E-02  0.8927821E-01
         -1   -1    0    0    0  501 -0.00000000000E+00  0.00000000000E+00  0.22851113010E+03  0.22851113010E+03  0.00000000000E+00 0.  1.
          2   -1    0    0  501    0  0.00000000000E+00 -0.00000000000E+00 -0.22575490066E+04  0.22575490066E+04  0.00000000000E+00 0. -1.
         24    2    1    2    0    0  0.35425071761E+03  0.11488840461E+03 -0.50388482610E+03  0.63158941291E+03  0.79450312065E+02 0.  0.
        254    2    1    2    0    0 -0.35425071761E+03 -0.11488840461E+03 -0.15251530504E+04  0.18544707238E+04  0.98705467014E+03 0.  0.
         23    2    4    4    0    0 -0.43567868302E+03  0.15998130723E+03 -0.23278669467E+03  0.52720790768E+03  0.91370669249E+02 0.  0.
         23    2    4    4    0    0  0.81427965415E+02 -0.27486971184E+03 -0.12923663557E+04  0.13272628161E+04  0.96082847529E+02 0.  0.
          2    1    3    3  502    0  0.30148591504E+03  0.68331653376E+02 -0.42964787197E+03  0.52930167741E+03  0.00000000000E+00 0. -1.
         -3    1    3    3    0  502  0.52764802565E+02  0.46556751230E+02 -0.74236954127E+02  0.10228773550E+03  0.00000000000E+00 0.  1.
         13    1    5    5    0    0 -0.36882604158E+02  0.68907592867E+01  0.57338302539E+01  0.37956367877E+02  0.00000000000E+00 0.  1.
        -13    1    5    5    0    0 -0.39879607886E+03  0.15309054795E+03 -0.23852052492E+03  0.48925153980E+03  0.00000000000E+00 0. -1.
          4    1    6    6  503    0  0.64363396518E+02 -0.23902332757E+03 -0.91769836169E+03  0.95049728089E+03  0.00000000000E+00 0. -1.
         -4    1    6    6    0  503  0.17064568897E+02 -0.35846384274E+02 -0.37466799406E+03  0.37676553525E+03  0.00000000000E+00 0.  1.
<mgrwt>
<rscale>  0 0.14364889E+04</rscale>
<asrwt>0</asrwt>
<pdfrwt beam="1">  1        2 0.34731523E+00 0.14364889E+04</pdfrwt>
<pdfrwt beam="2">  1       -1 0.35155558E-01 0.14364889E+04</pdfrwt>
<totfact> 0.40854171E+01</totfact>
</mgrwt>
</event>
<event>
12    7  0.1698542E-007  0.1744212E+04  0.7818608E-02  0.8736543E-01
          4   -1    0    0  501    0  0.00000000000E+00  0.00000000000E+00  0.59865419819E+03  0.59865419819E+03  0.00000000000E+00 0. -1.
         -3   -1    0    0    0  501 -0.00000000000E+00 -0.00000000000E+00 -0.12704640428E+04  0.12704640428E+04  0.00000000000E+00 0.  1.
         24    2    1    2    0    0  0.28684851414E+03  0.35607752343E+03  0.21320273583E+03  0.51113455189E+03  0.82035667910E+02 0.  0.
        254    2    1    2    0    0 -0.28684851414E+03 -0.35607752343E+03 -0.88501258042E+03  0.13579836891E+04  0.92292966121E+03 0.  0.
         23    2    4    4    0    0  0.11021469547E+03  0.48577393703E+02 -0.75363247736E+03  0.76858695297E+03  0.90867766933E+02 0.  0.
         23    2    4    4    0    0 -0.39706320961E+03 -0.40465491713E+03 -0.13138010306E+03  0.58939673611E+03  0.93396930732E+02 0.  0.
          2    1    3    3  502    0  0.11775004519E+03  0.13179690062E+03  0.12590556874E+03  0.21699702393E+03  0.00000000000E+00 0. -1.
         -1    1    3    3    0  502  0.16909846895E+03  0.22428062281E+03  0.87297167090E+02  0.29413752796E+03  0.00000000000E+00 0.  1.
         13    1    5    5    0    0  0.12524396404E+03  0.50854637080E+02 -0.65646673536E+03  0.67023937461E+03  0.00000000000E+00 0. -1.
        -13    1    5    5    0    0 -0.15029268571E+02 -0.22772433768E+01 -0.97165741998E+02  0.98347578360E+02  0.00000000000E+00 0.  1.
          3    1    6    6  503    0 -0.85671329595E+02 -0.12886220877E+03 -0.66403482390E+02  0.16838785003E+03  0.00000000000E+00 0. -1.
         -3    1    6    6    0  503 -0.31139188002E+03 -0.27579270837E+03 -0.64976620670E+02  0.42100888608E+03  0.00000000000E+00 0.  1.
<mgrwt>
<rscale>  0 0.17442117E+04</rscale>
<asrwt>0</asrwt>
<pdfrwt beam="1">  1        4 0.92100647E-01 0.17442117E+04</pdfrwt>
<pdfrwt beam="2">  1       -3 0.19545600E+00 0.17442117E+04</pdfrwt>
<totfact> 0.34075886E-01</totfact>
</mgrwt>
</event>
<event>
12    7  0.1698542E-007  0.1677221E+04  0.7818608E-02  0.8774464E-01
         -1   -1    0    0    0  501 -0.00000000000E+00  0.00000000000E+00  0.53565047569E+03  0.53565047569E+03  0.00000000000E+00 0.  1.
          2   -1    0    0  501    0  0.00000000000E+00 -0.00000000000E+00 -0.13129225314E+04  0.13129225314E+04  0.00000000000E+00 0. -1.
         24    2    1    2    0    0 -0.33130804635E+03 -0.27860132913E+03 -0.72012925279E+03  0.84377215753E+03  0.77340745591E+02 0.  0.
        254    2    1    2    0    0  0.33130804635E+03  0.27860132913E+03 -0.57142802916E+02  0.10048008496E+04  0.90497277594E+03 0.  0.
         23    2    4    4    0    0  0.26241318775E+03 -0.23997673595E+03  0.19333650474E+03  0.41747563188E+03  0.10226135266E+03 0.  0.
         23    2    4    4    0    0  0.68894858592E+02  0.51857806508E+03 -0.25047930766E+03  0.58732521768E+03  0.92419243910E+02 0.  0.
          4    1    3    3  502    0 -0.23435930631E+03 -0.22757772090E+03 -0.49021125910E+03  0.58908656584E+03  0.00000000000E+00 0. -1.
         -3    1    3    3    0  502 -0.96948740031E+02 -0.51023608230E+02 -0.22991799368E+03  0.25468559168E+03  0.00000000000E+00 0.  1.
         13    1    5    5    0    0  0.22086766702E+03 -0.16755297684E+03  0.10642311582E+03  0.29695522552E+03  0.00000000000E+00 0. -1.
        -13    1    5    5    0    0  0.41545520733E+02 -0.72423759104E+02  0.86913388917E+02  0.12052040636E+03  0.00000000000E+00 0.  1.
          3    1    6    6  503    0  0.27773940464E+02  0.39045726718E+03 -0.14921230989E+03  0.41891834847E+03  0.00000000000E+00 0. -1.
         -3    1    6    6    0  503  0.41120918129E+02  0.12812079789E+03 -0.10126699777E+03  0.16840686921E+03  0.00000000000E+00 0.  1.
<mgrwt>
<rscale>  0 0.16772210E+04</rscale>
<asrwt>0</asrwt>
<pdfrwt beam="1">  1        2 0.20198808E+00 0.16772210E+04</pdfrwt>
<pdfrwt beam="2">  1       -1 0.82407765E-01 0.16772210E+04</pdfrwt>
<totfact> 0.25846533E+01</totfact>
</mgrwt>
</event>
<event>
12    7  0.1698542E-007  0.2532554E+04  0.7818608E-02  0.8391479E-01
         -1   -1    0    0    0  501 -0.00000000000E+00  0.00000000000E+00  0.95163653413E+03  0.95163653413E+03  0.00000000000E+00 0.  1.
          2   -1    0    0  501    0  0.00000000000E+00 -0.00000000000E+00 -0.16849472770E+04  0.16849472770E+04  0.00000000000E+00 0. -1.
         24    2    1    2    0    0  0.88925314046E+03  0.52531815383E+03 -0.73392372977E+03  0.12694424510E+04  0.78165111932E+02 0.  0.
        254    2    1    2    0    0 -0.88925314046E+03 -0.52531815383E+03  0.61298695046E+00  0.13671413601E+04  0.89573702176E+03 0.  0.
         23    2    4    4    0    0 -0.57432575811E+03  0.16937399768E+02  0.31214990062E+03  0.66091730132E+03  0.96110180437E+02 0.  0.
         23    2    4    4    0    0 -0.31492738235E+03 -0.54225555359E+03 -0.31153691367E+03  0.70622405877E+03  0.92069707586E+02 0.  0.
          4    1    3    3  502    0  0.20190640744E+03  0.15729557549E+03 -0.19118479061E+03  0.31946786942E+03  0.00000000000E+00 0. -1.
         -3    1    3    3    0  502  0.68734673302E+03  0.36802257834E+03 -0.54273893916E+03  0.94997458158E+03  0.00000000000E+00 0.  1.
         13    1    5    5    0    0 -0.35785004115E+03 -0.11570302010E+01  0.14205574566E+03  0.38501665619E+03  0.00000000000E+00 0. -1.
        -13    1    5    5    0    0 -0.21647571696E+03  0.18094429969E+02  0.17009415496E+03  0.27590064513E+03  0.00000000000E+00 0.  1.
          4    1    6    6  503    0 -0.23459422525E+02 -0.96670790269E+02 -0.29862549332E+02  0.10386220703E+03  0.00000000000E+00 0. -1.
         -4    1    6    6    0  503 -0.29146795982E+03 -0.44558476332E+03 -0.28167436434E+03  0.60236185174E+03  0.00000000000E+00 0.  1.
<mgrwt>
<rscale>  0 0.25325540E+04</rscale>
<asrwt>0</asrwt>
<pdfrwt beam="1">  1        2 0.25922266E+00 0.25325540E+04</pdfrwt>
<pdfrwt beam="2">  1       -1 0.14640562E+00 0.25325540E+04</pdfrwt>
<totfact> 0.37705019E+00</totfact>
</mgrwt>
</event>
<event>
12    7  0.1698542E-007  0.1971137E+04  0.7818608E-02  0.8620235E-01
         -1   -1    0    0    0  501 -0.00000000000E+00  0.00000000000E+00  0.43779898596E+03  0.43779898596E+03  0.00000000000E+00 0.  1.
          2   -1    0    0  501    0  0.00000000000E+00 -0.00000000000E+00 -0.22187015273E+04  0.22187015273E+04  0.00000000000E+00 0. -1.
         24    2    1    2    0    0 -0.34571160605E+03 -0.19575982383E+03  0.18945902906E+03  0.44760413680E+03  0.81340742597E+02 0.  0.
        254    2    1    2    0    0  0.34571160605E+03  0.19575982383E+03 -0.19703615704E+04  0.22088963764E+04  0.91600221649E+03 0.  0.
         23    2    4    4    0    0  0.29104955191E+03  0.54876574021E+03 -0.12289240330E+04  0.13808158851E+04  0.10268666176E+03 0.  0.
         23    2    4    4    0    0  0.54662054133E+02 -0.35300591638E+03 -0.74143753742E+03  0.82808049132E+03  0.91578169060E+02 0.  0.
          2    1    3    3  502    0 -0.34946207894E+02  0.40660275988E+01  0.25162918232E+02  0.43254392616E+02  0.00000000000E+00 0. -1.
         -1    1    3    3    0  502 -0.31076539815E+03 -0.19982585143E+03  0.16429611083E+03  0.40434974418E+03  0.00000000000E+00 0.  1.
         13    1    5    5    0    0  0.51839470925E+02  0.61348379829E+02 -0.23373839299E+03  0.24715297046E+03  0.00000000000E+00 0. -1.
        -13    1    5    5    0    0  0.23921008099E+03  0.48741736038E+03 -0.99518563998E+03  0.11336629147E+04  0.00000000000E+00 0.  1.
          3    1    6    6  503    0  0.17789345791E+02 -0.99925809649E+02 -0.31373930291E+03  0.32974835624E+03  0.00000000000E+00 0. -1.
         -3    1    6    6    0  503  0.36872708343E+02 -0.25308010673E+03 -0.42769823452E+03  0.49833213508E+03  0.00000000000E+00 0.  1.
<mgrwt>
<rscale>  0 0.19711370E+04</rscale>
<asrwt>0</asrwt>
<pdfrwt beam="1">  1        2 0.34133871E+00 0.19711370E+04</pdfrwt>
<pdfrwt beam="2">  1       -1 0.67353687E-01 0.19711370E+04</pdfrwt>
<totfact> 0.11930841E+01</totfact>
</mgrwt>
</event>
<event>
12    7  0.1698542E-007  0.1767449E+04  0.7818608E-02  0.8723804E-01
         -1   -1    0    0    0  501 -0.00000000000E+00  0.00000000000E+00  0.18532492680E+04  0.18532492680E+04  0.00000000000E+00 0.  1.
          2   -1    0    0  501    0  0.00000000000E+00 -0.00000000000E+00 -0.42140528088E+03  0.42140528088E+03  0.00000000000E+00 0. -1.
         24    2    1    2    0    0 -0.30646921062E+03  0.49039496879E+03  0.47565762529E+03  0.75311777890E+03  0.80781247370E+02 0.  0.
        254    2    1    2    0    0  0.30646921062E+03 -0.49039496879E+03  0.95618636184E+03  0.15215367700E+04  0.10326524979E+04 0.  0.
         23    2    4    4    0    0  0.54577081885E+03 -0.67112122415E+03  0.71829435244E+03  0.11278457095E+04  0.88428974182E+02 0.  0.
         23    2    4    4    0    0 -0.23930160824E+03  0.18072625536E+03  0.23789200940E+03  0.39369106049E+03  0.92047834788E+02 0.  0.
          4    1    3    3  502    0 -0.28052621658E+03  0.47841570803E+03  0.45996780117E+03  0.72051851190E+03  0.00000000000E+00 0. -1.
         -3    1    3    3    0  502 -0.25942994037E+02  0.11979260764E+02  0.15689824116E+02  0.32599266998E+02  0.00000000000E+00 0.  1.
         13    1    5    5    0    0  0.36813393645E+03 -0.43805865579E+03  0.52685883466E+03  0.77781631041E+03  0.00000000000E+00 0. -1.
        -13    1    5    5    0    0  0.17763688241E+03 -0.23306256836E+03  0.19143551778E+03  0.35002939909E+03  0.00000000000E+00 0.  1.
          3    1    6    6  503    0 -0.24749225835E+03  0.17547463812E+03  0.22591988863E+03  0.37826387965E+03  0.00000000000E+00 0. -1.
         -3    1    6    6    0  503  0.81906501139E+01  0.52516172436E+01  0.11972120771E+02  0.15427180841E+02  0.00000000000E+00 0.  1.
<mgrwt>
<rscale>  0 0.17674490E+04</rscale>
<asrwt>0</asrwt>
<pdfrwt beam="1">  1        2 0.64831582E-01 0.17674490E+04</pdfrwt>
<pdfrwt beam="2">  1       -1 0.28511527E+00 0.17674490E+04</pdfrwt>
<totfact> 0.33480418E+00</totfact>
</mgrwt>
</event>
<event>
12    7  0.1698542E-007  0.1758282E+04  0.7818608E-02  0.8728805E-01
         -1   -1    0    0    0  501 -0.00000000000E+00  0.00000000000E+00  0.89521080331E+03  0.89521080331E+03  0.00000000000E+00 0.  1.
          2   -1    0    0  501    0  0.00000000000E+00 -0.00000000000E+00 -0.86335963520E+03  0.86335963520E+03  0.00000000000E+00 0. -1.
         24    2    1    2    0    0 -0.26696045636E+03 -0.40067839143E+03 -0.39491900555E+03  0.62791559861E+03  0.80659279738E+02 0.  0.
        254    2    1    2    0    0  0.26696045636E+03  0.40067839143E+03  0.42677017365E+03  0.11306548399E+04  0.92975078771E+03 0.  0.
         23    2    4    4    0    0 -0.28480288559E+03  0.38399499491E+03  0.22377262293E+03  0.53539978660E+03  0.89520416422E+02 0.  0.
         23    2    4    4    0    0  0.55176334196E+03  0.16683396514E+02  0.20299755072E+03  0.59525505330E+03  0.91648522294E+02 0.  0.
          4    1    3    3  502    0 -0.27112280812E+03 -0.38181372910E+03 -0.37286004306E+03  0.59859327804E+03  0.00000000000E+00 0. -1.
         -3    1    3    3    0  502  0.41623517521E+01 -0.18864662324E+02 -0.22058962496E+02  0.29322320562E+02  0.00000000000E+00 0.  1.
         13    1    5    5    0    0 -0.15592773312E+03  0.25596346514E+03  0.10156929540E+03  0.31646022691E+03  0.00000000000E+00 0.  1.
        -13    1    5    5    0    0 -0.12887515247E+03  0.12803152977E+03  0.12220332753E+03  0.21893955969E+03  0.00000000000E+00 0. -1.
          2    1    6    6  503    0  0.21715540473E+03  0.90325724399E+01  0.12808932421E+03  0.25227947231E+03  0.00000000000E+00 0.  1.
         -2    1    6    6    0  503  0.33460793722E+03  0.76508240740E+01  0.74908226507E+02  0.34297558100E+03  0.00000000000E+00 0. -1.
<mgrwt>
<rscale>  0 0.17582820E+04</rscale>
<asrwt>0</asrwt>
<pdfrwt beam="1">  1        2 0.13282456E+00 0.17582820E+04</pdfrwt>
<pdfrwt beam="2">  1       -1 0.13772474E+00 0.17582820E+04</pdfrwt>
<totfact> 0.14694249E+01</totfact>
</mgrwt>
</event>
<event>
12    7  0.1698542E-007  0.1285232E+04  0.7818608E-02  0.9041359E-01
          2   -1    0    0  501    0  0.00000000000E+00  0.00000000000E+00  0.33476436999E+04  0.33476436999E+04  0.00000000000E+00 0. -1.
         -1   -1    0    0    0  501 -0.00000000000E+00 -0.00000000000E+00 -0.12335698918E+03  0.12335698918E+03  0.00000000000E+00 0.  1.
         24    2    1    2    0    0  0.14848442211E+03 -0.17534808941E+03  0.13530069672E+04  0.13746418261E+04  0.78852525194E+02 0.  0.
        254    2    1    2    0    0 -0.14848442211E+03  0.17534808941E+03  0.18712797435E+04  0.20963588629E+04  0.91664498457E+03 0.  0.
         23    2    4    4    0    0  0.28777563248E+03  0.28340186498E+02  0.21327867146E+03  0.37313980398E+03  0.10063568351E+03 0.  0.
         23    2    4    4    0    0 -0.43626005459E+03  0.14700790291E+03  0.16580010720E+04  0.17232190590E+04  0.92640226225E+02 0.  0.
          4    1    3    3  502    0  0.12319437587E+03 -0.13824356911E+03  0.12265573623E+04  0.12404560055E+04  0.00000000000E+00 0. -1.
         -3    1    3    3    0  502  0.25290046237E+02 -0.37104520301E+02  0.12644960495E+03  0.13418582062E+03  0.00000000000E+00 0.  1.
         13    1    5    5    0    0  0.68339516444E+02  0.28896960561E+01  0.34885909761E+01  0.68489489107E+02  0.00000000000E+00 0. -1.
        -13    1    5    5    0    0  0.21943611604E+03  0.25450490442E+02  0.20979008048E+03  0.30465031488E+03  0.00000000000E+00 0.  1.
          1    1    6    6  503    0 -0.28411907597E+03  0.11589505326E+03  0.12370391060E+04  0.12745277802E+04  0.00000000000E+00 0. -1.
         -1    1    6    6    0  503 -0.15214097862E+03  0.31112849649E+02  0.42096196601E+03  0.44869127873E+03  0.00000000000E+00 0.  1.
<mgrwt>
<rscale>  0 0.12852319E+04</rscale>
<asrwt>0</asrwt>
<pdfrwt beam="1">  1        2 0.51502204E+00 0.12852319E+04</pdfrwt>
<pdfrwt beam="2">  1       -1 0.18978001E-01 0.12852319E+04</pdfrwt>
<totfact> 0.26295099E+01</totfact>
</mgrwt>
</event>
<event>
12    7  0.1698542E-007  0.1212709E+04  0.7818608E-02  0.9101804E-01
         -1   -1    0    0    0  501 -0.00000000000E+00  0.00000000000E+00  0.13708403806E+04  0.13708403806E+04  0.00000000000E+00 0.  1.
          2   -1    0    0  501    0  0.00000000000E+00 -0.00000000000E+00 -0.26820474236E+03  0.26820474236E+03  0.00000000000E+00 0. -1.
         24    2    1    2    0    0 -0.19664837353E+03  0.11893038050E+03  0.45198390555E+03  0.51145497787E+03  0.66945689124E+02 0.  0.
        254    2    1    2    0    0  0.19664837353E+03 -0.11893038050E+03  0.65065173272E+03  0.11275901451E+04  0.89179416899E+03 0.  0.
         23    2    4    4    0    0  0.50886309786E+03 -0.24181473686E+03  0.45398522322E+03  0.72797663075E+03  0.80195839604E+02 0.  0.
         23    2    4    4    0    0 -0.31221472432E+03  0.12288435637E+03  0.19666650950E+03  0.39961351437E+03  0.91840327638E+02 0.  0.
          4    1    3    3  502    0 -0.10196215150E+03  0.86398580873E+02  0.20243740612E+03  0.24257349095E+03  0.00000000000E+00 0. -1.
         -3    1    3    3    0  502 -0.94686222038E+02  0.32531799624E+02  0.24954649943E+03  0.26888148692E+03  0.00000000000E+00 0.  1.
         13    1    5    5    0    0  0.45704796478E+03 -0.19916525633E+03  0.42399437137E+03  0.65446991405E+03  0.00000000000E+00 0. -1.
        -13    1    5    5    0    0  0.51815133075E+02 -0.42649480533E+02  0.29990851844E+02  0.73506716697E+02  0.00000000000E+00 0.  1.
          4    1    6    6  503    0 -0.20494057188E+03  0.41528750727E+02  0.89152171863E+02  0.22731780592E+03  0.00000000000E+00 0. -1.
         -4    1    6    6    0  503 -0.10727415244E+03  0.81355605640E+02  0.10751433764E+03  0.17229570845E+03  0.00000000000E+00 0.  1.
<mgrwt>
<rscale>  0 0.12127092E+04</rscale>
<asrwt>0</asrwt>
<pdfrwt beam="1">  1        2 0.41262269E-01 0.12127092E+04</pdfrwt>
<pdfrwt beam="2">  1       -1 0.21089852E+00 0.12127092E+04</pdfrwt>
<totfact> 0.17833589E+01</totfact>
</mgrwt>
</event>
<event>
12    7  0.1698542E-007  0.1872130E+04  0.7818608E-02  0.8668855E-01
         -1   -1    0    0    0  501 -0.00000000000E+00  0.00000000000E+00  0.31892803434E+03  0.31892803434E+03  0.00000000000E+00 0.  1.
          2   -1    0    0  501    0  0.00000000000E+00 -0.00000000000E+00 -0.27473832905E+04  0.27473832905E+04  0.00000000000E+00 0. -1.
         24    2    1    2    0    0 -0.10170191433E+03 -0.70883874891E+03 -0.96631216979E+03  0.12053831735E+04  0.79960829485E+02 0.  0.
        254    2    1    2    0    0  0.10170191433E+03  0.70883874891E+03 -0.14621430864E+04  0.18609281513E+04  0.90132986633E+03 0.  0.
         23    2    4    4    0    0  0.18447407899E+03  0.25236553405E+03 -0.15551772661E+01  0.32572799500E+03  0.91527370494E+02 0.  0.
         23    2    4    4    0    0 -0.82772164662E+02  0.45647321486E+03 -0.14605879091E+04  0.15352001563E+04  0.91123282221E+02 0.  0.
          4    1    3    3  502    0 -0.10229028802E+02 -0.38315048384E+02 -0.88635589808E+02  0.97102748383E+02  0.00000000000E+00 0. -1.
         -3    1    3    3    0  502 -0.91472885528E+02 -0.67052370052E+03 -0.87767657999E+03  0.11082804252E+04  0.00000000000E+00 0.  1.
         13    1    5    5    0    0  0.67975097839E+02  0.63870454719E+02 -0.38812547984E+02  0.10102703991E+03  0.00000000000E+00 0. -1.
        -13    1    5    5    0    0  0.11649898115E+03  0.18849507933E+03  0.37257370718E+02  0.22470095508E+03  0.00000000000E+00 0.  1.
          1    1    6    6  503    0 -0.82909846104E+02  0.33763078391E+03 -0.96995478928E+03  0.10303789992E+04  0.00000000000E+00 0. -1.
         -1    1    6    6    0  503  0.13768144141E+00  0.11884243094E+03 -0.49063311983E+03  0.50482115707E+03  0.00000000000E+00 0.  1.
<mgrwt>
<rscale>  0 0.18721299E+04</rscale>
<asrwt>0</asrwt>
<pdfrwt beam="1">  1        2 0.42267437E+00 0.18721299E+04</pdfrwt>
<pdfrwt beam="2">  1       -1 0.49065850E-01 0.18721299E+04</pdfrwt>
<totfact> 0.11081259E+01</totfact>
</mgrwt>
</event>
<event>
12    7  0.1698542E-007  0.1917510E+04  0.7818608E-02  0.8646189E-01
          2   -1    0    0  501    0  0.00000000000E+00  0.00000000000E+00  0.86750437196E+03  0.86750437196E+03  0.00000000000E+00 0. -1.
         -1   -1    0    0    0  501 -0.00000000000E+00 -0.00000000000E+00 -0.10596037849E+04  0.10596037849E+04  0.00000000000E+00 0.  1.
         24    2    1    2    0    0 -0.49477006550E+03  0.24034590981E+03 -0.57991100120E+03  0.80306313310E+03  0.77782082553E+02 0.  0.
        254    2    1    2    0    0  0.49477006550E+03 -0.24034590981E+03  0.38781158823E+03  0.11240450238E+04  0.90028651742E+03 0.  0.
         23    2    4    4    0    0 -0.60843777265E+02 -0.85339541333E+02 -0.23280730798E+03  0.27122195566E+03  0.91527613521E+02 0.  0.
         23    2    4    4    0    0  0.55561384276E+03 -0.15500636848E+03  0.62061889621E+03  0.85282306813E+03  0.96982754420E+02 0.  0.
          2    1    3    3  502    0 -0.32491978297E+02  0.38408231235E+02 -0.41132470204E+02  0.64983082301E+02  0.00000000000E+00 0. -1.
         -1    1    3    3    0  502 -0.46227808720E+03  0.20193767858E+03 -0.53877853099E+03  0.73808005080E+03  0.00000000000E+00 0.  1.
         13    1    5    5    0    0  0.18261117979E+02 -0.14990300955E+02 -0.92436292824E+02  0.95407786808E+02  0.00000000000E+00 0.  1.
        -13    1    5    5    0    0 -0.79104895244E+02 -0.70349240378E+02 -0.14037101515E+03  0.17581416885E+03  0.00000000000E+00 0. -1.
          2    1    6    6  503    0  0.11688235123E+03 -0.56400156186E+02  0.19090615392E+03  0.23084111690E+03  0.00000000000E+00 0.  1.
         -2    1    6    6    0  503  0.43873149153E+03 -0.98606212292E+02  0.42971274229E+03  0.62198195123E+03  0.00000000000E+00 0. -1.
<mgrwt>
<rscale>  0 0.19175098E+04</rscale>
<asrwt>0</asrwt>
<pdfrwt beam="1">  1        2 0.13346221E+00 0.19175098E+04</pdfrwt>
<pdfrwt beam="2">  1       -1 0.16301597E+00 0.19175098E+04</pdfrwt>
<totfact> 0.91343281E+00</totfact>
</mgrwt>
</event>
<event>
12    7  0.1698542E-007  0.1297912E+04  0.7818608E-02  0.9031222E-01
         -1   -1    0    0    0  501 -0.00000000000E+00  0.00000000000E+00  0.87271175577E+03  0.87271175577E+03  0.00000000000E+00 0.  1.
          2   -1    0    0  501    0  0.00000000000E+00 -0.00000000000E+00 -0.48256959584E+03  0.48256959584E+03  0.00000000000E+00 0. -1.
         24    2    1    2    0    0  0.29589981392E+03 -0.79494527597E+02  0.22495791183E+03  0.38869399486E+03  0.81245798324E+02 0.  0.
        254    2    1    2    0    0 -0.29589981392E+03  0.79494527597E+02  0.16518424811E+03  0.96658735675E+03  0.90173677013E+03 0.  0.
         23    2    4    4    0    0 -0.61015793810E+03  0.90820900862E+02  0.10023893434E+03  0.63156542608E+03  0.91026908139E+02 0.  0.
         23    2    4    4    0    0  0.31425812418E+03 -0.11326373266E+02  0.64945313764E+02  0.33502193067E+03  0.95578998244E+02 0.  0.
          2    1    3    3  502    0  0.28627274945E+03 -0.91269475066E+02  0.20561500717E+03  0.36408753800E+03  0.00000000000E+00 0. -1.
         -1    1    3    3    0  502  0.96270644789E+01  0.11774947469E+02  0.19342904659E+02  0.24606456857E+02  0.00000000000E+00 0.  1.
         13    1    5    5    0    0 -0.11980765615E+03  0.15630740733E+02  0.57028300207E+02  0.13360546977E+03  0.00000000000E+00 0. -1.
        -13    1    5    5    0    0 -0.49035028195E+03  0.75190160130E+02  0.43210634134E+02  0.49795995631E+03  0.00000000000E+00 0.  1.
          1    1    6    6  503    0  0.58660533319E+02 -0.86482369716E+01 -0.24578039648E+02  0.64186682458E+02  0.00000000000E+00 0. -1.
         -1    1    6    6    0  503  0.25559759086E+03 -0.26781362943E+01  0.89523353412E+02  0.27083524821E+03  0.00000000000E+00 0.  1.
<mgrwt>
<rscale>  0 0.12979124E+04</rscale>
<asrwt>0</asrwt>
<pdfrwt beam="1">  1        2 0.74241477E-01 0.12979124E+04</pdfrwt>
<pdfrwt beam="2">  1       -1 0.13426335E+00 0.12979124E+04</pdfrwt>
<totfact> 0.33617369E+01</totfact>
</mgrwt>
</event>
<event>
12    7  0.1698542E-007  0.1604397E+04  0.7818608E-02  0.8817851E-01
         -1   -1    0    0    0  501 -0.00000000000E+00  0.00000000000E+00  0.41933057709E+03  0.41933057709E+03  0.00000000000E+00 0.  1.
          2   -1    0    0  501    0  0.00000000000E+00 -0.00000000000E+00 -0.15346429226E+04  0.15346429226E+04  0.00000000000E+00 0. -1.
         24    2    1    2    0    0 -0.21953805778E+03  0.14011429134E+03  0.19497007330E+03  0.33408909995E+03  0.75981733135E+02 0.  0.
        254    2    1    2    0    0  0.21953805778E+03 -0.14011429134E+03 -0.13102824188E+04  0.16198843997E+04  0.91616400171E+03 0.  0.
         23    2    4    4    0    0 -0.34926951593E+03 -0.56900553035E+02 -0.42920331032E+03  0.56380894555E+03  0.91859554765E+02 0.  0.
         23    2    4    4    0    0  0.56880757372E+03 -0.83213738302E+02 -0.88107910848E+03  0.10560754542E+04  0.92349268351E+02 0.  0.
          2    1    3    3  502    0 -0.44377826534E+02  0.67422087344E+02  0.71174785886E+02  0.10761495944E+03  0.00000000000E+00 0. -1.
         -1    1    3    3    0  502 -0.17516023125E+03  0.72692203993E+02  0.12379528741E+03  0.22647414051E+03  0.00000000000E+00 0.  1.
         13    1    5    5    0    0 -0.35423731261E+03 -0.57988496566E+02 -0.42797352735E+03  0.55857683401E+03  0.00000000000E+00 0. -1.
        -13    1    5    5    0    0  0.49677966825E+01  0.10879435314E+01 -0.12297829653E+01  0.52321115382E+01  0.00000000000E+00 0.  1.
          3    1    6    6  503    0  0.47967927158E+03 -0.79780144076E+02 -0.67876734654E+03  0.83497436230E+03  0.00000000000E+00 0. -1.
         -3    1    6    6    0  503  0.89128302136E+02 -0.34335942261E+01 -0.20231176194E+03  0.22110109188E+03  0.00000000000E+00 0.  1.
<mgrwt>
<rscale>  0 0.16043973E+04</rscale>
<asrwt>0</asrwt>
<pdfrwt beam="1">  1        2 0.23609891E+00 0.16043973E+04</pdfrwt>
<pdfrwt beam="2">  1       -1 0.64512397E-01 0.16043973E+04</pdfrwt>
<totfact> 0.32294029E+01</totfact>
</mgrwt>
</event>
<event>
12    7  0.1698542E-007  0.2934503E+04  0.7818608E-02  0.8262685E-01
         -3   -1    0    0    0  501 -0.00000000000E+00  0.00000000000E+00  0.75785189864E+03  0.75785189864E+03  0.00000000000E+00 0.  1.
          2   -1    0    0  501    0  0.00000000000E+00 -0.00000000000E+00 -0.28406957051E+04  0.28406957051E+04  0.00000000000E+00 0. -1.
         24    2    1    2    0    0 -0.16376858478E+03  0.85815080690E+03 -0.21977068558E+04  0.23662983340E+04  0.78799903592E+02 0.  0.
        254    2    1    2    0    0  0.16376858478E+03 -0.85815080690E+03  0.11486304935E+03  0.12322492697E+04  0.86139525531E+03 0.  0.
         23    2    4    4    0    0 -0.18684623164E+03 -0.49435863569E+03  0.37730663278E+03  0.65552585707E+03  0.89732263914E+02 0.  0.
         23    2    4    4    0    0  0.35061481642E+03 -0.36379217121E+03 -0.26244358343E+03  0.57672341265E+03  0.91966118106E+02 0.  0.
          4    1    3    3  502    0 -0.14243215621E+03  0.81643653035E+03 -0.21086089568E+04  0.22656317574E+04  0.00000000000E+00 0. -1.
         -3    1    3    3    0  502 -0.21336428578E+02  0.41714276542E+02 -0.89097899023E+02  0.10066657669E+03  0.00000000000E+00 0.  1.
         13    1    5    5    0    0 -0.19021447903E+02 -0.81209052240E+01  0.74826129278E+01  0.21994410159E+02  0.00000000000E+00 0.  1.
        -13    1    5    5    0    0 -0.16782478374E+03 -0.48623773046E+03  0.36982401985E+03  0.63353144691E+03  0.00000000000E+00 0. -1.
          3    1    6    6  503    0  0.33631328204E+03 -0.34335673379E+03 -0.26920196186E+03  0.55088126360E+03  0.00000000000E+00 0. -1.
         -3    1    6    6    0  503  0.14301534384E+02 -0.20435437424E+02  0.67583784292E+01  0.25842149049E+02  0.00000000000E+00 0.  1.
<mgrwt>
<rscale>  0 0.29345028E+04</rscale>
<asrwt>0</asrwt>
<pdfrwt beam="1">  1        2 0.43703011E+00 0.29345028E+04</pdfrwt>
<pdfrwt beam="2">  1       -3 0.11659260E+00 0.29345028E+04</pdfrwt>
<totfact> 0.72767443E-01</totfact>
</mgrwt>
</event>
<event>
12    7  0.1698542E-007  0.1697141E+04  0.7818608E-02  0.8762997E-01
          2   -1    0    0  501    0  0.00000000000E+00  0.00000000000E+00  0.14636517444E+04  0.14636517444E+04  0.00000000000E+00 0. -1.
         -1   -1    0    0    0  501 -0.00000000000E+00 -0.00000000000E+00 -0.49196932720E+03  0.49196932720E+03  0.00000000000E+00 0.  1.
         24    2    1    2    0    0 -0.32593760407E+03  0.21738091015E+03  0.88112565097E+03  0.96727634602E+03  0.75837556279E+02 0.  0.
        254    2    1    2    0    0  0.32593760407E+03 -0.21738091015E+03  0.90556766217E+02  0.98834472557E+03  0.90284826344E+03 0.  0.
         23    2    4    4    0    0  0.17484173126E+02 -0.51827597692E+03  0.13816028278E+03  0.54429584565E+03  0.90851633423E+02 0.  0.
         23    2    4    4    0    0  0.30845343094E+03  0.30089506676E+03 -0.47603516563E+02  0.44404887992E+03  0.96083051076E+02 0.  0.
          2    1    3    3  502    0 -0.28814429947E+03  0.16852546527E+03  0.78488139380E+03  0.85291662669E+03  0.00000000000E+00 0. -1.
         -1    1    3    3    0  502 -0.37793304598E+02  0.48855444885E+02  0.96244257166E+02  0.11435971933E+03  0.00000000000E+00 0.  1.
         13    1    5    5    0    0  0.10384582087E+02 -0.32691654623E+03  0.41229846663E+02  0.32966978630E+03  0.00000000000E+00 0. -1.
        -13    1    5    5    0    0  0.70995910387E+01 -0.19135943068E+03  0.96930436118E+02  0.21462605934E+03  0.00000000000E+00 0.  1.
          4    1    6    6  503    0  0.24204754074E+03  0.27540431697E+03 -0.60928924898E+02  0.37168115862E+03  0.00000000000E+00 0. -1.
         -4    1    6    6    0  503  0.66405890197E+02  0.25490749792E+02  0.13325408335E+02  0.72367721293E+02  0.00000000000E+00 0.  1.
<mgrwt>
<rscale>  0 0.16971408E+04</rscale>
<asrwt>0</asrwt>
<pdfrwt beam="1">  1        2 0.22517719E+00 0.16971408E+04</pdfrwt>
<pdfrwt beam="2">  1       -1 0.75687590E-01 0.16971408E+04</pdfrwt>
<totfact> 0.25321463E+01</totfact>
</mgrwt>
</event>
<event>
12    7  0.1698542E-007  0.1786430E+04  0.7818608E-02  0.8713549E-01
         -1   -1    0    0    0  501 -0.00000000000E+00  0.00000000000E+00  0.20550276558E+03  0.20550276558E+03  0.00000000000E+00 0.  1.
          2   -1    0    0  501    0  0.00000000000E+00 -0.00000000000E+00 -0.38823462980E+04  0.38823462980E+04  0.00000000000E+00 0. -1.
         24    2    1    2    0    0  0.55535831995E+03  0.13098168754E+03 -0.58645247278E+03  0.82214262182E+03  0.80080720348E+02 0.  0.
        254    2    1    2    0    0 -0.55535831995E+03 -0.13098168754E+03 -0.30903910596E+04  0.32657064417E+04  0.88811181516E+03 0.  0.
         23    2    4    4    0    0 -0.33633710882E+03 -0.12289550586E+03 -0.33083446554E+03  0.49598165647E+03  0.91216247673E+02 0.  0.
         23    2    4    4    0    0 -0.21902121113E+03 -0.80861816851E+01 -0.27595565941E+04  0.27697247853E+04  0.90482666435E+02 0.  0.
          2    1    3    3  502    0  0.87440851013E+02 -0.81127416692E+01 -0.97688645847E+02  0.13135749134E+03  0.00000000000E+00 0. -1.
         -1    1    3    3    0  502  0.46791746894E+03  0.13909442921E+03 -0.48876382693E+03  0.69078513048E+03  0.00000000000E+00 0.  1.
         13    1    5    5    0    0 -0.13194511958E+03 -0.91537784665E+02 -0.11835634192E+03  0.19949161455E+03  0.00000000000E+00 0. -1.
        -13    1    5    5    0    0 -0.20439198924E+03 -0.31357721193E+02 -0.21247812362E+03  0.29649004192E+03  0.00000000000E+00 0.  1.
          4    1    6    6  503    0 -0.16649611575E+03  0.80780592973E+01 -0.15536603966E+04  0.15625769868E+04  0.00000000000E+00 0. -1.
         -4    1    6    6    0  503 -0.52525095385E+02 -0.16164240982E+02 -0.12058961974E+04  0.12071477984E+04  0.00000000000E+00 0.  1.
<mgrwt>
<rscale>  0 0.17864298E+04</rscale>
<asrwt>0</asrwt>
<pdfrwt beam="1">  1        2 0.59728401E+00 0.17864298E+04</pdfrwt>
<pdfrwt beam="2">  1       -1 0.31615812E-01 0.17864298E+04</pdfrwt>
<totfact> 0.43037868E+00</totfact>
</mgrwt>
</event>
<event>
12    7  0.1698542E-007  0.1580588E+04  0.7818608E-02  0.8832563E-01
         -1   -1    0    0    0  501 -0.00000000000E+00  0.00000000000E+00  0.26083782111E+03  0.26083782111E+03  0.00000000000E+00 0.  1.
          2   -1    0    0  501    0  0.00000000000E+00 -0.00000000000E+00 -0.23944543054E+04  0.23944543054E+04  0.00000000000E+00 0. -1.
         24    2    1    2    0    0 -0.12154481583E+03  0.39990873858E+03 -0.28755970445E+03  0.51357298878E+03  0.79790285927E+02 0.  0.
        254    2    1    2    0    0  0.12154481583E+03 -0.39990873858E+03 -0.18460567799E+04  0.21417191378E+04  0.10021652005E+04 0.  0.
         23    2    4    4    0    0 -0.28570370775E+03  0.82754319830E+02 -0.18485774697E+03  0.36175836720E+03  0.90674381987E+02 0.  0.
         23    2    4    4    0    0  0.40724852358E+03 -0.48266305841E+03 -0.16611990329E+04  0.17799607706E+04  0.99313291800E+02 0.  0.
          4    1    3    3  502    0 -0.58011429949E+02  0.11001510881E+03 -0.11969327673E+03  0.17261266079E+03  0.00000000000E+00 0. -1.
         -3    1    3    3    0  502 -0.63533385881E+02  0.28989362977E+03 -0.16786642772E+03  0.34096032798E+03  0.00000000000E+00 0.  1.
         13    1    5    5    0    0 -0.28660375521E+03  0.69994272743E+02 -0.16470454185E+03  0.33788829045E+03  0.00000000000E+00 0. -1.
        -13    1    5    5    0    0  0.90004746328E+00  0.12760047087E+02 -0.20153205120E+02  0.23870076743E+02  0.00000000000E+00 0.  1.
          2    1    6    6  503    0  0.40616044035E+03 -0.45388130386E+03 -0.16075882770E+04  0.17191028502E+04  0.00000000000E+00 0. -1.
         -2    1    6    6    0  503  0.10880832317E+01 -0.28781754552E+02 -0.53610755912E+02  0.60857920353E+02  0.00000000000E+00 0.  1.
<mgrwt>
<rscale>  0 0.15805875E+04</rscale>
<asrwt>0</asrwt>
<pdfrwt beam="1">  1        2 0.36837758E+00 0.15805875E+04</pdfrwt>
<pdfrwt beam="2">  1       -1 0.40128897E-01 0.15805875E+04</pdfrwt>
<totfact> 0.26565237E+01</totfact>
</mgrwt>
</event>
<event>
12    7  0.1698542E-007  0.1615371E+04  0.7818608E-02  0.8811160E-01
          2   -1    0    0  501    0  0.00000000000E+00  0.00000000000E+00  0.40535233570E+03  0.40535233570E+03  0.00000000000E+00 0. -1.
         -1   -1    0    0    0  501 -0.00000000000E+00 -0.00000000000E+00 -0.16093556958E+04  0.16093556958E+04  0.00000000000E+00 0.  1.
         24    2    1    2    0    0  0.88231812180E+02 -0.34642149950E+03 -0.93656146654E+03  0.10056253657E+04  0.79638480408E+02 0.  0.
        254    2    1    2    0    0 -0.88231812180E+02  0.34642149950E+03 -0.26744189353E+03  0.10090826657E+04  0.90494748571E+03 0.  0.
         23    2    4    4    0    0 -0.38545371818E+03  0.58920479021E+02 -0.39927880585E+03  0.56538464178E+03  0.90498821276E+02 0.  0.
         23    2    4    4    0    0  0.29722190600E+03  0.28750102048E+03  0.13183691232E+03  0.44369802397E+03  0.92137217454E+02 0.  0.
          4    1    3    3  502    0 -0.12815025971E+02 -0.30349280839E+02 -0.11365670137E+03  0.11833490400E+03  0.00000000000E+00 0. -1.
         -3    1    3    3    0  502  0.10104683815E+03 -0.31607221866E+03 -0.82290476517E+03  0.88729046171E+03  0.00000000000E+00 0.  1.
         13    1    5    5    0    0 -0.24508028352E+03  0.54927451000E+02 -0.31000855733E+03  0.39898204955E+03  0.00000000000E+00 0.  1.
        -13    1    5    5    0    0 -0.14037343466E+03  0.39930280207E+01 -0.89270248525E+02  0.16640259223E+03  0.00000000000E+00 0. -1.
          2    1    6    6  503    0  0.96108724889E+02  0.79010097372E+02 -0.23691570717E+01  0.12443912324E+03  0.00000000000E+00 0. -1.
         -2    1    6    6    0  503  0.20111318111E+03  0.20849092311E+03  0.13420606939E+03  0.31925890073E+03  0.00000000000E+00 0.  1.
<mgrwt>
<rscale>  0 0.16153713E+04</rscale>
<asrwt>0</asrwt>
<pdfrwt beam="1">  1        2 0.62361898E-01 0.16153713E+04</pdfrwt>
<pdfrwt beam="2">  1       -1 0.24759318E+00 0.16153713E+04</pdfrwt>
<totfact> 0.62057105E+00</totfact>
</mgrwt>
</event>
<event>
12    7  0.1698542E-007  0.1291316E+04  0.7818608E-02  0.9036480E-01
         -1   -1    0    0    0  501 -0.00000000000E+00  0.00000000000E+00  0.87009294456E+03  0.87009294456E+03  0.00000000000E+00 0.  1.
          2   -1    0    0  501    0  0.00000000000E+00 -0.00000000000E+00 -0.47911462955E+03  0.47911462955E+03  0.00000000000E+00 0. -1.
         24    2    1    2    0    0 -0.21161432609E+03 -0.24968522776E+03  0.49134472946E+02  0.34142065847E+03  0.83848277456E+02 0.  0.
        254    2    1    2    0    0  0.21161432609E+03  0.24968522776E+03  0.34184384206E+03  0.10077869156E+04  0.88974935741E+03 0.  0.
         23    2    4    4    0    0  0.33733626398E+03 -0.75452385231E+02  0.49982251248E+03  0.61422267764E+03  0.89208387024E+02 0.  0.
         23    2    4    4    0    0 -0.12572193790E+03  0.32513761299E+03 -0.15797867042E+03  0.39356423799E+03  0.91733723721E+02 0.  0.
          2    1    3    3  502    0 -0.45152469875E+02 -0.10571060522E+02  0.33452460156E+01  0.46493908497E+02  0.00000000000E+00 0. -1.
         -1    1    3    3    0  502 -0.16646185621E+03 -0.23911416724E+03  0.45789226931E+02  0.29492674998E+03  0.00000000000E+00 0.  1.
         13    1    5    5    0    0  0.33484412882E+03 -0.73564659768E+02  0.45705957780E+03  0.57134561119E+03  0.00000000000E+00 0.  1.
        -13    1    5    5    0    0  0.24921351659E+01 -0.18877254638E+01  0.42762934678E+02  0.42877066450E+02  0.00000000000E+00 0. -1.
          3    1    6    6  503    0 -0.10867700148E+02  0.14238805432E+03 -0.82398348429E+02  0.16486950217E+03  0.00000000000E+00 0. -1.
         -3    1    6    6    0  503 -0.11485423775E+03  0.18274955867E+03 -0.75580321991E+02  0.22869473583E+03  0.00000000000E+00 0.  1.
<mgrwt>
<rscale>  0 0.12913160E+04</rscale>
<asrwt>0</asrwt>
<pdfrwt beam="1">  1        2 0.73709943E-01 0.12913160E+04</pdfrwt>
<pdfrwt beam="2">  1       -1 0.13386045E+00 0.12913160E+04</pdfrwt>
<totfact> 0.34176497E+01</totfact>
</mgrwt>
</event>
<event>
12    7  0.1698542E-007  0.3579693E+04  0.7818608E-02  0.8095159E-01
         -1   -1    0    0    0  501 -0.00000000000E+00  0.00000000000E+00  0.10332895559E+04  0.10332895559E+04  0.00000000000E+00 0.  1.
          2   -1    0    0  501    0  0.00000000000E+00 -0.00000000000E+00 -0.31003410064E+04  0.31003410064E+04  0.00000000000E+00 0. -1.
         24    2    1    2    0    0  0.11641933659E+03 -0.13163907875E+03 -0.28961142554E+04  0.29024509630E+04  0.76560452881E+02 0.  0.
        254    2    1    2    0    0 -0.11641933659E+03  0.13163907875E+03  0.82906280500E+03  0.12311795994E+04  0.89307097269E+03 0.  0.
         23    2    4    4    0    0 -0.31280454171E+03  0.36891745219E+03  0.21260914410E+03  0.53623523639E+03  0.91645036691E+02 0.  0.
         23    2    4    4    0    0  0.19638520512E+03 -0.23727837344E+03  0.61645366090E+03  0.69494436297E+03  0.89801872455E+02 0.  0.
          2    1    3    3  502    0  0.76087369359E+02 -0.13054143790E+03 -0.22240527786E+04  0.22291794716E+04  0.00000000000E+00 0. -1.
         -1    1    3    3    0  502  0.40331967231E+02 -0.10976408512E+01 -0.67206147685E+03  0.67327149135E+03  0.00000000000E+00 0.  1.
         13    1    5    5    0    0 -0.23799243401E+03  0.21696413812E+03  0.12408179738E+03  0.34512335232E+03  0.00000000000E+00 0. -1.
        -13    1    5    5    0    0 -0.74812107694E+02  0.15195331408E+03  0.88527346725E+02  0.19111188407E+03  0.00000000000E+00 0.  1.
          1    1    6    6  503    0  0.26289989451E+01  0.44910530673E+00 -0.28254598389E+01  0.38854284617E+01  0.00000000000E+00 0. -1.
         -1    1    6    6    0  503  0.19375620617E+03 -0.23772747875E+03  0.61927912074E+03  0.69105893451E+03  0.00000000000E+00 0.  1.
<mgrwt>
<rscale>  0 0.35796927E+04</rscale>
<asrwt>0</asrwt>
<pdfrwt beam="1">  1        2 0.47697554E+00 0.35796927E+04</pdfrwt>
<pdfrwt beam="2">  1       -1 0.15896763E+00 0.35796927E+04</pdfrwt>
<totfact> 0.41452760E-01</totfact>
</mgrwt>
</event>
<event>
12    7  0.1698542E-007  0.1760175E+04  0.7818608E-02  0.8727770E-01
          2   -1    0    0  501    0  0.00000000000E+00  0.00000000000E+00  0.63917049989E+03  0.63917049989E+03  0.00000000000E+00 0. -1.
         -3   -1    0    0    0  501 -0.00000000000E+00 -0.00000000000E+00 -0.12118105919E+04  0.12118105919E+04  0.00000000000E+00 0.  1.
         24    2    1    2    0    0  0.60905525766E+02 -0.55596984549E+03 -0.60406244114E+03  0.82702560509E+03  0.79170490182E+02 0.  0.
        254    2    1    2    0    0 -0.60905525766E+02  0.55596984549E+03  0.31422349083E+02  0.10239554867E+04  0.85713798344E+03 0.  0.
         23    2    4    4    0    0  0.34472723585E+03  0.80472107353E+02 -0.99792451385E+02  0.37875149354E+03  0.90451828648E+02 0.  0.
         23    2    4    4    0    0 -0.40563276162E+03  0.47549773813E+03  0.13121480047E+03  0.64520399321E+03  0.91841345396E+02 0.  0.
          4    1    3    3  502    0  0.21432077988E+01 -0.72488534368E+02 -0.12091127314E+03  0.14099190376E+03  0.00000000000E+00 0. -1.
         -3    1    3    3    0  502  0.58762317967E+02 -0.48348131112E+03 -0.48315116800E+03  0.68603370133E+03  0.00000000000E+00 0.  1.
         13    1    5    5    0    0  0.29378753059E+03  0.10068987943E+03 -0.84797699512E+02  0.32193200337E+03  0.00000000000E+00 0. -1.
        -13    1    5    5    0    0  0.50939705255E+02 -0.20217772075E+02 -0.14994751873E+02  0.56819490167E+02  0.00000000000E+00 0.  1.
          3    1    6    6  503    0 -0.71026931989E+02  0.37581932620E+02  0.22731670504E+02  0.83510212376E+02  0.00000000000E+00 0. -1.
         -3    1    6    6    0  503 -0.33460582963E+03  0.43791580551E+03  0.10848312996E+03  0.56169378083E+03  0.00000000000E+00 0.  1.
<mgrwt>
<rscale>  0 0.17601745E+04</rscale>
<asrwt>0</asrwt>
<pdfrwt beam="1">  1        2 0.98333924E-01 0.17601745E+04</pdfrwt>
<pdfrwt beam="2">  1       -3 0.18643240E+00 0.17601745E+04</pdfrwt>
<totfact> 0.48867843E+00</totfact>
</mgrwt>
</event>
<event>
12    7  0.1698542E-007  0.1958646E+04  0.7818608E-02  0.8626203E-01
          2   -1    0    0  501    0  0.00000000000E+00  0.00000000000E+00  0.14750251754E+04  0.14750251754E+04  0.00000000000E+00 0. -1.
         -1   -1    0    0    0  501 -0.00000000000E+00 -0.00000000000E+00 -0.65020816682E+03  0.65020816682E+03  0.00000000000E+00 0.  1.
         24    2    1    2    0    0 -0.29018950098E+03 -0.50811896044E+03  0.87929036280E+03  0.10592569788E+04  0.80492115169E+02 0.  0.
        254    2    1    2    0    0  0.29018950098E+03  0.50811896044E+03 -0.54473354218E+02  0.10659763634E+04  0.88935000793E+03 0.  0.
         23    2    4    4    0    0  0.47927787721E+03  0.61021302476E+03  0.10139161788E+03  0.78836393005E+03  0.95761197054E+02 0.  0.
         23    2    4    4    0    0 -0.18908837623E+03 -0.10209406432E+03 -0.15586497210E+03  0.27761243337E+03  0.81222913292E+02 0.  0.
          2    1    3    3  502    0 -0.15465809595E+03 -0.20883506930E+03  0.43455456651E+03  0.50632883000E+03  0.00000000000E+00 0. -1.
         -1    1    3    3    0  502 -0.13553140503E+03 -0.29928389114E+03  0.44473579629E+03  0.55292814881E+03  0.00000000000E+00 0.  1.
         13    1    5    5    0    0  0.37847736654E+03  0.42959397565E+03  0.10183350403E+03  0.58152056149E+03  0.00000000000E+00 0.  1.
        -13    1    5    5    0    0  0.10080051067E+03  0.18061904911E+03 -0.44188615492E+00  0.20684336856E+03  0.00000000000E+00 0. -1.
          3    1    6    6  503    0 -0.16512035996E+02 -0.78646621263E+00 -0.46957175353E+02  0.49781946315E+02  0.00000000000E+00 0. -1.
         -3    1    6    6    0  503 -0.17257634023E+03 -0.10130759810E+03 -0.10890779674E+03  0.22783048706E+03  0.00000000000E+00 0.  1.
<mgrwt>
<rscale>  0 0.19586459E+04</rscale>
<asrwt>0</asrwt>
<pdfrwt beam="1">  1        2 0.22692695E+00 0.19586459E+04</pdfrwt>
<pdfrwt beam="2">  1       -1 0.10003203E+00 0.19586459E+04</pdfrwt>
<totfact> 0.13266741E+01</totfact>
</mgrwt>
</event>
<event>
12    7  0.1698542E-007  0.1894741E+04  0.7818608E-02  0.8657479E-01
         -1   -1    0    0    0  501 -0.00000000000E+00  0.00000000000E+00  0.28601194701E+03  0.28601194701E+03  0.00000000000E+00 0.  1.
          2   -1    0    0  501    0  0.00000000000E+00 -0.00000000000E+00 -0.31380183326E+04  0.31380183326E+04  0.00000000000E+00 0. -1.
         24    2    1    2    0    0  0.39170294116E+03  0.17160146080E+03 -0.22130166561E+04  0.22553611078E+04  0.79578582972E+02 0.  0.
        254    2    1    2    0    0 -0.39170294116E+03 -0.17160146080E+03 -0.63898972950E+03  0.11686691718E+04  0.88011448307E+03 0.  0.
         23    2    4    4    0    0  0.15689871922E+02  0.23762172752E+03  0.55844931207E+02  0.26053146126E+03  0.89709132731E+02 0.  0.
         23    2    4    4    0    0 -0.40739281308E+03 -0.40922318832E+03 -0.69483466070E+03  0.90813771056E+03  0.92121515511E+02 0.  0.
          4    1    3    3  502    0  0.19699702082E+03  0.99294219747E+02 -0.13356055248E+04  0.13537020670E+04  0.00000000000E+00 0. -1.
         -3    1    3    3    0  502  0.19470592034E+03  0.72307241056E+02 -0.87741113134E+03  0.90165904084E+03  0.00000000000E+00 0.  1.
         13    1    5    5    0    0 -0.29323544754E+02  0.13614387829E+03  0.54385421199E+02  0.14950852789E+03  0.00000000000E+00 0. -1.
        -13    1    5    5    0    0  0.45013416676E+02  0.10147784923E+03  0.14595100082E+01  0.11102293338E+03  0.00000000000E+00 0.  1.
          1    1    6    6  503    0 -0.33904176032E+03 -0.38189155142E+03 -0.61871106966E+03  0.80224301805E+03  0.00000000000E+00 0. -1.
         -1    1    6    6    0  503 -0.68351052762E+02 -0.27331636902E+02 -0.76123591039E+02  0.10589469251E+03  0.00000000000E+00 0.  1.
<mgrwt>
<rscale>  0 0.18947409E+04</rscale>
<asrwt>0</asrwt>
<pdfrwt beam="1">  1        2 0.48277204E+00 0.18947409E+04</pdfrwt>
<pdfrwt beam="2">  1       -1 0.44001839E-01 0.18947409E+04</pdfrwt>
<totfact> 0.77796496E+00</totfact>
</mgrwt>
</event>
<event>
12    7  0.1698542E-007  0.3884792E+04  0.7818608E-02  0.8028200E-01
          2   -1    0    0  501    0  0.00000000000E+00  0.00000000000E+00  0.17454735484E+04  0.17454735484E+04  0.00000000000E+00 0. -1.
         -1   -1    0    0    0  501 -0.00000000000E+00 -0.00000000000E+00 -0.21615353213E+04  0.21615353213E+04  0.00000000000E+00 0.  1.
         24    2    1    2    0    0  0.13632115463E+04 -0.95083209962E+03 -0.98890580175E+03  0.19354614854E+04  0.75160329518E+02 0.  0.
        254    2    1    2    0    0 -0.13632115463E+04  0.95083209962E+03  0.57284402888E+03  0.19715473842E+04  0.89242445353E+03 0.  0.
         23    2    4    4    0    0 -0.10707833289E+04  0.10158598913E+04  0.69697974037E+03  0.16345530296E+04  0.86224079666E+02 0.  0.
         23    2    4    4    0    0 -0.29242821738E+03 -0.65027791639E+02 -0.12413571149E+03  0.33699435465E+03  0.91720467683E+02 0.  0.
          2    1    3    3  502    0  0.41757296813E+03 -0.31569502704E+03 -0.27836075409E+03  0.59288720953E+03  0.00000000000E+00 0. -1.
         -1    1    3    3    0  502  0.94563857818E+03 -0.63513707257E+03 -0.71054504766E+03  0.13425742759E+04  0.00000000000E+00 0.  1.
         13    1    5    5    0    0 -0.10092506223E+04  0.96313425644E+03  0.67907470551E+03  0.15515659413E+04  0.00000000000E+00 0. -1.
        -13    1    5    5    0    0 -0.61532706596E+02  0.52725634811E+02  0.17905034867E+02  0.82987088278E+02  0.00000000000E+00 0.  1.
          3    1    6    6  503    0 -0.27002770606E+03 -0.30074574302E+02 -0.11032425447E+03  0.29324202151E+03  0.00000000000E+00 0. -1.
         -3    1    6    6    0  503 -0.22400511327E+02 -0.34953217337E+02 -0.13811457023E+02  0.43752333138E+02  0.00000000000E+00 0.  1.
<mgrwt>
<rscale>  0 0.38847923E+04</rscale>
<asrwt>0</asrwt>
<pdfrwt beam="1">  1        2 0.26853439E+00 0.38847923E+04</pdfrwt>
<pdfrwt beam="2">  1       -1 0.33254390E+00 0.38847923E+04</pdfrwt>
<totfact> 0.16982800E-01</totfact>
</mgrwt>
</event>
<event>
12    7  0.1698542E-007  0.1173176E+04  0.7818608E-02  0.9136665E-01
          2   -1    0    0  501    0  0.00000000000E+00  0.00000000000E+00  0.81965817586E+03  0.81965817586E+03  0.00000000000E+00 0. -1.
         -1   -1    0    0    0  501 -0.00000000000E+00 -0.00000000000E+00 -0.41979150029E+03  0.41979150029E+03  0.00000000000E+00 0.  1.
         24    2    1    2    0    0  0.52732396504E+02  0.11266465165E+03 -0.11791683184E+03  0.19209398484E+03  0.86727679610E+02 0.  0.
        254    2    1    2    0    0 -0.52732396504E+02 -0.11266465165E+03  0.51778350741E+03  0.10473556913E+04  0.90187590842E+03 0.  0.
         23    2    4    4    0    0 -0.31476474835E+03 -0.31549706025E+03  0.53651013092E+03  0.70370027233E+03  0.93465024801E+02 0.  0.
         23    2    4    4    0    0  0.26203235184E+03  0.20283240860E+03 -0.18726623509E+02  0.34365541898E+03  0.89142701172E+02 0.  0.
          4    1    3    3  502    0  0.79459058060E+01  0.10454474605E+03 -0.70368231106E+02  0.12627125285E+03  0.00000000000E+00 0. -1.
         -3    1    3    3    0  502  0.44786490698E+02  0.81199055931E+01 -0.47548600734E+02  0.65822731998E+02  0.00000000000E+00 0.  1.
         13    1    5    5    0    0 -0.30534331329E+03 -0.28181946408E+03  0.46186644290E+03  0.62127076253E+03  0.00000000000E+00 0.  1.
        -13    1    5    5    0    0 -0.94214350545E+01 -0.33677596168E+02  0.74643688027E+02  0.82429509791E+02  0.00000000000E+00 0. -1.
          3    1    6    6  503    0  0.94534105337E+01  0.77240753896E+01 -0.21224914840E+02  0.24485206172E+02  0.00000000000E+00 0. -1.
         -3    1    6    6    0  503  0.25257894131E+03  0.19510833321E+03  0.24982913314E+01  0.31917021280E+03  0.00000000000E+00 0.  1.
<mgrwt>
<rscale>  0 0.11731761E+04</rscale>
<asrwt>0</asrwt>
<pdfrwt beam="1">  1        2 0.12610126E+00 0.11731761E+04</pdfrwt>
<pdfrwt beam="2">  1       -1 0.64583308E-01 0.11731761E+04</pdfrwt>
<totfact> 0.91477088E+01</totfact>
</mgrwt>
</event>
<event>
12    7  0.1698542E-007  0.1233872E+04  0.7818608E-02  0.9083714E-01
          2   -1    0    0  501    0  0.00000000000E+00  0.00000000000E+00  0.14897126487E+04  0.14897126487E+04  0.00000000000E+00 0. -1.
         -1   -1    0    0    0  501 -0.00000000000E+00 -0.00000000000E+00 -0.25549232460E+03  0.25549232460E+03  0.00000000000E+00 0.  1.
         24    2    1    2    0    0 -0.10947478368E+03  0.10701788055E+03  0.62180091447E+03  0.64482109572E+03  0.75632752363E+02 0.  0.
        254    2    1    2    0    0  0.10947478368E+03 -0.10701788055E+03  0.61241940967E+03  0.11003838776E+04  0.90130438243E+03 0.  0.
         23    2    4    4    0    0 -0.29731034657E+03  0.19482947375E+03  0.40359939919E+03  0.54501870659E+03  0.88322983917E+02 0.  0.
         23    2    4    4    0    0  0.40678513024E+03 -0.30184735430E+03  0.20882001048E+03  0.55536517104E+03  0.90767334111E+02 0.  0.
          2    1    3    3  502    0 -0.11737720802E+03  0.10487252880E+03  0.61262513049E+03  0.63252289031E+03  0.00000000000E+00 0. -1.
         -1    1    3    3    0  502  0.79024243430E+01  0.21453517547E+01  0.91757839835E+01  0.12298205412E+02  0.00000000000E+00 0.  1.
         13    1    5    5    0    0 -0.21901616287E+03  0.15883858320E+03  0.35414982066E+03  0.44566789270E+03  0.00000000000E+00 0. -1.
        -13    1    5    5    0    0 -0.78294183698E+02  0.35990890546E+02  0.49449578530E+02  0.99350813887E+02  0.00000000000E+00 0.  1.
          2    1    6    6  503    0  0.11335354769E+02 -0.36826931813E+02  0.17398549936E+02  0.42277922304E+02  0.00000000000E+00 0.  1.
         -2    1    6    6    0  503  0.39544977547E+03 -0.26502042249E+03  0.19142146055E+03  0.51308724874E+03  0.00000000000E+00 0. -1.
<mgrwt>
<rscale>  0 0.12338722E+04</rscale>
<asrwt>0</asrwt>
<pdfrwt beam="1">  1        2 0.22918656E+00 0.12338722E+04</pdfrwt>
<pdfrwt beam="2">  1       -1 0.39306512E-01 0.12338722E+04</pdfrwt>
<totfact> 0.90729940E+01</totfact>
</mgrwt>
</event>
<event>
12    7  0.1698542E-007  0.1457716E+04  0.7818608E-02  0.8913069E-01
         -1   -1    0    0    0  501 -0.00000000000E+00  0.00000000000E+00  0.78334260892E+03  0.78334260892E+03  0.00000000000E+00 0.  1.
          2   -1    0    0  501    0  0.00000000000E+00 -0.00000000000E+00 -0.67816257355E+03  0.67816257355E+03  0.00000000000E+00 0. -1.
         24    2    1    2    0    0  0.15232216725E+03  0.26797177086E+03  0.35479480507E+03  0.47888160849E+03  0.91854932544E+02 0.  0.
        254    2    1    2    0    0 -0.15232216725E+03 -0.26797177086E+03 -0.24961476970E+03  0.98262357398E+03  0.89901648609E+03 0.  0.
         23    2    4    4    0    0  0.23235178642E+03 -0.35765884184E+03 -0.35590262929E+03  0.56340786952E+03  0.94098597775E+02 0.  0.
         23    2    4    4    0    0 -0.38467395367E+03  0.89687070973E+02  0.10628785959E+03  0.41921570446E+03  0.91798019794E+02 0.  0.
          2    1    3    3  502    0  0.39403946665E+01  0.11276766371E+01  0.40471087891E+02  0.40678093856E+02  0.00000000000E+00 0. -1.
         -1    1    3    3    0  502  0.14838177258E+03  0.26684409423E+03  0.31432371718E+03  0.43820351463E+03  0.00000000000E+00 0.  1.
         13    1    5    5    0    0  0.40689839776E+02 -0.59633276588E+02 -0.19411664216E+02  0.74756962520E+02  0.00000000000E+00 0.  1.
        -13    1    5    5    0    0  0.19166194664E+03 -0.29802556525E+03 -0.33649096508E+03  0.48865090700E+03  0.00000000000E+00 0. -1.
          4    1    6    6  503    0 -0.19809528941E+03  0.81904412453E+02  0.87505962347E+02  0.23153265409E+03  0.00000000000E+00 0. -1.
         -4    1    6    6    0  503 -0.18657866426E+03  0.77826585194E+01  0.18781897247E+02  0.18768305037E+03  0.00000000000E+00 0.  1.
<mgrwt>
<rscale>  0 0.14577155E+04</rscale>
<asrwt>0</asrwt>
<pdfrwt beam="1">  1        2 0.10433270E+00 0.14577155E+04</pdfrwt>
<pdfrwt beam="2">  1       -1 0.12051425E+00 0.14577155E+04</pdfrwt>
<totfact> 0.28933619E+01</totfact>
</mgrwt>
</event>
<event>
12    7  0.1698542E-007  0.1649302E+04  0.7818608E-02  0.8790819E-01
         -1   -1    0    0    0  501 -0.00000000000E+00  0.00000000000E+00  0.40474771213E+03  0.40474771213E+03  0.00000000000E+00 0.  1.
          2   -1    0    0  501    0  0.00000000000E+00 -0.00000000000E+00 -0.16801814819E+04  0.16801814819E+04  0.00000000000E+00 0. -1.
         24    2    1    2    0    0  0.53893385508E+03 -0.11823887760E+03 -0.63164571867E+03  0.84265073620E+03  0.81570932147E+02 0.  0.
        254    2    1    2    0    0 -0.53893385508E+03  0.11823887760E+03 -0.64378805112E+03  0.12422784578E+04  0.90794415012E+03 0.  0.
         23    2    4    4    0    0 -0.74108055028E+03 -0.96516128014E+02 -0.42918810257E+03  0.86675999972E+03  0.92491755103E+02 0.  0.
         23    2    4    4    0    0  0.20214669520E+03  0.21475500562E+03 -0.21459994855E+03  0.37551845812E+03  0.89319514435E+02 0.  0.
          2    1    3    3  502    0  0.50916583973E+02  0.98978808574E+00 -0.93434661612E+02  0.10641200212E+03  0.00000000000E+00 0. -1.
         -1    1    3    3    0  502  0.48801727111E+03 -0.11922866569E+03 -0.53821105706E+03  0.73623873408E+03  0.00000000000E+00 0.  1.
         13    1    5    5    0    0 -0.58231593301E+03 -0.51487247189E+02 -0.29932033261E+03  0.65676132954E+03  0.00000000000E+00 0.  1.
        -13    1    5    5    0    0 -0.15876461727E+03 -0.45028880826E+02 -0.12986776997E+03  0.20999867019E+03  0.00000000000E+00 0. -1.
          1    1    6    6  503    0  0.14710758079E+03  0.16044006017E+03 -0.10575935589E+03  0.24200556728E+03  0.00000000000E+00 0. -1.
         -1    1    6    6    0  503  0.55039114407E+02  0.54314945448E+02 -0.10884059265E+03  0.13351289085E+03  0.00000000000E+00 0.  1.
<mgrwt>
<rscale>  0 0.16493024E+04</rscale>
<asrwt>0</asrwt>
<pdfrwt beam="1">  1        2 0.25848946E+00 0.16493024E+04</pdfrwt>
<pdfrwt beam="2">  1       -1 0.62268879E-01 0.16493024E+04</pdfrwt>
<totfact> 0.28636652E+01</totfact>
</mgrwt>
</event>
<event>
12    7  0.1698542E-007  0.1525977E+04  0.7818608E-02  0.8867360E-01
          2   -1    0    0  501    0  0.00000000000E+00  0.00000000000E+00  0.12151935631E+04  0.12151935631E+04  0.00000000000E+00 0. -1.
         -1   -1    0    0    0  501 -0.00000000000E+00 -0.00000000000E+00 -0.47906086745E+03  0.47906086745E+03  0.00000000000E+00 0.  1.
         24    2    1    2    0    0 -0.14159555757E+03 -0.24852548885E+03 -0.20332566012E+03  0.35970659576E+03  0.78951190229E+02 0.  0.
        254    2    1    2    0    0  0.14159555757E+03  0.24852548885E+03  0.93945835575E+03  0.13345478348E+04  0.90367123479E+03 0.  0.
         23    2    4    4    0    0  0.14347640112E+03  0.39155250029E+03  0.51985157063E+02  0.43094030602E+03  0.95437165895E+02 0.  0.
         23    2    4    4    0    0 -0.18808435418E+01 -0.14302701144E+03  0.88747319868E+03  0.90360752876E+03  0.91856540713E+02 0.  0.
          2    1    3    3  502    0 -0.26795752250E+02 -0.11428116088E+03 -0.57779888647E+02  0.13083085112E+03  0.00000000000E+00 0. -1.
         -1    1    3    3    0  502 -0.11479980532E+03 -0.13424432796E+03 -0.14554577147E+03  0.22887574464E+03  0.00000000000E+00 0.  1.
         13    1    5    5    0    0  0.59128593315E+02  0.75550590175E+02  0.39163657881E+02  0.10362371505E+03  0.00000000000E+00 0. -1.
        -13    1    5    5    0    0  0.84347807801E+02  0.31600191012E+03  0.12821499182E+02  0.32731659096E+03  0.00000000000E+00 0.  1.
          2    1    6    6  503    0 -0.20759986605E+02  0.40468909003E+01  0.88608770848E+02  0.91098126441E+02  0.00000000000E+00 0. -1.
         -2    1    6    6    0  503  0.18879143063E+02 -0.14707390234E+03  0.79886442784E+03  0.81250940232E+03  0.00000000000E+00 0.  1.
<mgrwt>
<rscale>  0 0.15259773E+04</rscale>
<asrwt>0</asrwt>
<pdfrwt beam="1">  1        2 0.18695285E+00 0.15259773E+04</pdfrwt>
<pdfrwt beam="2">  1       -1 0.73701672E-01 0.15259773E+04</pdfrwt>
<totfact> 0.37823270E+01</totfact>
</mgrwt>
</event>
<event>
12    7  0.1698542E-007  0.1800993E+04  0.7818608E-02  0.8705772E-01
         -1   -1    0    0    0  501 -0.00000000000E+00  0.00000000000E+00  0.23073874846E+03  0.23073874846E+03  0.00000000000E+00 0.  1.
          2   -1    0    0  501    0  0.00000000000E+00 -0.00000000000E+00 -0.35143361972E+04  0.35143361972E+04  0.00000000000E+00 0. -1.
         24    2    1    2    0    0 -0.45885029895E+03  0.19225376372E+03 -0.29208649640E+03  0.58229034739E+03  0.79008991735E+02 0.  0.
        254    2    1    2    0    0  0.45885029895E+03 -0.19225376372E+03 -0.29915109523E+04  0.31627845982E+04  0.89808882106E+03 0.  0.
         23    2    4    4    0    0  0.11675031770E+03  0.34325144029E+03 -0.13017941974E+04  0.13552401634E+04  0.10274035339E+03 0.  0.
         23    2    4    4    0    0  0.34209998125E+03 -0.53550520401E+03 -0.16897167549E+04  0.18075444348E+04  0.90972255701E+02 0.  0.
          4    1    3    3  502    0 -0.78865430311E+02  0.10573874659E+02 -0.70820705014E+02  0.10652293266E+03  0.00000000000E+00 0. -1.
         -3    1    3    3    0  502 -0.37998486864E+03  0.18167988906E+03 -0.22126579138E+03  0.47576741473E+03  0.00000000000E+00 0.  1.
         13    1    5    5    0    0  0.12083055679E+03  0.34702195758E+03 -0.12427906839E+04  0.12959756736E+04  0.00000000000E+00 0.  1.
        -13    1    5    5    0    0 -0.40802390902E+01 -0.37705172863E+01 -0.59003513536E+02  0.59264489884E+02  0.00000000000E+00 0. -1.
          4    1    6    6  503    0 -0.53258694226E+01 -0.11247847003E+02 -0.23702706332E+02  0.26771201594E+02  0.00000000000E+00 0. -1.
         -4    1    6    6    0  503  0.34742585067E+03 -0.52425735701E+03 -0.16660140486E+04  0.17807732332E+04  0.00000000000E+00 0.  1.
<mgrwt>
<rscale>  0 0.18009925E+04</rscale>
<asrwt>0</asrwt>
<pdfrwt beam="1">  1        2 0.54066710E+00 0.18009925E+04</pdfrwt>
<pdfrwt beam="2">  1       -1 0.35498270E-01 0.18009925E+04</pdfrwt>
<totfact> 0.65125986E+00</totfact>
</mgrwt>
</event>
<event>
12    7  0.1698542E-007  0.2328629E+04  0.7818608E-02  0.8466718E-01
         -1   -1    0    0    0  501 -0.00000000000E+00  0.00000000000E+00  0.15705169860E+04  0.15705169860E+04  0.00000000000E+00 0.  1.
          2   -1    0    0  501    0  0.00000000000E+00 -0.00000000000E+00 -0.86317353577E+03  0.86317353577E+03  0.00000000000E+00 0. -1.
         24    2    1    2    0    0  0.39202796749E+03 -0.42807996504E+03  0.11238152854E+04  0.12672619121E+04  0.77804719714E+02 0.  0.
        254    2    1    2    0    0 -0.39202796749E+03  0.42807996504E+03 -0.41647183519E+03  0.11664286096E+04  0.92204583841E+03 0.  0.
         23    2    4    4    0    0 -0.33491686221E+03 -0.22788412172E+03 -0.23733422643E+03  0.47762857724E+03  0.87755599426E+02 0.  0.
         23    2    4    4    0    0 -0.57111105276E+02  0.65596408675E+03 -0.17913760875E+03  0.68880003241E+03  0.93833044899E+02 0.  0.
          2    1    3    3  502    0  0.80254110531E+02 -0.10300133878E+03  0.19065701722E+03  0.23108460845E+03  0.00000000000E+00 0. -1.
         -1    1    3    3    0  502  0.31177385696E+03 -0.32507862625E+03  0.93315826817E+03  0.10361773036E+04  0.00000000000E+00 0.  1.
         13    1    5    5    0    0 -0.16242887408E+03 -0.11738804258E+03 -0.67291336036E+02  0.21140296966E+03  0.00000000000E+00 0.  1.
        -13    1    5    5    0    0 -0.17248798814E+03 -0.11049607914E+03 -0.17004289040E+03  0.26622560758E+03  0.00000000000E+00 0. -1.
          2    1    6    6  503    0 -0.43133096636E+02  0.64004006994E+03 -0.16221714534E+03  0.66168433365E+03  0.00000000000E+00 0. -1.
         -2    1    6    6    0  503 -0.13978008640E+02  0.15924016817E+02 -0.16920463411E+02  0.27115698758E+02  0.00000000000E+00 0.  1.
<mgrwt>
<rscale>  0 0.23286294E+04</rscale>
<asrwt>0</asrwt>
<pdfrwt beam="1">  1        2 0.13279593E+00 0.23286294E+04</pdfrwt>
<pdfrwt beam="2">  1       -1 0.24161800E+00 0.23286294E+04</pdfrwt>
<totfact> 0.25362773E+00</totfact>
</mgrwt>
</event>
<event>
12    7  0.1698542E-007  0.2327913E+04  0.7818608E-02  0.8466996E-01
         -1   -1    0    0    0  501 -0.00000000000E+00  0.00000000000E+00  0.92971676164E+03  0.92971676164E+03  0.00000000000E+00 0.  1.
          2   -1    0    0  501    0  0.00000000000E+00 -0.00000000000E+00 -0.14572121317E+04  0.14572121317E+04  0.00000000000E+00 0. -1.
         24    2    1    2    0    0 -0.24708567260E+03 -0.86118312874E+03  0.20421041916E+03  0.92231641864E+03  0.79233641732E+02 0.  0.
        254    2    1    2    0    0  0.24708567260E+03  0.86118312874E+03 -0.73170578925E+03  0.14646124747E+04  0.89833658963E+03 0.  0.
         23    2    4    4    0    0  0.21229107356E+03  0.69484477741E+03 -0.93274032596E+03  0.11858752339E+04  0.91753964940E+02 0.  0.
         23    2    4    4    0    0  0.34794599038E+02  0.16633835133E+03  0.20103453671E+03  0.27873724083E+03  0.91653986449E+02 0.  0.
          4    1    3    3  502    0 -0.35322622483E+02 -0.57540317301E+02  0.50166687331E+01  0.67703343635E+02  0.00000000000E+00 0. -1.
         -3    1    3    3    0  502 -0.21176305011E+03 -0.80364281144E+03  0.19919375043E+03  0.85461307501E+03  0.00000000000E+00 0.  1.
         13    1    5    5    0    0  0.19423537423E+02  0.20132634364E+03 -0.27001718583E+03  0.33737049529E+03  0.00000000000E+00 0. -1.
        -13    1    5    5    0    0  0.19286753614E+03  0.49351843377E+03 -0.66272314012E+03  0.84850473860E+03  0.00000000000E+00 0.  1.
          3    1    6    6  503    0  0.60110691299E+02  0.79106802462E+02  0.80869647272E+02  0.12810574247E+03  0.00000000000E+00 0. -1.
         -3    1    6    6    0  503 -0.25316092261E+02  0.87231548864E+02  0.12016488944E+03  0.15063149836E+03  0.00000000000E+00 0.  1.
<mgrwt>
<rscale>  0 0.23279128E+04</rscale>
<asrwt>0</asrwt>
<pdfrwt beam="1">  1        2 0.22418648E+00 0.23279128E+04</pdfrwt>
<pdfrwt beam="2">  1       -1 0.14303335E+00 0.23279128E+04</pdfrwt>
<totfact> 0.54801063E+00</totfact>
</mgrwt>
</event>
<event>
12    7  0.1698542E-007  0.1762433E+04  0.7818608E-02  0.8726536E-01
          2   -1    0    0  501    0  0.00000000000E+00  0.00000000000E+00  0.15706532624E+04  0.15706532624E+04  0.00000000000E+00 0. -1.
         -1   -1    0    0    0  501 -0.00000000000E+00 -0.00000000000E+00 -0.49440720175E+03  0.49440720175E+03  0.00000000000E+00 0.  1.
         24    2    1    2    0    0  0.20082706265E+03  0.25028066254E+03  0.10638475301E+04  0.11139541066E+04  0.78423625834E+02 0.  0.
        254    2    1    2    0    0 -0.20082706265E+03 -0.25028066254E+03  0.12398530531E+02  0.95110635758E+03  0.89525284738E+03 0.  0.
         23    2    4    4    0    0 -0.21816406227E+03 -0.21295951888E+03 -0.40847791441E+03  0.51768384339E+03  0.90526462436E+02 0.  0.
         23    2    4    4    0    0  0.17336999626E+02 -0.37321143653E+02  0.42087644494E+03  0.43342251419E+03  0.94998181984E+02 0.  0.
          2    1    3    3  502    0  0.68037027679E+02  0.14569214633E+03  0.54956174236E+03  0.57260225925E+03  0.00000000000E+00 0. -1.
         -1    1    3    3    0  502  0.13279003497E+03  0.10458851621E+03  0.51428578777E+03  0.54135184733E+03  0.00000000000E+00 0.  1.
         13    1    5    5    0    0 -0.17494895067E+03 -0.19022582657E+03 -0.28410386374E+03  0.38406770995E+03  0.00000000000E+00 0.  1.
        -13    1    5    5    0    0 -0.43215111601E+02 -0.22733692318E+02 -0.12437405067E+03  0.13361613344E+03  0.00000000000E+00 0. -1.
          2    1    6    6  503    0 -0.18464748080E+02 -0.58898830208E+02  0.25204991858E+03  0.25949793944E+03  0.00000000000E+00 0. -1.
         -2    1    6    6    0  503  0.35801747706E+02  0.21577686555E+02  0.16882652636E+03  0.17392457474E+03  0.00000000000E+00 0.  1.
<mgrwt>
<rscale>  0 0.17624327E+04</rscale>
<asrwt>0</asrwt>
<pdfrwt beam="1">  1        2 0.24163896E+00 0.17624327E+04</pdfrwt>
<pdfrwt beam="2">  1       -1 0.76062647E-01 0.17624327E+04</pdfrwt>
<totfact> 0.21690110E+01</totfact>
</mgrwt>
</event>
<event>
12    7  0.1698542E-007  0.2478852E+04  0.7818608E-02  0.8410558E-01
         -1   -1    0    0    0  501 -0.00000000000E+00  0.00000000000E+00  0.10344060020E+04  0.10344060020E+04  0.00000000000E+00 0.  1.
          2   -1    0    0  501    0  0.00000000000E+00 -0.00000000000E+00 -0.14850814697E+04  0.14850814697E+04  0.00000000000E+00 0. -1.
         24    2    1    2    0    0 -0.33339051270E+03 -0.28492456192E+03  0.79931509189E+03  0.91543892488E+03  0.82417043976E+02 0.  0.
        254    2    1    2    0    0  0.33339051270E+03  0.28492456192E+03 -0.12499905596E+04  0.16040485467E+04  0.90452424033E+03 0.  0.
         23    2    4    4    0    0  0.42391357655E+03  0.35880380164E+02 -0.13799471402E+03  0.45706624259E+03  0.94217232785E+02 0.  0.
         23    2    4    4    0    0 -0.90523063854E+02  0.24904418175E+03 -0.11119958456E+04  0.11469823042E+04  0.93894706747E+02 0.  0.
          2    1    3    3  502    0 -0.75999314813E+02 -0.46320027451E+02  0.10648605066E+03  0.13878299528E+03  0.00000000000E+00 0. -1.
         -1    1    3    3    0  502 -0.25739119788E+03 -0.23860453446E+03  0.69282904123E+03  0.77665592960E+03  0.00000000000E+00 0.  1.
         13    1    5    5    0    0  0.11657369087E+03  0.48990813726E+02 -0.22249829629E+02  0.12839229008E+03  0.00000000000E+00 0.  1.
        -13    1    5    5    0    0  0.30733988568E+03 -0.13110433562E+02 -0.11574488439E+03  0.32867395251E+03  0.00000000000E+00 0. -1.
          4    1    6    6  503    0 -0.11981026258E+02  0.40313890019E+02 -0.36473144169E+03  0.36714817073E+03  0.00000000000E+00 0.  1.
         -4    1    6    6    0  503 -0.78542037596E+02  0.20873029173E+03 -0.74726440387E+03  0.77983413342E+03  0.00000000000E+00 0. -1.
<mgrwt>
<rscale>  0 0.24788523E+04</rscale>
<asrwt>0</asrwt>
<pdfrwt beam="1">  1        2 0.22847407E+00 0.24788523E+04</pdfrwt>
<pdfrwt beam="2">  1       -1 0.15913938E+00 0.24788523E+04</pdfrwt>
<totfact> 0.39077834E+00</totfact>
</mgrwt>
</event>
<event>
12    7  0.1698542E-007  0.1519896E+04  0.7818608E-02  0.8871329E-01
         -3   -1    0    0    0  501 -0.00000000000E+00  0.00000000000E+00  0.71447178499E+03  0.71447178499E+03  0.00000000000E+00 0.  1.
          2   -1    0    0  501    0  0.00000000000E+00 -0.00000000000E+00 -0.80831917630E+03  0.80831917630E+03  0.00000000000E+00 0. -1.
         24    2    1    2    0    0  0.29526941938E+03 -0.35541716577E+03  0.10595854253E+03  0.48070147163E+03  0.79632282122E+02 0.  0.
        254    2    1    2    0    0 -0.29526941938E+03  0.35541716577E+03 -0.19980593383E+03  0.10420894897E+04  0.91242681982E+03 0.  0.
         23    2    4    4    0    0  0.22027977785E+03  0.41599976371E+03 -0.18922499099E+03  0.51518611913E+03  0.89619507867E+02 0.  0.
         23    2    4    4    0    0 -0.51554919722E+03 -0.60582597947E+02 -0.10580942841E+02  0.52690337053E+03  0.89743966892E+02 0.  0.
          4    1    3    3  502    0  0.28634107850E+03 -0.35550016073E+03  0.94468473581E+02  0.46615005097E+03  0.00000000000E+00 0. -1.
         -3    1    3    3    0  502  0.89283408732E+01  0.82994966765E-01  0.11490068946E+02  0.14551420662E+02  0.00000000000E+00 0.  1.
         13    1    5    5    0    0  0.46656971371E+02  0.36864011720E+02 -0.42646270964E+02  0.73174672974E+02  0.00000000000E+00 0. -1.
        -13    1    5    5    0    0  0.17362280647E+03  0.37913575199E+03 -0.14657872002E+03  0.44201144615E+03  0.00000000000E+00 0.  1.
          1    1    6    6  503    0 -0.35087509618E+03 -0.50600958591E+02 -0.47991041122E+02  0.35773863386E+03  0.00000000000E+00 0.  1.
         -1    1    6    6    0  503 -0.16467410104E+03 -0.99816393555E+01  0.37410098281E+02  0.16916473667E+03  0.00000000000E+00 0. -1.
<mgrwt>
<rscale>  0 0.15198964E+04</rscale>
<asrwt>0</asrwt>
<pdfrwt beam="1">  1        2 0.12435680E+00 0.15198964E+04</pdfrwt>
<pdfrwt beam="2">  1       -3 0.10991874E+00 0.15198964E+04</pdfrwt>
<totfact> 0.14472078E+01</totfact>
</mgrwt>
</event>
<event>
12    7  0.1698542E-007  0.3552558E+04  0.7818608E-02  0.8101446E-01
         -1   -1    0    0    0  501 -0.00000000000E+00  0.00000000000E+00  0.19082528658E+04  0.19082528658E+04  0.00000000000E+00 0.  1.
          2   -1    0    0  501    0  0.00000000000E+00 -0.00000000000E+00 -0.16534325116E+04  0.16534325116E+04  0.00000000000E+00 0. -1.
         24    2    1    2    0    0 -0.75726835440E+03  0.46097557884E+03  0.15163119955E+04  0.17581378194E+04  0.76763789472E+02 0.  0.
        254    2    1    2    0    0  0.75726835440E+03 -0.46097557884E+03 -0.12614916413E+04  0.18035475581E+04  0.93566489098E+03 0.  0.
         23    2    4    4    0    0 -0.20499903855E+03 -0.14822629543E+03 -0.21130679602E+03  0.34206482424E+03  0.91444745481E+02 0.  0.
         23    2    4    4    0    0  0.96226739295E+03 -0.31274928341E+03 -0.10501848453E+04  0.14614827338E+04  0.96296013185E+02 0.  0.
          2    1    3    3  502    0 -0.30302343613E+03  0.20973604635E+03  0.56882633354E+03  0.67777268292E+03  0.00000000000E+00 0. -1.
         -1    1    3    3    0  502 -0.45424491827E+03  0.25123953249E+03  0.94748566196E+03  0.10803651365E+04  0.00000000000E+00 0.  1.
         13    1    5    5    0    0 -0.11957060913E+02 -0.50924294156E+02 -0.33088957198E+02  0.61896156015E+02  0.00000000000E+00 0. -1.
        -13    1    5    5    0    0 -0.19304197763E+03 -0.97302001276E+02 -0.17821783882E+03  0.28016866823E+03  0.00000000000E+00 0.  1.
          4    1    6    6  503    0  0.38253909110E+03 -0.16677110512E+03 -0.39627605217E+03  0.57548541880E+03  0.00000000000E+00 0. -1.
         -4    1    6    6    0  503  0.57972830184E+03 -0.14597817829E+03 -0.65390879313E+03  0.88599731502E+03  0.00000000000E+00 0.  1.
<mgrwt>
<rscale>  0 0.35525581E+04</rscale>
<asrwt>0</asrwt>
<pdfrwt beam="1">  1        2 0.25437423E+00 0.35525581E+04</pdfrwt>
<pdfrwt beam="2">  1       -1 0.29357736E+00 0.35525581E+04</pdfrwt>
<totfact> 0.35238124E-01</totfact>
</mgrwt>
</event>
<event>
12    7  0.1698542E-007  0.2039123E+04  0.7818608E-02  0.8588545E-01
          2   -1    0    0  501    0  0.00000000000E+00  0.00000000000E+00  0.11914092223E+04  0.11914092223E+04  0.00000000000E+00 0. -1.
         -1   -1    0    0    0  501 -0.00000000000E+00 -0.00000000000E+00 -0.87250076938E+03  0.87250076938E+03  0.00000000000E+00 0.  1.
         24    2    1    2    0    0 -0.73731422548E+03 -0.15835952556E+03  0.45343510765E+03  0.88353977939E+03  0.79555882708E+02 0.  0.
        254    2    1    2    0    0  0.73731422548E+03  0.15835952556E+03 -0.13452665477E+03  0.11803702123E+04  0.89803474917E+03 0.  0.
         23    2    4    4    0    0  0.24153697738E+03 -0.21947913416E+03 -0.37597080372E+03  0.50579325109E+03  0.89227606860E+02 0.  0.
         23    2    4    4    0    0  0.49577724811E+03  0.37783865972E+03  0.24144414895E+03  0.67457696117E+03  0.90563055186E+02 0.  0.
          4    1    3    3  502    0 -0.55285849224E+03 -0.83597967944E+02  0.34181894585E+03  0.65534824668E+03  0.00000000000E+00 0. -1.
         -3    1    3    3    0  502 -0.18445573325E+03 -0.74761557617E+02  0.11161616180E+03  0.22819153271E+03  0.00000000000E+00 0.  1.
         13    1    5    5    0    0  0.43767913394E+02 -0.34795494019E+02 -0.12411644552E+03  0.13612952911E+03  0.00000000000E+00 0. -1.
        -13    1    5    5    0    0  0.19776906398E+03 -0.18468364014E+03 -0.25185435820E+03  0.36966372198E+03  0.00000000000E+00 0.  1.
          1    1    6    6  503    0  0.75110223654E+02  0.21940744738E+02  0.20332578769E+02  0.80847731794E+02  0.00000000000E+00 0. -1.
         -1    1    6    6    0  503  0.42066702446E+03  0.35589791498E+03  0.22111157018E+03  0.59372922938E+03  0.00000000000E+00 0.  1.
<mgrwt>
<rscale>  0 0.20391228E+04</rscale>
<asrwt>0</asrwt>
<pdfrwt beam="1">  1        2 0.18329373E+00 0.20391228E+04</pdfrwt>
<pdfrwt beam="2">  1       -1 0.13423089E+00 0.20391228E+04</pdfrwt>
<totfact> 0.94610755E+00</totfact>
</mgrwt>
</event>
<event>
12    7  0.1698542E-007  0.1644357E+04  0.7818608E-02  0.8793752E-01
         -1   -1    0    0    0  501 -0.00000000000E+00  0.00000000000E+00  0.30079609170E+03  0.30079609170E+03  0.00000000000E+00 0.  1.
          2   -1    0    0  501    0  0.00000000000E+00 -0.00000000000E+00 -0.22472938000E+04  0.22472938000E+04  0.00000000000E+00 0. -1.
         24    2    1    2    0    0 -0.41418294049E+03 -0.88295046400E+02 -0.90338383217E+02  0.44023251311E+03  0.79373287105E+02 0.  0.
        254    2    1    2    0    0  0.41418294049E+03  0.88295046400E+02 -0.18561593251E+04  0.21078573786E+04  0.90465007874E+03 0.  0.
         23    2    4    4    0    0 -0.38025580598E+02  0.35800286828E+03 -0.35194020450E+03  0.51166057042E+03  0.91228467646E+02 0.  0.
         23    2    4    4    0    0  0.45220852109E+03 -0.26970782188E+03 -0.15042191206E+04  0.15961968082E+04  0.89074305704E+02 0.  0.
          2    1    3    3  502    0 -0.24759797156E+03 -0.17107235544E+02 -0.70404345241E+02  0.25798097770E+03  0.00000000000E+00 0. -1.
         -1    1    3    3    0  502 -0.16658496893E+03 -0.71187810856E+02 -0.19934037976E+02  0.18225153541E+03  0.00000000000E+00 0.  1.
         13    1    5    5    0    0 -0.13434740957E+02  0.11861916009E+03 -0.60886994989E+02  0.13400829663E+03  0.00000000000E+00 0. -1.
        -13    1    5    5    0    0 -0.24590839641E+02  0.23938370818E+03 -0.29105320951E+03  0.37765227380E+03  0.00000000000E+00 0.  1.
          4    1    6    6  503    0  0.96822257905E+02 -0.56915990419E+02 -0.44263640610E+03  0.45666285989E+03  0.00000000000E+00 0. -1.
         -4    1    6    6    0  503  0.35538626318E+03 -0.21279183146E+03 -0.10615827145E+04  0.11395339483E+04  0.00000000000E+00 0.  1.
<mgrwt>
<rscale>  0 0.16443566E+04</rscale>
<asrwt>0</asrwt>
<pdfrwt beam="1">  1        2 0.34573752E+00 0.16443566E+04</pdfrwt>
<pdfrwt beam="2">  1       -1 0.46276320E-01 0.16443566E+04</pdfrwt>
<totfact> 0.24582219E+01</totfact>
</mgrwt>
</event>
<event>
12    7  0.1698542E-007  0.1406569E+04  0.7818608E-02  0.8949077E-01
         -1   -1    0    0    0  501 -0.00000000000E+00  0.00000000000E+00  0.89112488697E+03  0.89112488697E+03  0.00000000000E+00 0.  1.
          4   -1    0    0  501    0  0.00000000000E+00 -0.00000000000E+00 -0.55503881129E+03  0.55503881129E+03  0.00000000000E+00 0. -1.
         24    2    1    2    0    0 -0.13703076828E+02  0.40971006952E+03  0.11717553307E+03  0.42990575290E+03  0.55124726270E+02 0.  0.
        254    2    1    2    0    0  0.13703076828E+02 -0.40971006952E+03  0.21891054261E+03  0.10162579454E+04  0.90377445773E+03 0.  0.
         23    2    4    4    0    0 -0.21658718097E+03 -0.10211959908E+03 -0.27864903021E+03  0.38078689153E+03  0.10007474829E+03 0.  0.
         23    2    4    4    0    0  0.23029025780E+03 -0.30759047045E+03  0.49755957282E+03  0.63547105382E+03  0.92803186333E+02 0.  0.
          2    1    3    3  502    0 -0.16522787948E+02  0.21679134110E+03  0.88953769184E+02  0.23491330561E+03  0.00000000000E+00 0. -1.
         -1    1    3    3    0  502  0.28197111205E+01  0.19291872842E+03  0.28221763883E+02  0.19499244730E+03  0.00000000000E+00 0.  1.
         13    1    5    5    0    0 -0.32081962682E+02 -0.63300629060E+02 -0.77987682354E+02  0.10544335241E+03  0.00000000000E+00 0. -1.
        -13    1    5    5    0    0 -0.18450521829E+03 -0.38818970016E+02 -0.20066134786E+03  0.27534353912E+03  0.00000000000E+00 0.  1.
          3    1    6    6  503    0  0.32364063579E+02 -0.49540733853E+02  0.31147367629E+02  0.66872082608E+02  0.00000000000E+00 0. -1.
         -3    1    6    6    0  503  0.19792619422E+03 -0.25804973659E+03  0.46641220519E+03  0.56859897122E+03  0.00000000000E+00 0.  1.
<mgrwt>
<rscale>  0 0.14065687E+04</rscale>
<asrwt>0</asrwt>
<pdfrwt beam="1">  1        4 0.85390586E-01 0.14065687E+04</pdfrwt>
<pdfrwt beam="2">  1       -1 0.13709614E+00 0.14065687E+04</pdfrwt>
<totfact> 0.21425578E+00</totfact>
</mgrwt>
</event>
<event>
12    7  0.1698542E-007  0.2134682E+04  0.7818608E-02  0.8546117E-01
          2   -1    0    0  501    0  0.00000000000E+00  0.00000000000E+00  0.14816412682E+04  0.14816412682E+04  0.00000000000E+00 0. -1.
         -1   -1    0    0    0  501 -0.00000000000E+00 -0.00000000000E+00 -0.76888877653E+03  0.76888877653E+03  0.00000000000E+00 0.  1.
         24    2    1    2    0    0 -0.36473054612E+03 -0.68596571900E+03 -0.12865380020E+03  0.79253003239E+03  0.89301248630E+02 0.  0.
        254    2    1    2    0    0  0.36473054612E+03  0.68596571900E+03  0.84140629187E+03  0.14580000123E+04  0.90234258964E+03 0.  0.
         23    2    4    4    0    0  0.89528233323E+01  0.38166068267E+03  0.89572300302E+03  0.97794271238E+03  0.91143956517E+02 0.  0.
         23    2    4    4    0    0  0.35577772279E+03  0.30430503633E+03 -0.54316711149E+02  0.48005729997E+03  0.91243427014E+02 0.  0.
          4    1    3    3  502    0 -0.20407233955E+03 -0.38281232496E+03 -0.26797357121E+02  0.43463650820E+03  0.00000000000E+00 0. -1.
         -3    1    3    3    0  502 -0.16065820658E+03 -0.30315339404E+03 -0.10185644308E+03  0.35789352419E+03  0.00000000000E+00 0.  1.
         13    1    5    5    0    0  0.31988212031E+02  0.31844546060E+03  0.79297734044E+03  0.85512795507E+03  0.00000000000E+00 0.  1.
        -13    1    5    5    0    0 -0.23035388699E+02  0.63215222075E+02  0.10274566258E+03  0.12281475731E+03  0.00000000000E+00 0. -1.
          4    1    6    6  503    0  0.17221676499E+03  0.10483275254E+03  0.85051933549E+01  0.20179409918E+03  0.00000000000E+00 0. -1.
         -4    1    6    6    0  503  0.18356095780E+03  0.19947228379E+03 -0.62821904504E+02  0.27826320079E+03  0.00000000000E+00 0.  1.
<mgrwt>
<rscale>  0 0.21346825E+04</rscale>
<asrwt>0</asrwt>
<pdfrwt beam="1">  1        2 0.22794481E+00 0.21346825E+04</pdfrwt>
<pdfrwt beam="2">  1       -1 0.11829058E+00 0.21346825E+04</pdfrwt>
<totfact> 0.87282510E+00</totfact>
</mgrwt>
</event>
<event>
12    7  0.1698542E-007  0.1881076E+04  0.7818608E-02  0.8664334E-01
          2   -1    0    0  501    0  0.00000000000E+00  0.00000000000E+00  0.98038544845E+03  0.98038544845E+03  0.00000000000E+00 0. -1.
         -1   -1    0    0    0  501 -0.00000000000E+00 -0.00000000000E+00 -0.90230994769E+03  0.90230994769E+03  0.00000000000E+00 0.  1.
         24    2    1    2    0    0  0.43936291105E+03 -0.32425990202E+03 -0.44294385583E+03  0.70769860209E+03  0.80335548240E+02 0.  0.
        254    2    1    2    0    0 -0.43936291105E+03  0.32425990202E+03  0.52101935659E+03  0.11749967941E+04  0.90053986277E+03 0.  0.
         23    2    4    4    0    0  0.26504050403E+03  0.36301126025E+02  0.18446763880E+03  0.33790225173E+03  0.92657333398E+02 0.  0.
         23    2    4    4    0    0 -0.70440341509E+03  0.28795877599E+03  0.33655171779E+03  0.83709454232E+03  0.91409989526E+02 0.  0.
          2    1    3    3  502    0  0.94167916099E+02 -0.31476977307E+02 -0.81520227811E+02  0.12846767712E+03  0.00000000000E+00 0. -1.
         -1    1    3    3    0  502  0.34519499495E+03 -0.29278292471E+03 -0.36142362802E+03  0.57923092496E+03  0.00000000000E+00 0.  1.
         13    1    5    5    0    0  0.17796924405E+03  0.10041530685E+02  0.69522516793E+02  0.19133024985E+03  0.00000000000E+00 0. -1.
        -13    1    5    5    0    0  0.87071259981E+02  0.26259595339E+02  0.11494512201E+03  0.14657200188E+03  0.00000000000E+00 0.  1.
          2    1    6    6  503    0 -0.62784123872E+03  0.28239875638E+03  0.31684264630E+03  0.75784097353E+03  0.00000000000E+00 0. -1.
         -2    1    6    6    0  503 -0.76562176364E+02  0.55600196155E+01  0.19709071483E+02  0.79253568793E+02  0.00000000000E+00 0.  1.
<mgrwt>
<rscale>  0 0.18810758E+04</rscale>
<asrwt>0</asrwt>
<pdfrwt beam="1">  1        2 0.15082853E+00 0.18810758E+04</pdfrwt>
<pdfrwt beam="2">  1       -1 0.13881691E+00 0.18810758E+04</pdfrwt>
<totfact> 0.11895041E+01</totfact>
</mgrwt>
</event>
<event>
12    7  0.1698542E-007  0.2391078E+04  0.7818608E-02  0.8442851E-01
          2   -1    0    0  501    0  0.00000000000E+00  0.00000000000E+00  0.16092912579E+04  0.16092912579E+04  0.00000000000E+00 0. -1.
         -1   -1    0    0    0  501 -0.00000000000E+00 -0.00000000000E+00 -0.88816321147E+03  0.88816321147E+03  0.00000000000E+00 0.  1.
         24    2    1    2    0    0  0.31443598694E+03  0.71954562101E+03 -0.38135066857E+03  0.87662868067E+03  0.80209854483E+02 0.  0.
        254    2    1    2    0    0 -0.31443598694E+03 -0.71954562101E+03  0.11024787150E+04  0.16208257887E+04  0.89162830246E+03 0.  0.
         23    2    4    4    0    0 -0.57449416204E+03 -0.36083485318E+03  0.88314979681E+03  0.11174469862E+04  0.92135062849E+02 0.  0.
         23    2    4    4    0    0  0.26005817510E+03 -0.35871076782E+03  0.21932891821E+03  0.50337880256E+03  0.94770117184E+02 0.  0.
          4    1    3    3  502    0  0.15565209037E+02  0.10265024226E+03 -0.52782818460E+02  0.11647048507E+03  0.00000000000E+00 0. -1.
         -3    1    3    3    0  502  0.29887077790E+03  0.61689537875E+03 -0.32856785011E+03  0.76015819559E+03  0.00000000000E+00 0.  1.
         13    1    5    5    0    0 -0.43252807033E+02 -0.15276056720E+01  0.57945433219E+02  0.72324353618E+02  0.00000000000E+00 0. -1.
        -13    1    5    5    0    0 -0.53124135501E+03 -0.35930724751E+03  0.82520436359E+03  0.10451226326E+04  0.00000000000E+00 0.  1.
          1    1    6    6  503    0  0.23690196516E+03 -0.29854026318E+03  0.21764813042E+03  0.43888442500E+03  0.00000000000E+00 0.  1.
         -1    1    6    6    0  503  0.23156209940E+02 -0.60170504648E+02  0.16807877864E+01  0.64494377553E+02  0.00000000000E+00 0. -1.
<mgrwt>
<rscale>  0 0.23910778E+04</rscale>
<asrwt>0</asrwt>
<pdfrwt beam="1">  1        2 0.24758327E+00 0.23910778E+04</pdfrwt>
<pdfrwt beam="2">  1       -1 0.13664049E+00 0.23910778E+04</pdfrwt>
<totfact> 0.50426949E+00</totfact>
</mgrwt>
</event>
<event>
12    7  0.1698542E-007  0.1393072E+04  0.7818608E-02  0.8958849E-01
          2   -1    0    0  501    0  0.00000000000E+00  0.00000000000E+00  0.15368151120E+04  0.15368151120E+04  0.00000000000E+00 0. -1.
         -1   -1    0    0    0  501 -0.00000000000E+00 -0.00000000000E+00 -0.31569348468E+03  0.31569348468E+03  0.00000000000E+00 0.  1.
         24    2    1    2    0    0  0.20432092755E+03  0.13450971419E+03  0.77054362272E+03  0.81232414132E+03  0.79329259459E+02 0.  0.
        254    2    1    2    0    0 -0.20432092755E+03 -0.13450971419E+03  0.45057800458E+03  0.10401844553E+04  0.90505428471E+03 0.  0.
         23    2    4    4    0    0 -0.53618247954E+03 -0.39223230591E+02  0.13943480353E+03  0.56482963067E+03  0.10276348605E+03 0.  0.
         23    2    4    4    0    0  0.33186155199E+03 -0.95286483598E+02  0.31114320105E+03  0.47535482467E+03  0.99702127012E+02 0.  0.
          4    1    3    3  502    0  0.20747392046E+03  0.12046662367E+03  0.69035365083E+03  0.73085278839E+03  0.00000000000E+00 0. -1.
         -1    1    3    3    0  502 -0.31529929054E+01  0.14043090518E+02  0.80189971890E+02  0.81471352924E+02  0.00000000000E+00 0.  1.
         13    1    5    5    0    0 -0.24307318545E+03  0.12089997583E+02  0.20019388668E+02  0.24419565403E+03  0.00000000000E+00 0. -1.
        -13    1    5    5    0    0 -0.29310929409E+03 -0.51313228173E+02  0.11941541486E+03  0.32063397664E+03  0.00000000000E+00 0.  1.
          3    1    6    6  503    0  0.25435831925E+03 -0.62266219079E+02  0.28524244819E+03  0.38721891852E+03  0.00000000000E+00 0. -1.
         -3    1    6    6    0  503  0.77503232742E+02 -0.33020264519E+02  0.25900752862E+02  0.88135906152E+02  0.00000000000E+00 0.  1.
<mgrwt>
<rscale>  0 0.13930722E+04</rscale>
<asrwt>0</asrwt>
<pdfrwt beam="1">  1        2 0.23643309E+00 0.13930722E+04</pdfrwt>
<pdfrwt beam="2">  1       -1 0.48568229E-01 0.13930722E+04</pdfrwt>
<totfact> 0.56947924E+01</totfact>
</mgrwt>
</event>
<event>
12    7  0.1698542E-007  0.1293031E+04  0.7818608E-02  0.9035110E-01
          2   -1    0    0  501    0  0.00000000000E+00  0.00000000000E+00  0.14091044013E+04  0.14091044013E+04  0.00000000000E+00 0. -1.
         -1   -1    0    0    0  501 -0.00000000000E+00 -0.00000000000E+00 -0.29662996448E+03  0.29662996448E+03  0.00000000000E+00 0.  1.
         24    2    1    2    0    0 -0.81273397933E+01  0.72999814069E+02  0.70029167258E+03  0.70860157359E+03  0.79452733733E+02 0.  0.
        254    2    1    2    0    0  0.81273397933E+01 -0.72999814069E+02  0.41218276421E+03  0.99713279216E+03  0.90497742932E+03 0.  0.
         23    2    4    4    0    0  0.33466355974E+03 -0.20288936345E+03  0.48239559631E+03  0.62832285360E+03  0.94447366283E+02 0.  0.
         23    2    4    4    0    0 -0.32653621995E+03  0.12988954938E+03 -0.70212832103E+02  0.36880993856E+03  0.87142016336E+02 0.  0.
          2    1    3    3  502    0 -0.39345301751E+02  0.64826367334E+02  0.47703659582E+03  0.48302631856E+03  0.00000000000E+00 0. -1.
         -1    1    3    3    0  502  0.31217961958E+02  0.81734467347E+01  0.22325507676E+03  0.22557525503E+03  0.00000000000E+00 0.  1.
         13    1    5    5    0    0  0.10865453774E+03 -0.10349960402E+03  0.23485434597E+03  0.27870152570E+03  0.00000000000E+00 0.  1.
        -13    1    5    5    0    0  0.22600902201E+03 -0.99389759429E+02  0.24754125034E+03  0.34962132791E+03  0.00000000000E+00 0. -1.
          1    1    6    6  503    0 -0.30454589860E+03  0.91796098427E+02 -0.61703474704E+02  0.32400933140E+03  0.00000000000E+00 0. -1.
         -1    1    6    6    0  503 -0.21990321343E+02  0.38093450956E+02 -0.85093573989E+01  0.44800607160E+02  0.00000000000E+00 0.  1.
<mgrwt>
<rscale>  0 0.12930315E+04</rscale>
<asrwt>0</asrwt>
<pdfrwt beam="1">  1        2 0.21678529E+00 0.12930315E+04</pdfrwt>
<pdfrwt beam="2">  1       -1 0.45635380E-01 0.12930315E+04</pdfrwt>
<totfact> 0.76203185E+01</totfact>
</mgrwt>
</event>
<event>
12    7  0.1698542E-007  0.1458470E+04  0.7818608E-02  0.8912549E-01
         -1   -1    0    0    0  501 -0.00000000000E+00  0.00000000000E+00  0.79741920218E+03  0.79741920218E+03  0.00000000000E+00 0.  1.
          2   -1    0    0  501    0  0.00000000000E+00 -0.00000000000E+00 -0.66688101072E+03  0.66688101072E+03  0.00000000000E+00 0. -1.
         24    2    1    2    0    0 -0.31921453887E+03  0.11627670162E+03 -0.25487613369E+03  0.43138866518E+03  0.75605183400E+02 0.  0.
        254    2    1    2    0    0  0.31921453887E+03 -0.11627670162E+03  0.38541432515E+03  0.10329115477E+04  0.89607135330E+03 0.  0.
         23    2    4    4    0    0  0.19832509754E+03 -0.13510365083E+03 -0.26238522636E+03  0.36728233460E+03  0.92002529952E+02 0.  0.
         23    2    4    4    0    0  0.12088944133E+03  0.18826949209E+02  0.64779955150E+03  0.66562921311E+03  0.91919961826E+02 0.  0.
          2    1    3    3  502    0 -0.27151448782E+03  0.11077746147E+03 -0.24555237759E+03  0.38247579428E+03  0.00000000000E+00 0. -1.
         -1    1    3    3    0  502 -0.47700051049E+02  0.54992401475E+01 -0.93237560968E+01  0.48912870904E+02  0.00000000000E+00 0.  1.
         13    1    5    5    0    0  0.16421115762E+03 -0.70759732607E+02 -0.21817388151E+03  0.28208524708E+03  0.00000000000E+00 0.  1.
        -13    1    5    5    0    0  0.34113939920E+02 -0.64343918221E+02 -0.44211344841E+02  0.85197087519E+02  0.00000000000E+00 0. -1.
          4    1    6    6  503    0  0.62004064362E+02  0.43015475815E+02  0.20840755688E+03  0.22164959941E+03  0.00000000000E+00 0. -1.
         -4    1    6    6    0  503  0.58885376966E+02 -0.24188526606E+02  0.43939199462E+03  0.44397961370E+03  0.00000000000E+00 0.  1.
<mgrwt>
<rscale>  0 0.14584701E+04</rscale>
<asrwt>0</asrwt>
<pdfrwt beam="1">  1        2 0.10259708E+00 0.14584701E+04</pdfrwt>
<pdfrwt beam="2">  1       -1 0.12267988E+00 0.14584701E+04</pdfrwt>
<totfact> 0.28277504E+01</totfact>
</mgrwt>
</event>
<event>
12    7  0.1698542E-007  0.1177903E+04  0.7818608E-02  0.9132421E-01
         -1   -1    0    0    0  501 -0.00000000000E+00  0.00000000000E+00  0.18983984913E+03  0.18983984913E+03  0.00000000000E+00 0.  1.
          2   -1    0    0  501    0  0.00000000000E+00 -0.00000000000E+00 -0.18271401448E+04  0.18271401448E+04  0.00000000000E+00 0. -1.
         24    2    1    2    0    0  0.15801391665E+03  0.55150999032E+02 -0.55288721955E+03  0.58363337941E+03  0.83268322135E+02 0.  0.
        254    2    1    2    0    0 -0.15801391665E+03 -0.55150999032E+02 -0.10844130761E+04  0.14333466145E+04  0.92223682813E+03 0.  0.
         23    2    4    4    0    0  0.68198586874E+02 -0.13427550795E+02  0.14123046688E+03  0.18313385962E+03  0.93598180509E+02 0.  0.
         23    2    4    4    0    0 -0.22621250353E+03 -0.41723448237E+02 -0.12256435430E+04  0.12502127549E+04  0.88976935992E+02 0.  0.
          4    1    3    3  502    0  0.15688090603E+03  0.62908269661E+02 -0.54982198792E+03  0.57521586163E+03  0.00000000000E+00 0. -1.
         -3    1    3    3    0  502  0.11330106212E+01 -0.77572706288E+01 -0.30652316303E+01  0.84175177828E+01  0.00000000000E+00 0.  1.
         13    1    5    5    0    0  0.29415304317E+02 -0.47911137033E+02  0.10727969251E+03  0.12111841150E+03  0.00000000000E+00 0.  1.
        -13    1    5    5    0    0  0.38783282557E+02  0.34483586238E+02  0.33950774369E+02  0.62015448124E+02  0.00000000000E+00 0. -1.
          1    1    6    6  503    0 -0.19854184143E+03 -0.35801023980E+02 -0.85451972125E+03  0.87801169133E+03  0.00000000000E+00 0. -1.
         -1    1    6    6    0  503 -0.27670662097E+02 -0.59224242571E+01 -0.37112382176E+03  0.37220106357E+03  0.00000000000E+00 0.  1.
<mgrwt>
<rscale>  0 0.11779032E+04</rscale>
<asrwt>0</asrwt>
<pdfrwt beam="1">  1        2 0.28109848E+00 0.11779032E+04</pdfrwt>
<pdfrwt beam="2">  1       -1 0.29206131E-01 0.11779032E+04</pdfrwt>
<totfact> 0.10039233E+02</totfact>
</mgrwt>
</event>
<event>
12    7  0.1698542E-007  0.2110069E+04  0.7818608E-02  0.8556821E-01
          2   -1    0    0  501    0  0.00000000000E+00  0.00000000000E+00  0.95319393368E+03  0.95319393368E+03  0.00000000000E+00 0. -1.
         -1   -1    0    0    0  501 -0.00000000000E+00 -0.00000000000E+00 -0.11677558133E+04  0.11677558133E+04  0.00000000000E+00 0.  1.
         24    2    1    2    0    0  0.71034058749E+03 -0.21103741174E+03  0.35401083188E+03  0.82528344115E+03  0.81538639640E+02 0.  0.
        254    2    1    2    0    0 -0.71034058749E+03  0.21103741174E+03 -0.56857271155E+03  0.12956663059E+04  0.89797311122E+03 0.  0.
         23    2    4    4    0    0 -0.77891343197E+03  0.76958361848E+02 -0.98252548686E+02  0.79381311206E+03  0.88639548705E+02 0.  0.
         23    2    4    4    0    0  0.68572844477E+02  0.13407904990E+03 -0.47032016286E+03  0.50185319382E+03  0.89309271236E+02 0.  0.
          2    1    3    3  502    0  0.69079254432E+03 -0.19955310250E+03  0.32666963967E+03  0.78976504955E+03  0.00000000000E+00 0. -1.
         -1    1    3    3    0  502  0.19548043171E+02 -0.11484309245E+02  0.27341192204E+02  0.35518391599E+02  0.00000000000E+00 0.  1.
         13    1    5    5    0    0 -0.76668761439E+03  0.65374741655E+02 -0.10295521272E+03  0.77632694835E+03  0.00000000000E+00 0. -1.
        -13    1    5    5    0    0 -0.12225817576E+02  0.11583620194E+02  0.47026640360E+01  0.17486163708E+02  0.00000000000E+00 0.  1.
          4    1    6    6  503    0  0.48489859278E+02  0.80505105950E+02 -0.40151813541E+03  0.41237016333E+03  0.00000000000E+00 0. -1.
         -4    1    6    6    0  503  0.20082985199E+02  0.53573943946E+02 -0.68802027448E+02  0.89483030488E+02  0.00000000000E+00 0.  1.
<mgrwt>
<rscale>  0 0.21100690E+04</rscale>
<asrwt>0</asrwt>
<pdfrwt beam="1">  1        2 0.14664522E+00 0.21100690E+04</pdfrwt>
<pdfrwt beam="2">  1       -1 0.17965474E+00 0.21100690E+04</pdfrwt>
<totfact> 0.59397234E+00</totfact>
</mgrwt>
</event>
<event>
12    7  0.1698542E-007  0.2123552E+04  0.7818608E-02  0.8550939E-01
         -1   -1    0    0    0  501 -0.00000000000E+00  0.00000000000E+00  0.81939928191E+03  0.81939928191E+03  0.00000000000E+00 0.  1.
          2   -1    0    0  501    0  0.00000000000E+00 -0.00000000000E+00 -0.13758472953E+04  0.13758472953E+04  0.00000000000E+00 0. -1.
         24    2    1    2    0    0  0.10588358828E+03 -0.38916090946E+03 -0.10218365718E+04  0.11015284507E+04  0.80977777032E+02 0.  0.
        254    2    1    2    0    0 -0.10588358828E+03  0.38916090946E+03  0.46538855848E+03  0.10937181265E+04  0.90386684980E+03 0.  0.
         23    2    4    4    0    0  0.22743213276E+02  0.38953316346E+03 -0.17225658203E+03  0.43665606000E+03  0.93503184416E+02 0.  0.
         23    2    4    4    0    0 -0.12862680156E+03 -0.37225400135E+00  0.63764514051E+03  0.65706206651E+03  0.92705131299E+02 0.  0.
          4    1    3    3  502    0  0.31693897942E+02 -0.16420706560E+03 -0.32450791699E+03  0.36506691407E+03  0.00000000000E+00 0. -1.
         -3    1    3    3    0  502  0.74189690340E+02 -0.22495384386E+03 -0.69732865485E+03  0.73646153660E+03  0.00000000000E+00 0.  1.
         13    1    5    5    0    0 -0.81901988542E+01  0.36123219031E+02 -0.48289437986E+02  0.60859149940E+02  0.00000000000E+00 0.  1.
        -13    1    5    5    0    0  0.30933412130E+02  0.35340994443E+03 -0.12396714404E+03  0.37579691006E+03  0.00000000000E+00 0. -1.
          4    1    6    6  503    0 -0.28897905232E+02 -0.39408441473E+02  0.25863997203E+03  0.26321616462E+03  0.00000000000E+00 0. -1.
         -4    1    6    6    0  503 -0.99728896325E+02  0.39036187472E+02  0.37900516849E+03  0.39384590189E+03  0.00000000000E+00 0.  1.
<mgrwt>
<rscale>  0 0.21235520E+04</rscale>
<asrwt>0</asrwt>
<pdfrwt beam="1">  1        2 0.21166881E+00 0.21235520E+04</pdfrwt>
<pdfrwt beam="2">  1       -1 0.12606143E+00 0.21235520E+04</pdfrwt>
<totfact> 0.85812407E+00</totfact>
</mgrwt>
</event>
<event>
12    7  0.1698542E-007  0.2071332E+04  0.7818608E-02  0.8573978E-01
          2   -1    0    0  501    0  0.00000000000E+00  0.00000000000E+00  0.20425519343E+04  0.20425519343E+04  0.00000000000E+00 0. -1.
         -1   -1    0    0    0  501 -0.00000000000E+00 -0.00000000000E+00 -0.52512936886E+03  0.52512936886E+03  0.00000000000E+00 0.  1.
         24    2    1    2    0    0 -0.33658676274E+03  0.22498531276E+03  0.15232938319E+04  0.15782977926E+04  0.81797213052E+02 0.  0.
        254    2    1    2    0    0  0.33658676274E+03 -0.22498531276E+03 -0.58712665096E+01  0.98938351049E+03  0.90273817868E+03 0.  0.
         23    2    4    4    0    0  0.22693611212E+02 -0.32938973257E+02  0.41211953667E+03  0.42496575134E+03  0.95673409918E+02 0.  0.
         23    2    4    4    0    0  0.31389315153E+03 -0.19204633951E+03 -0.41799080317E+03  0.56441775914E+03  0.91871585392E+02 0.  0.
          4    1    3    3  502    0 -0.28723047418E+03  0.18758358352E+03  0.13835529553E+04  0.14254500084E+04  0.00000000000E+00 0. -1.
         -3    1    3    3    0  502 -0.49356288565E+02  0.37401729239E+02  0.13974087659E+03  0.15284778429E+03  0.00000000000E+00 0.  1.
         13    1    5    5    0    0 -0.24139298169E+02  0.10656628861E+02  0.43832998354E+02  0.51162497979E+02  0.00000000000E+00 0. -1.
        -13    1    5    5    0    0  0.46832909381E+02 -0.43595602118E+02  0.36828653831E+03  0.37380325336E+03  0.00000000000E+00 0.  1.
          4    1    6    6  503    0  0.30654606005E+03 -0.16051375888E+03 -0.37067624102E+03  0.50708582052E+03  0.00000000000E+00 0.  1.
         -4    1    6    6    0  503  0.73470914873E+01 -0.31532580622E+02 -0.47314562158E+02  0.57331938623E+02  0.00000000000E+00 0. -1.
<mgrwt>
<rscale>  0 0.20713319E+04</rscale>
<asrwt>0</asrwt>
<pdfrwt beam="1">  1        2 0.31423875E+00 0.20713319E+04</pdfrwt>
<pdfrwt beam="2">  1       -1 0.80789135E-01 0.20713319E+04</pdfrwt>
<totfact> 0.10161272E+01</totfact>
</mgrwt>
</event>
<event>
12    7  0.1698542E-007  0.1525986E+04  0.7818608E-02  0.8867354E-01
          2   -1    0    0  501    0  0.00000000000E+00  0.00000000000E+00  0.12229504011E+04  0.12229504011E+04  0.00000000000E+00 0. -1.
         -1   -1    0    0    0  501 -0.00000000000E+00 -0.00000000000E+00 -0.47602796795E+03  0.47602796795E+03  0.00000000000E+00 0.  1.
         24    2    1    2    0    0  0.39254580810E+03 -0.28160494202E+03  0.16922935153E+03  0.51806926421E+03  0.79772390396E+02 0.  0.
        254    2    1    2    0    0 -0.39254580810E+03  0.28160494202E+03  0.57769308159E+03  0.11809091048E+04  0.90962820014E+03 0.  0.
         23    2    4    4    0    0 -0.44821414635E+03  0.24561093654E+03  0.78714365543E+03  0.94300642306E+03  0.91898457595E+02 0.  0.
         23    2    4    4    0    0  0.55668338250E+02  0.35994005477E+02 -0.20945057384E+03  0.23790268176E+03  0.91288612613E+02 0.  0.
          2    1    3    3  502    0  0.28806018079E+03 -0.23670518153E+03  0.10446353819E+03  0.38719586972E+03  0.00000000000E+00 0. -1.
         -1    1    3    3    0  502  0.10448562731E+03 -0.44899760495E+02  0.64765813336E+02  0.13087339449E+03  0.00000000000E+00 0.  1.
         13    1    5    5    0    0  0.43025755285E+01  0.35135756580E+01  0.13702729756E+02  0.14785877480E+02  0.00000000000E+00 0.  1.
        -13    1    5    5    0    0 -0.45251672188E+03  0.24209736089E+03  0.77344092567E+03  0.92822054558E+03  0.00000000000E+00 0. -1.
          4    1    6    6  503    0  0.70028673022E+02  0.31616020647E+02 -0.20922604136E+03  0.22288814278E+03  0.00000000000E+00 0. -1.
         -4    1    6    6    0  503 -0.14360334773E+02  0.43779848294E+01 -0.22453247532E+00  0.15014538980E+02  0.00000000000E+00 0.  1.
<mgrwt>
<rscale>  0 0.15259864E+04</rscale>
<asrwt>0</asrwt>
<pdfrwt beam="1">  1        2 0.18814621E+00 0.15259864E+04</pdfrwt>
<pdfrwt beam="2">  1       -1 0.73235072E-01 0.15259864E+04</pdfrwt>
<totfact> 0.37920628E+01</totfact>
</mgrwt>
</event>
<event>
12    7  0.1698542E-007  0.1668096E+04  0.7818608E-02  0.8779773E-01
         -1   -1    0    0    0  501 -0.00000000000E+00  0.00000000000E+00  0.62267462427E+03  0.62267462427E+03  0.00000000000E+00 0.  1.
          2   -1    0    0  501    0  0.00000000000E+00 -0.00000000000E+00 -0.11171739035E+04  0.11171739035E+04  0.00000000000E+00 0. -1.
         24    2    1    2    0    0  0.97015134500E+00  0.58957715052E+03 -0.20568970893E+03  0.62903519399E+03  0.75992508255E+02 0.  0.
        254    2    1    2    0    0 -0.97015134500E+00 -0.58957715052E+03 -0.28880957034E+03  0.11108133338E+04  0.89604304420E+03 0.  0.
         23    2    4    4    0    0  0.86484061220E+01 -0.32006177192E+03  0.30510834629E+03  0.45235036276E+03  0.94949538924E+02 0.  0.
         23    2    4    4    0    0 -0.96185574670E+01 -0.26951537860E+03 -0.59391791664E+03  0.65846297106E+03  0.90021867337E+02 0.  0.
          4    1    3    3  502    0 -0.11364429560E+02  0.18989842376E+02 -0.17084396737E+02  0.27957842988E+02  0.00000000000E+00 0. -1.
         -3    1    3    3    0  502  0.12334580905E+02  0.57058730815E+03 -0.18860531219E+03  0.60107735100E+03  0.00000000000E+00 0.  1.
         13    1    5    5    0    0  0.39177753949E+02 -0.13334963145E+03  0.88583627537E+02  0.16481528958E+03  0.00000000000E+00 0.  1.
        -13    1    5    5    0    0 -0.30529347827E+02 -0.18671214047E+03  0.21652471876E+03  0.28753507318E+03  0.00000000000E+00 0. -1.
          1    1    6    6  503    0 -0.22558244393E+02 -0.23284791806E+03 -0.42503537050E+03  0.48516192504E+03  0.00000000000E+00 0. -1.
         -1    1    6    6    0  503  0.12939686926E+02 -0.36667460548E+02 -0.16888254613E+03  0.17330104601E+03  0.00000000000E+00 0.  1.
<mgrwt>
<rscale>  0 0.16680957E+04</rscale>
<asrwt>0</asrwt>
<pdfrwt beam="1">  1        2 0.17187291E+00 0.16680957E+04</pdfrwt>
<pdfrwt beam="2">  1       -1 0.95796096E-01 0.16680957E+04</pdfrwt>
<totfact> 0.24311746E+01</totfact>
</mgrwt>
</event>
<event>
12    7  0.1698542E-007  0.2967497E+04  0.7818608E-02  0.8253074E-01
         -1   -1    0    0    0  501 -0.00000000000E+00  0.00000000000E+00  0.46633181634E+03  0.46633181634E+03  0.00000000000E+00 0.  1.
          2   -1    0    0  501    0  0.00000000000E+00 -0.00000000000E+00 -0.47209074805E+04  0.47209074805E+04  0.00000000000E+00 0. -1.
         24    2    1    2    0    0  0.13906418232E+03  0.86244316807E+03 -0.14166532637E+03  0.88847769470E+03  0.78590612173E+02 0.  0.
        254    2    1    2    0    0 -0.13906418232E+03 -0.86244316807E+03 -0.41129103378E+04  0.42987616022E+04  0.89452378418E+03 0.  0.
         23    2    4    4    0    0  0.19495571187E+03 -0.39378817807E+03 -0.66624401948E+03  0.80320497889E+03  0.90444932679E+02 0.  0.
         23    2    4    4    0    0 -0.33401989419E+03 -0.46865499001E+03 -0.34466663183E+04  0.34955566233E+04  0.90557204414E+02 0.  0.
          4    1    3    3  502    0  0.80984833070E+02  0.28657508613E+03 -0.33621947743E+02  0.29969027102E+03  0.00000000000E+00 0. -1.
         -3    1    3    3    0  502  0.58079349254E+02  0.57586808194E+03 -0.10804337862E+03  0.58878742367E+03  0.00000000000E+00 0.  1.
         13    1    5    5    0    0  0.12429112081E+03 -0.28283038251E+03 -0.39253640028E+03  0.49952590876E+03  0.00000000000E+00 0.  1.
        -13    1    5    5    0    0  0.70664591064E+02 -0.11095779556E+03 -0.27370761921E+03  0.30367907013E+03  0.00000000000E+00 0. -1.
          2    1    6    6  503    0 -0.13385705869E+03 -0.25463179152E+03 -0.15673199017E+04  0.15935014075E+04  0.00000000000E+00 0.  1.
         -2    1    6    6    0  503 -0.20016283551E+03 -0.21402319849E+03 -0.18793464166E+04  0.19020552158E+04  0.00000000000E+00 0. -1.
<mgrwt>
<rscale>  0 0.29674968E+04</rscale>
<asrwt>0</asrwt>
<pdfrwt beam="1">  1        2 0.72629348E+00 0.29674968E+04</pdfrwt>
<pdfrwt beam="2">  1       -1 0.71743355E-01 0.29674968E+04</pdfrwt>
<totfact> 0.13928343E-01</totfact>
</mgrwt>
</event>
<event>
12    7  0.1698542E-007  0.1585705E+04  0.7818608E-02  0.8829378E-01
          2   -1    0    0  501    0  0.00000000000E+00  0.00000000000E+00  0.32186706969E+04  0.32186706969E+04  0.00000000000E+00 0. -1.
         -1   -1    0    0    0  501 -0.00000000000E+00 -0.00000000000E+00 -0.19530267336E+03  0.19530267336E+03  0.00000000000E+00 0.  1.
         24    2    1    2    0    0 -0.26403208801E+03  0.10315388197E+03  0.19592542239E+04  0.19812517329E+04  0.79546516243E+02 0.  0.
        254    2    1    2    0    0  0.26403208801E+03 -0.10315388197E+03  0.10641137996E+04  0.14327216374E+04  0.91651483611E+03 0.  0.
         23    2    4    4    0    0  0.47475969778E+03 -0.36470696027E+03  0.60027013954E+03  0.85266307939E+03  0.91116129363E+02 0.  0.
         23    2    4    4    0    0 -0.21072760977E+03  0.26155307830E+03  0.46384366009E+03  0.58005855799E+03  0.92200061820E+02 0.  0.
          4    1    3    3  502    0 -0.24180519948E+03  0.74640352013E+02  0.18139556051E+04  0.18315228292E+04  0.00000000000E+00 0. -1.
         -3    1    3    3    0  502 -0.22226888532E+02  0.28513529957E+02  0.14529861877E+03  0.14972890363E+03  0.00000000000E+00 0.  1.
         13    1    5    5    0    0  0.10904639727E+03 -0.77439352392E+02  0.84545134940E+02  0.15822720973E+03  0.00000000000E+00 0.  1.
        -13    1    5    5    0    0  0.36571330051E+03 -0.28726760788E+03  0.51572500460E+03  0.69443586966E+03  0.00000000000E+00 0. -1.
          2    1    6    6  503    0 -0.16830596542E+03  0.23196600770E+03  0.43475948932E+03  0.52072155734E+03  0.00000000000E+00 0. -1.
         -2    1    6    6    0  503 -0.42421644355E+02  0.29587070608E+02  0.29084170769E+02  0.59337000651E+02  0.00000000000E+00 0.  1.
<mgrwt>
<rscale>  0 0.15857049E+04</rscale>
<asrwt>0</asrwt>
<pdfrwt beam="1">  1        2 0.49518007E+00 0.15857049E+04</pdfrwt>
<pdfrwt beam="2">  1       -1 0.30046567E-01 0.15857049E+04</pdfrwt>
<totfact> 0.14144124E+01</totfact>
</mgrwt>
</event>
<event>
12    7  0.1698542E-007  0.1059884E+04  0.7818608E-02  0.9245198E-01
         -1   -1    0    0    0  501 -0.00000000000E+00  0.00000000000E+00  0.27569314989E+03  0.27569314989E+03  0.00000000000E+00 0.  1.
          2   -1    0    0  501    0  0.00000000000E+00 -0.00000000000E+00 -0.10186640723E+04  0.10186640723E+04  0.00000000000E+00 0. -1.
         24    2    1    2    0    0  0.10471438809E+03 -0.66916759976E+02 -0.74467095562E+02  0.16595440087E+03  0.80947878329E+02 0.  0.
        254    2    1    2    0    0 -0.10471438809E+03  0.66916759976E+02 -0.66850382680E+03  0.11284028213E+04  0.90052906936E+03 0.  0.
         23    2    4    4    0    0 -0.19037537941E+03  0.40466453173E+03 -0.61174323330E+03  0.76355890442E+03  0.93788318625E+02 0.  0.
         23    2    4    4    0    0  0.85660991320E+02 -0.33774777175E+03 -0.56760593504E+02  0.36484391685E+03  0.92075816208E+02 0.  0.
          4    1    3    3  502    0  0.77218496160E+02 -0.38033007111E+02 -0.88711723160E+02  0.12360815347E+03  0.00000000000E+00 0. -1.
         -3    1    3    3    0  502  0.27495891933E+02 -0.28883752865E+02  0.14244627599E+02  0.42346247392E+02  0.00000000000E+00 0.  1.
         13    1    5    5    0    0 -0.48853856877E+02  0.40534462638E+02 -0.58773661865E+02  0.86510608148E+02  0.00000000000E+00 0.  1.
        -13    1    5    5    0    0 -0.14152152253E+03  0.36413006909E+03 -0.55296957143E+03  0.67704829627E+03  0.00000000000E+00 0. -1.
          4    1    6    6  503    0  0.48019876492E+00  0.46624437156E+01 -0.71179252275E+01  0.85225484334E+01  0.00000000000E+00 0.  1.
         -4    1    6    6    0  503  0.85180792555E+02 -0.34241021547E+03 -0.49642668277E+02  0.35632136842E+03  0.00000000000E+00 0. -1.
<mgrwt>
<rscale>  0 0.10598843E+04</rscale>
<asrwt>0</asrwt>
<pdfrwt beam="1">  1        2 0.15671755E+00 0.10598843E+04</pdfrwt>
<pdfrwt beam="2">  1       -1 0.42414331E-01 0.10598843E+04</pdfrwt>
<totfact> 0.15192216E+02</totfact>
</mgrwt>
</event>
<event>
12    7  0.1698542E-007  0.2743821E+04  0.7818608E-02  0.8320925E-01
          2   -1    0    0  501    0  0.00000000000E+00  0.00000000000E+00  0.23391897738E+04  0.23391897738E+04  0.00000000000E+00 0. -1.
         -1   -1    0    0    0  501 -0.00000000000E+00 -0.00000000000E+00 -0.80461140395E+03  0.80461140395E+03  0.00000000000E+00 0.  1.
         24    2    1    2    0    0  0.26040035857E+03 -0.10221579839E+04  0.13671257062E+04  0.17285742737E+04  0.79504919546E+02 0.  0.
        254    2    1    2    0    0 -0.26040035857E+03  0.10221579839E+04  0.16745266363E+03  0.14152269041E+04  0.92855344736E+03 0.  0.
         23    2    4    4    0    0  0.31298246862E+03  0.56287938104E+03  0.17822605182E+03  0.67493321944E+03  0.94758123142E+02 0.  0.
         23    2    4    4    0    0 -0.57338282719E+03  0.45927860287E+03 -0.10773388188E+02  0.74029368461E+03  0.90630966092E+02 0.  0.
          2    1    3    3  502    0  0.18041984235E+03 -0.83429217757E+03  0.11089679856E+04  0.13994301519E+04  0.00000000000E+00 0. -1.
         -1    1    3    3    0  502  0.79980516215E+02 -0.18786580634E+03  0.25815772060E+03  0.32914412173E+03  0.00000000000E+00 0.  1.
         13    1    5    5    0    0  0.22062516375E+03  0.42940236881E+03  0.93132969764E+02  0.49166615429E+03  0.00000000000E+00 0.  1.
        -13    1    5    5    0    0  0.92357304871E+02  0.13347701223E+03  0.85093082053E+02  0.18326706515E+03  0.00000000000E+00 0. -1.
          2    1    6    6  503    0 -0.18511925238E+03  0.99417096364E+02  0.11495417171E+02  0.21044011325E+03  0.00000000000E+00 0. -1.
         -2    1    6    6    0  503 -0.38826357482E+03  0.35986150650E+03 -0.22268805359E+02  0.52985357136E+03  0.00000000000E+00 0.  1.
<mgrwt>
<rscale>  0 0.27438213E+04</rscale>
<asrwt>0</asrwt>
<pdfrwt beam="1">  1        2 0.35987535E+00 0.27438213E+04</pdfrwt>
<pdfrwt beam="2">  1       -1 0.12378637E+00 0.27438213E+04</pdfrwt>
<totfact> 0.24542126E+00</totfact>
</mgrwt>
</event>
<event>
12    7  0.1698542E-007  0.1750387E+04  0.7818608E-02  0.8733137E-01
          4   -1    0    0  501    0  0.00000000000E+00  0.00000000000E+00  0.38064902260E+03  0.38064902260E+03  0.00000000000E+00 0. -1.
         -3   -1    0    0    0  501 -0.00000000000E+00 -0.00000000000E+00 -0.20122580781E+04  0.20122580781E+04  0.00000000000E+00 0.  1.
         24    2    1    2    0    0  0.30651717307E+03 -0.19797122679E+03 -0.13217293371E+04  0.13735811703E+04  0.81310558873E+02 0.  0.
        254    2    1    2    0    0 -0.30651717307E+03  0.19797122679E+03 -0.30987971840E+03  0.10193259303E+04  0.89991917880E+03 0.  0.
         23    2    4    4    0    0 -0.34685463643E+03  0.36377542039E+03 -0.52464068774E+03  0.73301286907E+03  0.97053179729E+02 0.  0.
         23    2    4    4    0    0  0.40337463361E+02 -0.16580419361E+03  0.21476096933E+03  0.28631306128E+03  0.82065544170E+02 0.  0.
          2    1    3    3  502    0  0.64498645138E+02 -0.18160263879E+02 -0.16224055181E+03  0.17553309392E+03  0.00000000000E+00 0. -1.
         -1    1    3    3    0  502  0.24201852793E+03 -0.17981096291E+03 -0.11594887853E+04  0.11980480764E+04  0.00000000000E+00 0.  1.
         13    1    5    5    0    0 -0.89151863000E+02  0.16081020298E+03 -0.18570401340E+03  0.26133112454E+03  0.00000000000E+00 0. -1.
        -13    1    5    5    0    0 -0.25770277343E+03  0.20296521741E+03 -0.33893667433E+03  0.47168174453E+03  0.00000000000E+00 0.  1.
          4    1    6    6  503    0 -0.95668073853E+01 -0.78403956268E+02  0.50750146807E+02  0.93884405324E+02  0.00000000000E+00 0. -1.
         -4    1    6    6    0  503  0.49904270747E+02 -0.87400237338E+02  0.16401082253E+03  0.19242865595E+03  0.00000000000E+00 0.  1.
<mgrwt>
<rscale>  0 0.17503875E+04</rscale>
<asrwt>0</asrwt>
<pdfrwt beam="1">  1        4 0.58561387E-01 0.17503875E+04</pdfrwt>
<pdfrwt beam="2">  1       -3 0.30957817E+00 0.17503875E+04</pdfrwt>
<totfact> 0.20210382E-01</totfact>
</mgrwt>
</event>
<event>
12    7  0.1698542E-007  0.2335973E+04  0.7818608E-02  0.8463871E-01
          2   -1    0    0  501    0  0.00000000000E+00  0.00000000000E+00  0.29492636500E+04  0.29492636500E+04  0.00000000000E+00 0. -1.
         -3   -1    0    0    0  501 -0.00000000000E+00 -0.00000000000E+00 -0.46255374628E+03  0.46255374628E+03  0.00000000000E+00 0.  1.
         24    2    1    2    0    0  0.54576239688E+02  0.89401912313E+03  0.43435115294E+03  0.99864529916E+03  0.79892121154E+02 0.  0.
        254    2    1    2    0    0 -0.54576239688E+02 -0.89401912313E+03  0.20523587507E+04  0.24131720971E+04  0.89943002504E+03 0.  0.
         23    2    4    4    0    0 -0.17845722351E+03  0.91705515102E+02  0.15768666120E+03  0.27141456009E+03  0.92433209308E+02 0.  0.
         23    2    4    4    0    0  0.12388098383E+03 -0.98572463823E+03  0.18946720895E+04  0.21417575370E+04  0.10170280144E+03 0.  0.
          4    1    3    3  502    0  0.55197626604E+02  0.85555166167E+03  0.43220552383E+03  0.96011303428E+03  0.00000000000E+00 0. -1.
         -3    1    3    3    0  502 -0.62138691665E+00  0.38467461453E+02  0.21456291144E+01  0.38532264878E+02  0.00000000000E+00 0.  1.
         13    1    5    5    0    0  0.39075351992E+01 -0.75870314048E+01 -0.27981324678E+01  0.89811704236E+01  0.00000000000E+00 0.  1.
        -13    1    5    5    0    0 -0.18236475871E+03  0.99292546507E+02  0.16048479367E+03  0.26243338966E+03  0.00000000000E+00 0. -1.
          3    1    6    6  503    0  0.13948670324E+03 -0.94061519275E+03  0.18001339657E+04  0.20358525918E+04  0.00000000000E+00 0. -1.
         -3    1    6    6    0  503 -0.15605719414E+02 -0.45109445474E+02  0.94538123825E+02  0.10590494514E+03  0.00000000000E+00 0.  1.
<mgrwt>
<rscale>  0 0.23359734E+04</rscale>
<asrwt>0</asrwt>
<pdfrwt beam="1">  1        2 0.45373286E+00 0.23359734E+04</pdfrwt>
<pdfrwt beam="2">  1       -3 0.71162117E-01 0.23359734E+04</pdfrwt>
<totfact> 0.20491266E+00</totfact>
</mgrwt>
</event>
<event>
12    7  0.1698542E-007  0.1335712E+04  0.7818608E-02  0.9001715E-01
         -1   -1    0    0    0  501 -0.00000000000E+00  0.00000000000E+00  0.17317206527E+03  0.17317206527E+03  0.00000000000E+00 0.  1.
          2   -1    0    0  501    0  0.00000000000E+00 -0.00000000000E+00 -0.25756575912E+04  0.25756575912E+04  0.00000000000E+00 0. -1.
         24    2    1    2    0    0 -0.24288600086E+03  0.24043266087E+03 -0.58179289522E+03  0.67952788525E+03  0.80459306945E+02 0.  0.
        254    2    1    2    0    0  0.24288600086E+03 -0.24043266087E+03 -0.18206926307E+04  0.20693017712E+04  0.92210991266E+03 0.  0.
         23    2    4    4    0    0  0.29724183469E+03  0.29796704939E+03 -0.89431200203E+03  0.99241860445E+03  0.89239333640E+02 0.  0.
         23    2    4    4    0    0 -0.54355833826E+02 -0.53839971026E+03 -0.92638062868E+03  0.10768831668E+04  0.93099307226E+02 0.  0.
          4    1    3    3  502    0 -0.44330182428E+01 -0.30026019666E+01 -0.80934945751E-01  0.53547940928E+01  0.00000000000E+00 0. -1.
         -3    1    3    3    0  502 -0.23845298262E+03  0.24343526284E+03 -0.58171196028E+03  0.67417309116E+03  0.00000000000E+00 0.  1.
         13    1    5    5    0    0  0.16156540157E+03  0.16911166662E+03 -0.59637099886E+03  0.64059386748E+03  0.00000000000E+00 0.  1.
        -13    1    5    5    0    0  0.13567643312E+03  0.12885538277E+03 -0.29794100317E+03  0.35182473697E+03  0.00000000000E+00 0. -1.
          4    1    6    6  503    0 -0.24786171180E+02 -0.15585939748E+03 -0.35659819272E+03  0.38995996861E+03  0.00000000000E+00 0. -1.
         -4    1    6    6    0  503 -0.29569662646E+02 -0.38254031278E+03 -0.56978243596E+03  0.68692319817E+03  0.00000000000E+00 0.  1.
<mgrwt>
<rscale>  0 0.13357125E+04</rscale>
<asrwt>0</asrwt>
<pdfrwt beam="1">  1        2 0.39625500E+00 0.13357125E+04</pdfrwt>
<pdfrwt beam="2">  1       -1 0.26641857E-01 0.13357125E+04</pdfrwt>
<totfact> 0.44185601E+01</totfact>
</mgrwt>
</event>
<event>
12    7  0.1698542E-007  0.2025548E+04  0.7818608E-02  0.8594768E-01
          2   -1    0    0  501    0  0.00000000000E+00  0.00000000000E+00  0.10945535920E+04  0.10945535920E+04  0.00000000000E+00 0. -1.
         -1   -1    0    0    0  501 -0.00000000000E+00 -0.00000000000E+00 -0.93710489334E+03  0.93710489334E+03  0.00000000000E+00 0.  1.
         24    2    1    2    0    0 -0.12070050077E+03 -0.24131661139E+03  0.83391235696E+03  0.87974393143E+03  0.75744623518E+02 0.  0.
        254    2    1    2    0    0  0.12070050077E+03  0.24131661139E+03 -0.67646365825E+03  0.11519145540E+04  0.89246946214E+03 0.  0.
         23    2    4    4    0    0  0.29449338474E+02 -0.34236219362E+02  0.20021818445E+03  0.22416414408E+03  0.90126909709E+02 0.  0.
         23    2    4    4    0    0  0.91251162300E+02  0.27555283075E+03 -0.87668184270E+03  0.92775040987E+03  0.88846117181E+02 0.  0.
          4    1    3    3  502    0 -0.10454745439E+03 -0.23296074878E+03  0.81235149429E+03  0.85153733387E+03  0.00000000000E+00 0. -1.
         -3    1    3    3    0  502 -0.16153046386E+02 -0.83558626091E+01  0.21560862664E+02  0.28206597567E+02  0.00000000000E+00 0.  1.
         13    1    5    5    0    0  0.16905068343E+02 -0.10569388104E+02  0.19604388162E+03  0.19705506038E+03  0.00000000000E+00 0. -1.
        -13    1    5    5    0    0  0.12544270131E+02 -0.23666831258E+02  0.41743028291E+01  0.27109083699E+02  0.00000000000E+00 0.  1.
          4    1    6    6  503    0  0.63804393560E+02  0.23051451156E+03 -0.79762701183E+03  0.83271651280E+03  0.00000000000E+00 0. -1.
         -4    1    6    6    0  503  0.27446768740E+02  0.45038319188E+02 -0.79054830869E+02  0.95033897075E+02  0.00000000000E+00 0.  1.
<mgrwt>
<rscale>  0 0.20255483E+04</rscale>
<asrwt>0</asrwt>
<pdfrwt beam="1">  1        2 0.16839286E+00 0.20255483E+04</pdfrwt>
<pdfrwt beam="2">  1       -1 0.14416998E+00 0.20255483E+04</pdfrwt>
<totfact> 0.90068154E+00</totfact>
</mgrwt>
</event>
<event>
12    7  0.1698542E-007  0.1934907E+04  0.7818608E-02  0.8637673E-01
         -1   -1    0    0    0  501 -0.00000000000E+00  0.00000000000E+00  0.68508873687E+03  0.68508873687E+03  0.00000000000E+00 0.  1.
          2   -1    0    0  501    0  0.00000000000E+00 -0.00000000000E+00 -0.13661976069E+04  0.13661976069E+04  0.00000000000E+00 0. -1.
         24    2    1    2    0    0 -0.35429558833E+03  0.24988661631E+03 -0.92528743213E+03  0.10250013948E+04  0.80637102659E+02 0.  0.
        254    2    1    2    0    0  0.35429558833E+03 -0.24988661631E+03  0.24417856215E+03  0.10262849489E+04  0.89759063124E+03 0.  0.
         23    2    4    4    0    0  0.22187659144E+03 -0.48688779379E+03  0.42308936950E+03  0.68815733999E+03  0.90922848757E+02 0.  0.
         23    2    4    4    0    0  0.13241899689E+03  0.23700117748E+03 -0.17891080736E+03  0.33812760895E+03  0.92827011621E+02 0.  0.
          4    1    3    3  502    0 -0.28449558783E+03  0.22573486239E+03 -0.81513403828E+03  0.89237742461E+03  0.00000000000E+00 0. -1.
         -3    1    3    3    0  502 -0.69800000498E+02  0.24151753925E+02 -0.11015339385E+03  0.13262397017E+03  0.00000000000E+00 0.  1.
         13    1    5    5    0    0  0.17898715455E+03 -0.33084231576E+03  0.33605024785E+03  0.50440341838E+03  0.00000000000E+00 0. -1.
        -13    1    5    5    0    0  0.42889436894E+02 -0.15604547802E+03  0.87039121650E+02  0.18375392161E+03  0.00000000000E+00 0.  1.
          2    1    6    6  503    0 -0.12244844342E+02  0.41491693105E+02 -0.33961032267E+02  0.54998622913E+02  0.00000000000E+00 0.  1.
         -2    1    6    6    0  503  0.14466384123E+03  0.19550948437E+03 -0.14494977509E+03  0.28312898604E+03  0.00000000000E+00 0. -1.
<mgrwt>
<rscale>  0 0.19349073E+04</rscale>
<asrwt>0</asrwt>
<pdfrwt beam="1">  1        2 0.21018425E+00 0.19349073E+04</pdfrwt>
<pdfrwt beam="2">  1       -1 0.10539827E+00 0.19349073E+04</pdfrwt>
<totfact> 0.13593803E+01</totfact>
</mgrwt>
</event>
<event>
12    7  0.1698542E-007  0.2018272E+04  0.7818608E-02  0.8598125E-01
         -1   -1    0    0    0  501 -0.00000000000E+00  0.00000000000E+00  0.51795111777E+03  0.51795111777E+03  0.00000000000E+00 0.  1.
          2   -1    0    0  501    0  0.00000000000E+00 -0.00000000000E+00 -0.19661228106E+04  0.19661228106E+04  0.00000000000E+00 0. -1.
         24    2    1    2    0    0  0.31504413591E+03 -0.71448655917E+03 -0.33374504195E+03  0.85292581520E+03  0.79704720068E+02 0.  0.
        254    2    1    2    0    0 -0.31504413591E+03  0.71448655917E+03 -0.11144266508E+04  0.16311481131E+04  0.89941845437E+03 0.  0.
         23    2    4    4    0    0 -0.57294645673E+03  0.41213306331E+03 -0.41889236570E+03  0.82507856597E+03  0.84631683422E+02 0.  0.
         23    2    4    4    0    0  0.25790232082E+03  0.30235349586E+03 -0.69553428514E+03  0.80606954716E+03  0.89715826389E+02 0.  0.
          4    1    3    3  502    0  0.31005673013E+03 -0.69304294995E+03 -0.30874622886E+03  0.81961450708E+03  0.00000000000E+00 0. -1.
         -3    1    3    3    0  502  0.49874057758E+01 -0.21443609218E+02 -0.24998813093E+02  0.33311308121E+02  0.00000000000E+00 0.  1.
         13    1    5    5    0    0 -0.27331184847E+03  0.15113234916E+03 -0.16114225049E+03  0.35143588088E+03  0.00000000000E+00 0.  1.
        -13    1    5    5    0    0 -0.29963460826E+03  0.26100071415E+03 -0.25775011521E+03  0.47364268510E+03  0.00000000000E+00 0. -1.
          1    1    6    6  503    0  0.82599195625E+02  0.48898867057E+02 -0.21143028972E+03  0.23219925437E+03  0.00000000000E+00 0. -1.
         -1    1    6    6    0  503  0.17530312519E+03  0.25345462880E+03 -0.48410399542E+03  0.57387029279E+03  0.00000000000E+00 0.  1.
<mgrwt>
<rscale>  0 0.20182720E+04</rscale>
<asrwt>0</asrwt>
<pdfrwt beam="1">  1        2 0.30248043E+00 0.20182720E+04</pdfrwt>
<pdfrwt beam="2">  1       -1 0.79684788E-01 0.20182720E+04</pdfrwt>
<totfact> 0.11592789E+01</totfact>
</mgrwt>
</event>
<event>
12    7  0.1698542E-007  0.1891976E+04  0.7818608E-02  0.8658861E-01
         -1   -1    0    0    0  501 -0.00000000000E+00  0.00000000000E+00  0.49553189332E+03  0.49553189332E+03  0.00000000000E+00 0.  1.
          2   -1    0    0  501    0  0.00000000000E+00 -0.00000000000E+00 -0.18059237843E+04  0.18059237843E+04  0.00000000000E+00 0. -1.
         24    2    1    2    0    0  0.17059438389E+03 -0.59691677798E+03 -0.96827766972E+03  0.11529032438E+04  0.78817258575E+02 0.  0.
        254    2    1    2    0    0 -0.17059438389E+03  0.59691677798E+03 -0.34211422130E+03  0.11485524338E+04  0.90372477514E+03 0.  0.
         23    2    4    4    0    0 -0.10768848105E+03  0.50602941084E+03  0.21978410288E+03  0.56924750656E+03  0.89861550539E+02 0.  0.
         23    2    4    4    0    0 -0.62905902847E+02  0.90887367145E+02 -0.56189832418E+03  0.57930492727E+03  0.87446017236E+02 0.  0.
          2    1    3    3  502    0  0.16178168504E+03 -0.47038750679E+03 -0.80262385876E+03  0.94426838283E+03  0.00000000000E+00 0. -1.
         -1    1    3    3    0  502  0.88126988510E+01 -0.12652927120E+03 -0.16565381095E+03  0.20863486098E+03  0.00000000000E+00 0.  1.
         13    1    5    5    0    0 -0.37569207520E+02  0.46015440446E+02  0.31831598277E+02  0.67395228035E+02  0.00000000000E+00 0. -1.
        -13    1    5    5    0    0 -0.70119273526E+02  0.46001397039E+03  0.18795250461E+03  0.50185227853E+03  0.00000000000E+00 0.  1.
          3    1    6    6  503    0 -0.37103779738E+02 -0.78227991587E+01 -0.12346119524E+03  0.12915321671E+03  0.00000000000E+00 0. -1.
         -3    1    6    6    0  503 -0.25802123110E+02  0.98710166304E+02 -0.43843712894E+03  0.45015171056E+03  0.00000000000E+00 0.  1.
<mgrwt>
<rscale>  0 0.18919755E+04</rscale>
<asrwt>0</asrwt>
<pdfrwt beam="1">  1        2 0.27783443E+00 0.18919755E+04</pdfrwt>
<pdfrwt beam="2">  1       -1 0.76235676E-01 0.18919755E+04</pdfrwt>
<totfact> 0.15789758E+01</totfact>
</mgrwt>
</event>
<event>
12    7  0.1792523E-007  0.1778188E+04  0.7818608E-02  0.8717985E-01
          2   -1    0    0  501    0  0.00000000000E+00  0.00000000000E+00  0.14369340650E+04  0.14369340650E+04  0.00000000000E+00 0. -1.
         -1   -1    0    0    0  501 -0.00000000000E+00 -0.00000000000E+00 -0.55012148466E+03  0.55012148466E+03  0.00000000000E+00 0.  1.
         24    2    1    2    0    0  0.58619800780E+02 -0.19829661017E+03 -0.36077492215E+03  0.42935281923E+03  0.10689935582E+03 0.  0.
        254    2    1    2    0    0 -0.58619800780E+02  0.19829661017E+03  0.12475875025E+04  0.15577027304E+04  0.90950832506E+03 0.  0.
         23    2    4    4    0    0 -0.60352333254E+02  0.27619868133E+03 -0.72778574010E+01  0.29713440026E+03  0.91146963287E+02 0.  0.
         23    2    4    4    0    0  0.17325324736E+01 -0.77902071154E+02  0.12548653599E+04  0.12605683302E+04  0.90959931860E+02 0.  0.
          2    1    3    3  502    0  0.11879302259E+02  0.10706355344E+00 -0.88174306186E+02  0.88970992779E+02  0.00000000000E+00 0. -1.
         -1    1    3    3    0  502  0.46740498521E+02 -0.19840367372E+03 -0.27260061597E+03  0.34038182645E+03  0.00000000000E+00 0.  1.
         13    1    5    5    0    0 -0.54004651339E+02  0.63839964762E+02  0.87617391637E+01  0.84076224583E+02  0.00000000000E+00 0. -1.
        -13    1    5    5    0    0 -0.63476819154E+01  0.21235871656E+03 -0.16039596565E+02  0.21305817568E+03  0.00000000000E+00 0.  1.
          2    1    6    6  503    0  0.34484950381E+02 -0.27160291143E+01  0.25331423167E+03  0.25566518845E+03  0.00000000000E+00 0. -1.
         -2    1    6    6    0  503 -0.32752417907E+02 -0.75186042039E+02  0.10015511282E+04  0.10049031417E+04  0.00000000000E+00 0.  1.
<mgrwt>
<rscale>  0 0.17781882E+04</rscale>
<asrwt>0</asrwt>
<pdfrwt beam="1">  1        2 0.22106678E+00 0.17781882E+04</pdfrwt>
<pdfrwt beam="2">  1       -1 0.84634075E-01 0.17781882E+04</pdfrwt>
<totfact> 0.20530831E+01</totfact>
</mgrwt>
</event>
<event>
12    7  0.1698542E-007  0.1721691E+04  0.7818608E-02  0.8749089E-01
          2   -1    0    0  501    0  0.00000000000E+00  0.00000000000E+00  0.68970551187E+03  0.68970551187E+03  0.00000000000E+00 0. -1.
         -1   -1    0    0    0  501 -0.00000000000E+00 -0.00000000000E+00 -0.10744513192E+04  0.10744513192E+04  0.00000000000E+00 0.  1.
         24    2    1    2    0    0  0.31795283216E+03  0.24101197467E+03 -0.62191380242E+03  0.74195358168E+03  0.67361445223E+02 0.  0.
        254    2    1    2    0    0 -0.31795283216E+03 -0.24101197467E+03  0.23716799509E+03  0.10222032494E+04  0.91075246349E+03 0.  0.
         23    2    4    4    0    0 -0.42879924833E+03  0.59832919470E+02  0.44760198181E+03  0.62933147426E+03  0.90894426432E+02 0.  0.
         23    2    4    4    0    0  0.11084641617E+03 -0.30084489414E+03 -0.21043398672E+03  0.39287177512E+03  0.85271276591E+02 0.  0.
          4    1    3    3  502    0  0.56780737155E+02  0.72774520401E+02 -0.11566409902E+03  0.14798096747E+03  0.00000000000E+00 0. -1.
         -3    1    3    3    0  502  0.26117209501E+03  0.16823745427E+03 -0.50624970341E+03  0.59397261421E+03  0.00000000000E+00 0.  1.
         13    1    5    5    0    0 -0.11116944368E+01  0.87485045997E+00 -0.41912933259E+01  0.44235921593E+01  0.00000000000E+00 0.  1.
        -13    1    5    5    0    0 -0.42768755390E+03  0.58958069010E+02  0.45179327514E+03  0.62490788211E+03  0.00000000000E+00 0. -1.
          2    1    6    6  503    0  0.40869257918E+02 -0.20609128198E+03 -0.16286767793E+03  0.26583790788E+03  0.00000000000E+00 0. -1.
         -2    1    6    6    0  503  0.69977158253E+02 -0.94753612167E+02 -0.47566308789E+02  0.12703386725E+03  0.00000000000E+00 0.  1.
<mgrwt>
<rscale>  0 0.17216910E+04</rscale>
<asrwt>0</asrwt>
<pdfrwt beam="1">  1        2 0.10610854E+00 0.17216910E+04</pdfrwt>
<pdfrwt beam="2">  1       -1 0.16530020E+00 0.17216910E+04</pdfrwt>
<totfact> 0.12074164E+01</totfact>
</mgrwt>
</event>
<event>
12    7  0.1698542E-007  0.1826879E+04  0.7818608E-02  0.8692134E-01
         -1   -1    0    0    0  501 -0.00000000000E+00  0.00000000000E+00  0.35074316938E+03  0.35074316938E+03  0.00000000000E+00 0.  1.
          2   -1    0    0  501    0  0.00000000000E+00 -0.00000000000E+00 -0.23788691579E+04  0.23788691579E+04  0.00000000000E+00 0. -1.
         24    2    1    2    0    0  0.42063109596E+03 -0.42455273818E+03 -0.12807847074E+04  0.14156150870E+04  0.79881546176E+02 0.  0.
        254    2    1    2    0    0 -0.42063109596E+03  0.42455273818E+03 -0.74734128105E+03  0.13139972402E+04  0.90049664662E+03 0.  0.
         23    2    4    4    0    0 -0.22298030146E+03  0.68729556371E+03 -0.59165103495E+03  0.93832442762E+03  0.91139330615E+02 0.  0.
         23    2    4    4    0    0 -0.19765079450E+03 -0.26274282553E+03 -0.15569024610E+03  0.37567281260E+03  0.93760228593E+02 0.  0.
          4    1    3    3  502    0  0.37300871112E+03 -0.36095680574E+03 -0.10451469045E+04  0.11669436003E+04  0.00000000000E+00 0. -1.
         -3    1    3    3    0  502  0.47622384841E+02 -0.63595932439E+02 -0.23563780293E+03  0.24867148677E+03  0.00000000000E+00 0.  1.
         13    1    5    5    0    0 -0.12913907806E+03  0.48893306105E+03 -0.37153856205E+03  0.62751361959E+03  0.00000000000E+00 0.  1.
        -13    1    5    5    0    0 -0.93841223399E+02  0.19836250266E+03 -0.22011247289E+03  0.31081080804E+03  0.00000000000E+00 0. -1.
          3    1    6    6  503    0 -0.15906354871E+02 -0.83133740022E+02 -0.55485363780E+02  0.10120699802E+03  0.00000000000E+00 0. -1.
         -3    1    6    6    0  503 -0.18174443962E+03 -0.17960908551E+03 -0.10020488232E+03  0.27446581458E+03  0.00000000000E+00 0.  1.
<mgrwt>
<rscale>  0 0.18268794E+04</rscale>
<asrwt>0</asrwt>
<pdfrwt beam="1">  1        2 0.36597986E+00 0.18268794E+04</pdfrwt>
<pdfrwt beam="2">  1       -1 0.53960489E-01 0.18268794E+04</pdfrwt>
<totfact> 0.15212298E+01</totfact>
</mgrwt>
</event>
<event>
12    7  0.1698542E-007  0.1661127E+04  0.7818608E-02  0.8783851E-01
          2   -1    0    0  501    0  0.00000000000E+00  0.00000000000E+00  0.27265633445E+04  0.27265633445E+04  0.00000000000E+00 0. -1.
         -1   -1    0    0    0  501 -0.00000000000E+00 -0.00000000000E+00 -0.25300551446E+03  0.25300551446E+03  0.00000000000E+00 0.  1.
         24    2    1    2    0    0 -0.19109175606E+03 -0.95982024396E+02 -0.93200708251E+02  0.24624070955E+03  0.78863849650E+02 0.  0.
        254    2    1    2    0    0  0.19109175606E+03  0.95982024396E+02  0.25667585383E+04  0.27333281495E+04  0.91493429833E+03 0.  0.
         23    2    4    4    0    0 -0.29652589988E+03  0.24135771709E+03  0.14486493059E+04  0.15010044833E+04  0.90821201033E+02 0.  0.
         23    2    4    4    0    0  0.48761765593E+03 -0.14537569270E+03  0.11181092324E+04  0.12323236661E+04  0.97715362483E+02 0.  0.
          4    1    3    3  502    0  0.71602131131E+01 -0.63764932056E+01 -0.80431313504E-01  0.95882629617E+01  0.00000000000E+00 0. -1.
         -3    1    3    3    0  502 -0.19825196917E+03 -0.89605531190E+02 -0.93120276937E+02  0.23665244659E+03  0.00000000000E+00 0.  1.
         13    1    5    5    0    0 -0.79502801205E+02  0.19140242139E+02  0.26976699300E+03  0.28188876314E+03  0.00000000000E+00 0.  1.
        -13    1    5    5    0    0 -0.21702309867E+03  0.22221747495E+03  0.11788823129E+04  0.12191157202E+04  0.00000000000E+00 0. -1.
          4    1    6    6  503    0  0.49797749596E+01  0.99172261873E+01  0.22369074578E+02  0.24970483203E+02  0.00000000000E+00 0.  1.
         -4    1    6    6    0  503  0.48263788097E+03 -0.15529291888E+03  0.10957401578E+04  0.12073531829E+04  0.00000000000E+00 0. -1.
<mgrwt>
<rscale>  0 0.16611268E+04</rscale>
<asrwt>0</asrwt>
<pdfrwt beam="1">  1        2 0.41947126E+00 0.16611268E+04</pdfrwt>
<pdfrwt beam="2">  1       -1 0.38923927E-01 0.16611268E+04</pdfrwt>
<totfact> 0.17870767E+01</totfact>
</mgrwt>
</event>
<event>
12    7  0.1698542E-007  0.1520158E+04  0.7818608E-02  0.8871158E-01
         -1   -1    0    0    0  501 -0.00000000000E+00  0.00000000000E+00  0.22071626405E+03  0.22071626405E+03  0.00000000000E+00 0.  1.
          2   -1    0    0  501    0  0.00000000000E+00 -0.00000000000E+00 -0.26174779468E+04  0.26174779468E+04  0.00000000000E+00 0. -1.
         24    2    1    2    0    0 -0.11976017977E+03 -0.43529733977E+03 -0.11284675970E+04  0.12179985188E+04  0.79088555787E+02 0.  0.
        254    2    1    2    0    0  0.11976017977E+03  0.43529733977E+03 -0.12682940857E+04  0.16201956920E+04  0.90146431873E+03 0.  0.
         23    2    4    4    0    0  0.73438180368E+02  0.70631958057E+03 -0.95979800408E+03  0.11974491615E+04  0.91606601518E+02 0.  0.
         23    2    4    4    0    0  0.46321999399E+02 -0.27102224081E+03 -0.30849608166E+03  0.42274653057E+03  0.89140417714E+02 0.  0.
          4    1    3    3  502    0 -0.11950680321E+03 -0.39886776763E+03 -0.10790727089E+04  0.11566223598E+04  0.00000000000E+00 0. -1.
         -3    1    3    3    0  502 -0.25337655331E+00 -0.36429572133E+02 -0.49394888155E+02  0.61376159063E+02  0.00000000000E+00 0.  1.
         13    1    5    5    0    0  0.74902612589E+02  0.29867847323E+03 -0.43389583164E+03  0.53205716277E+03  0.00000000000E+00 0.  1.
        -13    1    5    5    0    0 -0.14644322216E+01  0.40764110734E+03 -0.52590217244E+03  0.66539199870E+03  0.00000000000E+00 0. -1.
          4    1    6    6  503    0  0.54397821846E+02 -0.13819210733E+03 -0.11465303363E+03  0.18762062698E+03  0.00000000000E+00 0. -1.
         -4    1    6    6    0  503 -0.80758224470E+01 -0.13283013348E+03 -0.19384304803E+03  0.23512590359E+03  0.00000000000E+00 0.  1.
<mgrwt>
<rscale>  0 0.15201578E+04</rscale>
<asrwt>0</asrwt>
<pdfrwt beam="1">  1        2 0.40268889E+00 0.15201578E+04</pdfrwt>
<pdfrwt beam="2">  1       -1 0.33956351E-01 0.15201578E+04</pdfrwt>
<totfact> 0.26842529E+01</totfact>
</mgrwt>
</event>
<event>
12    7  0.1698542E-007  0.1558584E+04  0.7818608E-02  0.8846403E-01
          2   -1    0    0  501    0  0.00000000000E+00  0.00000000000E+00  0.20195429156E+04  0.20195429156E+04  0.00000000000E+00 0. -1.
         -1   -1    0    0    0  501 -0.00000000000E+00 -0.00000000000E+00 -0.30070962118E+03  0.30070962118E+03  0.00000000000E+00 0.  1.
         24    2    1    2    0    0  0.34086648661E+03 -0.37103001420E+03  0.60078210195E+03  0.78794008838E+03  0.77828116510E+02 0.  0.
        254    2    1    2    0    0 -0.34086648661E+03  0.37103001420E+03  0.11180511925E+04  0.15323124484E+04  0.91874356457E+03 0.  0.
         23    2    4    4    0    0 -0.40642494192E+03  0.29189038638E+03  0.11710552526E+03  0.52176357874E+03  0.90234677259E+02 0.  0.
         23    2    4    4    0    0  0.65558455307E+02  0.79139627822E+02  0.10009456672E+04  0.10105488697E+04  0.93572418582E+02 0.  0.
          2    1    3    3  502    0  0.32856034138E+03 -0.34542630876E+03  0.58747567343E+03  0.75657048554E+03  0.00000000000E+00 0. -1.
         -1    1    3    3    0  502  0.12306145231E+02 -0.25603705438E+02  0.13306428522E+02  0.31369602844E+02  0.00000000000E+00 0.  1.
         13    1    5    5    0    0 -0.15700751031E+03  0.14524984552E+03  0.86867134665E+02  0.23085661134E+03  0.00000000000E+00 0. -1.
        -13    1    5    5    0    0 -0.24941743160E+03  0.14664054086E+03  0.30238390595E+02  0.29090696739E+03  0.00000000000E+00 0.  1.
          4    1    6    6  503    0  0.26039869075E+02  0.93092922826E+02  0.73266888974E+03  0.73901831443E+03  0.00000000000E+00 0. -1.
         -4    1    6    6    0  503  0.39518586232E+02 -0.13953295005E+02  0.26827677751E+03  0.27153055528E+03  0.00000000000E+00 0.  1.
<mgrwt>
<rscale>  0 0.15585840E+04</rscale>
<asrwt>0</asrwt>
<pdfrwt beam="1">  1        2 0.31069890E+00 0.15585840E+04</pdfrwt>
<pdfrwt beam="2">  1       -1 0.46263020E-01 0.15585840E+04</pdfrwt>
<totfact> 0.33207651E+01</totfact>
</mgrwt>
</event>
<event>
12    7  0.1698542E-007  0.2307425E+04  0.7818608E-02  0.8474999E-01
         -1   -1    0    0    0  501 -0.00000000000E+00  0.00000000000E+00  0.40733143250E+03  0.40733143250E+03  0.00000000000E+00 0.  1.
          2   -1    0    0  501    0  0.00000000000E+00 -0.00000000000E+00 -0.32677370416E+04  0.32677370416E+04  0.00000000000E+00 0. -1.
         24    2    1    2    0    0 -0.62254402734E+03  0.75350850555E+03 -0.12184033121E+04  0.15640449623E+04  0.79961737448E+02 0.  0.
        254    2    1    2    0    0  0.62254402734E+03 -0.75350850555E+03 -0.16420022970E+04  0.21110235117E+04  0.89716920913E+03 0.  0.
         23    2    4    4    0    0 -0.75237545813E+02  0.13816909143E+03 -0.15580998043E+03  0.24061958517E+03  0.94178812056E+02 0.  0.
         23    2    4    4    0    0  0.69778157315E+03 -0.89167759698E+03 -0.14861923166E+04  0.18704039266E+04  0.87493918972E+02 0.  0.
          2    1    3    3  502    0 -0.87278468944E+02  0.13172185698E+03 -0.23742003081E+03  0.28519545890E+03  0.00000000000E+00 0. -1.
         -1    1    3    3    0  502 -0.53526555839E+03  0.62178664857E+03 -0.98098328126E+03  0.12788495034E+04  0.00000000000E+00 0.  1.
         13    1    5    5    0    0  0.17879261996E+02  0.26966958102E+02 -0.75751335606E+01  0.33230520418E+02  0.00000000000E+00 0. -1.
        -13    1    5    5    0    0 -0.93116807809E+02  0.11120213333E+03 -0.14823484687E+03  0.20738906475E+03  0.00000000000E+00 0.  1.
          1    1    6    6  503    0  0.33720963411E+03 -0.36429397441E+03 -0.67308510086E+03  0.83633963802E+03  0.00000000000E+00 0. -1.
         -1    1    6    6    0  503  0.36057193904E+03 -0.52738362258E+03 -0.81310721571E+03  0.10340642885E+04  0.00000000000E+00 0.  1.
<mgrwt>
<rscale>  0 0.23074245E+04</rscale>
<asrwt>0</asrwt>
<pdfrwt beam="1">  1        2 0.50272881E+00 0.23074245E+04</pdfrwt>
<pdfrwt beam="2">  1       -1 0.62666370E-01 0.23074245E+04</pdfrwt>
<totfact> 0.31207258E+00</totfact>
</mgrwt>
</event>
<event>
12    7  0.1698542E-007  0.1643178E+04  0.7818608E-02  0.8794453E-01
          2   -1    0    0  501    0  0.00000000000E+00  0.00000000000E+00  0.18598216879E+04  0.18598216879E+04  0.00000000000E+00 0. -1.
         -1   -1    0    0    0  501 -0.00000000000E+00 -0.00000000000E+00 -0.36294259916E+03  0.36294259916E+03  0.00000000000E+00 0.  1.
         24    2    1    2    0    0  0.51607788617E+03  0.19867297585E+03  0.32638567149E+03  0.64675652862E+03  0.77194979293E+02 0.  0.
        254    2    1    2    0    0 -0.51607788617E+03 -0.19867297585E+03  0.11704934173E+04  0.15760077584E+04  0.89885386961E+03 0.  0.
         23    2    4    4    0    0 -0.37812364759E+03  0.22712999317E+03  0.98403736748E+03  0.10820232641E+04  0.88765290787E+02 0.  0.
         23    2    4    4    0    0 -0.13795423858E+03 -0.42580296902E+03  0.18645604978E+03  0.49398449433E+03  0.94420769780E+02 0.  0.
          2    1    3    3  502    0  0.53360885490E+02  0.23357737297E+02  0.91063415004E+01  0.58956708248E+02  0.00000000000E+00 0. -1.
         -1    1    3    3    0  502  0.46271700068E+03  0.17531523855E+03  0.31727932999E+03  0.58779982037E+03  0.00000000000E+00 0.  1.
         13    1    5    5    0    0 -0.17399213130E+03  0.15584161811E+03  0.52432002319E+03  0.57399595679E+03  0.00000000000E+00 0.  1.
        -13    1    5    5    0    0 -0.20413151629E+03  0.71288375060E+02  0.45971734428E+03  0.50802730733E+03  0.00000000000E+00 0. -1.
          2    1    6    6  503    0 -0.22034049067E+01 -0.11324235936E+03  0.73333332498E+02  0.13493133291E+03  0.00000000000E+00 0. -1.
         -2    1    6    6    0  503 -0.13575083368E+03 -0.31256060966E+03  0.11312271728E+03  0.35905316141E+03  0.00000000000E+00 0.  1.
<mgrwt>
<rscale>  0 0.16431780E+04</rscale>
<asrwt>0</asrwt>
<pdfrwt beam="1">  1        2 0.28612641E+00 0.16431780E+04</pdfrwt>
<pdfrwt beam="2">  1       -1 0.55837324E-01 0.16431780E+04</pdfrwt>
<totfact> 0.28233456E+01</totfact>
</mgrwt>
</event>
<event>
12    7  0.1698542E-007  0.1634732E+04  0.7818608E-02  0.8799490E-01
         -1   -1    0    0    0  501 -0.00000000000E+00  0.00000000000E+00  0.68039329659E+03  0.68039329659E+03  0.00000000000E+00 0.  1.
          2   -1    0    0  501    0  0.00000000000E+00 -0.00000000000E+00 -0.98191323861E+03  0.98191323861E+03  0.00000000000E+00 0. -1.
         24    2    1    2    0    0  0.34290756433E+03 -0.24124626396E+03 -0.48461051485E+03  0.64561760627E+03  0.78672643761E+02 0.  0.
        254    2    1    2    0    0 -0.34290756433E+03  0.24124626396E+03  0.18309057283E+03  0.10166889289E+04  0.90793659624E+03 0.  0.
         23    2    4    4    0    0 -0.14113438496E+03  0.56656872797E+03  0.22872653746E+02  0.59150041821E+03  0.91818017386E+02 0.  0.
         23    2    4    4    0    0 -0.20177317937E+03 -0.32532246401E+03  0.16021791908E+03  0.42518851072E+03  0.92565471723E+02 0.  0.
          2    1    3    3  502    0  0.32235588167E+03 -0.19992678916E+03 -0.44562934785E+03  0.58520898074E+03  0.00000000000E+00 0. -1.
         -3    1    3    3    0  502  0.20551682659E+02 -0.41319474808E+02 -0.38981166996E+02  0.60408625534E+02  0.00000000000E+00 0.  1.
         13    1    5    5    0    0 -0.12561234048E+03  0.55339463382E+03  0.10286166495E+02  0.56756487387E+03  0.00000000000E+00 0.  1.
        -13    1    5    5    0    0 -0.15522044483E+02  0.13174094146E+02  0.12586487252E+02  0.23935544340E+02  0.00000000000E+00 0. -1.
          2    1    6    6  503    0 -0.51519491472E+02 -0.54285170173E+02 -0.30675414721E+01  0.74903588118E+02  0.00000000000E+00 0. -1.
         -2    1    6    6    0  503 -0.15025368789E+03 -0.27103729383E+03  0.16328546056E+03  0.35028492260E+03  0.00000000000E+00 0.  1.
<mgrwt>
<rscale>  0 0.16347320E+04</rscale>
<asrwt>0</asrwt>
<pdfrwt beam="1">  1        2 0.15106358E+00 0.16347320E+04</pdfrwt>
<pdfrwt beam="2">  1       -1 0.10467589E+00 0.16347320E+04</pdfrwt>
<totfact> 0.24218178E+01</totfact>
</mgrwt>
</event>
<event>
12    7  0.1698542E-007  0.1919193E+04  0.7818608E-02  0.8645361E-01
          2   -1    0    0  501    0  0.00000000000E+00  0.00000000000E+00  0.21496744766E+04  0.21496744766E+04  0.00000000000E+00 0. -1.
         -1   -1    0    0    0  501 -0.00000000000E+00 -0.00000000000E+00 -0.42835582380E+03  0.42835582380E+03  0.00000000000E+00 0.  1.
         24    2    1    2    0    0 -0.74368613103E+03 -0.66560854633E+02  0.55218214923E+03  0.93198512410E+03  0.78687589597E+02 0.  0.
        254    2    1    2    0    0  0.74368613103E+03  0.66560854633E+02  0.11691365036E+04  0.16460451763E+04  0.88605030874E+03 0.  0.
         23    2    4    4    0    0  0.72777247775E+03  0.35430675104E+03  0.63633177599E+03  0.10334544664E+04  0.89016581165E+02 0.  0.
         23    2    4    4    0    0  0.15913653286E+02 -0.28774589641E+03  0.53280472761E+03  0.61259070997E+03  0.91299260198E+02 0.  0.
          2    1    3    3  502    0 -0.56710759820E+03 -0.25786116516E+02  0.38963576503E+03  0.68854337636E+03  0.00000000000E+00 0. -1.
         -1    1    3    3    0  502 -0.17657853284E+03 -0.40774738117E+02  0.16254638420E+03  0.24344174774E+03  0.00000000000E+00 0.  1.
         13    1    5    5    0    0  0.52826505796E+03  0.29994615501E+03  0.46948010781E+03  0.76775206870E+03  0.00000000000E+00 0. -1.
        -13    1    5    5    0    0  0.19950741979E+03  0.54360596030E+02  0.16685166818E+03  0.26570239767E+03  0.00000000000E+00 0.  1.
          2    1    6    6  503    0 -0.23985579484E+02 -0.22116214535E+03  0.42562314750E+03  0.48025312726E+03  0.00000000000E+00 0. -1.
         -2    1    6    6    0  503  0.39899232771E+02 -0.66583751060E+02  0.10718158011E+03  0.13233758271E+03  0.00000000000E+00 0.  1.
<mgrwt>
<rscale>  0 0.19191931E+04</rscale>
<asrwt>0</asrwt>
<pdfrwt beam="1">  1        2 0.33071915E+00 0.19191931E+04</pdfrwt>
<pdfrwt beam="2">  1       -1 0.65900897E-01 0.19191931E+04</pdfrwt>
<totfact> 0.13695448E+01</totfact>
</mgrwt>
</event>
<event>
12    7  0.1698542E-007  0.1887128E+04  0.7818608E-02  0.8661290E-01
         -1   -1    0    0    0  501 -0.00000000000E+00  0.00000000000E+00  0.50910194032E+03  0.50910194032E+03  0.00000000000E+00 0.  1.
          2   -1    0    0  501    0  0.00000000000E+00 -0.00000000000E+00 -0.17487912392E+04  0.17487912392E+04  0.00000000000E+00 0. -1.
         24    2    1    2    0    0  0.54961862453E+02  0.37236392604E+03  0.26365354971E+03  0.46657160551E+03  0.80623625847E+02 0.  0.
        254    2    1    2    0    0 -0.54961862453E+02 -0.37236392604E+03 -0.15033428486E+04  0.17913215740E+04  0.89839721805E+03 0.  0.
         23    2    4    4    0    0 -0.22294378685E+03 -0.61448842015E+03 -0.10931316019E+04  0.12768824972E+04  0.90511114377E+02 0.  0.
         23    2    4    4    0    0  0.16798192439E+03  0.24212449411E+03 -0.41021124668E+03  0.51443907688E+03  0.97632470752E+02 0.  0.
          4    1    3    3  502    0 -0.11839694078E+02  0.85624791505E+02  0.32854471079E+02  0.92472696219E+02  0.00000000000E+00 0. -1.
         -3    1    3    3    0  502  0.66801556531E+02  0.28673913454E+03  0.23079907864E+03  0.37409890929E+03  0.00000000000E+00 0.  1.
         13    1    5    5    0    0 -0.47588981826E+02 -0.15280813968E+03 -0.19844428871E+03  0.25494151185E+03  0.00000000000E+00 0.  1.
        -13    1    5    5    0    0 -0.17535480502E+03 -0.46168028047E+03 -0.89468731323E+03  0.10219409853E+04  0.00000000000E+00 0. -1.
          4    1    6    6  503    0  0.13952280565E+03  0.12123196504E+03 -0.26900571695E+03  0.32638608794E+03  0.00000000000E+00 0. -1.
         -4    1    6    6    0  503  0.28459118739E+02  0.12089252907E+03 -0.14120552973E+03  0.18805298894E+03  0.00000000000E+00 0.  1.
<mgrwt>
<rscale>  0 0.18871280E+04</rscale>
<asrwt>0</asrwt>
<pdfrwt beam="1">  1        2 0.26904481E+00 0.18871280E+04</pdfrwt>
<pdfrwt beam="2">  1       -1 0.78323375E-01 0.18871280E+04</pdfrwt>
<totfact> 0.16051840E+01</totfact>
</mgrwt>
</event>
<event>
12    7  0.1698542E-007  0.1769943E+04  0.7818608E-02  0.8722449E-01
         -1   -1    0    0    0  501 -0.00000000000E+00  0.00000000000E+00  0.90088551773E+03  0.90088551773E+03  0.00000000000E+00 0.  1.
          2   -1    0    0  501    0  0.00000000000E+00 -0.00000000000E+00 -0.86933904949E+03  0.86933904949E+03  0.00000000000E+00 0. -1.
         24    2    1    2    0    0 -0.29840112303E+03 -0.38001504142E+03  0.44533627368E+03  0.66204702647E+03  0.80791129873E+02 0.  0.
        254    2    1    2    0    0  0.29840112303E+03  0.38001504142E+03 -0.41378980545E+03  0.11081775408E+04  0.90740332642E+03 0.  0.
         23    2    4    4    0    0  0.71048376632E+02  0.61486018993E+03 -0.44392594823E+03  0.76720038082E+03  0.91789170587E+02 0.  0.
         23    2    4    4    0    0  0.22735274639E+03 -0.23484514851E+03  0.30136142789E+02  0.34097715993E+03  0.92280666553E+02 0.  0.
          2    1    3    3  502    0 -0.66648198249E+02 -0.98194271989E+02  0.66351733794E+02  0.13596562050E+03  0.00000000000E+00 0. -1.
         -3    1    3    3    0  502 -0.23175292478E+03 -0.28182076943E+03  0.37898453989E+03  0.52608140596E+03  0.00000000000E+00 0.  1.
         13    1    5    5    0    0  0.48068453158E+02  0.11147887759E+03 -0.75320529775E+02  0.14286811591E+03  0.00000000000E+00 0.  1.
        -13    1    5    5    0    0  0.22979923474E+02  0.50338131234E+03 -0.36860541846E+03  0.62433226491E+03  0.00000000000E+00 0. -1.
          4    1    6    6  503    0  0.21393808931E+03 -0.17109394798E+03  0.16622017225E+02  0.27444295682E+03  0.00000000000E+00 0. -1.
         -4    1    6    6    0  503  0.13414657088E+02 -0.63751200526E+02  0.13514125563E+02  0.66534203107E+02  0.00000000000E+00 0.  1.
<mgrwt>
<rscale>  0 0.17699435E+04</rscale>
<asrwt>0</asrwt>
<pdfrwt beam="1">  1        2 0.13374447E+00 0.17699435E+04</pdfrwt>
<pdfrwt beam="2">  1       -1 0.13859777E+00 0.17699435E+04</pdfrwt>
<totfact> 0.14303765E+01</totfact>
</mgrwt>
</event>
<event>
12    7  0.1698542E-007  0.1215385E+04  0.7818608E-02  0.9099496E-01
         -1   -1    0    0    0  501 -0.00000000000E+00  0.00000000000E+00  0.16733275543E+04  0.16733275543E+04  0.00000000000E+00 0.  1.
          2   -1    0    0  501    0  0.00000000000E+00 -0.00000000000E+00 -0.22069196457E+03  0.22069196457E+03  0.00000000000E+00 0. -1.
         24    2    1    2    0    0  0.17883767902E+03  0.15618916922E+03  0.45592675371E+03  0.52102767952E+03  0.84986269832E+02 0.  0.
        254    2    1    2    0    0 -0.17883767902E+03 -0.15618916922E+03  0.99670883604E+03  0.13729918394E+04  0.91394754507E+03 0.  0.
         23    2    4    4    0    0 -0.35685832454E+03  0.23371984678E+03  0.75701040754E+03  0.87411129536E+03  0.95041932796E+02 0.  0.
         23    2    4    4    0    0  0.17802064553E+03 -0.38990901600E+03  0.23969842851E+03  0.49888054401E+03  0.87784221656E+02 0.  0.
          4    1    3    3  502    0 -0.28879898001E+01  0.22063462119E+02  0.74418674824E+02  0.77674165642E+02  0.00000000000E+00 0. -1.
         -3    1    3    3    0  502  0.18172566882E+03  0.13412570710E+03  0.38150807889E+03  0.44335351388E+03  0.00000000000E+00 0.  1.
         13    1    5    5    0    0 -0.32636487589E+03  0.17563297120E+03  0.62306627087E+03  0.72496382715E+03  0.00000000000E+00 0.  1.
        -13    1    5    5    0    0 -0.30493448651E+02  0.58086875586E+02  0.13394413667E+03  0.14914746821E+03  0.00000000000E+00 0. -1.
          4    1    6    6  503    0  0.29882772897E+02 -0.80198498162E+02  0.90462350917E+02  0.12453198849E+03  0.00000000000E+00 0. -1.
         -4    1    6    6    0  503  0.14813787263E+03 -0.30971051784E+03  0.14923607759E+03  0.37434855552E+03  0.00000000000E+00 0.  1.
<mgrwt>
<rscale>  0 0.12153846E+04</rscale>
<asrwt>0</asrwt>
<pdfrwt beam="1">  1        2 0.33952611E-01 0.12153846E+04</pdfrwt>
<pdfrwt beam="2">  1       -1 0.25743500E+00 0.12153846E+04</pdfrwt>
<totfact> 0.10945636E+01</totfact>
</mgrwt>
</event>
<event>
12    7  0.1698542E-007  0.1730785E+04  0.7818608E-02  0.8743999E-01
          2   -1    0    0  501    0  0.00000000000E+00  0.00000000000E+00  0.70628861164E+03  0.70628861164E+03  0.00000000000E+00 0. -1.
         -1   -1    0    0    0  501 -0.00000000000E+00 -0.00000000000E+00 -0.10603373498E+04  0.10603373498E+04  0.00000000000E+00 0.  1.
         24    2    1    2    0    0 -0.38761224736E+03  0.39309167013E+03  0.16894948553E+03  0.58293066099E+03  0.80622028187E+02 0.  0.
        254    2    1    2    0    0  0.38761224736E+03 -0.39309167013E+03 -0.52299822367E+03  0.11836953004E+04  0.90710699857E+03 0.  0.
         23    2    4    4    0    0  0.35188425690E+03 -0.60068793236E+03 -0.61664688685E+03  0.93448260323E+03  0.91410230971E+02 0.  0.
         23    2    4    4    0    0  0.35727990461E+02  0.20759626223E+03  0.93648663183E+02  0.24921269720E+03  0.94679453601E+02 0.  0.
          4    1    3    3  502    0 -0.22986921861E+03  0.22194169043E+03  0.56690778299E+02  0.32451782071E+03  0.00000000000E+00 0. -1.
         -3    1    3    3    0  502 -0.15774302876E+03  0.17114997970E+03  0.11225870723E+03  0.25841284028E+03  0.00000000000E+00 0.  1.
         13    1    5    5    0    0  0.15670150172E+00 -0.41669093126E+02 -0.37659978076E+02  0.56165931187E+02  0.00000000000E+00 0.  1.
        -13    1    5    5    0    0  0.35172755540E+03 -0.55901883924E+03 -0.57898690878E+03  0.87831667204E+03  0.00000000000E+00 0. -1.
          1    1    6    6  503    0  0.44141977513E+01  0.17075714724E+03  0.10370220806E+03  0.19982901799E+03  0.00000000000E+00 0. -1.
         -1    1    6    6    0  503  0.31313792710E+02  0.36839114998E+02 -0.10053544879E+02  0.49383679211E+02  0.00000000000E+00 0.  1.
<mgrwt>
<rscale>  0 0.17307850E+04</rscale>
<asrwt>0</asrwt>
<pdfrwt beam="1">  1        2 0.10865979E+00 0.17307850E+04</pdfrwt>
<pdfrwt beam="2">  1       -1 0.16312882E+00 0.17307850E+04</pdfrwt>
<totfact> 0.12153467E+01</totfact>
</mgrwt>
</event>
<event>
12    7  0.1698542E-007  0.2363012E+04  0.7818608E-02  0.8453483E-01
         -1   -1    0    0    0  501 -0.00000000000E+00  0.00000000000E+00  0.83176844912E+03  0.83176844912E+03  0.00000000000E+00 0.  1.
          2   -1    0    0  501    0  0.00000000000E+00 -0.00000000000E+00 -0.16782993271E+04  0.16782993271E+04  0.00000000000E+00 0. -1.
         24    2    1    2    0    0  0.36389439839E+03  0.87850421422E+03 -0.71750751121E+03  0.11938973390E+04  0.79906444752E+02 0.  0.
        254    2    1    2    0    0 -0.36389439839E+03 -0.87850421422E+03 -0.12902336676E+03  0.13161704372E+04  0.90081563206E+03 0.  0.
         23    2    4    4    0    0 -0.38202340316E+03 -0.22117867951E+03  0.28534471903E+03  0.53324278929E+03  0.89801864217E+02 0.  0.
         23    2    4    4    0    0  0.18129004772E+02 -0.65732553472E+03 -0.41436808580E+03  0.78292764790E+03  0.94176811958E+02 0.  0.
          4    1    3    3  502    0  0.17331805384E+03  0.34115858971E+03 -0.32052258883E+03  0.49916235943E+03  0.00000000000E+00 0. -1.
         -3    1    3    3    0  502  0.19057634455E+03  0.53734562451E+03 -0.39698492238E+03  0.69473497960E+03  0.00000000000E+00 0.  1.
         13    1    5    5    0    0 -0.11393833363E+02 -0.16006033158E+02  0.37770175572E+02  0.42574625059E+02  0.00000000000E+00 0. -1.
        -13    1    5    5    0    0 -0.37062956980E+03 -0.20517264635E+03  0.24757454346E+03  0.49066816423E+03  0.00000000000E+00 0.  1.
          3    1    6    6  503    0 -0.29994272009E+00  0.32494073431E+01 -0.34813662289E+01  0.47716375110E+01  0.00000000000E+00 0. -1.
         -3    1    6    6    0  503  0.18428947492E+02 -0.66057494206E+03 -0.41088671957E+03  0.77815601039E+03  0.00000000000E+00 0.  1.
<mgrwt>
<rscale>  0 0.23630120E+04</rscale>
<asrwt>0</asrwt>
<pdfrwt beam="1">  1        2 0.25819990E+00 0.23630120E+04</pdfrwt>
<pdfrwt beam="2">  1       -1 0.12796438E+00 0.23630120E+04</pdfrwt>
<totfact> 0.54654494E+00</totfact>
</mgrwt>
</event>
<event>
12    7  0.1698542E-007  0.2319694E+04  0.7818608E-02  0.8470196E-01
         -1   -1    0    0    0  501 -0.00000000000E+00  0.00000000000E+00  0.86677517626E+03  0.86677517626E+03  0.00000000000E+00 0.  1.
          2   -1    0    0  501    0  0.00000000000E+00 -0.00000000000E+00 -0.15520115010E+04  0.15520115010E+04  0.00000000000E+00 0. -1.
         24    2    1    2    0    0 -0.21691595600E+03 -0.93793271548E+02  0.71779209756E+03  0.75995882323E+03  0.80387859344E+02 0.  0.
        254    2    1    2    0    0  0.21691595600E+03  0.93793271548E+02 -0.14030284223E+04  0.16588278540E+04  0.85286070711E+03 0.  0.
         23    2    4    4    0    0  0.11279022440E+03 -0.18233016156E+02 -0.14633981803E+04  0.14707348551E+04  0.92047282135E+02 0.  0.
         23    2    4    4    0    0  0.10412573160E+03  0.11202628770E+03  0.60369758051E+02  0.18809299893E+03  0.91336802216E+02 0.  0.
          4    1    3    3  502    0 -0.40204241864E+02 -0.16224190510E+02  0.25309724401E+03  0.25678360607E+03  0.00000000000E+00 0. -1.
         -3    1    3    3    0  502 -0.17671171414E+03 -0.77569081038E+02  0.46469485355E+03  0.50317521716E+03  0.00000000000E+00 0.  1.
         13    1    5    5    0    0  0.74351433736E+02  0.10625169975E+01 -0.42568543896E+03  0.43213118099E+03  0.00000000000E+00 0. -1.
        -13    1    5    5    0    0  0.38438790665E+02 -0.19295533154E+02 -0.10377127414E+04  0.10386036741E+04  0.00000000000E+00 0.  1.
          1    1    6    6  503    0  0.26315376244E+02  0.27192567242E+02 -0.24495999777E+02  0.45077585839E+02  0.00000000000E+00 0. -1.
         -1    1    6    6    0  503  0.77810355360E+02  0.84833720462E+02  0.84865757827E+02  0.14301541309E+03  0.00000000000E+00 0.  1.
<mgrwt>
<rscale>  0 0.23196940E+04</rscale>
<asrwt>0</asrwt>
<pdfrwt beam="1">  1        2 0.23877100E+00 0.23196940E+04</pdfrwt>
<pdfrwt beam="2">  1       -1 0.13335003E+00 0.23196940E+04</pdfrwt>
<totfact> 0.58153839E+00</totfact>
</mgrwt>
</event>
<event>
12    7  0.1698542E-007  0.1417993E+04  0.7818608E-02  0.8940897E-01
         -1   -1    0    0    0  501 -0.00000000000E+00  0.00000000000E+00  0.78480484802E+03  0.78480484802E+03  0.00000000000E+00 0.  1.
          2   -1    0    0  501    0  0.00000000000E+00 -0.00000000000E+00 -0.64051046494E+03  0.64051046494E+03  0.00000000000E+00 0. -1.
         24    2    1    2    0    0  0.89334931830E+02 -0.10573607693E+03 -0.35343281506E+03  0.38796592876E+03  0.80261816031E+02 0.  0.
        254    2    1    2    0    0 -0.89334931830E+02  0.10573607693E+03  0.49772719814E+03  0.10373493842E+04  0.89955574208E+03 0.  0.
         23    2    4    4    0    0  0.20259870399E+03 -0.13846543454E+03  0.58080165197E+03  0.63712207783E+03  0.91515417875E+02 0.  0.
         23    2    4    4    0    0 -0.29193363582E+03  0.24420151147E+03 -0.83074453823E+02  0.40022730637E+03  0.91765494371E+02 0.  0.
          2    1    3    3  502    0  0.84809052948E+02 -0.11809331176E+03 -0.30671477301E+03  0.33942975374E+03  0.00000000000E+00 0. -1.
         -1    1    3    3    0  502  0.45258788827E+01  0.12357234839E+02 -0.46718042050E+02  0.48536175020E+02  0.00000000000E+00 0.  1.
         13    1    5    5    0    0  0.16949670940E+03 -0.14666489196E+03  0.53469119974E+03  0.57977099281E+03  0.00000000000E+00 0.  1.
        -13    1    5    5    0    0  0.33101994596E+02  0.81994574111E+01  0.46110452226E+02  0.57351085016E+02  0.00000000000E+00 0. -1.
          1    1    6    6  503    0 -0.12188454550E+03  0.15014202393E+03 -0.13645100608E+02  0.19386763152E+03  0.00000000000E+00 0. -1.
         -1    1    6    6    0  503 -0.17004909032E+03  0.94059487541E+02 -0.69429353214E+02  0.20635967484E+03  0.00000000000E+00 0.  1.
<mgrwt>
<rscale>  0 0.14179926E+04</rscale>
<asrwt>0</asrwt>
<pdfrwt beam="1">  1        2 0.98540071E-01 0.14179926E+04</pdfrwt>
<pdfrwt beam="2">  1       -1 0.12073921E+00 0.14179926E+04</pdfrwt>
<totfact> 0.31020166E+01</totfact>
</mgrwt>
</event>
<event>
12    7  0.1698542E-007  0.1395518E+04  0.7818608E-02  0.8957069E-01
          2   -1    0    0  501    0  0.00000000000E+00  0.00000000000E+00  0.44914860332E+03  0.44914860332E+03  0.00000000000E+00 0. -1.
         -1   -1    0    0    0  501 -0.00000000000E+00 -0.00000000000E+00 -0.10839795684E+04  0.10839795684E+04  0.00000000000E+00 0.  1.
         24    2    1    2    0    0 -0.26126208418E+03  0.16778571570E+03  0.69502798858E+02  0.32817081684E+03  0.80346269088E+02 0.  0.
        254    2    1    2    0    0  0.26126208418E+03 -0.16778571570E+03 -0.70433376391E+03  0.12049573549E+04  0.92705245430E+03 0.  0.
         23    2    4    4    0    0  0.20048173162E+03 -0.10214439271E+03 -0.92154540208E+03  0.95305724155E+03  0.91900902621E+02 0.  0.
         23    2    4    4    0    0  0.60780352556E+02 -0.65641322995E+02  0.21721163817E+03  0.25190011331E+03  0.90938093159E+02 0.  0.
          2    1    3    3  502    0 -0.18560409504E+03  0.11239082376E+03  0.85177179393E+02  0.23310025580E+03  0.00000000000E+00 0. -1.
         -1    1    3    3    0  502 -0.75657989133E+02  0.55394891939E+02 -0.15674380534E+02  0.95070561046E+02  0.00000000000E+00 0.  1.
         13    1    5    5    0    0  0.12291637054E+03 -0.41686662645E+02 -0.67969512058E+03  0.69197663900E+03  0.00000000000E+00 0. -1.
        -13    1    5    5    0    0  0.77565361080E+02 -0.60457730063E+02 -0.24185028151E+03  0.26108060255E+03  0.00000000000E+00 0.  1.
          4    1    6    6  503    0  0.41012225262E+02 -0.59652239946E+02  0.21948982650E+03  0.23111939834E+03  0.00000000000E+00 0. -1.
         -4    1    6    6    0  503  0.19768127294E+02 -0.59890830494E+01 -0.22781883328E+01  0.20780714968E+02  0.00000000000E+00 0.  1.
<mgrwt>
<rscale>  0 0.13955184E+04</rscale>
<asrwt>0</asrwt>
<pdfrwt beam="1">  1        2 0.69099786E-01 0.13955184E+04</pdfrwt>
<pdfrwt beam="2">  1       -1 0.16676609E+00 0.13955184E+04</pdfrwt>
<totfact> 0.20179474E+01</totfact>
</mgrwt>
</event>
<event>
12    7  0.1698542E-007  0.1444688E+04  0.7818608E-02  0.8922092E-01
         -1   -1    0    0    0  501 -0.00000000000E+00  0.00000000000E+00  0.67061385896E+03  0.67061385896E+03  0.00000000000E+00 0.  1.
          2   -1    0    0  501    0  0.00000000000E+00 -0.00000000000E+00 -0.77806404850E+03  0.77806404850E+03  0.00000000000E+00 0. -1.
         24    2    1    2    0    0 -0.28234140858E+02 -0.28694539548E+03  0.29343411163E+03  0.41892937232E+03  0.79141736342E+02 0.  0.
        254    2    1    2    0    0  0.28234140858E+02  0.28694539548E+03 -0.40088430117E+03  0.10297485351E+04  0.90362547330E+03 0.  0.
         23    2    4    4    0    0 -0.62573661557E+02  0.16639639966E+02  0.27157274898E+03  0.29371974223E+03  0.91253428677E+02 0.  0.
         23    2    4    4    0    0  0.90807802415E+02  0.27030575551E+03 -0.67245705015E+03  0.73602879290E+03  0.90711858344E+02 0.  0.
          4    1    3    3  502    0  0.12944318998E+02 -0.95410779424E+01  0.55120848056E+01  0.16999136494E+02  0.00000000000E+00 0. -1.
         -3    1    3    3    0  502 -0.41178459856E+02 -0.27740431754E+03  0.28792202682E+03  0.40193023583E+03  0.00000000000E+00 0.  1.
         13    1    5    5    0    0 -0.68742761454E+02  0.59980403499E+01  0.27276846519E+03  0.28136129681E+03  0.00000000000E+00 0. -1.
        -13    1    5    5    0    0  0.61690998970E+01  0.10641599616E+02 -0.11957162057E+01  0.12358445419E+02  0.00000000000E+00 0.  1.
          4    1    6    6  503    0  0.25637584885E+02  0.14681315375E+03 -0.24954669048E+03  0.29066292953E+03  0.00000000000E+00 0. -1.
         -4    1    6    6    0  503  0.65170217529E+02  0.12349260176E+03 -0.42291035967E+03  0.44536586337E+03  0.00000000000E+00 0.  1.
<mgrwt>
<rscale>  0 0.14446876E+04</rscale>
<asrwt>0</asrwt>
<pdfrwt beam="1">  1        2 0.11970216E+00 0.14446876E+04</pdfrwt>
<pdfrwt beam="2">  1       -1 0.10317136E+00 0.14446876E+04</pdfrwt>
<totfact> 0.35125416E+01</totfact>
</mgrwt>
</event>
<event>
12    7  0.1698542E-007  0.1444184E+04  0.7818608E-02  0.8922442E-01
          2   -1    0    0  501    0  0.00000000000E+00  0.00000000000E+00  0.18220410436E+04  0.18220410436E+04  0.00000000000E+00 0. -1.
         -1   -1    0    0    0  501 -0.00000000000E+00 -0.00000000000E+00 -0.28617201631E+03  0.28617201631E+03  0.00000000000E+00 0.  1.
         24    2    1    2    0    0 -0.12562973348E+03 -0.29223276903E+03  0.79803161443E+03  0.86292902131E+03  0.81297090788E+02 0.  0.
        254    2    1    2    0    0  0.12562973348E+03  0.29223276903E+03  0.73783741282E+03  0.12452840386E+04  0.95139133258E+03 0.  0.
         23    2    4    4    0    0  0.40386811152E+02  0.31353533579E+03 -0.14126466189E+03  0.35708034135E+03  0.87264908061E+02 0.  0.
         23    2    4    4    0    0  0.85242922327E+02 -0.21302566759E+02  0.87910207471E+03  0.88820369721E+03  0.91461438957E+02 0.  0.
          2    1    3    3  502    0 -0.69898835150E+02 -0.18065778513E+03  0.58308678374E+03  0.61442109327E+03  0.00000000000E+00 0. -1.
         -1    1    3    3    0  502 -0.55730898329E+02 -0.11157498390E+03  0.21494483069E+03  0.24850792804E+03  0.00000000000E+00 0.  1.
         13    1    5    5    0    0 -0.16857737311E+02  0.11148066428E+03 -0.19791008161E+02  0.11447185602E+03  0.00000000000E+00 0. -1.
        -13    1    5    5    0    0  0.57244548463E+02  0.20205467150E+03 -0.12147365373E+03  0.24260848533E+03  0.00000000000E+00 0.  1.
          1    1    6    6  503    0  0.42401504337E+02 -0.12582607560E+01  0.11392808478E+03  0.12156923662E+03  0.00000000000E+00 0. -1.
         -1    1    6    6    0  503  0.42841417989E+02 -0.20044306003E+02  0.76517398992E+03  0.76663446058E+03  0.00000000000E+00 0.  1.
<mgrwt>
<rscale>  0 0.14441844E+04</rscale>
<asrwt>0</asrwt>
<pdfrwt beam="1">  1        2 0.28031400E+00 0.14441844E+04</pdfrwt>
<pdfrwt beam="2">  1       -1 0.44026465E-01 0.14441844E+04</pdfrwt>
<totfact> 0.47304966E+01</totfact>
</mgrwt>
</event>
<event>
12    7  0.1698542E-007  0.1200741E+04  0.7818608E-02  0.9112208E-01
         -1   -1    0    0    0  501 -0.00000000000E+00  0.00000000000E+00  0.46237887020E+03  0.46237887020E+03  0.00000000000E+00 0.  1.
          2   -1    0    0  501    0  0.00000000000E+00 -0.00000000000E+00 -0.77954390905E+03  0.77954390905E+03  0.00000000000E+00 0. -1.
         24    2    1    2    0    0  0.45515167299E+02  0.20378306052E+03  0.60106410669E+02  0.23143349387E+03  0.79683845732E+02 0.  0.
        254    2    1    2    0    0 -0.45515167299E+02 -0.20378306052E+03 -0.37727144951E+03  0.10104892854E+04  0.91386852613E+03 0.  0.
         23    2    4    4    0    0  0.38637034597E+03  0.70637759272E+02 -0.25352115038E+03  0.47612354679E+03  0.90271373345E+02 0.  0.
         23    2    4    4    0    0 -0.43188551327E+03 -0.27442081979E+03 -0.12375029914E+03  0.53436573859E+03  0.91655458853E+02 0.  0.
          4    1    3    3  502    0 -0.15238823712E+02  0.35462271660E+02 -0.89497981005E+01  0.39621879630E+02  0.00000000000E+00 0. -1.
         -3    1    3    3    0  502  0.60753991011E+02  0.16832078886E+03  0.69056208769E+02  0.19181161424E+03  0.00000000000E+00 0.  1.
         13    1    5    5    0    0  0.14306336143E+02  0.18216311316E+02 -0.56305029703E+00  0.23169425488E+02  0.00000000000E+00 0. -1.
        -13    1    5    5    0    0  0.37206400982E+03  0.52421447956E+02 -0.25295810008E+03  0.45295412131E+03  0.00000000000E+00 0.  1.
          1    1    6    6  503    0 -0.30791605495E+03 -0.22979062274E+03 -0.12015460685E+03  0.40255826503E+03  0.00000000000E+00 0. -1.
         -1    1    6    6    0  503 -0.12396945831E+03 -0.44630197054E+02 -0.35956922881E+01  0.13180747356E+03  0.00000000000E+00 0.  1.
<mgrwt>
<rscale>  0 0.12007408E+04</rscale>
<asrwt>0</asrwt>
<pdfrwt beam="1">  1        2 0.11992983E+00 0.12007408E+04</pdfrwt>
<pdfrwt beam="2">  1       -1 0.71135212E-01 0.12007408E+04</pdfrwt>
<totfact> 0.80186408E+01</totfact>
</mgrwt>
</event>
<event>
12    7  0.1698542E-007  0.1639185E+04  0.7818608E-02  0.8796830E-01
          2   -1    0    0  501    0  0.00000000000E+00  0.00000000000E+00  0.10089334351E+04  0.10089334351E+04  0.00000000000E+00 0. -1.
         -1   -1    0    0    0  501 -0.00000000000E+00 -0.00000000000E+00 -0.66578404440E+03  0.66578404440E+03  0.00000000000E+00 0.  1.
         24    2    1    2    0    0  0.46902518095E+00  0.95020501251E+02  0.69401094158E+03  0.70502521548E+03  0.79876478318E+02 0.  0.
        254    2    1    2    0    0 -0.46902518095E+00 -0.95020501251E+02 -0.35086155085E+03  0.96969226404E+03  0.89898283822E+03 0.  0.
         23    2    4    4    0    0  0.69117634363E+02  0.34750770921E+03  0.39343783280E+02  0.36851081634E+03  0.93345771932E+02 0.  0.
         23    2    4    4    0    0 -0.69586659544E+02 -0.44252821046E+03 -0.39020533413E+03  0.60118144770E+03  0.92116285348E+02 0.  0.
          4    1    3    3  502    0 -0.24251876508E+02  0.38197159449E+02  0.48268797271E+03  0.48480393512E+03  0.00000000000E+00 0. -1.
         -3    1    3    3    0  502  0.24720901689E+02  0.56823341802E+02  0.21132296887E+03  0.22022128036E+03  0.00000000000E+00 0.  1.
         13    1    5    5    0    0  0.74670989204E+02  0.28731743542E+03  0.87751476012E+00  0.29686332774E+03  0.00000000000E+00 0. -1.
        -13    1    5    5    0    0 -0.55533548413E+01  0.60190273788E+02  0.38466268520E+02  0.71647488598E+02  0.00000000000E+00 0.  1.
          4    1    6    6  503    0  0.73068286408E+00 -0.20450519910E+03 -0.13414064931E+03  0.24457437346E+03  0.00000000000E+00 0.  1.
         -4    1    6    6    0  503 -0.70317342408E+02 -0.23802301136E+03 -0.25606468482E+03  0.35660707424E+03  0.00000000000E+00 0. -1.
<mgrwt>
<rscale>  0 0.16391849E+04</rscale>
<asrwt>0</asrwt>
<pdfrwt beam="1">  1        2 0.15522053E+00 0.16391849E+04</pdfrwt>
<pdfrwt beam="2">  1       -1 0.10242831E+00 0.16391849E+04</pdfrwt>
<totfact> 0.24457691E+01</totfact>
</mgrwt>
</event>
<event>
12    7  0.1698542E-007  0.3052047E+04  0.7818608E-02  0.8229023E-01
         -1   -1    0    0    0  501 -0.00000000000E+00  0.00000000000E+00  0.12251390626E+04  0.12251390626E+04  0.00000000000E+00 0.  1.
          2   -1    0    0  501    0  0.00000000000E+00 -0.00000000000E+00 -0.19008031534E+04  0.19008031534E+04  0.00000000000E+00 0. -1.
         24    2    1    2    0    0  0.12550646584E+04 -0.36444340536E+03 -0.81864797177E+03  0.15441833305E+04  0.79444093941E+02 0.  0.
        254    2    1    2    0    0 -0.12550646584E+04  0.36444340536E+03  0.14298388100E+03  0.15817588855E+04  0.87949445089E+03 0.  0.
         23    2    4    4    0    0 -0.84982299449E+03  0.45655365603E+03  0.43959446495E+03  0.10641020601E+04  0.91812514459E+02 0.  0.
         23    2    4    4    0    0 -0.40524166394E+03 -0.92110250674E+02 -0.29661058395E+03  0.51765682546E+03  0.85355995455E+02 0.  0.
          4    1    3    3  502    0  0.10332626488E+04 -0.32896410500E+03 -0.66491764439E+03  0.12719923575E+04  0.00000000000E+00 0. -1.
         -3    1    3    3    0  502  0.22180200961E+03 -0.35479300359E+02 -0.15373032738E+03  0.27219097299E+03  0.00000000000E+00 0.  1.
         13    1    5    5    0    0 -0.38081618713E+03  0.17884773831E+03  0.23504093225E+03  0.48192501669E+03  0.00000000000E+00 0.  1.
        -13    1    5    5    0    0 -0.46900680736E+03  0.27770591772E+03  0.20455353270E+03  0.58217704337E+03  0.00000000000E+00 0. -1.
          2    1    6    6  503    0 -0.33912449552E+02 -0.26789926450E+02 -0.10818945941E+02  0.44551138988E+02  0.00000000000E+00 0. -1.
         -2    1    6    6    0  503 -0.37132921439E+03 -0.65320324224E+02 -0.28579163801E+03  0.47310568647E+03  0.00000000000E+00 0.  1.
<mgrwt>
<rscale>  0 0.30520473E+04</rscale>
<asrwt>0</asrwt>
<pdfrwt beam="1">  1        2 0.29243125E+00 0.30520473E+04</pdfrwt>
<pdfrwt beam="2">  1       -1 0.18848293E+00 0.30520473E+04</pdfrwt>
<totfact> 0.13322379E+00</totfact>
</mgrwt>
</event>
<event>
12    7  0.1698542E-007  0.2420286E+04  0.7818608E-02  0.8431948E-01
          2   -1    0    0  501    0  0.00000000000E+00  0.00000000000E+00  0.21508186585E+04  0.21508186585E+04  0.00000000000E+00 0. -1.
         -3   -1    0    0    0  501 -0.00000000000E+00 -0.00000000000E+00 -0.68087848370E+03  0.68087848370E+03  0.00000000000E+00 0.  1.
         24    2    1    2    0    0  0.33945502046E+01  0.74905756409E+03 -0.16851558975E+03  0.77194100360E+03  0.79979070763E+02 0.  0.
        254    2    1    2    0    0 -0.33945502046E+01 -0.74905756409E+03  0.16384557646E+04  0.20597561386E+04  0.99847849292E+03 0.  0.
         23    2    4    4    0    0  0.37304186696E+02 -0.81762385999E+03  0.17245887869E+04  0.19111779113E+04  0.92163690222E+02 0.  0.
         23    2    4    4    0    0 -0.40698736901E+02  0.68566295907E+02 -0.86133022369E+02  0.14857822732E+03  0.91098122772E+02 0.  0.
          4    1    3    3  502    0  0.37074623497E+02  0.33509258326E+03 -0.57260810524E+02  0.34196544779E+03  0.00000000000E+00 0. -1.
         -3    1    3    3    0  502 -0.33680073293E+02  0.41396498083E+03 -0.11125477922E+03  0.42997555580E+03  0.00000000000E+00 0.  1.
         13    1    5    5    0    0  0.36916018392E+02 -0.27745122333E+03  0.50657471050E+03  0.57875721253E+03  0.00000000000E+00 0.  1.
        -13    1    5    5    0    0  0.38816830483E+00 -0.54017263667E+03  0.12180140764E+04  0.13324206988E+04  0.00000000000E+00 0. -1.
          1    1    6    6  503    0 -0.24609971649E+02  0.69578769341E+02 -0.10203882418E+03  0.12593163815E+03  0.00000000000E+00 0. -1.
         -1    1    6    6    0  503 -0.16088765252E+02 -0.10124734332E+01  0.15905801813E+02  0.22646589171E+02  0.00000000000E+00 0.  1.
<mgrwt>
<rscale>  0 0.24202861E+04</rscale>
<asrwt>0</asrwt>
<pdfrwt beam="1">  1        2 0.33089518E+00 0.24202861E+04</pdfrwt>
<pdfrwt beam="2">  1       -3 0.10475054E+00 0.24202861E+04</pdfrwt>
<totfact> 0.24683065E+00</totfact>
</mgrwt>
</event>
<event>
12    7  0.1698542E-007  0.1365085E+04  0.7818608E-02  0.8979487E-01
         -1   -1    0    0    0  501 -0.00000000000E+00  0.00000000000E+00  0.55094824252E+03  0.55094824252E+03  0.00000000000E+00 0.  1.
          2   -1    0    0  501    0  0.00000000000E+00 -0.00000000000E+00 -0.84556836521E+03  0.84556836521E+03  0.00000000000E+00 0. -1.
         24    2    1    2    0    0  0.27848844226E+02  0.14899601913E+03  0.23061204842E+03  0.28731379356E+03  0.79949529377E+02 0.  0.
        254    2    1    2    0    0 -0.27848844226E+02 -0.14899601913E+03 -0.52523217111E+03  0.11092028142E+04  0.96513557469E+03 0.  0.
         23    2    4    4    0    0  0.20681350347E+03  0.12365749629E+03 -0.66477228964E+03  0.71293607708E+03  0.91063995774E+02 0.  0.
         23    2    4    4    0    0 -0.23466234769E+03 -0.27265351542E+03  0.13954011853E+03  0.39626673709E+03  0.90274721512E+02 0.  0.
          4    1    3    3  502    0 -0.38844101479E+01 -0.90626531356E+01  0.17603116879E+02  0.20176472633E+02  0.00000000000E+00 0. -1.
         -3    1    3    3    0  502  0.31733254374E+02  0.15805867227E+03  0.21300893154E+03  0.26713732092E+03  0.00000000000E+00 0.  1.
         13    1    5    5    0    0  0.15731366280E+03  0.48840944696E+02 -0.48128577690E+03  0.50869344937E+03  0.00000000000E+00 0. -1.
        -13    1    5    5    0    0  0.49499840672E+02  0.74816551595E+02 -0.18348651274E+03  0.20424262771E+03  0.00000000000E+00 0.  1.
          3    1    6    6  503    0 -0.20585917963E+03 -0.22063618758E+03  0.14818832616E+03  0.33618166089E+03  0.00000000000E+00 0. -1.
         -3    1    6    6    0  503 -0.28803168067E+02 -0.52017327841E+02 -0.86482076328E+01  0.60085076197E+02  0.00000000000E+00 0.  1.
<mgrwt>
<rscale>  0 0.13650852E+04</rscale>
<asrwt>0</asrwt>
<pdfrwt beam="1">  1        2 0.13008744E+00 0.13650852E+04</pdfrwt>
<pdfrwt beam="2">  1       -1 0.84761268E-01 0.13650852E+04</pdfrwt>
<totfact> 0.49062942E+01</totfact>
</mgrwt>
</event>
<event>
12    7  0.1698542E-007  0.2238601E+04  0.7818608E-02  0.8502531E-01
          2   -1    0    0  501    0  0.00000000000E+00  0.00000000000E+00  0.12851559559E+04  0.12851559559E+04  0.00000000000E+00 0. -1.
         -1   -1    0    0    0  501 -0.00000000000E+00 -0.00000000000E+00 -0.97484929758E+03  0.97484929758E+03  0.00000000000E+00 0.  1.
         24    2    1    2    0    0  0.22064282804E+03 -0.78679533952E+03 -0.32975734572E+03  0.88446300486E+03  0.76188818466E+02 0.  0.
        254    2    1    2    0    0 -0.22064282804E+03  0.78679533952E+03  0.64006400409E+03  0.13755422487E+04  0.90260976323E+03 0.  0.
         23    2    4    4    0    0  0.11984041461E+03  0.14951992139E+03 -0.18018759041E+03  0.27852343031E+03  0.91595860322E+02 0.  0.
         23    2    4    4    0    0 -0.34048324265E+03  0.63727541813E+03  0.82025159450E+03  0.10970188184E+04  0.92675846116E+02 0.  0.
          4    1    3    3  502    0  0.85509279566E+02 -0.19297673070E+03 -0.10000264927E+03  0.23356452074E+03  0.00000000000E+00 0. -1.
         -3    1    3    3    0  502  0.13513354848E+03 -0.59381860882E+03 -0.22975469645E+03  0.65089848413E+03  0.00000000000E+00 0.  1.
         13    1    5    5    0    0 -0.13415258062E+02  0.10956984974E+02 -0.40433929525E+01  0.17786896727E+02  0.00000000000E+00 0.  1.
        -13    1    5    5    0    0  0.13325567267E+03  0.13856293642E+03 -0.17614419746E+03  0.26073653359E+03  0.00000000000E+00 0. -1.
          4    1    6    6  503    0 -0.34196422869E+03  0.61287290473E+03  0.77475472970E+03  0.10453696104E+04  0.00000000000E+00 0. -1.
         -4    1    6    6    0  503  0.14809860415E+01  0.24402513399E+02  0.45496864805E+02  0.51649207999E+02  0.00000000000E+00 0.  1.
<mgrwt>
<rscale>  0 0.22386008E+04</rscale>
<asrwt>0</asrwt>
<pdfrwt beam="1">  1        2 0.19771630E+00 0.22386008E+04</pdfrwt>
<pdfrwt beam="2">  1       -1 0.14997681E+00 0.22386008E+04</pdfrwt>
<totfact> 0.61136306E+00</totfact>
</mgrwt>
</event>
<event>
12    7  0.1698542E-007  0.1877582E+04  0.7818608E-02  0.8666096E-01
         -1   -1    0    0    0  501 -0.00000000000E+00  0.00000000000E+00  0.10806142413E+04  0.10806142413E+04  0.00000000000E+00 0.  1.
          2   -1    0    0  501    0  0.00000000000E+00 -0.00000000000E+00 -0.81558092827E+03  0.81558092827E+03  0.00000000000E+00 0. -1.
         24    2    1    2    0    0 -0.15598089616E+03  0.66208207381E+03  0.34415448657E+03  0.76619559075E+03  0.77010779980E+02 0.  0.
        254    2    1    2    0    0  0.15598089616E+03 -0.66208207381E+03 -0.79121173554E+02  0.11299995788E+04  0.89886382481E+03 0.  0.
         23    2    4    4    0    0 -0.21481508675E+03 -0.53260364334E+03  0.22676243807E+03  0.62414041539E+03  0.91202480208E+02 0.  0.
         23    2    4    4    0    0  0.37079598291E+03 -0.12947843047E+03 -0.30588361163E+03  0.50585916341E+03  0.89857578679E+02 0.  0.
          4    1    3    3  502    0 -0.11051691511E+03  0.37801087211E+03  0.16306178879E+03  0.42625738108E+03  0.00000000000E+00 0. -1.
         -3    1    3    3    0  502 -0.45463981053E+02  0.28407120170E+03  0.18109269778E+03  0.33993820968E+03  0.00000000000E+00 0.  1.
         13    1    5    5    0    0 -0.52626613556E+02 -0.16675194722E+03  0.11262771133E+03  0.20799224437E+03  0.00000000000E+00 0. -1.
        -13    1    5    5    0    0 -0.16218847320E+03 -0.36585169612E+03  0.11413472674E+03  0.41614817102E+03  0.00000000000E+00 0.  1.
          3    1    6    6  503    0  0.81683203469E+02 -0.65355501334E+02 -0.10358819056E+03  0.14722092415E+03  0.00000000000E+00 0. -1.
         -3    1    6    6    0  503  0.28911277944E+03 -0.64122929135E+02 -0.20229542107E+03  0.35863823926E+03  0.00000000000E+00 0.  1.
<mgrwt>
<rscale>  0 0.18775818E+04</rscale>
<asrwt>0</asrwt>
<pdfrwt beam="1">  1        2 0.12547399E+00 0.18775818E+04</pdfrwt>
<pdfrwt beam="2">  1       -1 0.16624834E+00 0.18775818E+04</pdfrwt>
<totfact> 0.94290612E+00</totfact>
</mgrwt>
</event>
<event>
12    7  0.1698542E-007  0.2854897E+04  0.7818608E-02  0.8286425E-01
         -1   -1    0    0    0  501 -0.00000000000E+00  0.00000000000E+00  0.15565875586E+04  0.15565875586E+04  0.00000000000E+00 0.  1.
          2   -1    0    0  501    0  0.00000000000E+00 -0.00000000000E+00 -0.13090232464E+04  0.13090232464E+04  0.00000000000E+00 0. -1.
         24    2    1    2    0    0 -0.15771173527E+03  0.59213750439E+03  0.12387898245E+04  0.13844470628E+04  0.81201138072E+02 0.  0.
        254    2    1    2    0    0  0.15771173527E+03 -0.59213750439E+03 -0.99122551230E+03  0.14811637422E+04  0.91423093335E+03 0.  0.
         23    2    4    4    0    0 -0.35674790324E+03 -0.24987500083E+03 -0.58454587719E+03  0.73572812884E+03  0.99475698118E+02 0.  0.
         23    2    4    4    0    0  0.51445963852E+03 -0.34226250356E+03 -0.40667963511E+03  0.74543561338E+03  0.92052088956E+02 0.  0.
          4    1    3    3  502    0  0.52706001897E+01  0.44955528470E+02  0.65507675333E+02  0.79624332298E+02  0.00000000000E+00 0. -1.
         -3    1    3    3    0  502 -0.16298233546E+03  0.54718197592E+03  0.11732821492E+04  0.13048227305E+04  0.00000000000E+00 0.  1.
         13    1    5    5    0    0 -0.11433801441E+03 -0.27064402149E+02 -0.15080002758E+03  0.19117089664E+03  0.00000000000E+00 0. -1.
        -13    1    5    5    0    0 -0.24240988883E+03 -0.22281059868E+03 -0.43374584961E+03  0.54455723220E+03  0.00000000000E+00 0.  1.
          1    1    6    6  503    0  0.16142345180E+02 -0.36921097714E+02 -0.27115217346E+02  0.48569308993E+02  0.00000000000E+00 0. -1.
         -1    1    6    6    0  503  0.49831729334E+03 -0.30534140585E+03 -0.37956441776E+03  0.69686630439E+03  0.00000000000E+00 0.  1.
<mgrwt>
<rscale>  0 0.28548971E+04</rscale>
<asrwt>0</asrwt>
<pdfrwt beam="1">  1        2 0.20138819E+00 0.28548971E+04</pdfrwt>
<pdfrwt beam="2">  1       -1 0.23947501E+00 0.28548971E+04</pdfrwt>
<totfact> 0.13170416E+00</totfact>
</mgrwt>
</event>
<event>
12    7  0.1698542E-007  0.1750600E+04  0.7818608E-02  0.8733020E-01
          2   -1    0    0  501    0  0.00000000000E+00  0.00000000000E+00  0.80159506280E+03  0.80159506280E+03  0.00000000000E+00 0. -1.
         -1   -1    0    0    0  501 -0.00000000000E+00 -0.00000000000E+00 -0.95578153801E+03  0.95578153801E+03  0.00000000000E+00 0.  1.
         24    2    1    2    0    0  0.23019337825E+03 -0.56609760395E+03  0.20065202110E+03  0.64851104242E+03  0.82763820484E+02 0.  0.
        254    2    1    2    0    0 -0.23019337825E+03  0.56609760395E+03 -0.35483849631E+03  0.11088655584E+04  0.85452734278E+03 0.  0.
         23    2    4    4    0    0 -0.12530765348E+03 -0.16207981919E+03  0.96822294145E+02  0.24087231921E+03  0.81688687786E+02 0.  0.
         23    2    4    4    0    0 -0.10488572477E+03  0.72817742314E+03 -0.45166079046E+03  0.86799323918E+03  0.90395900373E+02 0.  0.
          4    1    3    3  502    0  0.38820136936E+02 -0.19386904175E+03  0.75717200038E+02  0.21171986861E+03  0.00000000000E+00 0. -1.
         -3    1    3    3    0  502  0.19137324131E+03 -0.37222856220E+03  0.12493482106E+03  0.43679117381E+03  0.00000000000E+00 0.  1.
         13    1    5    5    0    0 -0.19593895479E+02 -0.23876282859E+01  0.34008800511E+02  0.39322004286E+02  0.00000000000E+00 0. -1.
        -13    1    5    5    0    0 -0.10571375800E+03 -0.15969219090E+03  0.62813493634E+02  0.20155031493E+03  0.00000000000E+00 0.  1.
          4    1    6    6  503    0 -0.95654121986E+02  0.68553632055E+03 -0.39661824039E+03  0.79775672135E+03  0.00000000000E+00 0.  1.
         -4    1    6    6    0  503 -0.92316027858E+01  0.42641102589E+02 -0.55042550066E+02  0.70236517836E+02  0.00000000000E+00 0. -1.
<mgrwt>
<rscale>  0 0.17505996E+04</rscale>
<asrwt>0</asrwt>
<pdfrwt beam="1">  1        2 0.12332232E+00 0.17505996E+04</pdfrwt>
<pdfrwt beam="2">  1       -1 0.14704331E+00 0.17505996E+04</pdfrwt>
<totfact> 0.13682356E+01</totfact>
</mgrwt>
</event>
<event>
12    7  0.1698542E-007  0.5014927E+04  0.7818608E-02  0.7826209E-01
         -1   -1    0    0    0  501 -0.00000000000E+00  0.00000000000E+00  0.52297658008E+04  0.52297658008E+04  0.00000000000E+00 0.  1.
          2   -1    0    0  501    0  0.00000000000E+00 -0.00000000000E+00 -0.12022284993E+04  0.12022284993E+04  0.00000000000E+00 0. -1.
         24    2    1    2    0    0  0.91366386594E+03 -0.22295422477E+04  0.23606414332E+04  0.33741433501E+04  0.81086845782E+02 0.  0.
        254    2    1    2    0    0 -0.91366386594E+03  0.22295422477E+04  0.16668958683E+04  0.30578509500E+04  0.87536866652E+03 0.  0.
         23    2    4    4    0    0 -0.10252248140E+04  0.14966866861E+04  0.12115418875E+04  0.21835057482E+04  0.93309438923E+02 0.  0.
         23    2    4    4    0    0  0.11156094811E+03  0.73285556161E+03  0.45535398080E+03  0.87434520183E+03  0.87230526770E+02 0.  0.
          4    1    3    3  502    0  0.65354340236E+03 -0.16334273505E+04  0.17689993036E+04  0.24949072977E+04  0.00000000000E+00 0. -1.
         -3    1    3    3    0  502  0.26012046358E+03 -0.59611489727E+03  0.59164212962E+03  0.87923605241E+03  0.00000000000E+00 0.  1.
         13    1    5    5    0    0 -0.59879423525E+02  0.12782467891E+03  0.10638695656E+03  0.17675655130E+03  0.00000000000E+00 0. -1.
        -13    1    5    5    0    0 -0.96534539052E+03  0.13688620072E+04  0.11051549309E+04  0.20067491969E+04  0.00000000000E+00 0.  1.
          1    1    6    6  503    0  0.11431415740E+02  0.97401778447E+02  0.97160040301E+02  0.13805019791E+03  0.00000000000E+00 0. -1.
         -1    1    6    6    0  503  0.10012953237E+03  0.63545378316E+03  0.35819394050E+03  0.73629500392E+03  0.00000000000E+00 0.  1.
<mgrwt>
<rscale>  0 0.50149271E+04</rscale>
<asrwt>0</asrwt>
<pdfrwt beam="1">  1        2 0.18495823E+00 0.50149271E+04</pdfrwt>
<pdfrwt beam="2">  1       -1 0.80457934E+00 0.50149271E+04</pdfrwt>
<totfact> 0.10287470E-03</totfact>
</mgrwt>
</event>
<event>
12    7  0.1698542E-007  0.1798795E+04  0.7818608E-02  0.8706941E-01
          2   -1    0    0  501    0  0.00000000000E+00  0.00000000000E+00  0.28287802880E+04  0.28287802880E+04  0.00000000000E+00 0. -1.
         -1   -1    0    0    0  501 -0.00000000000E+00 -0.00000000000E+00 -0.28595910736E+03  0.28595910736E+03  0.00000000000E+00 0.  1.
         24    2    1    2    0    0  0.76796654297E+02 -0.66087094643E+03  0.11222984668E+04  0.13071930946E+04  0.80943214169E+02 0.  0.
        254    2    1    2    0    0 -0.76796654297E+02  0.66087094643E+03  0.14205227138E+04  0.18075463008E+04  0.89815962674E+03 0.  0.
         23    2    4    4    0    0  0.61170634484E+02  0.81294180981E+03  0.79020081719E+03  0.11389669529E+04  0.90620944527E+02 0.  0.
         23    2    4    4    0    0 -0.13796728878E+03 -0.15207086338E+03  0.63032189665E+03  0.66857934794E+03  0.86787849572E+02 0.  0.
          2    1    3    3  502    0  0.38771330290E+02 -0.14519047358E+03  0.30588183289E+03  0.34080373437E+03  0.00000000000E+00 0. -1.
         -1    1    3    3    0  502  0.38025324007E+02 -0.51568047285E+03  0.81641663392E+03  0.96638936019E+03  0.00000000000E+00 0.  1.
         13    1    5    5    0    0 -0.14267717564E+02  0.24989540316E+03  0.27792283678E+03  0.37402190241E+03  0.00000000000E+00 0.  1.
        -13    1    5    5    0    0  0.75438352048E+02  0.56304640665E+03  0.51227798042E+03  0.76494505046E+03  0.00000000000E+00 0. -1.
          1    1    6    6  503    0 -0.18669636258E+02  0.34470372272E+01  0.12750009989E+03  0.12890582941E+03  0.00000000000E+00 0. -1.
         -1    1    6    6    0  503 -0.11929765252E+03 -0.15551790061E+03  0.50282179675E+03  0.53967351853E+03  0.00000000000E+00 0.  1.
<mgrwt>
<rscale>  0 0.17987946E+04</rscale>
<asrwt>0</asrwt>
<pdfrwt beam="1">  1        2 0.43519695E+00 0.17987946E+04</pdfrwt>
<pdfrwt beam="2">  1       -1 0.43993711E-01 0.17987946E+04</pdfrwt>
<totfact> 0.12231694E+01</totfact>
</mgrwt>
</event>
<event>
12    7  0.1698542E-007  0.1255628E+04  0.7818608E-02  0.9065512E-01
         -1   -1    0    0    0  501 -0.00000000000E+00  0.00000000000E+00  0.39873553265E+03  0.39873553265E+03  0.00000000000E+00 0.  1.
          2   -1    0    0  501    0  0.00000000000E+00 -0.00000000000E+00 -0.98850092188E+03  0.98850092188E+03  0.00000000000E+00 0. -1.
         24    2    1    2    0    0 -0.91164694173E+01 -0.28166595945E+03 -0.53824146734E+02  0.29748734659E+03  0.78631163572E+02 0.  0.
        254    2    1    2    0    0  0.91164694173E+01  0.28166595945E+03 -0.53594124250E+03  0.10897491079E+04  0.90603602583E+03 0.  0.
         23    2    4    4    0    0  0.21236391100E+03  0.51164360414E+03 -0.13708596031E+03  0.57809925004E+03  0.92350279026E+02 0.  0.
         23    2    4    4    0    0 -0.20324744159E+03 -0.22997764469E+03 -0.39885528219E+03  0.51164985789E+03  0.92199790569E+02 0.  0.
          4    1    3    3  502    0  0.93483776338E+01 -0.62183704242E+02 -0.44494506145E+02  0.77032242047E+02  0.00000000000E+00 0. -1.
         -3    1    3    3    0  502 -0.18464847051E+02 -0.21948225520E+03 -0.93296405889E+01  0.22045510454E+03  0.00000000000E+00 0.  1.
         13    1    5    5    0    0  0.21860042516E+03  0.50339441110E+03 -0.14165052369E+03  0.56679533332E+03  0.00000000000E+00 0. -1.
        -13    1    5    5    0    0 -0.62365141527E+01  0.82491930341E+01  0.45645633821E+01  0.11303916727E+02  0.00000000000E+00 0.  1.
          4    1    6    6  503    0 -0.88728390324E+02 -0.16315542733E+03 -0.26149910054E+03  0.32074008215E+03  0.00000000000E+00 0.  1.
         -4    1    6    6    0  503 -0.11451905126E+03 -0.66822217362E+02 -0.13735618165E+03  0.19090977574E+03  0.00000000000E+00 0. -1.
<mgrwt>
<rscale>  0 0.12556280E+04</rscale>
<asrwt>0</asrwt>
<pdfrwt beam="1">  1        2 0.15207706E+00 0.12556280E+04</pdfrwt>
<pdfrwt beam="2">  1       -1 0.61343928E-01 0.12556280E+04</pdfrwt>
<totfact> 0.77456578E+01</totfact>
</mgrwt>
</event>
<event>
12    7  0.1698542E-007  0.1249131E+04  0.7818608E-02  0.9070907E-01
          2   -1    0    0  501    0  0.00000000000E+00  0.00000000000E+00  0.13017646589E+04  0.13017646589E+04  0.00000000000E+00 0. -1.
         -1   -1    0    0    0  501 -0.00000000000E+00 -0.00000000000E+00 -0.29965630917E+03  0.29965630917E+03  0.00000000000E+00 0.  1.
         24    2    1    2    0    0  0.36553534818E+02  0.24629072846E+03  0.25360521218E+03  0.36462806226E+03  0.81502983425E+02 0.  0.
        254    2    1    2    0    0 -0.36553534818E+02 -0.24629072846E+03  0.74850313757E+03  0.12367929058E+04  0.95257779795E+03 0.  0.
         23    2    4    4    0    0 -0.11603129741E+03 -0.56812438563E+03  0.26561819633E+03  0.64430362769E+03  0.91354030618E+02 0.  0.
         23    2    4    4    0    0  0.79477762589E+02  0.32183365716E+03  0.48288494124E+03  0.59248927815E+03  0.89286396581E+02 0.  0.
          4    1    3    3  502    0  0.29102985856E+02  0.18811530634E+03  0.13838626876E+03  0.23534041652E+03  0.00000000000E+00 0. -1.
         -3    1    3    3    0  502  0.74505489621E+01  0.58175422123E+02  0.11521894341E+03  0.12928764574E+03  0.00000000000E+00 0.  1.
         13    1    5    5    0    0 -0.45932513567E+02 -0.81090015922E+02  0.24570297194E+02  0.96379904488E+02  0.00000000000E+00 0. -1.
        -13    1    5    5    0    0 -0.70098783840E+02 -0.48703436971E+03  0.24104789914E+03  0.54792372320E+03  0.00000000000E+00 0.  1.
          2    1    6    6  503    0  0.29179420060E+02  0.53563810698E+02  0.42365735156E+02  0.74265576729E+02  0.00000000000E+00 0. -1.
         -2    1    6    6    0  503  0.50298342528E+02  0.26826984647E+03  0.44051920608E+03  0.51822370142E+03  0.00000000000E+00 0.  1.
<mgrwt>
<rscale>  0 0.12491309E+04</rscale>
<asrwt>0</asrwt>
<pdfrwt beam="1">  1        2 0.20027148E+00 0.12491309E+04</pdfrwt>
<pdfrwt beam="2">  1       -1 0.46100971E-01 0.12491309E+04</pdfrwt>
<totfact> 0.86504611E+01</totfact>
</mgrwt>
</event>
<event>
12    7  0.1698542E-007  0.1568041E+04  0.7818608E-02  0.8840426E-01
          2   -1    0    0  501    0  0.00000000000E+00  0.00000000000E+00  0.18853523805E+04  0.18853523805E+04  0.00000000000E+00 0. -1.
         -1   -1    0    0    0  501 -0.00000000000E+00 -0.00000000000E+00 -0.32603344802E+03  0.32603344802E+03  0.00000000000E+00 0.  1.
         24    2    1    2    0    0  0.41679257256E+02 -0.38250066314E+03  0.26133080106E+02  0.39389603928E+03  0.80170032372E+02 0.  0.
        254    2    1    2    0    0 -0.41679257256E+02  0.38250066314E+03  0.15331858524E+04  0.18174897893E+04  0.89697623063E+03 0.  0.
         23    2    4    4    0    0  0.36748733681E+03  0.40236813737E+03  0.94388623785E+03  0.10939337128E+04  0.93929108021E+02 0.  0.
         23    2    4    4    0    0 -0.40916659406E+03 -0.19867474231E+02  0.58929961456E+03  0.72355607647E+03  0.91909421939E+02 0.  0.
          4    1    3    3  502    0 -0.14854635954E+02 -0.38270708872E+02 -0.12521199268E+02  0.42919550301E+02  0.00000000000E+00 0. -1.
         -3    1    3    3    0  502  0.56533893210E+02 -0.34422995427E+03  0.38654279375E+02  0.35097648897E+03  0.00000000000E+00 0.  1.
         13    1    5    5    0    0  0.16581211586E+03  0.11895372351E+03  0.38201377656E+03  0.43310295725E+03  0.00000000000E+00 0.  1.
        -13    1    5    5    0    0  0.20167522094E+03  0.28341441386E+03  0.56187246130E+03  0.66083075556E+03  0.00000000000E+00 0. -1.
          3    1    6    6  503    0 -0.24438952080E+03 -0.50469157608E+02  0.31168334829E+03  0.39927419570E+03  0.00000000000E+00 0. -1.
         -3    1    6    6    0  503 -0.16477707326E+03  0.30601683377E+02  0.27761626627E+03  0.32428188077E+03  0.00000000000E+00 0.  1.
<mgrwt>
<rscale>  0 0.15680407E+04</rscale>
<asrwt>0</asrwt>
<pdfrwt beam="1">  1        2 0.29005421E+00 0.15680407E+04</pdfrwt>
<pdfrwt beam="2">  1       -1 0.50158993E-01 0.15680407E+04</pdfrwt>
<totfact> 0.33802488E+01</totfact>
</mgrwt>
</event>
<event>
12    7  0.1698542E-007  0.1590071E+04  0.7818608E-02  0.8826671E-01
          2   -1    0    0  501    0  0.00000000000E+00  0.00000000000E+00  0.55736649317E+03  0.55736649317E+03  0.00000000000E+00 0. -1.
         -1   -1    0    0    0  501 -0.00000000000E+00 -0.00000000000E+00 -0.11340497682E+04  0.11340497682E+04  0.00000000000E+00 0.  1.
         24    2    1    2    0    0 -0.19014541721E+03  0.34885081012E+03 -0.55847534271E+03  0.68999927939E+03  0.79700249285E+02 0.  0.
        254    2    1    2    0    0  0.19014541721E+03 -0.34885081012E+03 -0.18207932364E+02  0.10014169820E+04  0.91904965899E+03 0.  0.
         23    2    4    4    0    0  0.36914815075E+03  0.31836208201E+02  0.28363690865E+03  0.47551538396E+03  0.91548255519E+02 0.  0.
         23    2    4    4    0    0 -0.17900273353E+03 -0.38068701832E+03 -0.30184484101E+03  0.52590159806E+03  0.92182418429E+02 0.  0.
          4    1    3    3  502    0 -0.88836341759E+02  0.21499448136E+03 -0.27148852316E+03  0.35751998663E+03  0.00000000000E+00 0. -1.
         -3    1    3    3    0  502 -0.10130907545E+03  0.13385632876E+03 -0.28698681955E+03  0.33247929276E+03  0.00000000000E+00 0.  1.
         13    1    5    5    0    0  0.34158436612E+03  0.55077834505E+01  0.23961171247E+03  0.41728166460E+03  0.00000000000E+00 0. -1.
        -13    1    5    5    0    0  0.27563784622E+02  0.26328424750E+02  0.44025196181E+02  0.58233719367E+02  0.00000000000E+00 0.  1.
          4    1    6    6  503    0 -0.65609539519E+02 -0.23457955534E+03 -0.14552787548E+03  0.28374379641E+03  0.00000000000E+00 0. -1.
         -4    1    6    6    0  503 -0.11339319402E+03 -0.14610746298E+03 -0.15631696553E+03  0.24215780165E+03  0.00000000000E+00 0.  1.
<mgrwt>
<rscale>  0 0.15900709E+04</rscale>
<asrwt>0</asrwt>
<pdfrwt beam="1">  1        2 0.85748693E-01 0.15900709E+04</pdfrwt>
<pdfrwt beam="2">  1       -1 0.17446919E+00 0.15900709E+04</pdfrwt>
<totfact> 0.13560493E+01</totfact>
</mgrwt>
</event>
<event>
12    7  0.1698542E-007  0.1846242E+04  0.7818608E-02  0.8682088E-01
          2   -1    0    0  501    0  0.00000000000E+00  0.00000000000E+00  0.84455939605E+03  0.84455939605E+03  0.00000000000E+00 0. -1.
         -1   -1    0    0    0  501 -0.00000000000E+00 -0.00000000000E+00 -0.10089905542E+04  0.10089905542E+04  0.00000000000E+00 0.  1.
         24    2    1    2    0    0 -0.49195312368E+03 -0.41460554653E+03  0.22620600044E+03  0.68661546149E+03  0.79724539519E+02 0.  0.
        254    2    1    2    0    0  0.49195312368E+03  0.41460554653E+03 -0.39063715864E+03  0.11669344888E+04  0.89175281124E+03 0.  0.
         23    2    4    4    0    0  0.54064647179E+03 -0.22203686131E+02  0.33087513401E+02  0.54975391194E+03  0.91339854433E+02 0.  0.
         23    2    4    4    0    0 -0.48693348110E+02  0.43680923266E+03 -0.42372467204E+03  0.61718057688E+03  0.90531314413E+02 0.  0.
          2    1    3    3  502    0 -0.35969656281E+03 -0.33370912647E+03  0.14518421300E+03  0.51168530768E+03  0.00000000000E+00 0. -1.
         -1    1    3    3    0  502 -0.13225656087E+03 -0.80896420062E+02  0.81021787436E+02  0.17493015381E+03  0.00000000000E+00 0.  1.
         13    1    5    5    0    0  0.12498122537E+03 -0.29000872901E+02  0.38646493182E+02  0.13399592815E+03  0.00000000000E+00 0.  1.
        -13    1    5    5    0    0  0.41566524642E+03  0.67971867701E+01 -0.55589797807E+01  0.41575798379E+03  0.00000000000E+00 0. -1.
          4    1    6    6  503    0 -0.54804330056E+02  0.43661600084E+03 -0.42397968535E+03  0.61106122473E+03  0.00000000000E+00 0. -1.
         -4    1    6    6    0  503  0.61109819463E+01  0.19323182317E+00  0.25501330963E+00  0.61193521450E+01  0.00000000000E+00 0.  1.
<mgrwt>
<rscale>  0 0.18462421E+04</rscale>
<asrwt>0</asrwt>
<pdfrwt beam="1">  1        2 0.12993221E+00 0.18462421E+04</pdfrwt>
<pdfrwt beam="2">  1       -1 0.15522932E+00 0.18462421E+04</pdfrwt>
<totfact> 0.10924770E+01</totfact>
</mgrwt>
</event>
<event>
12    7  0.1698542E-007  0.1518532E+04  0.7818608E-02  0.8872222E-01
          2   -1    0    0  501    0  0.00000000000E+00  0.00000000000E+00  0.23309271583E+04  0.23309271583E+04  0.00000000000E+00 0. -1.
         -1   -1    0    0    0  501 -0.00000000000E+00 -0.00000000000E+00 -0.24732005031E+03  0.24732005031E+03  0.00000000000E+00 0.  1.
         24    2    1    2    0    0 -0.22832649219E+03 -0.30888953742E+03  0.16524484224E+03  0.42564418361E+03  0.79507105290E+02 0.  0.
        254    2    1    2    0    0  0.22832649219E+03  0.30888953742E+03  0.19183622658E+04  0.21526030250E+04  0.89779745334E+03 0.  0.
         23    2    4    4    0    0 -0.94764377021E+01  0.25415904746E+02 -0.76495641287E+02  0.12170820098E+03  0.90694718506E+02 0.  0.
         23    2    4    4    0    0  0.23780292989E+03  0.28347363267E+03  0.19948579071E+04  0.20308948240E+04  0.90378000986E+02 0.  0.
          4    1    3    3  502    0 -0.74363042673E+02 -0.11596511642E+03  0.10032718203E+03  0.17042098989E+03  0.00000000000E+00 0. -1.
         -3    1    3    3    0  502 -0.15396344952E+03 -0.19292442100E+03  0.64917660216E+02  0.25522319372E+03  0.00000000000E+00 0.  1.
         13    1    5    5    0    0  0.16359322054E+02  0.12465115014E+02  0.15194693398E+02  0.25571179438E+02  0.00000000000E+00 0. -1.
        -13    1    5    5    0    0 -0.25835759756E+02  0.12950789732E+02 -0.91690334685E+02  0.96137021545E+02  0.00000000000E+00 0.  1.
          3    1    6    6  503    0  0.31361693947E+01  0.11350991108E+01  0.14072781007E+03  0.14076732766E+03  0.00000000000E+00 0. -1.
         -3    1    6    6    0  503  0.23466676050E+03  0.28233853356E+03  0.18541300970E+04  0.18901274964E+04  0.00000000000E+00 0.  1.
<mgrwt>
<rscale>  0 0.15185322E+04</rscale>
<asrwt>0</asrwt>
<pdfrwt beam="1">  1        2 0.35860416E+00 0.15185322E+04</pdfrwt>
<pdfrwt beam="2">  1       -1 0.38049240E-01 0.15185322E+04</pdfrwt>
<totfact> 0.31976816E+01</totfact>
</mgrwt>
</event>
<event>
12    7  0.1698542E-007  0.3306598E+04  0.7818608E-02  0.8161219E-01
         -1   -1    0    0    0  501 -0.00000000000E+00  0.00000000000E+00  0.10293908567E+04  0.10293908567E+04  0.00000000000E+00 0.  1.
          2   -1    0    0  501    0  0.00000000000E+00 -0.00000000000E+00 -0.26553537811E+04  0.26553537811E+04  0.00000000000E+00 0. -1.
         24    2    1    2    0    0 -0.28128169471E+03 -0.26895272151E+03 -0.24036528831E+04  0.24362145648E+04  0.78353464779E+02 0.  0.
        254    2    1    2    0    0  0.28128169471E+03  0.26895272151E+03  0.77768995867E+03  0.12485300729E+04  0.89586311066E+03 0.  0.
         23    2    4    4    0    0  0.54439930882E+03 -0.13163645785E+02  0.30126408934E+03  0.62882691450E+03  0.90107423974E+02 0.  0.
         23    2    4    4    0    0 -0.26311761411E+03  0.28211636730E+03  0.47642586933E+03  0.61970315845E+03  0.90718642334E+02 0.  0.
          4    1    3    3  502    0 -0.13383650767E+03 -0.13025624071E+03 -0.13953436153E+04  0.14077864554E+04  0.00000000000E+00 0. -1.
         -3    1    3    3    0  502 -0.14744518704E+03 -0.13869648080E+03 -0.10083092677E+04  0.10284281095E+04  0.00000000000E+00 0.  1.
         13    1    5    5    0    0  0.62474853854E+02 -0.14740552500E+02  0.80078406468E+01  0.64687840928E+02  0.00000000000E+00 0. -1.
        -13    1    5    5    0    0  0.48192445497E+03  0.15769067156E+01  0.29325624870E+03  0.56413907357E+03  0.00000000000E+00 0.  1.
          1    1    6    6  503    0  0.36519671381E+01  0.19173326408E+02  0.40474432514E+02  0.44934763790E+02  0.00000000000E+00 0. -1.
         -1    1    6    6    0  503 -0.26676958125E+03  0.26294304089E+03  0.43595143682E+03  0.57476839466E+03  0.00000000000E+00 0.  1.
<mgrwt>
<rscale>  0 0.33065976E+04</rscale>
<asrwt>0</asrwt>
<pdfrwt beam="1">  1        2 0.40851596E+00 0.33065976E+04</pdfrwt>
<pdfrwt beam="2">  1       -1 0.15836783E+00 0.33065976E+04</pdfrwt>
<totfact> 0.80482099E-01</totfact>
</mgrwt>
</event>
<event>
12    7  0.1698542E-007  0.2560563E+04  0.7818608E-02  0.8381722E-01
         -1   -1    0    0    0  501 -0.00000000000E+00  0.00000000000E+00  0.56302469554E+03  0.56302469554E+03  0.00000000000E+00 0.  1.
          2   -1    0    0  501    0  0.00000000000E+00 -0.00000000000E+00 -0.29112769489E+04  0.29112769489E+04  0.00000000000E+00 0. -1.
         24    2    1    2    0    0  0.24837043522E+03 -0.10488192073E+04 -0.14712750562E+04  0.18255207807E+04  0.78525328578E+02 0.  0.
        254    2    1    2    0    0 -0.24837043522E+03  0.10488192073E+04 -0.87697719716E+03  0.16487808637E+04  0.88751322781E+03 0.  0.
         23    2    4    4    0    0 -0.32439927570E+03  0.33362418351E+03  0.44092873597E+02  0.47609741474E+03  0.90468673715E+02 0.  0.
         23    2    4    4    0    0  0.76028840475E+02  0.71519502377E+03 -0.92107007076E+03  0.11726834490E+04  0.97632420979E+02 0.  0.
          4    1    3    3  502    0  0.24878777811E+03 -0.96877415855E+03 -0.13752222033E+04  0.17004866472E+04  0.00000000000E+00 0. -1.
         -1    1    3    3    0  502 -0.41734288144E+00 -0.80045048725E+02 -0.96052852933E+02  0.12503413357E+03  0.00000000000E+00 0.  1.
         13    1    5    5    0    0 -0.15455505350E+03  0.10114295349E+03 -0.76362490142E+00  0.18470989341E+03  0.00000000000E+00 0. -1.
        -13    1    5    5    0    0 -0.16984422220E+03  0.23248123002E+03  0.44856498499E+02  0.29138752132E+03  0.00000000000E+00 0.  1.
          3    1    6    6  503    0  0.83898831113E+02  0.71001452394E+03 -0.91598765163E+03  0.11619780618E+04  0.00000000000E+00 0.  1.
         -3    1    6    6    0  503 -0.78699906372E+01  0.51804998274E+01 -0.50824191300E+01  0.10705387209E+02  0.00000000000E+00 0. -1.
<mgrwt>
<rscale>  0 0.25605631E+04</rscale>
<asrwt>0</asrwt>
<pdfrwt beam="1">  1        2 0.44788876E+00 0.25605631E+04</pdfrwt>
<pdfrwt beam="2">  1       -1 0.86619184E-01 0.25605631E+04</pdfrwt>
<totfact> 0.26213997E+00</totfact>
</mgrwt>
</event>
<event>
12    7  0.1698542E-007  0.2182892E+04  0.7818608E-02  0.8525583E-01
          2   -1    0    0  501    0  0.00000000000E+00  0.00000000000E+00  0.27881734054E+04  0.27881734054E+04  0.00000000000E+00 0. -1.
         -1   -1    0    0    0  501 -0.00000000000E+00 -0.00000000000E+00 -0.42725250943E+03  0.42725250943E+03  0.00000000000E+00 0.  1.
         24    2    1    2    0    0 -0.43625886728E+03 -0.70995426399E+03  0.47504393198E+03  0.96214674657E+03  0.75516676234E+02 0.  0.
        254    2    1    2    0    0  0.43625886728E+03  0.70995426399E+03  0.18858769640E+04  0.22532791683E+04  0.90905348060E+03 0.  0.
         23    2    4    4    0    0 -0.47259605667E+02 -0.16539220469E+03  0.14197938003E+03  0.24096230296E+03  0.91195588685E+02 0.  0.
         23    2    4    4    0    0  0.48351847294E+03  0.87534646868E+03  0.17438975840E+04  0.20123168653E+04  0.90657758180E+02 0.  0.
          2    1    3    3  502    0 -0.21516535054E+03 -0.34278043890E+03  0.18759423614E+03  0.44607864195E+03  0.00000000000E+00 0. -1.
         -1    1    3    3    0  502 -0.22109351673E+03 -0.36717382509E+03  0.28744969584E+03  0.51606810462E+03  0.00000000000E+00 0.  1.
         13    1    5    5    0    0  0.21277131395E+02 -0.91242172033E+02  0.66283620484E+02  0.11476658321E+03  0.00000000000E+00 0. -1.
        -13    1    5    5    0    0 -0.68536737063E+02 -0.74150032656E+02  0.75695759543E+02  0.12619571975E+03  0.00000000000E+00 0.  1.
          2    1    6    6  503    0  0.22025024312E+02  0.86142916373E+02  0.13081097732E+03  0.15816831391E+03  0.00000000000E+00 0.  1.
         -2    1    6    6    0  503  0.46149344863E+03  0.78920355231E+03  0.16130866067E+04  0.18541485514E+04  0.00000000000E+00 0. -1.
<mgrwt>
<rscale>  0 0.21828917E+04</rscale>
<asrwt>0</asrwt>
<pdfrwt beam="1">  1        2 0.42894974E+00 0.21828917E+04</pdfrwt>
<pdfrwt beam="2">  1       -1 0.65731157E-01 0.21828917E+04</pdfrwt>
<totfact> 0.57483004E+00</totfact>
</mgrwt>
</event>
<event>
12    7  0.1698542E-007  0.1951294E+04  0.7818608E-02  0.8629737E-01
          2   -1    0    0  501    0  0.00000000000E+00  0.00000000000E+00  0.22716089291E+04  0.22716089291E+04  0.00000000000E+00 0. -1.
         -1   -1    0    0    0  501 -0.00000000000E+00 -0.00000000000E+00 -0.41903662963E+03  0.41903662963E+03  0.00000000000E+00 0.  1.
         24    2    1    2    0    0  0.80273106216E+02  0.60770231827E+03  0.13609678085E+04  0.14948659798E+04  0.81517129289E+02 0.  0.
        254    2    1    2    0    0 -0.80273106216E+02 -0.60770231827E+03  0.49160449090E+03  0.11957795789E+04  0.90137003874E+03 0.  0.
         23    2    4    4    0    0 -0.29150563630E+03 -0.22101986077E+03  0.62177682654E+03  0.72719384430E+03  0.91537698868E+02 0.  0.
         23    2    4    4    0    0  0.21123253009E+03 -0.38668245750E+03 -0.13017233564E+03  0.46858573464E+03  0.92115411550E+02 0.  0.
          2    1    3    3  502    0  0.23727623194E+02  0.69609462709E+02  0.22316752668E+03  0.23497281197E+03  0.00000000000E+00 0. -1.
         -1    1    3    3    0  502  0.56545483022E+02  0.53809285556E+03  0.11378002818E+04  0.12598931678E+04  0.00000000000E+00 0.  1.
         13    1    5    5    0    0 -0.12388697879E+02 -0.30921052172E+02  0.25587533849E+02  0.42003728299E+02  0.00000000000E+00 0.  1.
        -13    1    5    5    0    0 -0.27911693842E+03 -0.19009880860E+03  0.59618929269E+03  0.68519011600E+03  0.00000000000E+00 0. -1.
          1    1    6    6  503    0  0.14272531267E+03 -0.33488050766E+03 -0.11113909039E+03  0.38061445939E+03  0.00000000000E+00 0. -1.
         -1    1    6    6    0  503  0.68507217412E+02 -0.51801949840E+02 -0.19033245244E+02  0.87971275251E+02  0.00000000000E+00 0.  1.
<mgrwt>
<rscale>  0 0.19512943E+04</rscale>
<asrwt>0</asrwt>
<pdfrwt beam="1">  1        2 0.34947829E+00 0.19512943E+04</pdfrwt>
<pdfrwt beam="2">  1       -1 0.64467175E-01 0.19512943E+04</pdfrwt>
<totfact> 0.12191847E+01</totfact>
</mgrwt>
</event>
<event>
12    7  0.1698542E-007  0.2631138E+04  0.7818608E-02  0.8357700E-01
          2   -1    0    0  501    0  0.00000000000E+00  0.00000000000E+00  0.42969853213E+04  0.42969853213E+04  0.00000000000E+00 0. -1.
         -1   -1    0    0    0  501 -0.00000000000E+00 -0.00000000000E+00 -0.40277595678E+03  0.40277595678E+03  0.00000000000E+00 0.  1.
         24    2    1    2    0    0  0.63669523677E+03 -0.80314934554E+03  0.27484598019E+04  0.29343925531E+04  0.78731677418E+02 0.  0.
        254    2    1    2    0    0 -0.63669523677E+03  0.80314934554E+03  0.11457495626E+04  0.17653687250E+04  0.86796024059E+03 0.  0.
         23    2    4    4    0    0 -0.31706335507E+03  0.22079509697E+03  0.10058538483E+04  0.10813960507E+04  0.91628644585E+02 0.  0.
         23    2    4    4    0    0 -0.31963188169E+03  0.58235424856E+03  0.13989571434E+03  0.68397267426E+03  0.83347451256E+02 0.  0.
          4    1    3    3  502    0  0.54179076170E+03 -0.67731756216E+03  0.22397852968E+04  0.24018606299E+04  0.00000000000E+00 0. -1.
         -3    1    3    3    0  502  0.94904475069E+02 -0.12583178337E+03  0.50867450509E+03  0.53253192319E+03  0.00000000000E+00 0.  1.
         13    1    5    5    0    0 -0.20316432773E+03  0.18518057499E+03  0.63902991611E+03  0.69564849105E+03  0.00000000000E+00 0.  1.
        -13    1    5    5    0    0 -0.11389902735E+03  0.35614521984E+02  0.36682393214E+03  0.38574755968E+03  0.00000000000E+00 0. -1.
          1    1    6    6  503    0 -0.12941296205E+03  0.18896103016E+03  0.81609919852E+02  0.24313404674E+03  0.00000000000E+00 0. -1.
         -1    1    6    6    0  503 -0.19021891964E+03  0.39339321840E+03  0.58285794487E+02  0.44083862752E+03  0.00000000000E+00 0.  1.
<mgrwt>
<rscale>  0 0.26311384E+04</rscale>
<asrwt>0</asrwt>
<pdfrwt beam="1">  1        2 0.66107463E+00 0.26311384E+04</pdfrwt>
<pdfrwt beam="2">  1       -1 0.61965535E-01 0.26311384E+04</pdfrwt>
<totfact> 0.50734960E-01</totfact>
</mgrwt>
</event>
<event>
12    7  0.1698542E-007  0.3700993E+04  0.7818608E-02  0.8067742E-01
         -1   -1    0    0    0  501 -0.00000000000E+00  0.00000000000E+00  0.88252747198E+03  0.88252747198E+03  0.00000000000E+00 0.  1.
          2   -1    0    0  501    0  0.00000000000E+00 -0.00000000000E+00 -0.38801487410E+04  0.38801487410E+04  0.00000000000E+00 0. -1.
         24    2    1    2    0    0  0.12233852276E+04 -0.73212705123E+03 -0.26898803315E+04  0.30454176995E+04  0.80195585319E+02 0.  0.
        254    2    1    2    0    0 -0.12233852276E+04  0.73212705123E+03 -0.30774093744E+03  0.17172585135E+04  0.90641650641E+03 0.  0.
         23    2    4    4    0    0 -0.23172504680E+03  0.21498667585E+03  0.29684741025E+03  0.44313577590E+03  0.91297112811E+02 0.  0.
         23    2    4    4    0    0 -0.99166018084E+03  0.51714037538E+03 -0.60458834769E+03  0.12741227376E+04  0.83890393166E+02 0.  0.
          4    1    3    3  502    0  0.10099982091E+04 -0.60301170448E+03 -0.21515732277E+04  0.24521392400E+04  0.00000000000E+00 0. -1.
         -3    1    3    3    0  502  0.21338701856E+03 -0.12911534675E+03 -0.53830710382E+03  0.59327845947E+03  0.00000000000E+00 0.  1.
         13    1    5    5    0    0 -0.85508406544E+02  0.50159151272E+02  0.14459327911E+03  0.17531356025E+03  0.00000000000E+00 0. -1.
        -13    1    5    5    0    0 -0.14621664026E+03  0.16482752458E+03  0.15225413114E+03  0.26782221565E+03  0.00000000000E+00 0.  1.
          3    1    6    6  503    0 -0.40164355473E+03  0.25042294863E+03 -0.23273724042E+03  0.52744271853E+03  0.00000000000E+00 0. -1.
         -3    1    6    6    0  503 -0.59001662612E+03  0.26671742675E+03 -0.37185110726E+03  0.74668001902E+03  0.00000000000E+00 0.  1.
<mgrwt>
<rscale>  0 0.37009933E+04</rscale>
<asrwt>0</asrwt>
<pdfrwt beam="1">  1        2 0.59694596E+00 0.37009933E+04</pdfrwt>
<pdfrwt beam="2">  1       -1 0.13577346E+00 0.37009933E+04</pdfrwt>
<totfact> 0.17688907E-01</totfact>
</mgrwt>
</event>
<event>
12    7  0.1698542E-007  0.1387328E+04  0.7818608E-02  0.8963042E-01
         -1   -1    0    0    0  501 -0.00000000000E+00  0.00000000000E+00  0.29182259984E+03  0.29182259984E+03  0.00000000000E+00 0.  1.
          2   -1    0    0  501    0  0.00000000000E+00 -0.00000000000E+00 -0.16488440484E+04  0.16488440484E+04  0.00000000000E+00 0. -1.
         24    2    1    2    0    0  0.40758941350E+02  0.30070714585E+03 -0.75072101497E+03  0.81378248561E+03  0.81079052171E+02 0.  0.
        254    2    1    2    0    0 -0.40758941350E+02 -0.30070714585E+03 -0.60630043361E+03  0.11268841626E+04  0.90010089510E+03 0.  0.
         23    2    4    4    0    0  0.35060791607E+03 -0.25893304120E+03 -0.62658678799E+02  0.44968593400E+03  0.91209092619E+02 0.  0.
         23    2    4    4    0    0 -0.39136685742E+03 -0.41774104653E+02 -0.54364175482E+03  0.67719822864E+03  0.90210810842E+02 0.  0.
          2    1    3    3  502    0  0.54151031519E+02  0.11020768008E+03 -0.31243260655E+03  0.33569659009E+03  0.00000000000E+00 0. -1.
         -1    1    3    3    0  502 -0.13392090169E+02  0.19049946577E+03 -0.43828840842E+03  0.47808589552E+03  0.00000000000E+00 0.  1.
         13    1    5    5    0    0  0.21856802734E+03 -0.12437736379E+03 -0.69946048677E+02  0.26102521128E+03  0.00000000000E+00 0.  1.
        -13    1    5    5    0    0  0.13203988873E+03 -0.13455567741E+03  0.72873698785E+01  0.18866072272E+03  0.00000000000E+00 0. -1.
          2    1    6    6  503    0 -0.18018978306E+03  0.67934371239E+01 -0.30932092980E+03  0.35804182203E+03  0.00000000000E+00 0. -1.
         -2    1    6    6    0  503 -0.21117707436E+03 -0.48567541777E+02 -0.23432082502E+03  0.31915640662E+03  0.00000000000E+00 0.  1.
<mgrwt>
<rscale>  0 0.13873283E+04</rscale>
<asrwt>0</asrwt>
<pdfrwt beam="1">  1        2 0.25366832E+00 0.13873283E+04</pdfrwt>
<pdfrwt beam="2">  1       -1 0.44895784E-01 0.13873283E+04</pdfrwt>
<totfact> 0.57166381E+01</totfact>
</mgrwt>
</event>
<event>
12    7  0.1698542E-007  0.1752074E+04  0.7818608E-02  0.8732209E-01
         -1   -1    0    0    0  501 -0.00000000000E+00  0.00000000000E+00  0.40733626716E+03  0.40733626716E+03  0.00000000000E+00 0.  1.
          2   -1    0    0  501    0  0.00000000000E+00 -0.00000000000E+00 -0.18840474232E+04  0.18840474232E+04  0.00000000000E+00 0. -1.
         24    2    1    2    0    0 -0.30793227699E+03  0.55907151857E+03 -0.45265575029E+03  0.78664181971E+03  0.80776693130E+02 0.  0.
        254    2    1    2    0    0  0.30793227699E+03 -0.55907151857E+03 -0.10240554057E+04  0.15047418706E+04  0.89898574691E+03 0.  0.
         23    2    4    4    0    0  0.19977924314E+03 -0.47013944698E+03 -0.11717443083E+04  0.12815065828E+04  0.91277335798E+02 0.  0.
         23    2    4    4    0    0  0.10815303384E+03 -0.88932071590E+02  0.14768890259E+03  0.22323528786E+03  0.91738703450E+02 0.  0.
          4    1    3    3  502    0 -0.22546489143E+03  0.39894004991E+03 -0.36751422870E+03  0.58741321826E+03  0.00000000000E+00 0. -1.
         -1    1    3    3    0  502 -0.82467385551E+02  0.16013146866E+03 -0.85141521596E+02  0.19922860145E+03  0.00000000000E+00 0.  1.
         13    1    5    5    0    0  0.21967267269E+02 -0.31292844747E+02 -0.43405329926E+02  0.57843112206E+02  0.00000000000E+00 0.  1.
        -13    1    5    5    0    0  0.17781197587E+03 -0.43884660224E+03 -0.11283389784E+04  0.12236634706E+04  0.00000000000E+00 0. -1.
          2    1    6    6  503    0  0.83651415608E+02 -0.80790666966E+02  0.58101881785E+02  0.13000199948E+03  0.00000000000E+00 0. -1.
         -2    1    6    6    0  503  0.24501618235E+02 -0.81414046240E+01  0.89587020802E+02  0.93233288376E+02  0.00000000000E+00 0.  1.
<mgrwt>
<rscale>  0 0.17520740E+04</rscale>
<asrwt>0</asrwt>
<pdfrwt beam="1">  1        2 0.28985345E+00 0.17520740E+04</pdfrwt>
<pdfrwt beam="2">  1       -1 0.62667117E-01 0.17520740E+04</pdfrwt>
<totfact> 0.21603769E+01</totfact>
</mgrwt>
</event>
<event>
12    7  0.1698542E-007  0.2196385E+04  0.7818608E-02  0.8519934E-01
          2   -1    0    0  501    0  0.00000000000E+00  0.00000000000E+00  0.27691234415E+04  0.27691234415E+04  0.00000000000E+00 0. -1.
         -1   -1    0    0    0  501 -0.00000000000E+00 -0.00000000000E+00 -0.43552643769E+03  0.43552643769E+03  0.00000000000E+00 0.  1.
         24    2    1    2    0    0  0.48605238223E+02 -0.50967702384E+03  0.20748755860E+04  0.21386016237E+04  0.79844033371E+02 0.  0.
        254    2    1    2    0    0 -0.48605238223E+02  0.50967702384E+03  0.25872141774E+03  0.10660482554E+04  0.89854825863E+03 0.  0.
         23    2    4    4    0    0  0.13962524221E+03  0.65781961969E+03 -0.30110538868E+02  0.67917317176E+03  0.90264568755E+02 0.  0.
         23    2    4    4    0    0 -0.18823048043E+03 -0.14814259585E+03  0.28883195661E+03  0.38687508367E+03  0.94188580715E+02 0.  0.
          2    1    3    3  502    0  0.51735217404E+02 -0.51110093136E+03  0.20453230033E+04  0.21088496586E+04  0.00000000000E+00 0. -1.
         -1    1    3    3    0  502 -0.31299791810E+01  0.14239075282E+01  0.29552582722E+02  0.29751965109E+02  0.00000000000E+00 0.  1.
         13    1    5    5    0    0  0.15021616132E+03  0.56075736056E+03 -0.18233627881E+02  0.58081509771E+03  0.00000000000E+00 0.  1.
        -13    1    5    5    0    0 -0.10590919116E+02  0.97062259131E+02 -0.11876910986E+02  0.98358074045E+02  0.00000000000E+00 0. -1.
          3    1    6    6  503    0  0.10435440208E+02 -0.51805770537E+01  0.21269604481E+02  0.24251450796E+02  0.00000000000E+00 0. -1.
         -3    1    6    6    0  503 -0.19866592064E+03 -0.14296201880E+03  0.26756235213E+03  0.36262363287E+03  0.00000000000E+00 0.  1.
<mgrwt>
<rscale>  0 0.21963847E+04</rscale>
<asrwt>0</asrwt>
<pdfrwt beam="1">  1        2 0.42601898E+00 0.21963847E+04</pdfrwt>
<pdfrwt beam="2">  1       -1 0.67004069E-01 0.21963847E+04</pdfrwt>
<totfact> 0.56701530E+00</totfact>
</mgrwt>
</event>
<event>
12    7  0.1698542E-007  0.1464251E+04  0.7818608E-02  0.8908580E-01
          2   -1    0    0  501    0  0.00000000000E+00  0.00000000000E+00  0.19228095925E+04  0.19228095925E+04  0.00000000000E+00 0. -1.
         -1   -1    0    0    0  501 -0.00000000000E+00 -0.00000000000E+00 -0.27876276784E+03  0.27876276784E+03  0.00000000000E+00 0.  1.
         24    2    1    2    0    0  0.14997274786E+03  0.36728176324E+03  0.85337380948E+03  0.94439196873E+03  0.79003880854E+02 0.  0.
        254    2    1    2    0    0 -0.14997274786E+03 -0.36728176324E+03  0.79067301518E+03  0.12571803916E+04  0.89328103158E+03 0.  0.
         23    2    4    4    0    0 -0.38222386239E+03 -0.20306832835E+03  0.34121606554E+02  0.44402035512E+03  0.93048185207E+02 0.  0.
         23    2    4    4    0    0  0.23225111452E+03 -0.16421343489E+03  0.75655140862E+03  0.81316003648E+03  0.89177231664E+02 0.  0.
          4    1    3    3  502    0  0.11275611115E+03  0.30012101164E+03  0.74974792386E+03  0.81541922442E+03  0.00000000000E+00 0. -1.
         -3    1    3    3    0  502  0.37216636711E+02  0.67160751604E+02  0.10362588562E+03  0.12897274431E+03  0.00000000000E+00 0.  1.
         13    1    5    5    0    0 -0.13417523993E+02 -0.12234437285E+02  0.22086272428E+02  0.28592216345E+02  0.00000000000E+00 0. -1.
        -13    1    5    5    0    0 -0.36880633839E+03 -0.19083389107E+03  0.12035334127E+02  0.41542813877E+03  0.00000000000E+00 0.  1.
          2    1    6    6  503    0  0.23379211487E+02 -0.54029053123E+02  0.20241005671E+03  0.21079743160E+03  0.00000000000E+00 0. -1.
         -2    1    6    6    0  503  0.20887190303E+03 -0.11018438177E+03  0.55414135192E+03  0.60236260489E+03  0.00000000000E+00 0.  1.
<mgrwt>
<rscale>  0 0.14642510E+04</rscale>
<asrwt>0</asrwt>
<pdfrwt beam="1">  1        2 0.29581685E+00 0.14642510E+04</pdfrwt>
<pdfrwt beam="2">  1       -1 0.42886581E-01 0.14642510E+04</pdfrwt>
<totfact> 0.43606902E+01</totfact>
</mgrwt>
</event>
<event>
12    7  0.1698542E-007  0.3464374E+04  0.7818608E-02  0.8122285E-01
         -1   -1    0    0    0  501 -0.00000000000E+00  0.00000000000E+00  0.10853068305E+04  0.10853068305E+04  0.00000000000E+00 0.  1.
          2   -1    0    0  501    0  0.00000000000E+00 -0.00000000000E+00 -0.27646298496E+04  0.27646298496E+04  0.00000000000E+00 0. -1.
         24    2    1    2    0    0 -0.12893049244E+04 -0.71223756971E+02  0.28150193216E+03  0.13240305515E+04  0.80209423807E+02 0.  0.
        254    2    1    2    0    0  0.12893049244E+04  0.71223756971E+02 -0.19608249513E+04  0.25259061286E+04  0.93165834363E+03 0.  0.
         23    2    4    4    0    0  0.61395437751E+03  0.37488569290E+03 -0.48491467590E+03  0.87218127092E+03  0.89881399775E+02 0.  0.
         23    2    4    4    0    0  0.67535054693E+03 -0.30366193593E+03 -0.14759102754E+04  0.16537248577E+04  0.90475584727E+02 0.  0.
          2    1    3    3  502    0 -0.10719403491E+04 -0.37067690355E+02  0.21245992415E+03  0.10934209369E+04  0.00000000000E+00 0. -1.
         -1    1    3    3    0  502 -0.21736457531E+03 -0.34156066616E+02  0.69042008008E+02  0.23060961462E+03  0.00000000000E+00 0.  1.
         13    1    5    5    0    0  0.41354232758E+02  0.16538640839E+02 -0.57870517558E+02  0.73025310751E+02  0.00000000000E+00 0. -1.
        -13    1    5    5    0    0  0.57260014475E+03  0.35834705206E+03 -0.42704415835E+03  0.79915596017E+03  0.00000000000E+00 0.  1.
          2    1    6    6  503    0  0.22607099349E+03 -0.14547000324E+03 -0.49525775001E+03  0.56351562081E+03  0.00000000000E+00 0. -1.
         -2    1    6    6    0  503  0.44927955344E+03 -0.15819193268E+03 -0.98065252536E+03  0.10902092369E+04  0.00000000000E+00 0.  1.
<mgrwt>
<rscale>  0 0.34643739E+04</rscale>
<asrwt>0</asrwt>
<pdfrwt beam="1">  1        2 0.42532766E+00 0.34643739E+04</pdfrwt>
<pdfrwt beam="2">  1       -1 0.16697028E+00 0.34643739E+04</pdfrwt>
<totfact> 0.58889927E-01</totfact>
</mgrwt>
</event>
<event>
12    7  0.1698542E-007  0.3426541E+04  0.7818608E-02  0.8131423E-01
         -1   -1    0    0    0  501 -0.00000000000E+00  0.00000000000E+00  0.11173708357E+04  0.11173708357E+04  0.00000000000E+00 0.  1.
          2   -1    0    0  501    0  0.00000000000E+00 -0.00000000000E+00 -0.26269672329E+04  0.26269672329E+04  0.00000000000E+00 0. -1.
         24    2    1    2    0    0 -0.28252130000E+03  0.45836456557E+03 -0.23420411766E+04  0.24043872569E+04  0.77490956267E+02 0.  0.
        254    2    1    2    0    0  0.28252130000E+03 -0.45836456557E+03  0.83244477940E+03  0.13399508118E+04  0.90143635785E+03 0.  0.
         23    2    4    4    0    0  0.59767293789E+03 -0.22398966093E+03  0.54374334018E+03  0.84343218980E+03  0.91305694793E+02 0.  0.
         23    2    4    4    0    0 -0.31515163789E+03 -0.23437490464E+03  0.28870143922E+03  0.49651862196E+03  0.94499048433E+02 0.  0.
          2    1    3    3  502    0 -0.28004474209E+03  0.45157983305E+03 -0.22429144554E+04  0.23049977565E+04  0.00000000000E+00 0. -1.
         -1    1    3    3    0  502 -0.24765579063E+01  0.67847325116E+01 -0.99126721144E+02  0.99389500346E+02  0.00000000000E+00 0.  1.
         13    1    5    5    0    0  0.18940638840E+03 -0.11587244060E+03  0.20132765542E+03  0.29972325117E+03  0.00000000000E+00 0.  1.
        -13    1    5    5    0    0  0.40826654950E+03 -0.10811722032E+03  0.34241568476E+03  0.54370893862E+03  0.00000000000E+00 0. -1.
          2    1    6    6  503    0 -0.79346911763E+02 -0.28517561613E+02  0.10086945403E+03  0.13146798273E+03  0.00000000000E+00 0.  1.
         -2    1    6    6    0  503 -0.23580472613E+03 -0.20585734303E+03  0.18783198519E+03  0.36505063923E+03  0.00000000000E+00 0. -1.
<mgrwt>
<rscale>  0 0.34265414E+04</rscale>
<asrwt>0</asrwt>
<pdfrwt beam="1">  1        2 0.40414880E+00 0.34265414E+04</pdfrwt>
<pdfrwt beam="2">  1       -1 0.17190321E+00 0.34265414E+04</pdfrwt>
<totfact> 0.65643998E-01</totfact>
</mgrwt>
</event>
<event>
12    7  0.1698542E-007  0.1260323E+04  0.7818608E-02  0.9061635E-01
          2   -1    0    0  501    0  0.00000000000E+00  0.00000000000E+00  0.10412149884E+04  0.10412149884E+04  0.00000000000E+00 0. -1.
         -1   -1    0    0    0  501 -0.00000000000E+00 -0.00000000000E+00 -0.38138503527E+03  0.38138503527E+03  0.00000000000E+00 0.  1.
         24    2    1    2    0    0 -0.70159887207E+02 -0.17879690318E+03 -0.99504654815E+02  0.23056597211E+03  0.79804441007E+02 0.  0.
        254    2    1    2    0    0  0.70159887207E+02  0.17879690318E+03  0.75933460798E+03  0.11920340516E+04  0.89859078056E+03 0.  0.
         23    2    4    4    0    0 -0.15796394365E+03 -0.23604173727E+03  0.62306207536E+03  0.69077593938E+03  0.91086439438E+02 0.  0.
         23    2    4    4    0    0  0.22812383085E+03  0.41483864045E+03  0.13627253262E+03  0.50125811221E+03  0.92508983862E+02 0.  0.
          4    1    3    3  502    0  0.25185625664E+01 -0.57800992046E+02 -0.61406811690E+02  0.84368799688E+02  0.00000000000E+00 0. -1.
         -3    1    3    3    0  502 -0.72678449774E+02 -0.12099591114E+03 -0.38097843125E+02  0.14619717242E+03  0.00000000000E+00 0.  1.
         13    1    5    5    0    0  0.39709986127E+01 -0.28373473352E+02  0.28060671096E+02  0.40102669268E+02  0.00000000000E+00 0.  1.
        -13    1    5    5    0    0 -0.16193494226E+03 -0.20766826391E+03  0.59500140426E+03  0.65067327011E+03  0.00000000000E+00 0. -1.
          3    1    6    6  503    0  0.63245800896E+02  0.14729514556E+03  0.41679134232E+01  0.16035355543E+03  0.00000000000E+00 0. -1.
         -3    1    6    6    0  503  0.16487802996E+03  0.26754349489E+03  0.13210461920E+03  0.34090455678E+03  0.00000000000E+00 0.  1.
<mgrwt>
<rscale>  0 0.12603235E+04</rscale>
<asrwt>0</asrwt>
<pdfrwt beam="1">  1        2 0.16018692E+00 0.12603235E+04</pdfrwt>
<pdfrwt beam="2">  1       -1 0.58674621E-01 0.12603235E+04</pdfrwt>
<totfact> 0.78236580E+01</totfact>
</mgrwt>
</event>
<event>
12    7  0.1698542E-007  0.1563215E+04  0.7818608E-02  0.8843470E-01
          2   -1    0    0  501    0  0.00000000000E+00  0.00000000000E+00  0.16636192124E+04  0.16636192124E+04  0.00000000000E+00 0. -1.
         -1   -1    0    0    0  501 -0.00000000000E+00 -0.00000000000E+00 -0.36721776397E+03  0.36721776397E+03  0.00000000000E+00 0.  1.
         24    2    1    2    0    0 -0.38303535842E+03  0.29153087221E+03  0.67641334268E+03  0.83345968837E+03  0.73577895733E+02 0.  0.
        254    2    1    2    0    0  0.38303535842E+03 -0.29153087221E+03  0.61998810578E+03  0.11973772880E+04  0.90422385685E+03 0.  0.
         23    2    4    4    0    0  0.46690812773E+03  0.18223984880E+03  0.18310591664E+03  0.54131646234E+03  0.91000953082E+02 0.  0.
         23    2    4    4    0    0 -0.83872769303E+02 -0.47377072101E+03  0.43688218914E+03  0.65606082568E+03  0.89757575042E+02 0.  0.
          4    1    3    3  502    0 -0.27670134151E+03  0.24203032425E+03  0.47864287844E+03  0.60352408016E+03  0.00000000000E+00 0. -1.
         -3    1    3    3    0  502 -0.10633401692E+03  0.49500547961E+02  0.19777046424E+03  0.22993560822E+03  0.00000000000E+00 0.  1.
         13    1    5    5    0    0  0.14728013980E+02  0.13598405687E+02 -0.88832129598E+01  0.21925841044E+02  0.00000000000E+00 0.  1.
        -13    1    5    5    0    0  0.45218011375E+03  0.16864144312E+03  0.19198912960E+03  0.51939062130E+03  0.00000000000E+00 0. -1.
          3    1    6    6  503    0 -0.85344308351E+02 -0.46831233766E+03  0.44112496407E+03  0.64899255042E+03  0.00000000000E+00 0. -1.
         -3    1    6    6    0  503  0.14715390480E+01 -0.54583833520E+01 -0.42427749299E+01  0.70682752558E+01  0.00000000000E+00 0.  1.
<mgrwt>
<rscale>  0 0.15632153E+04</rscale>
<asrwt>0</asrwt>
<pdfrwt beam="1">  1        2 0.25594141E+00 0.15632153E+04</pdfrwt>
<pdfrwt beam="2">  1       -1 0.56495042E-01 0.15632153E+04</pdfrwt>
<totfact> 0.35693817E+01</totfact>
</mgrwt>
</event>
<event>
12    7  0.1698542E-007  0.1267414E+04  0.7818608E-02  0.9055813E-01
          2   -1    0    0  501    0  0.00000000000E+00  0.00000000000E+00  0.12515476021E+04  0.12515476021E+04  0.00000000000E+00 0. -1.
         -1   -1    0    0    0  501 -0.00000000000E+00 -0.00000000000E+00 -0.32087049059E+03  0.32087049059E+03  0.00000000000E+00 0.  1.
         24    2    1    2    0    0  0.16307466915E+03 -0.14535532147E+03 -0.10057777516E+02  0.24307562615E+03  0.10612767754E+03 0.  0.
        254    2    1    2    0    0 -0.16307466915E+03  0.14535532147E+03  0.94073488901E+03  0.13293424665E+04  0.91348111349E+03 0.  0.
         23    2    4    4    0    0  0.22720181967E+03  0.32004754643E+03  0.15849445651E+03  0.43317708284E+03  0.92036913867E+02 0.  0.
         23    2    4    4    0    0 -0.39027648882E+03 -0.17469222496E+03  0.78224043250E+03  0.89616538368E+03  0.91537912813E+02 0.  0.
          2    1    3    3  502    0  0.11088122188E+03 -0.10876586049E+03  0.41863473030E+02  0.16086394297E+03  0.00000000000E+00 0. -1.
         -1    1    3    3    0  502  0.52193447267E+02 -0.36589460983E+02 -0.51921250546E+02  0.82211683177E+02  0.00000000000E+00 0.  1.
         13    1    5    5    0    0  0.13926179703E+03  0.23079849135E+03  0.66227685777E+02  0.27757503145E+03  0.00000000000E+00 0. -1.
        -13    1    5    5    0    0  0.87940022644E+02  0.89249055085E+02  0.92266770734E+02  0.15560205139E+03  0.00000000000E+00 0.  1.
          2    1    6    6  503    0 -0.20695150261E+03 -0.45343485368E+02  0.41103918676E+03  0.46242639323E+03  0.00000000000E+00 0. -1.
         -2    1    6    6    0  503 -0.18332498620E+03 -0.12934873959E+03  0.37120124574E+03  0.43373899045E+03  0.00000000000E+00 0.  1.
<mgrwt>
<rscale>  0 0.12674142E+04</rscale>
<asrwt>0</asrwt>
<pdfrwt beam="1">  1        2 0.19254578E+00 0.12674142E+04</pdfrwt>
<pdfrwt beam="2">  1       -1 0.49364692E-01 0.12674142E+04</pdfrwt>
<totfact> 0.81268962E+01</totfact>
</mgrwt>
</event>
<event>
12    7  0.1698542E-007  0.1319326E+04  0.7818608E-02  0.9014379E-01
          2   -1    0    0  501    0  0.00000000000E+00  0.00000000000E+00  0.51315823608E+03  0.51315823608E+03  0.00000000000E+00 0. -1.
         -1   -1    0    0    0  501 -0.00000000000E+00 -0.00000000000E+00 -0.84799394670E+03  0.84799394670E+03  0.00000000000E+00 0.  1.
         24    2    1    2    0    0 -0.72810305376E+02  0.20505224628E+03  0.18353120463E+03  0.29553328091E+03  0.79425768980E+02 0.  0.
        254    2    1    2    0    0  0.72810305376E+02 -0.20505224628E+03 -0.51836691525E+03  0.10656189019E+04  0.90525776491E+03 0.  0.
         23    2    4    4    0    0  0.45772323044E+03  0.12397029431E+01 -0.15808009573E+03  0.49236696214E+03  0.89015819896E+02 0.  0.
         23    2    4    4    0    0 -0.38491292506E+03 -0.20629194922E+03 -0.36028681952E+03  0.57325193974E+03  0.89982586680E+02 0.  0.
          4    1    3    3  502    0 -0.74692023496E+02  0.19140438353E+03  0.13685924153E+03  0.24687038786E+03  0.00000000000E+00 0. -1.
         -3    1    3    3    0  502  0.18817181201E+01  0.13647862751E+02  0.46671963096E+02  0.48662893050E+02  0.00000000000E+00 0.  1.
         13    1    5    5    0    0  0.19277154332E+02 -0.17915645740E+02 -0.17224115300E+02  0.31452332017E+02  0.00000000000E+00 0.  1.
        -13    1    5    5    0    0  0.43844607610E+03  0.19155348683E+02 -0.14085598043E+03  0.46091463012E+03  0.00000000000E+00 0. -1.
          2    1    6    6  503    0 -0.37486259289E+03 -0.17890893156E+03 -0.34682365611E+03  0.54112569498E+03  0.00000000000E+00 0. -1.
         -2    1    6    6    0  503 -0.10050332175E+02 -0.27383017662E+02 -0.13463163411E+02  0.32126244756E+02  0.00000000000E+00 0.  1.
<mgrwt>
<rscale>  0 0.13193257E+04</rscale>
<asrwt>0</asrwt>
<pdfrwt beam="1">  1        2 0.78947422E-01 0.13193257E+04</pdfrwt>
<pdfrwt beam="2">  1       -1 0.13046061E+00 0.13193257E+04</pdfrwt>
<totfact> 0.33616949E+01</totfact>
</mgrwt>
</event>
<event>
12    7  0.1698542E-007  0.2224560E+04  0.7818608E-02  0.8508275E-01
         -1   -1    0    0    0  501 -0.00000000000E+00  0.00000000000E+00  0.18140858333E+04  0.18140858333E+04  0.00000000000E+00 0.  1.
          2   -1    0    0  501    0  0.00000000000E+00 -0.00000000000E+00 -0.68197803048E+03  0.68197803048E+03  0.00000000000E+00 0. -1.
         24    2    1    2    0    0  0.21007367235E+03 -0.15336267373E+03 -0.52546026458E+03  0.59138332583E+03  0.77296124796E+02 0.  0.
        254    2    1    2    0    0 -0.21007367235E+03  0.15336267373E+03  0.16575680674E+04  0.19046805380E+04  0.90145715155E+03 0.  0.
         23    2    4    4    0    0 -0.37623947302E+03  0.43776763335E+03  0.89400728570E+03  0.10678528473E+04  0.88679392908E+02 0.  0.
         23    2    4    4    0    0  0.16616580066E+03 -0.28440495962E+03  0.76356078170E+03  0.83682769066E+03  0.93585587211E+02 0.  0.
          4    1    3    3  502    0  0.18822124254E+03 -0.11001363229E+03 -0.38077165898E+03  0.43876792467E+03  0.00000000000E+00 0. -1.
         -3    1    3    3    0  502  0.21852429815E+02 -0.43349041435E+02 -0.14468860560E+03  0.15261540116E+03  0.00000000000E+00 0.  1.
         13    1    5    5    0    0 -0.26623431719E+02  0.62685774888E+02  0.14436329068E+03  0.15962165638E+03  0.00000000000E+00 0.  1.
        -13    1    5    5    0    0 -0.34961604130E+03  0.37508185846E+03  0.74964399502E+03  0.90823119092E+03  0.00000000000E+00 0. -1.
          2    1    6    6  503    0  0.46368168210E+02 -0.17161321027E+03  0.40753576699E+03  0.44461950287E+03  0.00000000000E+00 0.  1.
         -2    1    6    6    0  503  0.11979763245E+03 -0.11279174935E+03  0.35602501472E+03  0.39220818779E+03  0.00000000000E+00 0. -1.
<mgrwt>
<rscale>  0 0.22245599E+04</rscale>
<asrwt>0</asrwt>
<pdfrwt beam="1">  1        2 0.10491970E+00 0.22245599E+04</pdfrwt>
<pdfrwt beam="2">  1       -1 0.27909013E+00 0.22245599E+04</pdfrwt>
<totfact> 0.19891124E+00</totfact>
</mgrwt>
</event>
<event>
12    7  0.1698542E-007  0.3085325E+04  0.7818608E-02  0.8219777E-01
          2   -1    0    0  501    0  0.00000000000E+00  0.00000000000E+00  0.25099829264E+04  0.25099829264E+04  0.00000000000E+00 0. -1.
         -1   -1    0    0    0  501 -0.00000000000E+00 -0.00000000000E+00 -0.94813717248E+03  0.94813717248E+03  0.00000000000E+00 0.  1.
         24    2    1    2    0    0  0.10244461402E+04  0.25081649408E+03 -0.32450769809E+03  0.11062996083E+04  0.78706857188E+02 0.  0.
        254    2    1    2    0    0 -0.10244461402E+04 -0.25081649408E+03  0.18863534520E+04  0.23518204906E+04  0.92754054687E+03 0.  0.
         23    2    4    4    0    0  0.16792856501E+02  0.21242419248E+03  0.16040824849E+03  0.28194192081E+03  0.91402423065E+02 0.  0.
         23    2    4    4    0    0 -0.10412389967E+04 -0.46324068656E+03  0.17259452035E+04  0.20698785698E+04  0.82096687467E+02 0.  0.
          2    1    3    3  502    0  0.15035906325E+03  0.47604698286E+02 -0.21757347793E+02  0.15920878551E+03  0.00000000000E+00 0. -1.
         -1    1    3    3    0  502  0.87408707694E+03  0.20321179579E+03 -0.30275035030E+03  0.94709082280E+03  0.00000000000E+00 0.  1.
         13    1    5    5    0    0  0.52431102584E+01  0.21400112327E+03  0.16408588768E+03  0.26971864878E+03  0.00000000000E+00 0. -1.
        -13    1    5    5    0    0  0.11549746243E+02 -0.15769307850E+01 -0.36776391884E+01  0.12223272024E+02  0.00000000000E+00 0.  1.
          1    1    6    6  503    0 -0.60512485274E+03 -0.23331719330E+03  0.10238857114E+04  0.12120045174E+04  0.00000000000E+00 0. -1.
         -1    1    6    6    0  503 -0.43611414396E+03 -0.22992349326E+03  0.70205949208E+03  0.85787405237E+03  0.00000000000E+00 0.  1.
<mgrwt>
<rscale>  0 0.30853253E+04</rscale>
<asrwt>0</asrwt>
<pdfrwt beam="1">  1        2 0.38615122E+00 0.30853253E+04</pdfrwt>
<pdfrwt beam="2">  1       -1 0.14586726E+00 0.30853253E+04</pdfrwt>
<totfact> 0.12476831E+00</totfact>
</mgrwt>
</event>
<event>
12    7  0.1698542E-007  0.1763244E+04  0.7818608E-02  0.8726094E-01
         -1   -1    0    0    0  501 -0.00000000000E+00  0.00000000000E+00  0.15239768789E+04  0.15239768789E+04  0.00000000000E+00 0.  1.
          2   -1    0    0  501    0  0.00000000000E+00 -0.00000000000E+00 -0.51001899659E+03  0.51001899659E+03  0.00000000000E+00 0. -1.
         24    2    1    2    0    0  0.19241238072E+03 -0.62443497543E+03  0.45373424263E+03  0.79956834092E+03  0.80580432273E+02 0.  0.
        254    2    1    2    0    0 -0.19241238072E+03  0.62443497543E+03  0.56022363962E+03  0.12344275345E+04  0.88488374876E+03 0.  0.
         23    2    4    4    0    0  0.26745348134E+03 -0.13547785311E+02  0.38359583154E+02  0.28624355785E+03  0.93536140753E+02 0.  0.
         23    2    4    4    0    0 -0.45986586206E+03  0.63798276074E+03  0.52186405647E+03  0.94818397668E+03  0.90620892218E+02 0.  0.
          2    1    3    3  502    0  0.53004698617E+02 -0.24573594830E+03  0.13507509654E+03  0.28537858376E+03  0.00000000000E+00 0. -1.
         -1    1    3    3    0  502  0.13940768210E+03 -0.37869902713E+03  0.31865914609E+03  0.51418975716E+03  0.00000000000E+00 0.  1.
         13    1    5    5    0    0  0.80871613339E+02 -0.37646029317E+02 -0.15529043619E+02  0.90546079778E+02  0.00000000000E+00 0.  1.
        -13    1    5    5    0    0  0.18658186800E+03  0.24098244006E+02  0.53888626773E+02  0.19569747807E+03  0.00000000000E+00 0. -1.
          3    1    6    6  503    0 -0.23431468911E+03  0.24840935373E+03  0.22762855784E+03  0.41039656541E+03  0.00000000000E+00 0. -1.
         -3    1    6    6    0  503 -0.22555117295E+03  0.38957340701E+03  0.29423549863E+03  0.53778741127E+03  0.00000000000E+00 0.  1.
<mgrwt>
<rscale>  0 0.17632438E+04</rscale>
<asrwt>0</asrwt>
<pdfrwt beam="1">  1        2 0.78464462E-01 0.17632438E+04</pdfrwt>
<pdfrwt beam="2">  1       -1 0.23445798E+00 0.17632438E+04</pdfrwt>
<totfact> 0.57413194E+00</totfact>
</mgrwt>
</event>
<event>
12    7  0.1698542E-007  0.3521337E+04  0.7818608E-02  0.8108752E-01
          2   -1    0    0  501    0  0.00000000000E+00  0.00000000000E+00  0.33643361666E+04  0.33643361666E+04  0.00000000000E+00 0. -1.
         -1   -1    0    0    0  501 -0.00000000000E+00 -0.00000000000E+00 -0.92141597427E+03  0.92141597427E+03  0.00000000000E+00 0.  1.
         24    2    1    2    0    0 -0.36950806698E+03 -0.10093763235E+04 -0.37383857640E+03  0.11410277434E+04  0.82536391917E+02 0.  0.
        254    2    1    2    0    0  0.36950806698E+03  0.10093763235E+04  0.28167587687E+04  0.31447243975E+04  0.89430688297E+03 0.  0.
         23    2    4    4    0    0  0.36332427374E+02  0.90761745704E+03  0.13202108197E+04  0.16054731650E+04  0.97457588316E+02 0.  0.
         23    2    4    4    0    0  0.33317563960E+03  0.10175886646E+03  0.14965479490E+04  0.15392512324E+04  0.90981971830E+02 0.  0.
          2    1    3    3  502    0 -0.46152287646E+02 -0.65955652200E+02 -0.34485751699E+02  0.87575389136E+02  0.00000000000E+00 0. -1.
         -1    1    3    3    0  502 -0.32335577933E+03 -0.94342067130E+03 -0.33935282470E+03  0.10534523543E+04  0.00000000000E+00 0.  1.
         13    1    5    5    0    0  0.45486557121E+02  0.22791799224E+03  0.29884693989E+03  0.37858305766E+03  0.00000000000E+00 0. -1.
        -13    1    5    5    0    0 -0.91541297467E+01  0.67969946480E+03  0.10213638798E+04  0.12268901073E+04  0.00000000000E+00 0.  1.
          3    1    6    6  503    0  0.36168420275E+02 -0.16179414654E+02  0.13435773006E+03  0.14007829136E+03  0.00000000000E+00 0. -1.
         -3    1    6    6    0  503  0.29700721933E+03  0.11793828111E+03  0.13621902189E+04  0.13991729411E+04  0.00000000000E+00 0.  1.
<mgrwt>
<rscale>  0 0.35213367E+04</rscale>
<asrwt>0</asrwt>
<pdfrwt beam="1">  1        2 0.51759018E+00 0.35213367E+04</pdfrwt>
<pdfrwt beam="2">  1       -1 0.14175630E+00 0.35213367E+04</pdfrwt>
<totfact> 0.38034133E-01</totfact>
</mgrwt>
</event>
<event>
12    7  0.1698542E-007  0.1065416E+04  0.7818608E-02  0.9239571E-01
         -1   -1    0    0    0  501 -0.00000000000E+00  0.00000000000E+00  0.11013943388E+04  0.11013943388E+04  0.00000000000E+00 0.  1.
          2   -1    0    0  501    0  0.00000000000E+00 -0.00000000000E+00 -0.25765315127E+03  0.25765315127E+03  0.00000000000E+00 0. -1.
         24    2    1    2    0    0 -0.58204450495E-01  0.51620575724E+01  0.32382755362E+03  0.33225934524E+03  0.74197963525E+02 0.  0.
        254    2    1    2    0    0  0.58204450495E-01 -0.51620575724E+01  0.51991363389E+03  0.10267881448E+04  0.88541349513E+03 0.  0.
         23    2    4    4    0    0  0.38332075101E+03  0.77527836122E+02  0.47365504428E+03  0.62151468063E+03  0.94794692575E+02 0.  0.
         23    2    4    4    0    0 -0.38326254656E+03 -0.82689893694E+02  0.46258589606E+02  0.40527346416E+03  0.91536471028E+02 0.  0.
          4    1    3    3  502    0 -0.17695133131E+02 -0.86844161225E+01  0.21758941420E+02  0.29359638138E+02  0.00000000000E+00 0. -1.
         -3    1    3    3    0  502  0.17636928680E+02  0.13846473695E+02  0.30206861220E+03  0.30289970710E+03  0.00000000000E+00 0.  1.
         13    1    5    5    0    0  0.79420565552E+01  0.21400218171E+02  0.25176354364E+02  0.33983737570E+02  0.00000000000E+00 0. -1.
        -13    1    5    5    0    0  0.37537869445E+03  0.56127617950E+02  0.44847868992E+03  0.58753094306E+03  0.00000000000E+00 0.  1.
          1    1    6    6  503    0 -0.15314730599E+01 -0.26034511132E+00 -0.10523572193E+02  0.10637610682E+02  0.00000000000E+00 0. -1.
         -1    1    6    6    0  503 -0.38173107350E+03 -0.82429548583E+02  0.56782161800E+02  0.39463585348E+03  0.00000000000E+00 0.  1.
<mgrwt>
<rscale>  0 0.10654158E+04</rscale>
<asrwt>0</asrwt>
<pdfrwt beam="1">  1        2 0.39638947E-01 0.10654158E+04</pdfrwt>
<pdfrwt beam="2">  1       -1 0.16944528E+00 0.10654158E+04</pdfrwt>
<totfact> 0.36883376E+01</totfact>
</mgrwt>
</event>
<event>
12    7  0.1698542E-007  0.1712171E+04  0.7818608E-02  0.8754453E-01
          2   -1    0    0  501    0  0.00000000000E+00  0.00000000000E+00  0.14445577132E+04  0.14445577132E+04  0.00000000000E+00 0. -1.
         -1   -1    0    0    0  501 -0.00000000000E+00 -0.00000000000E+00 -0.50734012901E+03  0.50734012901E+03  0.00000000000E+00 0.  1.
         24    2    1    2    0    0  0.30447434388E+03 -0.32274100512E+03 -0.14534072587E+03  0.47493118382E+03  0.87001840782E+02 0.  0.
        254    2    1    2    0    0 -0.30447434388E+03  0.32274100512E+03  0.10825583101E+04  0.14769666584E+04  0.90146083269E+03 0.  0.
         23    2    4    4    0    0 -0.10034551992E+03  0.13916256940E+03  0.11593245005E+04  0.11755112012E+04  0.91421237137E+02 0.  0.
         23    2    4    4    0    0 -0.20412882396E+03  0.18357843572E+03 -0.76766190428E+02  0.30145545721E+03  0.98044509566E+02 0.  0.
          2    1    3    3  502    0  0.16054928916E+03 -0.22278120024E+03 -0.65178313110E+02  0.28223350250E+03  0.00000000000E+00 0. -1.
         -1    1    3    3    0  502  0.14392505472E+03 -0.99959804872E+02 -0.80162412757E+02  0.19269768132E+03  0.00000000000E+00 0.  1.
         13    1    5    5    0    0 -0.51220141682E+02  0.42920278332E+02  0.71995406468E+03  0.72304875939E+03  0.00000000000E+00 0. -1.
        -13    1    5    5    0    0 -0.49125378242E+02  0.96242291067E+02  0.43937043581E+03  0.45246244180E+03  0.00000000000E+00 0.  1.
          3    1    6    6  503    0 -0.11127395512E+03  0.16045893527E+03 -0.42683481601E+02  0.19987706871E+03  0.00000000000E+00 0. -1.
         -3    1    6    6    0  503 -0.92854868839E+02  0.23119500447E+02 -0.34082708827E+02  0.10157838849E+03  0.00000000000E+00 0.  1.
<mgrwt>
<rscale>  0 0.17121707E+04</rscale>
<asrwt>0</asrwt>
<pdfrwt beam="1">  1        2 0.22223965E+00 0.17121707E+04</pdfrwt>
<pdfrwt beam="2">  1       -1 0.78052328E-01 0.17121707E+04</pdfrwt>
<totfact> 0.24303661E+01</totfact>
</mgrwt>
</event>
<event>
12    7  0.1698542E-007  0.1268628E+04  0.7818608E-02  0.9054820E-01
         -1   -1    0    0    0  501 -0.00000000000E+00  0.00000000000E+00  0.89300360739E+03  0.89300360739E+03  0.00000000000E+00 0.  1.
          2   -1    0    0  501    0  0.00000000000E+00 -0.00000000000E+00 -0.45056263300E+03  0.45056263300E+03  0.00000000000E+00 0. -1.
         24    2    1    2    0    0  0.21600112832E+03 -0.20206416829E+03  0.10323882326E+03  0.32304909046E+03  0.78841896684E+02 0.  0.
        254    2    1    2    0    0 -0.21600112832E+03  0.20206416829E+03  0.33920215113E+03  0.10205171499E+04  0.91592070533E+03 0.  0.
         23    2    4    4    0    0 -0.43400696187E+03  0.30429339260E+03  0.48604577939E+03  0.72490261841E+03  0.91031833900E+02 0.  0.
         23    2    4    4    0    0  0.21800583354E+03 -0.10222922431E+03 -0.14684362826E+03  0.29561453153E+03  0.88586355230E+02 0.  0.
          2    1    3    3  502    0  0.39183381134E+02 -0.81377757040E+02  0.15272933319E+02  0.91602069791E+02  0.00000000000E+00 0. -1.
         -3    1    3    3    0  502  0.17681774719E+03 -0.12068641125E+03  0.87965889937E+02  0.23144702066E+03  0.00000000000E+00 0.  1.
         13    1    5    5    0    0 -0.66766194863E+02  0.83380388822E+02  0.70711256934E+02  0.12810189645E+03  0.00000000000E+00 0. -1.
        -13    1    5    5    0    0 -0.36724076700E+03  0.22091300378E+03  0.41533452245E+03  0.59680072196E+03  0.00000000000E+00 0.  1.
          2    1    6    6  503    0 -0.26155140334E+01  0.40969516684E+01  0.53837190725E+01  0.72532997790E+01  0.00000000000E+00 0. -1.
         -2    1    6    6    0  503  0.22062134757E+03 -0.10632617598E+03 -0.15222734733E+03  0.28836123175E+03  0.00000000000E+00 0.  1.
<mgrwt>
<rscale>  0 0.12686277E+04</rscale>
<asrwt>0</asrwt>
<pdfrwt beam="1">  1        2 0.69317328E-01 0.12686277E+04</pdfrwt>
<pdfrwt beam="2">  1       -1 0.13738517E+00 0.12686277E+04</pdfrwt>
<totfact> 0.34366414E+01</totfact>
</mgrwt>
</event>
<event>
12    7  0.1698542E-007  0.1628504E+04  0.7818608E-02  0.8803226E-01
         -1   -1    0    0    0  501 -0.00000000000E+00  0.00000000000E+00  0.33577920139E+03  0.33577920139E+03  0.00000000000E+00 0.  1.
          2   -1    0    0  501    0  0.00000000000E+00 -0.00000000000E+00 -0.19745301053E+04  0.19745301053E+04  0.00000000000E+00 0. -1.
         24    2    1    2    0    0  0.84318264830E+01  0.19000517472E+03 -0.13289670355E+04  0.13448600859E+04  0.79512307481E+02 0.  0.
        254    2    1    2    0    0 -0.84318264830E+01 -0.19000517472E+03 -0.30978386841E+03  0.96544922081E+03  0.89440096753E+03 0.  0.
         23    2    4    4    0    0 -0.13144232270E+03 -0.44985804021E+03 -0.42871061558E+03  0.64231042793E+03  0.95501588378E+02 0.  0.
         23    2    4    4    0    0  0.12301049622E+03  0.25985286549E+03  0.11892674717E+03  0.32313879287E+03  0.87292693765E+02 0.  0.
          2    1    3    3  502    0  0.23868708686E+02  0.18097950181E+03 -0.12751463420E+04  0.12881465324E+04  0.00000000000E+00 0. -1.
         -1    1    3    3    0  502 -0.15436882203E+02  0.90256729052E+01 -0.53820693440E+02  0.56713553458E+02  0.00000000000E+00 0.  1.
         13    1    5    5    0    0 -0.40916990677E+02 -0.23419725205E+03 -0.16263547674E+03  0.28805008468E+03  0.00000000000E+00 0. -1.
        -13    1    5    5    0    0 -0.90525332023E+02 -0.21566078816E+03 -0.26607513884E+03  0.35426034325E+03  0.00000000000E+00 0.  1.
          3    1    6    6  503    0  0.91157299264E+02  0.25017159587E+03  0.97522015788E+02  0.28355956015E+03  0.00000000000E+00 0. -1.
         -3    1    6    6    0  503  0.31853196953E+02  0.96812696230E+01  0.21404731385E+02  0.39579232727E+02  0.00000000000E+00 0.  1.
<mgrwt>
<rscale>  0 0.16285038E+04</rscale>
<asrwt>0</asrwt>
<pdfrwt beam="1">  1        2 0.30377386E+00 0.16285038E+04</pdfrwt>
<pdfrwt beam="2">  1       -1 0.51658339E-01 0.16285038E+04</pdfrwt>
<totfact> 0.28374135E+01</totfact>
</mgrwt>
</event>
<event>
12    7  0.1698542E-007  0.2231427E+04  0.7818608E-02  0.8505460E-01
          2   -1    0    0  501    0  0.00000000000E+00  0.00000000000E+00  0.52927406357E+03  0.52927406357E+03  0.00000000000E+00 0. -1.
         -1   -1    0    0    0  501 -0.00000000000E+00 -0.00000000000E+00 -0.23519318583E+04  0.23519318583E+04  0.00000000000E+00 0.  1.
         24    2    1    2    0    0  0.74749073275E+03  0.48508880042E+03 -0.41807984930E+03  0.98760356141E+03  0.80724805804E+02 0.  0.
        254    2    1    2    0    0 -0.74749073275E+03 -0.48508880042E+03 -0.14045779454E+04  0.18936023604E+04  0.90489621220E+03 0.  0.
         23    2    4    4    0    0 -0.97890612130E+02 -0.16295207958E+03  0.89853707990E+02  0.23009096845E+03  0.93446309380E+02 0.  0.
         23    2    4    4    0    0 -0.64960012062E+03 -0.32213672084E+03 -0.14944316534E+04  0.16635113920E+04  0.90508568501E+02 0.  0.
          4    1    3    3  502    0  0.20621431161E+03  0.15736176342E+03 -0.15617243544E+03  0.30278192894E+03  0.00000000000E+00 0. -1.
         -3    1    3    3    0  502  0.54127642114E+03  0.32772703700E+03 -0.26190741386E+03  0.68482163247E+03  0.00000000000E+00 0.  1.
         13    1    5    5    0    0  0.18422476405E+02 -0.20814295652E+02  0.16480577651E+02  0.32314578446E+02  0.00000000000E+00 0.  1.
        -13    1    5    5    0    0 -0.11631308854E+03 -0.14213778393E+03  0.73373130339E+02  0.19777639000E+03  0.00000000000E+00 0. -1.
          3    1    6    6  503    0 -0.53684866065E+03 -0.22600272132E+03 -0.11824963414E+04  0.13181734757E+04  0.00000000000E+00 0. -1.
         -3    1    6    6    0  503 -0.11275145998E+03 -0.96133999519E+02 -0.31193531193E+03  0.34533791628E+03  0.00000000000E+00 0.  1.
<mgrwt>
<rscale>  0 0.22314269E+04</rscale>
<asrwt>0</asrwt>
<pdfrwt beam="1">  1        2 0.81426778E-01 0.22314269E+04</pdfrwt>
<pdfrwt beam="2">  1       -1 0.36183567E+00 0.22314269E+04</pdfrwt>
<totfact> 0.77785322E-01</totfact>
</mgrwt>
</event>
<event>
12    7  0.1698542E-007  0.1235478E+04  0.7818608E-02  0.9082357E-01
          2   -1    0    0  501    0  0.00000000000E+00  0.00000000000E+00  0.20322484367E+04  0.20322484367E+04  0.00000000000E+00 0. -1.
         -1   -1    0    0    0  501 -0.00000000000E+00 -0.00000000000E+00 -0.18777311511E+03  0.18777311511E+03  0.00000000000E+00 0.  1.
         24    2    1    2    0    0  0.11903136043E+03 -0.11349680864E+03  0.23107117492E+02  0.18429024572E+03  0.79868425868E+02 0.  0.
        254    2    1    2    0    0 -0.11903136043E+03  0.11349680864E+03  0.18213682041E+04  0.20357313061E+04  0.89429851020E+03 0.  0.
         23    2    4    4    0    0  0.47645420244E+02  0.48236666589E+03  0.92808254620E+03  0.10506759130E+04  0.87378345456E+02 0.  0.
         23    2    4    4    0    0 -0.16667678067E+03 -0.36886985725E+03  0.89328565794E+03  0.98505539308E+03  0.92351177331E+02 0.  0.
          2    1    3    3  502    0  0.40670486540E+02 -0.52423301283E+01 -0.17547967940E+02  0.44603830322E+02  0.00000000000E+00 0. -1.
         -1    1    3    3    0  502  0.78360873890E+02 -0.10825447851E+03  0.40655085432E+02  0.13968641540E+03  0.00000000000E+00 0.  1.
         13    1    5    5    0    0  0.11000097252E+02  0.40997619098E+03  0.74519300296E+03  0.85059631493E+03  0.00000000000E+00 0.  1.
        -13    1    5    5    0    0  0.36645322993E+02  0.72390474912E+02  0.18288954323E+03  0.20007959811E+03  0.00000000000E+00 0. -1.
          2    1    6    6  503    0 -0.87502510721E+02 -0.11232800438E+03  0.24495144295E+03  0.28332927726E+03  0.00000000000E+00 0. -1.
         -2    1    6    6    0  503 -0.79174269953E+02 -0.25654185287E+03  0.64833421499E+03  0.70172611582E+03  0.00000000000E+00 0.  1.
<mgrwt>
<rscale>  0 0.12354782E+04</rscale>
<asrwt>0</asrwt>
<pdfrwt beam="1">  1        2 0.31265359E+00 0.12354782E+04</pdfrwt>
<pdfrwt beam="2">  1       -1 0.28888173E-01 0.12354782E+04</pdfrwt>
<totfact> 0.78483804E+01</totfact>
</mgrwt>
</event>
<event>
12    7  0.1698542E-007  0.2342716E+04  0.7818608E-02  0.8461267E-01
         -1   -1    0    0    0  501 -0.00000000000E+00  0.00000000000E+00  0.11149902069E+04  0.11149902069E+04  0.00000000000E+00 0.  1.
          2   -1    0    0  501    0  0.00000000000E+00 -0.00000000000E+00 -0.12305751725E+04  0.12305751725E+04  0.00000000000E+00 0. -1.
         24    2    1    2    0    0 -0.95605494426E+03 -0.52375192656E+02 -0.35835891178E+03  0.10253995571E+04  0.78986864234E+02 0.  0.
        254    2    1    2    0    0  0.95605494426E+03  0.52375192656E+02  0.24277394620E+03  0.13201658224E+04  0.87585066782E+03 0.  0.
         23    2    4    4    0    0  0.10025230990E+04 -0.92073331208E+02 -0.14890976203E+02  0.10109418177E+04  0.90838071789E+02 0.  0.
         23    2    4    4    0    0 -0.46468154705E+02  0.14444852386E+03  0.25766492241E+03  0.30922400468E+03  0.78762982313E+02 0.  0.
          2    1    3    3  502    0 -0.25550774254E+02 -0.10129282281E+01  0.32592822814E+01  0.25777723126E+02  0.00000000000E+00 0. -1.
         -1    1    3    3    0  502 -0.93050417000E+03 -0.51362264428E+02 -0.36161819406E+03  0.99962183393E+03  0.00000000000E+00 0.  1.
         13    1    5    5    0    0  0.15540675607E+03 -0.29433573287E+02  0.27105109941E+02  0.16047517581E+03  0.00000000000E+00 0.  1.
        -13    1    5    5    0    0  0.84711634289E+03 -0.62639757921E+02 -0.41996086144E+02  0.85046664186E+03  0.00000000000E+00 0. -1.
          4    1    6    6  503    0 -0.44476567199E+02  0.15054494473E+03  0.25882318891E+03  0.30270676988E+03  0.00000000000E+00 0. -1.
         -4    1    6    6    0  503 -0.19915875052E+01 -0.60964208646E+01 -0.11582665029E+01  0.65172348002E+01  0.00000000000E+00 0.  1.
<mgrwt>
<rscale>  0 0.23427157E+04</rscale>
<asrwt>0</asrwt>
<pdfrwt beam="1">  1        2 0.18931926E+00 0.23427157E+04</pdfrwt>
<pdfrwt beam="2">  1       -1 0.17153695E+00 0.23427157E+04</pdfrwt>
<totfact> 0.44841262E+00</totfact>
</mgrwt>
</event>
<event>
12    7  0.1698542E-007  0.1491147E+04  0.7818608E-02  0.8890361E-01
          2   -1    0    0  501    0  0.00000000000E+00  0.00000000000E+00  0.11313835251E+04  0.11313835251E+04  0.00000000000E+00 0. -1.
         -1   -1    0    0    0  501 -0.00000000000E+00 -0.00000000000E+00 -0.49132749939E+03  0.49132749939E+03  0.00000000000E+00 0.  1.
         24    2    1    2    0    0 -0.25861445897E+03  0.89574619595E+02  0.62510345650E+03  0.68718081209E+03  0.80982012320E+02 0.  0.
        254    2    1    2    0    0  0.25861445897E+03 -0.89574619595E+02  0.14952569181E+02  0.93553021236E+03  0.89447646591E+03 0.  0.
         23    2    4    4    0    0  0.35797557415E+03  0.32418854923E+03 -0.51846881920E+02  0.49398500910E+03  0.89935326284E+02 0.  0.
         23    2    4    4    0    0 -0.99361115184E+02 -0.41376316883E+03  0.66799451101E+02  0.44154520326E+03  0.97094844190E+02 0.  0.
          2    1    3    3  502    0 -0.12555070919E+03  0.70267036718E+02  0.39864316095E+03  0.42381223059E+03  0.00000000000E+00 0. -1.
         -1    1    3    3    0  502 -0.13306374978E+03  0.19307582877E+02  0.22646029555E+03  0.26336858150E+03  0.00000000000E+00 0.  1.
         13    1    5    5    0    0  0.33945594046E+03  0.29904202151E+03 -0.70135129862E+02  0.45779406132E+03  0.00000000000E+00 0. -1.
        -13    1    5    5    0    0  0.18519633691E+02  0.25146527723E+02  0.18288247942E+02  0.36190947782E+02  0.00000000000E+00 0.  1.
          3    1    6    6  503    0 -0.36080014498E+02 -0.60940328492E+02  0.41767638861E+02  0.82219381772E+02  0.00000000000E+00 0. -1.
         -3    1    6    6    0  503 -0.63281100686E+02 -0.35282284033E+03  0.25031812240E+02  0.35932582149E+03  0.00000000000E+00 0.  1.
<mgrwt>
<rscale>  0 0.14911470E+04</rscale>
<asrwt>0</asrwt>
<pdfrwt beam="1">  1        2 0.17405900E+00 0.14911470E+04</pdfrwt>
<pdfrwt beam="2">  1       -1 0.75588847E-01 0.14911470E+04</pdfrwt>
<totfact> 0.40420819E+01</totfact>
</mgrwt>
</event>
<event>
12    7  0.1698542E-007  0.1646195E+04  0.7818608E-02  0.8792661E-01
          2   -1    0    0  501    0  0.00000000000E+00  0.00000000000E+00  0.19476442878E+04  0.19476442878E+04  0.00000000000E+00 0. -1.
         -1   -1    0    0    0  501 -0.00000000000E+00 -0.00000000000E+00 -0.34785062971E+03  0.34785062971E+03  0.00000000000E+00 0.  1.
         24    2    1    2    0    0 -0.22547783134E+03 -0.79193757866E+02 -0.16905894031E+03  0.30241791511E+03  0.75919472918E+02 0.  0.
        254    2    1    2    0    0  0.22547783134E+03  0.79193757866E+02  0.17688525984E+04  0.19930770024E+04  0.88679451903E+03 0.  0.
         23    2    4    4    0    0  0.47976380727E+03  0.20873474460E+03  0.14957030912E+04  0.15871866957E+04  0.91051445152E+02 0.  0.
         23    2    4    4    0    0 -0.25428597593E+03 -0.12954098674E+03  0.27314950722E+03  0.40589030671E+03  0.93241959394E+02 0.  0.
          2    1    3    3  502    0 -0.61520185857E+02  0.12613234052E+02 -0.40046718018E+02  0.74481988193E+02  0.00000000000E+00 0. -1.
         -1    1    3    3    0  502 -0.16395764548E+03 -0.91806991919E+02 -0.12901222229E+03  0.22793592691E+03  0.00000000000E+00 0.  1.
         13    1    5    5    0    0  0.30907083511E+03  0.10489266349E+03  0.10287719976E+04  0.10793049037E+04  0.00000000000E+00 0.  1.
        -13    1    5    5    0    0  0.17069297215E+03  0.10384208111E+03  0.46693109358E+03  0.50788179206E+03  0.00000000000E+00 0. -1.
          2    1    6    6  503    0 -0.33106258128E+02  0.10714716709E+02  0.14185747332E+02  0.37577452133E+02  0.00000000000E+00 0. -1.
         -2    1    6    6    0  503 -0.22117971780E+03 -0.14025570344E+03  0.25896375988E+03  0.36831285458E+03  0.00000000000E+00 0.  1.
<mgrwt>
<rscale>  0 0.16461948E+04</rscale>
<asrwt>0</asrwt>
<pdfrwt beam="1">  1        2 0.29963758E+00 0.16461948E+04</pdfrwt>
<pdfrwt beam="2">  1       -1 0.53515483E-01 0.16461948E+04</pdfrwt>
<totfact> 0.27397732E+01</totfact>
</mgrwt>
</event>
<event>
12    7  0.1698542E-007  0.1226036E+04  0.7818608E-02  0.9090368E-01
         -1   -1    0    0    0  501 -0.00000000000E+00  0.00000000000E+00  0.12808120122E+03  0.12808120122E+03  0.00000000000E+00 0.  1.
          2   -1    0    0  501    0  0.00000000000E+00 -0.00000000000E+00 -0.29340060119E+04  0.29340060119E+04  0.00000000000E+00 0. -1.
         24    2    1    2    0    0 -0.15088092339E+03  0.19400698229E+03 -0.36340072964E+03  0.44588912728E+03  0.79707347863E+02 0.  0.
        254    2    1    2    0    0  0.15088092339E+03 -0.19400698229E+03 -0.24425240811E+04  0.26161980859E+04  0.90452461309E+03 0.  0.
         23    2    4    4    0    0 -0.52286462806E+02  0.33888971457E+03 -0.10640338788E+04  0.11216975553E+04  0.91963023351E+02 0.  0.
         23    2    4    4    0    0  0.20316738620E+03 -0.53289669685E+03 -0.13784902023E+04  0.14945005306E+04  0.89670070697E+02 0.  0.
          4    1    3    3  502    0 -0.57160040779E+02  0.11488489033E+03 -0.23853644361E+03  0.27086056047E+03  0.00000000000E+00 0. -1.
         -3    1    3    3    0  502 -0.93720882612E+02  0.79122091956E+02 -0.12486428602E+03  0.17502856680E+03  0.00000000000E+00 0.  1.
         13    1    5    5    0    0 -0.71006678183E+02  0.32092451561E+03 -0.99884546770E+03  0.10515354304E+04  0.00000000000E+00 0. -1.
        -13    1    5    5    0    0  0.18720215377E+02  0.17965198959E+02 -0.65188411068E+02  0.70162124932E+02  0.00000000000E+00 0.  1.
          2    1    6    6  503    0  0.79692295122E+01 -0.11940534596E+03 -0.26400180216E+03  0.28985875320E+03  0.00000000000E+00 0.  1.
         -2    1    6    6    0  503  0.19519815668E+03 -0.41349135089E+03 -0.11144884002E+04  0.12046417774E+04  0.00000000000E+00 0. -1.
<mgrwt>
<rscale>  0 0.12260359E+04</rscale>
<asrwt>0</asrwt>
<pdfrwt beam="1">  1        2 0.45138551E+00 0.12260359E+04</pdfrwt>
<pdfrwt beam="2">  1       -1 0.19704801E-01 0.12260359E+04</pdfrwt>
<totfact> 0.45600686E+01</totfact>
</mgrwt>
</event>
<event>
12    7  0.1698542E-007  0.1603487E+04  0.7818608E-02  0.8818408E-01
         -1   -1    0    0    0  501 -0.00000000000E+00  0.00000000000E+00  0.87934792447E+03  0.87934792447E+03  0.00000000000E+00 0.  1.
          2   -1    0    0  501    0  0.00000000000E+00 -0.00000000000E+00 -0.73098818287E+03  0.73098818287E+03  0.00000000000E+00 0. -1.
         24    2    1    2    0    0  0.16105590057E+03  0.51865350954E+03  0.36736671315E+02  0.55003486628E+03  0.79046220867E+02 0.  0.
        254    2    1    2    0    0 -0.16105590057E+03 -0.51865350954E+03  0.11162307029E+03  0.10603012411E+04  0.90379120703E+03 0.  0.
         23    2    4    4    0    0  0.14519192881E+03 -0.21156390320E+03  0.43410365770E+03  0.51241363980E+03  0.91004237806E+02 0.  0.
         23    2    4    4    0    0 -0.30624782938E+03 -0.30708960634E+03 -0.32248058741E+03  0.54788760126E+03  0.89974079758E+02 0.  0.
          2    1    3    3  502    0  0.59799605493E+02  0.16614968113E+03 -0.24248611150E+02  0.17824058039E+03  0.00000000000E+00 0. -1.
         -1    1    3    3    0  502  0.10125629507E+03  0.35250382842E+03  0.60985282466E+02  0.37179428589E+03  0.00000000000E+00 0.  1.
         13    1    5    5    0    0  0.14977173925E+03 -0.18593820264E+03  0.34480810881E+03  0.41940102644E+03  0.00000000000E+00 0.  1.
        -13    1    5    5    0    0 -0.45798104361E+01 -0.25625700557E+02  0.89295548891E+02  0.93012613362E+02  0.00000000000E+00 0. -1.
          4    1    6    6  503    0 -0.94212504426E+01 -0.23613611444E+02  0.77115937776E+00  0.25435355160E+02  0.00000000000E+00 0. -1.
         -4    1    6    6    0  503 -0.29682657894E+03 -0.28347599490E+03 -0.32325174679E+03  0.52245224610E+03  0.00000000000E+00 0.  1.
<mgrwt>
<rscale>  0 0.16034874E+04</rscale>
<asrwt>0</asrwt>
<pdfrwt beam="1">  1        2 0.11245972E+00 0.16034874E+04</pdfrwt>
<pdfrwt beam="2">  1       -1 0.13528430E+00 0.16034874E+04</pdfrwt>
<totfact> 0.19447518E+01</totfact>
</mgrwt>
</event>
<event>
12    7  0.1698542E-007  0.1698586E+04  0.7818608E-02  0.8762171E-01
          2   -1    0    0  501    0  0.00000000000E+00  0.00000000000E+00  0.25378055997E+04  0.25378055997E+04  0.00000000000E+00 0. -1.
         -1   -1    0    0    0  501 -0.00000000000E+00 -0.00000000000E+00 -0.28422138644E+03  0.28422138644E+03  0.00000000000E+00 0.  1.
         24    2    1    2    0    0  0.27979452914E+03 -0.82891227537E+02  0.17161607819E+04  0.17426691274E+04  0.80820320177E+02 0.  0.
        254    2    1    2    0    0 -0.27979452914E+03  0.82891227537E+02  0.53742343139E+03  0.10793578588E+04  0.88940064567E+03 0.  0.
         23    2    4    4    0    0  0.28470116330E+03 -0.66984052131E+02  0.33544919418E+03  0.45454312869E+03  0.92421200702E+02 0.  0.
         23    2    4    4    0    0 -0.56449569243E+03  0.14987527967E+03  0.20197423721E+03  0.62481473007E+03  0.92097058505E+02 0.  0.
          4    1    3    3  502    0  0.27302276727E+03 -0.62569365071E+02  0.16296205459E+04  0.16535173057E+04  0.00000000000E+00 0. -1.
         -3    1    3    3    0  502  0.67717618662E+01 -0.20321862466E+02  0.86540236024E+02  0.89151821652E+02  0.00000000000E+00 0.  1.
         13    1    5    5    0    0  0.13598639226E+03 -0.43892199464E+02  0.97476116451E+02  0.17297519282E+03  0.00000000000E+00 0.  1.
        -13    1    5    5    0    0  0.14871477104E+03 -0.23091852667E+02  0.23797307773E+03  0.28156793587E+03  0.00000000000E+00 0. -1.
          3    1    6    6  503    0 -0.31658376791E+03  0.73371210891E+02  0.64935282427E+02  0.33139886481E+03  0.00000000000E+00 0. -1.
         -3    1    6    6    0  503 -0.24791192453E+03  0.76504068777E+02  0.13703895478E+03  0.29341586527E+03  0.00000000000E+00 0.  1.
<mgrwt>
<rscale>  0 0.16985860E+04</rscale>
<asrwt>0</asrwt>
<pdfrwt beam="1">  1        2 0.39043162E+00 0.16985860E+04</pdfrwt>
<pdfrwt beam="2">  1       -1 0.43726369E-01 0.16985860E+04</pdfrwt>
<totfact> 0.18562939E+01</totfact>
</mgrwt>
</event>
<event>
12    7  0.1698542E-007  0.3335428E+04  0.7818608E-02  0.8153939E-01
         -1   -1    0    0    0  501 -0.00000000000E+00  0.00000000000E+00  0.29918047328E+04  0.29918047328E+04  0.00000000000E+00 0.  1.
          2   -1    0    0  501    0  0.00000000000E+00 -0.00000000000E+00 -0.92962961083E+03  0.92962961083E+03  0.00000000000E+00 0. -1.
         24    2    1    2    0    0 -0.10448385473E+04 -0.10102178051E+04  0.15700720295E+04  0.21410452579E+04  0.81981796027E+02 0.  0.
        254    2    1    2    0    0  0.10448385473E+04  0.10102178051E+04  0.49210309245E+03  0.17803890857E+04  0.90299071943E+03 0.  0.
         23    2    4    4    0    0  0.75159003795E+03  0.13628681188E+03  0.34388925943E+03  0.84273552377E+03  0.92095928384E+02 0.  0.
         23    2    4    4    0    0  0.29324850935E+03  0.87393099319E+03  0.14821383302E+03  0.93765356196E+03  0.86468450156E+02 0.  0.
          2    1    3    3  502    0 -0.63362374338E+03 -0.59699525815E+03  0.99665346854E+03  0.13233293327E+04  0.00000000000E+00 0. -1.
         -1    1    3    3    0  502 -0.41121480392E+03 -0.41322254691E+03  0.57341856095E+03  0.81771592517E+03  0.00000000000E+00 0.  1.
         13    1    5    5    0    0  0.12428802322E+03  0.83334530784E+01  0.91511234314E+02  0.15456799527E+03  0.00000000000E+00 0.  1.
        -13    1    5    5    0    0  0.62730201473E+03  0.12795335880E+03  0.25237802511E+03  0.68816752849E+03  0.00000000000E+00 0. -1.
          2    1    6    6  503    0  0.18194272815E+03  0.61254813442E+03  0.68943101096E+02  0.64270640614E+03  0.00000000000E+00 0. -1.
         -2    1    6    6    0  503  0.11130578120E+03  0.26138285877E+03  0.79270731928E+02  0.29494715582E+03  0.00000000000E+00 0.  1.
<mgrwt>
<rscale>  0 0.33354282E+04</rscale>
<asrwt>0</asrwt>
<pdfrwt beam="1">  1        2 0.14301994E+00 0.33354282E+04</pdfrwt>
<pdfrwt beam="2">  1       -1 0.46027765E+00 0.33354282E+04</pdfrwt>
<totfact> 0.73012959E-02</totfact>
</mgrwt>
</event>
<event>
12    7  0.1698542E-007  0.2621647E+04  0.7818608E-02  0.8360885E-01
          2   -1    0    0  501    0  0.00000000000E+00  0.00000000000E+00  0.22867375859E+04  0.22867375859E+04  0.00000000000E+00 0. -1.
         -1   -1    0    0    0  501 -0.00000000000E+00 -0.00000000000E+00 -0.75140185071E+03  0.75140185071E+03  0.00000000000E+00 0.  1.
         24    2    1    2    0    0 -0.10201434439E+04  0.45190126122E+03  0.34141532420E+03  0.11695345623E+04  0.79619549585E+02 0.  0.
        254    2    1    2    0    0  0.10201434439E+04 -0.45190126122E+03  0.11939204110E+04  0.18686048744E+04  0.90627304533E+03 0.  0.
         23    2    4    4    0    0  0.78630518817E+03  0.11088759899E+03  0.83379496605E+03  0.11552594867E+04  0.94013444522E+02 0.  0.
         23    2    4    4    0    0  0.23383825573E+03 -0.56278886021E+03  0.36012544495E+03  0.71334538763E+03  0.88089017057E+02 0.  0.
          2    1    3    3  502    0 -0.20174907974E+03  0.74465511704E+02  0.36592761035E+02  0.21814406655E+03  0.00000000000E+00 0. -1.
         -3    1    3    3    0  502 -0.81839436416E+03  0.37743574952E+03  0.30482256316E+03  0.95139049570E+03  0.00000000000E+00 0.  1.
         13    1    5    5    0    0  0.54231006602E+03  0.10926004264E+03  0.61906292710E+03  0.83022700049E+03  0.00000000000E+00 0. -1.
        -13    1    5    5    0    0  0.24399512214E+03  0.16275563463E+01  0.21473203895E+03  0.32503248625E+03  0.00000000000E+00 0.  1.
          1    1    6    6  503    0  0.11803836647E+03 -0.38580703861E+03  0.25348658701E+03  0.47648250418E+03  0.00000000000E+00 0. -1.
         -1    1    6    6    0  503  0.11579988926E+03 -0.17698182160E+03  0.10663885795E+03  0.23686288344E+03  0.00000000000E+00 0.  1.
<mgrwt>
<rscale>  0 0.26216475E+04</rscale>
<asrwt>0</asrwt>
<pdfrwt beam="1">  1        2 0.35180578E+00 0.26216475E+04</pdfrwt>
<pdfrwt beam="2">  1       -1 0.11560029E+00 0.26216475E+04</pdfrwt>
<totfact> 0.31396273E+00</totfact>
</mgrwt>
</event>
<event>
12    7  0.1698542E-007  0.3024173E+04  0.7818608E-02  0.8236862E-01
          2   -1    0    0  501    0  0.00000000000E+00  0.00000000000E+00  0.30029933123E+04  0.30029933123E+04  0.00000000000E+00 0. -1.
         -1   -1    0    0    0  501 -0.00000000000E+00 -0.00000000000E+00 -0.76137550011E+03  0.76137550011E+03  0.00000000000E+00 0.  1.
         24    2    1    2    0    0  0.79264957715E+03  0.67940334434E+03 -0.96191508351E+02  0.10507109876E+04  0.69703060606E+02 0.  0.
        254    2    1    2    0    0 -0.79264957715E+03 -0.67940334434E+03  0.23378093206E+04  0.27136578249E+04  0.89927977557E+03 0.  0.
         23    2    4    4    0    0 -0.93695034581E+03 -0.39206259010E+03  0.15235605303E+04  0.18333253439E+04  0.90863095514E+02 0.  0.
         23    2    4    4    0    0  0.14430076867E+03 -0.28734075424E+03  0.81424879023E+03  0.88033248092E+03  0.92718734298E+02 0.  0.
          4    1    3    3  502    0  0.37711532032E+03  0.35876597031E+03 -0.70054846350E+02  0.52520154966E+03  0.00000000000E+00 0. -1.
         -3    1    3    3    0  502  0.41553425683E+03  0.32063737403E+03 -0.26136662001E+02  0.52550943791E+03  0.00000000000E+00 0.  1.
         13    1    5    5    0    0 -0.91430187152E+03 -0.36587250317E+03  0.14631237736E+04  0.17636728091E+04  0.00000000000E+00 0. -1.
        -13    1    5    5    0    0 -0.22648474293E+02 -0.26190086937E+02  0.60436756710E+02  0.69652534793E+02  0.00000000000E+00 0.  1.
          3    1    6    6  503    0  0.15335210562E+03 -0.23782923483E+03  0.66092224085E+03  0.71895606381E+03  0.00000000000E+00 0. -1.
         -3    1    6    6    0  503 -0.90513369563E+01 -0.49511519402E+02  0.15332654939E+03  0.16137641712E+03  0.00000000000E+00 0.  1.
<mgrwt>
<rscale>  0 0.30241730E+04</rscale>
<asrwt>0</asrwt>
<pdfrwt beam="1">  1        2 0.46199896E+00 0.30241730E+04</pdfrwt>
<pdfrwt beam="2">  1       -1 0.11713469E+00 0.30241730E+04</pdfrwt>
<totfact> 0.11042516E+00</totfact>
</mgrwt>
</event>
<event>
12    7  0.1698542E-007  0.2052131E+04  0.7818608E-02  0.8582628E-01
          2   -1    0    0  501    0  0.00000000000E+00  0.00000000000E+00  0.42711680903E+03  0.42711680903E+03  0.00000000000E+00 0. -1.
         -1   -1    0    0    0  501 -0.00000000000E+00 -0.00000000000E+00 -0.24649249917E+04  0.24649249917E+04  0.00000000000E+00 0.  1.
         24    2    1    2    0    0  0.12650232249E+03  0.62933931775E+03 -0.15686607005E+04  0.16967865236E+04  0.79481437302E+02 0.  0.
        254    2    1    2    0    0 -0.12650232249E+03 -0.62933931775E+03 -0.46914748212E+03  0.11952552771E+04  0.89244887976E+03 0.  0.
         23    2    4    4    0    0 -0.30098996460E+03 -0.28980770129E+03 -0.63789085946E+03  0.76794510650E+03  0.90837632588E+02 0.  0.
         23    2    4    4    0    0  0.17448764211E+03 -0.33953161646E+03  0.16874337734E+03  0.42731017060E+03  0.91607852683E+02 0.  0.
          2    1    3    3  502    0  0.34663927317E+02  0.54610104879E+02 -0.14708940152E+03  0.16068336395E+03  0.00000000000E+00 0. -1.
         -3    1    3    3    0  502  0.91838395173E+02  0.57472921287E+03 -0.14215712990E+04  0.15361031597E+04  0.00000000000E+00 0.  1.
         13    1    5    5    0    0 -0.22349537316E+03 -0.26030615420E+03 -0.48608672648E+03  0.59497040380E+03  0.00000000000E+00 0. -1.
        -13    1    5    5    0    0 -0.77494591445E+02 -0.29501547087E+02 -0.15180413298E+03  0.17297470269E+03  0.00000000000E+00 0.  1.
          4    1    6    6  503    0  0.13999318660E+02 -0.64982363392E+02 -0.17080238509E+01  0.66495156368E+02  0.00000000000E+00 0. -1.
         -4    1    6    6    0  503  0.16048832345E+03 -0.27454925307E+03  0.17045140119E+03  0.36081501423E+03  0.00000000000E+00 0.  1.
<mgrwt>
<rscale>  0 0.20521315E+04</rscale>
<asrwt>0</asrwt>
<pdfrwt beam="1">  1        2 0.65710280E-01 0.20521315E+04</pdfrwt>
<pdfrwt beam="2">  1       -1 0.37921922E+00 0.20521315E+04</pdfrwt>
<totfact> 0.77407043E-01</totfact>
</mgrwt>
</event>
<event>
12    7  0.1698542E-007  0.1796210E+04  0.7818608E-02  0.8708318E-01
          2   -1    0    0  501    0  0.00000000000E+00  0.00000000000E+00  0.48735040005E+03  0.48735040005E+03  0.00000000000E+00 0. -1.
         -1   -1    0    0    0  501 -0.00000000000E+00 -0.00000000000E+00 -0.16550567332E+04  0.16550567332E+04  0.00000000000E+00 0.  1.
         24    2    1    2    0    0 -0.56738190128E+03 -0.12195655468E+03 -0.85247011968E+03  0.10345756303E+04  0.82739390701E+02 0.  0.
        254    2    1    2    0    0  0.56738190128E+03  0.12195655468E+03 -0.31523621346E+03  0.11078315029E+04  0.88944991172E+03 0.  0.
         23    2    4    4    0    0  0.69315611175E+03 -0.20207496037E-01 -0.48220935053E+03  0.84933911795E+03  0.91573379731E+02 0.  0.
         23    2    4    4    0    0 -0.12577421047E+03  0.12197676218E+03  0.16697313707E+03  0.25849238497E+03  0.90778863486E+02 0.  0.
          2    1    3    3  502    0 -0.15511449067E+02  0.58622486113E+01 -0.47099709557E+02  0.49933492280E+02  0.00000000000E+00 0. -1.
         -1    1    3    3    0  502 -0.55187045221E+03 -0.12781880329E+03 -0.80537041013E+03  0.98464213804E+03  0.00000000000E+00 0.  1.
         13    1    5    5    0    0  0.50154327821E+03 -0.37210830262E+02 -0.36813375681E+03  0.62325979231E+03  0.00000000000E+00 0. -1.
        -13    1    5    5    0    0  0.19161283354E+03  0.37190622765E+02 -0.11407559371E+03  0.22607932564E+03  0.00000000000E+00 0.  1.
          1    1    6    6  503    0 -0.97290294038E+02  0.69312607982E+02  0.15780749066E+03  0.19792130519E+03  0.00000000000E+00 0. -1.
         -1    1    6    6    0  503 -0.28483916436E+02  0.52664154194E+02  0.91656464115E+01  0.60571079788E+02  0.00000000000E+00 0.  1.
<mgrwt>
<rscale>  0 0.17962100E+04</rscale>
<asrwt>0</asrwt>
<pdfrwt beam="1">  1        2 0.74976985E-01 0.17962100E+04</pdfrwt>
<pdfrwt beam="2">  1       -1 0.25462411E+00 0.17962100E+04</pdfrwt>
<totfact> 0.44538904E+00</totfact>
</mgrwt>
</event>
<event>
12    7  0.1698542E-007  0.1647333E+04  0.7818608E-02  0.8791986E-01
          2   -1    0    0  501    0  0.00000000000E+00  0.00000000000E+00  0.62633806952E+03  0.62633806952E+03  0.00000000000E+00 0. -1.
         -1   -1    0    0    0  501 -0.00000000000E+00 -0.00000000000E+00 -0.10831629891E+04  0.10831629891E+04  0.00000000000E+00 0.  1.
         24    2    1    2    0    0  0.49155179015E+03  0.24935586660E+03  0.45077593322E+02  0.55889540914E+03  0.80811993715E+02 0.  0.
        254    2    1    2    0    0 -0.49155179015E+03 -0.24935586660E+03 -0.50190251290E+03  0.11506056495E+04  0.87646204568E+03 0.  0.
         23    2    4    4    0    0 -0.19282761142E+03 -0.40884060508E+03 -0.62588319571E+03  0.77764933260E+03  0.93142802890E+02 0.  0.
         23    2    4    4    0    0 -0.29872417873E+03  0.15948473847E+03  0.12398068281E+03  0.37295631687E+03  0.95150868739E+02 0.  0.
          4    1    3    3  502    0  0.45415994639E+03  0.25124025260E+03  0.48595864448E+02  0.52129116574E+03  0.00000000000E+00 0. -1.
         -3    1    3    3    0  502  0.37391843762E+02 -0.18843859953E+01 -0.35182711263E+01  0.37604243407E+02  0.00000000000E+00 0.  1.
         13    1    5    5    0    0 -0.47334343875E+01  0.50062259865E+01 -0.79848632976E+01  0.10546361534E+02  0.00000000000E+00 0.  1.
        -13    1    5    5    0    0 -0.18809417703E+03 -0.41384683106E+03 -0.61789833241E+03  0.76710297106E+03  0.00000000000E+00 0. -1.
          3    1    6    6  503    0 -0.23053395328E+03  0.16400219442E+03  0.10753649042E+03  0.30266602082E+03  0.00000000000E+00 0. -1.
         -3    1    6    6    0  503 -0.68190225452E+02 -0.45174559494E+01  0.16444192390E+02  0.70290296051E+02  0.00000000000E+00 0.  1.
<mgrwt>
<rscale>  0 0.16473327E+04</rscale>
<asrwt>0</asrwt>
<pdfrwt beam="1">  1        2 0.96359704E-01 0.16473327E+04</pdfrwt>
<pdfrwt beam="2">  1       -1 0.16664046E+00 0.16473327E+04</pdfrwt>
<totfact> 0.13384056E+01</totfact>
</mgrwt>
</event>
<event>
12    7  0.1698542E-007  0.1441851E+04  0.7818608E-02  0.8924069E-01
          2   -1    0    0  501    0  0.00000000000E+00  0.00000000000E+00  0.10431015075E+04  0.10431015075E+04  0.00000000000E+00 0. -1.
         -1   -1    0    0    0  501 -0.00000000000E+00 -0.00000000000E+00 -0.49825802840E+03  0.49825802840E+03  0.00000000000E+00 0.  1.
         24    2    1    2    0    0 -0.12334787002E+03 -0.38524834930E+03 -0.97113592814E+01  0.41225412679E+03  0.78918735954E+02 0.  0.
        254    2    1    2    0    0  0.12334787002E+03  0.38524834930E+03  0.55455483836E+03  0.11291054091E+04  0.89650263158E+03 0.  0.
         23    2    4    4    0    0  0.25018425444E+02  0.14389044444E+03 -0.23617802233E+03  0.29226760484E+03  0.91158724175E+02 0.  0.
         23    2    4    4    0    0  0.98329444579E+02  0.24135790485E+03  0.79073286069E+03  0.83683780425E+03  0.84360747622E+02 0.  0.
          2    1    3    3  502    0 -0.30012823540E+01  0.38108843402E+01  0.51751819334E+00  0.48783563116E+01  0.00000000000E+00 0. -1.
         -1    1    3    3    0  502 -0.12034658767E+03 -0.38905923364E+03 -0.10228877475E+02  0.40737577048E+03  0.00000000000E+00 0.  1.
         13    1    5    5    0    0 -0.23561202931E+01  0.81038499336E+02 -0.19764320086E+03  0.21362496231E+03  0.00000000000E+00 0. -1.
        -13    1    5    5    0    0  0.27374545737E+02  0.62851945108E+02 -0.38534821477E+02  0.78642642532E+02  0.00000000000E+00 0.  1.
          1    1    6    6  503    0  0.80389225104E+02  0.99734197253E+02  0.31199009339E+03  0.33726422281E+03  0.00000000000E+00 0. -1.
         -1    1    6    6    0  503  0.17940219475E+02  0.14162370760E+03  0.47874276731E+03  0.49957358145E+03  0.00000000000E+00 0.  1.
<mgrwt>
<rscale>  0 0.14418512E+04</rscale>
<asrwt>0</asrwt>
<pdfrwt beam="1">  1        2 0.16047715E+00 0.14418512E+04</pdfrwt>
<pdfrwt beam="2">  1       -1 0.76655081E-01 0.14418512E+04</pdfrwt>
<totfact> 0.44704748E+01</totfact>
</mgrwt>
</event>
<event>
12    7  0.1698542E-007  0.2206413E+04  0.7818608E-02  0.8515764E-01
         -1   -1    0    0    0  501 -0.00000000000E+00  0.00000000000E+00  0.12813249681E+04  0.12813249681E+04  0.00000000000E+00 0.  1.
          2   -1    0    0  501    0  0.00000000000E+00 -0.00000000000E+00 -0.94984805637E+03  0.94984805637E+03  0.00000000000E+00 0. -1.
         24    2    1    2    0    0 -0.54437973790E+03  0.46825342492E+03 -0.43668326542E+03  0.84429481476E+03  0.80813927929E+02 0.  0.
        254    2    1    2    0    0  0.54437973790E+03 -0.46825342492E+03  0.76816017714E+03  0.13868782097E+04  0.90429560534E+03 0.  0.
         23    2    4    4    0    0  0.31625710346E+03 -0.58032466816E+03  0.87167920944E+03  0.10976759233E+04  0.90953353277E+02 0.  0.
         23    2    4    4    0    0  0.22812263444E+03  0.11207124324E+03 -0.10351903229E+03  0.28920228640E+03  0.91224297810E+02 0.  0.
          4    1    3    3  502    0 -0.45906724083E+03  0.43015724328E+03 -0.37677127950E+03  0.73330388149E+03  0.00000000000E+00 0. -1.
         -3    1    3    3    0  502 -0.85312497067E+02  0.38096181642E+02 -0.59911985915E+02  0.11099093327E+03  0.00000000000E+00 0.  1.
         13    1    5    5    0    0  0.18273129380E+03 -0.28601985405E+03  0.51032017996E+03  0.61288234493E+03  0.00000000000E+00 0. -1.
        -13    1    5    5    0    0  0.13352580966E+03 -0.29430481411E+03  0.36135902947E+03  0.48479357837E+03  0.00000000000E+00 0.  1.
          4    1    6    6  503    0  0.17793278847E+03  0.41052356989E+02 -0.78029405459E+02  0.19857986137E+03  0.00000000000E+00 0. -1.
         -4    1    6    6    0  503  0.50189845972E+02  0.71018886252E+02 -0.25489626833E+02  0.90622425035E+02  0.00000000000E+00 0.  1.
<mgrwt>
<rscale>  0 0.22064125E+04</rscale>
<asrwt>0</asrwt>
<pdfrwt beam="1">  1        2 0.14613047E+00 0.22064125E+04</pdfrwt>
<pdfrwt beam="2">  1       -1 0.19712692E+00 0.22064125E+04</pdfrwt>
<totfact> 0.44580960E+00</totfact>
</mgrwt>
</event>
<event>
12    7  0.1698542E-007  0.1466105E+04  0.7818608E-02  0.8907311E-01
         -1   -1    0    0    0  501 -0.00000000000E+00  0.00000000000E+00  0.30382918814E+03  0.30382918814E+03  0.00000000000E+00 0.  1.
          2   -1    0    0  501    0  0.00000000000E+00 -0.00000000000E+00 -0.17686442441E+04  0.17686442441E+04  0.00000000000E+00 0. -1.
         24    2    1    2    0    0 -0.51849959778E+02 -0.41312517181E+03 -0.71612855238E+03  0.83214954411E+03  0.79195544807E+02 0.  0.
        254    2    1    2    0    0  0.51849959778E+02  0.41312517181E+03 -0.74868650361E+03  0.12403238882E+04  0.89694539463E+03 0.  0.
         23    2    4    4    0    0 -0.15630455187E+03  0.27146204769E+03  0.10737588342E+03  0.34325819844E+03  0.90409369996E+02 0.  0.
         23    2    4    4    0    0  0.20815451165E+03  0.14166312412E+03 -0.85606238703E+03  0.89706568972E+03  0.92126542021E+02 0.  0.
          4    1    3    3  502    0  0.13578224990E+02 -0.20455441425E+02 -0.58143149588E+02  0.63114333727E+02  0.00000000000E+00 0. -1.
         -3    1    3    3    0  502 -0.65428184768E+02 -0.39266973038E+03 -0.65798540279E+03  0.76903521038E+03  0.00000000000E+00 0.  1.
         13    1    5    5    0    0 -0.13696341227E+03  0.15425345075E+03  0.55414780411E+02  0.21359752165E+03  0.00000000000E+00 0.  1.
        -13    1    5    5    0    0 -0.19341139598E+02  0.11720859695E+03  0.51961103007E+02  0.12966067679E+03  0.00000000000E+00 0. -1.
          4    1    6    6  503    0  0.53042243007E+01  0.40872140313E+02 -0.11523962331E+03  0.12238806081E+03  0.00000000000E+00 0.  1.
         -4    1    6    6    0  503  0.20285028735E+03  0.10079098380E+03 -0.74082276372E+03  0.77467762891E+03  0.00000000000E+00 0. -1.
<mgrwt>
<rscale>  0 0.14661047E+04</rscale>
<asrwt>0</asrwt>
<pdfrwt beam="1">  1        2 0.27209912E+00 0.14661047E+04</pdfrwt>
<pdfrwt beam="2">  1       -1 0.46742952E-01 0.14661047E+04</pdfrwt>
<totfact> 0.45198772E+01</totfact>
</mgrwt>
</event>
<event>
12    7  0.1698542E-007  0.1626064E+04  0.7818608E-02  0.8804694E-01
         -1   -1    0    0    0  501 -0.00000000000E+00  0.00000000000E+00  0.47237916761E+03  0.47237916761E+03  0.00000000000E+00 0.  1.
          2   -1    0    0  501    0  0.00000000000E+00 -0.00000000000E+00 -0.13993434359E+04  0.13993434359E+04  0.00000000000E+00 0. -1.
         24    2    1    2    0    0 -0.26517744893E+02  0.44855847952E+03 -0.69549519476E+03  0.83192682409E+03  0.80503256862E+02 0.  0.
        254    2    1    2    0    0  0.26517744893E+02 -0.44855847952E+03 -0.23146907354E+03  0.10397957794E+04  0.90867454601E+03 0.  0.
         23    2    4    4    0    0  0.32757202558E+03 -0.56757249652E+03 -0.65076278599E+02  0.66499716770E+03  0.92435600631E+02 0.  0.
         23    2    4    4    0    0 -0.30105428068E+03  0.11901401700E+03 -0.16639279494E+03  0.37479861173E+03  0.89383561036E+02 0.  0.
          4    1    3    3  502    0 -0.20953254633E+02  0.27880911309E+03 -0.35932644815E+03  0.45529007980E+03  0.00000000000E+00 0. -1.
         -3    1    3    3    0  502 -0.55644902593E+01  0.16974936643E+03 -0.33616874660E+03  0.37663674429E+03  0.00000000000E+00 0.  1.
         13    1    5    5    0    0  0.48014075157E+02 -0.49160534540E+02 -0.29963764688E+02  0.74966237492E+02  0.00000000000E+00 0. -1.
        -13    1    5    5    0    0  0.27955795042E+03 -0.51841196198E+03 -0.35112513910E+02  0.59003093021E+03  0.00000000000E+00 0.  1.
          1    1    6    6  503    0  0.11145120378E+01 -0.65243852368E+01  0.18463757376E+01  0.68715968425E+01  0.00000000000E+00 0. -1.
         -1    1    6    6    0  503 -0.30216879272E+03  0.12553840223E+03 -0.16823917068E+03  0.36792701489E+03  0.00000000000E+00 0.  1.
<mgrwt>
<rscale>  0 0.16260636E+04</rscale>
<asrwt>0</asrwt>
<pdfrwt beam="1">  1        2 0.21528361E+00 0.16260636E+04</pdfrwt>
<pdfrwt beam="2">  1       -1 0.72673718E-01 0.16260636E+04</pdfrwt>
<totfact> 0.30163827E+01</totfact>
</mgrwt>
</event>
<event>
12    7  0.1698542E-007  0.1268879E+04  0.7818608E-02  0.9054615E-01
         -1   -1    0    0    0  501 -0.00000000000E+00  0.00000000000E+00  0.18378148710E+03  0.18378148710E+03  0.00000000000E+00 0.  1.
          2   -1    0    0  501    0  0.00000000000E+00 -0.00000000000E+00 -0.21901745046E+04  0.21901745046E+04  0.00000000000E+00 0. -1.
         24    2    1    2    0    0  0.17473337129E+03  0.82149540040E+02 -0.12026907349E+04  0.12205409684E+04  0.77297825079E+02 0.  0.
        254    2    1    2    0    0 -0.17473337129E+03 -0.82149540040E+02 -0.80370228260E+03  0.11534150233E+04  0.80445544247E+03 0.  0.
         23    2    4    4    0    0  0.14555267455E+03 -0.18199783032E+03 -0.76360746157E+03  0.80352784959E+03  0.90839740077E+02 0.  0.
         23    2    4    4    0    0 -0.32028604584E+03  0.99848290278E+02 -0.40094821021E+02  0.34988717370E+03  0.90887883758E+02 0.  0.
          2    1    3    3  502    0  0.14841059918E+03  0.50808643534E+02 -0.10767498280E+04  0.10881164534E+04  0.00000000000E+00 0. -1.
         -1    1    3    3    0  502  0.26322772113E+02  0.31340896506E+02 -0.12594090694E+03  0.13242451497E+03  0.00000000000E+00 0.  1.
         13    1    5    5    0    0  0.54133881252E+02 -0.72990985441E+02 -0.16627914092E+03  0.18949119705E+03  0.00000000000E+00 0. -1.
        -13    1    5    5    0    0  0.91418793302E+02 -0.10900684488E+03 -0.59732832066E+03  0.61403665254E+03  0.00000000000E+00 0.  1.
          4    1    6    6  503    0 -0.31836245340E+02 -0.16899666707E+02  0.65603871322E+00  0.36049627445E+02  0.00000000000E+00 0. -1.
         -4    1    6    6    0  503 -0.28844980050E+03  0.11674795698E+03 -0.40750859735E+02  0.31383754626E+03  0.00000000000E+00 0.  1.
<mgrwt>
<rscale>  0 0.12688791E+04</rscale>
<asrwt>0</asrwt>
<pdfrwt beam="1">  1        2 0.33694991E+00 0.12688791E+04</pdfrwt>
<pdfrwt beam="2">  1       -1 0.28274076E-01 0.12688791E+04</pdfrwt>
<totfact> 0.66385893E+01</totfact>
</mgrwt>
</event>
<event>
12    7  0.1698542E-007  0.2059044E+04  0.7818608E-02  0.8579502E-01
         -1   -1    0    0    0  501 -0.00000000000E+00  0.00000000000E+00  0.60913848628E+03  0.60913848628E+03  0.00000000000E+00 0.  1.
          2   -1    0    0  501    0  0.00000000000E+00 -0.00000000000E+00 -0.17400242481E+04  0.17400242481E+04  0.00000000000E+00 0. -1.
         24    2    1    2    0    0  0.68964335182E+03  0.45495869560E+03 -0.55173273809E+03  0.99667958653E+03  0.79786067236E+02 0.  0.
        254    2    1    2    0    0 -0.68964335182E+03 -0.45495869560E+03 -0.57915302377E+03  0.13524831479E+04  0.90066479500E+03 0.  0.
         23    2    4    4    0    0 -0.29087662333E+03 -0.79140599029E+02  0.21602744877E+03  0.38235255104E+03  0.93022418001E+02 0.  0.
         23    2    4    4    0    0 -0.39876672849E+03 -0.37581809657E+03 -0.79518047254E+03  0.97013059684E+03  0.92667392074E+02 0.  0.
          2    1    3    3  502    0  0.65387028312E+03  0.41635354334E+03 -0.49739412010E+03  0.92103068945E+03  0.00000000000E+00 0. -1.
         -1    1    3    3    0  502  0.35773068702E+02  0.38605152265E+02 -0.54338617989E+02  0.75648897088E+02  0.00000000000E+00 0.  1.
         13    1    5    5    0    0 -0.90503970905E+02  0.17347781861E+02  0.76919515434E+02  0.12003552033E+03  0.00000000000E+00 0. -1.
        -13    1    5    5    0    0 -0.20037265242E+03 -0.96488380889E+02  0.13910793334E+03  0.26231703071E+03  0.00000000000E+00 0.  1.
          1    1    6    6  503    0 -0.24891334486E+03 -0.25179189088E+03 -0.43593366596E+03  0.56160054370E+03  0.00000000000E+00 0. -1.
         -1    1    6    6    0  503 -0.14985338363E+03 -0.12402620569E+03 -0.35924680658E+03  0.40853005314E+03  0.00000000000E+00 0.  1.
<mgrwt>
<rscale>  0 0.20590442E+04</rscale>
<asrwt>0</asrwt>
<pdfrwt beam="1">  1        2 0.26769603E+00 0.20590442E+04</pdfrwt>
<pdfrwt beam="2">  1       -1 0.93713615E-01 0.20590442E+04</pdfrwt>
<totfact> 0.10830637E+01</totfact>
</mgrwt>
</event>
<event>
12    7  0.1698542E-007  0.1551286E+04  0.7818608E-02  0.8851047E-01
          2   -1    0    0  501    0  0.00000000000E+00  0.00000000000E+00  0.11469967187E+04  0.11469967187E+04  0.00000000000E+00 0. -1.
         -1   -1    0    0    0  501 -0.00000000000E+00 -0.00000000000E+00 -0.52451948856E+03  0.52451948856E+03  0.00000000000E+00 0.  1.
         24    2    1    2    0    0  0.44091217127E+03 -0.17132140682E+03  0.40986077613E+03  0.63088697667E+03  0.79233542888E+02 0.  0.
        254    2    1    2    0    0 -0.44091217127E+03  0.17132140682E+03  0.21261645399E+03  0.10406292306E+04  0.90219115035E+03 0.  0.
         23    2    4    4    0    0  0.41984151698E+02 -0.10990478209E+03  0.41346155752E+03  0.43977119906E+03  0.92771320242E+02 0.  0.
         23    2    4    4    0    0 -0.48289632297E+03  0.28122618890E+03 -0.20084510353E+03  0.60085803149E+03  0.91731076144E+02 0.  0.
          2    1    3    3  502    0  0.42101570067E+03 -0.17604173045E+03  0.37580465869E+03  0.59116330448E+03  0.00000000000E+00 0. -1.
         -1    1    3    3    0  502  0.19896470604E+02  0.47203236344E+01  0.34056117437E+02  0.39723672194E+02  0.00000000000E+00 0.  1.
         13    1    5    5    0    0  0.16899577830E+02  0.10954492509E+02  0.11568586561E+03  0.11742578992E+03  0.00000000000E+00 0.  1.
        -13    1    5    5    0    0  0.25084573868E+02 -0.12085927459E+03  0.29777569191E+03  0.32234540914E+03  0.00000000000E+00 0. -1.
          3    1    6    6  503    0 -0.36665479709E+03  0.22034345509E+03 -0.19331226693E+03  0.46942157063E+03  0.00000000000E+00 0. -1.
         -3    1    6    6    0  503 -0.11624152589E+03  0.60882733816E+02 -0.75328366049E+01  0.13143646086E+03  0.00000000000E+00 0.  1.
<mgrwt>
<rscale>  0 0.15512861E+04</rscale>
<asrwt>0</asrwt>
<pdfrwt beam="1">  1        2 0.17646103E+00 0.15512861E+04</pdfrwt>
<pdfrwt beam="2">  1       -1 0.80695306E-01 0.15512861E+04</pdfrwt>
<totfact> 0.34274031E+01</totfact>
</mgrwt>
</event>
<event>
12    7  0.1698542E-007  0.1123751E+04  0.7818608E-02  0.9182347E-01
          2   -1    0    0  501    0  0.00000000000E+00  0.00000000000E+00  0.91070200867E+03  0.91070200867E+03  0.00000000000E+00 0. -1.
         -1   -1    0    0    0  501 -0.00000000000E+00 -0.00000000000E+00 -0.34666007927E+03  0.34666007927E+03  0.00000000000E+00 0.  1.
         24    2    1    2    0    0 -0.10351247733E+02  0.17013200555E+03  0.19206219893E+03  0.26585671568E+03  0.68846622074E+02 0.  0.
        254    2    1    2    0    0  0.10351247733E+02 -0.17013200555E+03  0.37197973046E+03  0.99150537226E+03  0.90314004214E+03 0.  0.
         23    2    4    4    0    0  0.18726726502E+03 -0.49500346874E+03  0.22186226025E+03  0.58104296749E+03  0.91052759062E+02 0.  0.
         23    2    4    4    0    0 -0.17691601728E+03  0.32487146319E+03  0.15011747021E+03  0.41046240477E+03  0.95411666487E+02 0.  0.
          2    1    3    3  502    0 -0.18573518760E+02  0.17097171814E+03  0.19176664654E+03  0.25758639469E+03  0.00000000000E+00 0. -1.
         -1    1    3    3    0  502  0.82222710268E+01 -0.83971259210E+00  0.29555239295E+00  0.82703209909E+01  0.00000000000E+00 0.  1.
         13    1    5    5    0    0  0.13313058877E+03 -0.29868994938E+03  0.17950366384E+03  0.37304289949E+03  0.00000000000E+00 0. -1.
        -13    1    5    5    0    0  0.54136676245E+02 -0.19631351936E+03  0.42358596415E+02  0.20800006800E+03  0.00000000000E+00 0.  1.
          2    1    6    6  503    0 -0.16733914566E+03  0.26021155471E+03  0.91390726615E+02  0.32259061949E+03  0.00000000000E+00 0. -1.
         -2    1    6    6    0  503 -0.95768716256E+01  0.64659908483E+02  0.58726743593E+02  0.87871785279E+02  0.00000000000E+00 0.  1.
<mgrwt>
<rscale>  0 0.11237509E+04</rscale>
<asrwt>0</asrwt>
<pdfrwt beam="1">  1        2 0.14010800E+00 0.11237509E+04</pdfrwt>
<pdfrwt beam="2">  1       -1 0.53332320E-01 0.11237509E+04</pdfrwt>
<totfact> 0.11566751E+02</totfact>
</mgrwt>
</event>
<event>
12    7  0.1698542E-007  0.1972982E+04  0.7818608E-02  0.8619358E-01
         -1   -1    0    0    0  501 -0.00000000000E+00  0.00000000000E+00  0.58208211589E+03  0.58208211589E+03  0.00000000000E+00 0.  1.
          2   -1    0    0  501    0  0.00000000000E+00 -0.00000000000E+00 -0.16718681330E+04  0.16718681330E+04  0.00000000000E+00 0. -1.
         24    2    1    2    0    0 -0.52627432249E+03  0.56098070075E+03 -0.54970228512E+03  0.94867095036E+03  0.78357901128E+02 0.  0.
        254    2    1    2    0    0  0.52627432249E+03 -0.56098070075E+03 -0.54008373196E+03  0.13052792985E+04  0.90575912936E+03 0.  0.
         23    2    4    4    0    0  0.16028491632E+03  0.75452042532E+02 -0.52861745733E+03  0.56486306314E+03  0.90827301958E+02 0.  0.
         23    2    4    4    0    0  0.36598940616E+03 -0.63643274328E+03 -0.11466274632E+02  0.74041623536E+03  0.95340673288E+02 0.  0.
          2    1    3    3  502    0 -0.10571085660E+03  0.11138608328E+03 -0.72909967214E+02  0.16999267064E+03  0.00000000000E+00 0. -1.
         -1    1    3    3    0  502 -0.42056346588E+03  0.44959461747E+03 -0.47679231791E+03  0.77867827972E+03  0.00000000000E+00 0.  1.
         13    1    5    5    0    0  0.16015839113E+03  0.54708840688E+02 -0.50866200168E+03  0.53607909813E+03  0.00000000000E+00 0.  1.
        -13    1    5    5    0    0  0.12652519494E+00  0.20743201844E+02 -0.19955455645E+02  0.28783965004E+02  0.00000000000E+00 0. -1.
          3    1    6    6  503    0  0.10817048072E+03 -0.13352086110E+03  0.27064839806E+02  0.17395740513E+03  0.00000000000E+00 0. -1.
         -3    1    6    6    0  503  0.25781892544E+03 -0.50291188219E+03 -0.38531114438E+02  0.56645883023E+03  0.00000000000E+00 0.  1.
<mgrwt>
<rscale>  0 0.19729820E+04</rscale>
<asrwt>0</asrwt>
<pdfrwt beam="1">  1        2 0.25721048E+00 0.19729820E+04</pdfrwt>
<pdfrwt beam="2">  1       -1 0.89551094E-01 0.19729820E+04</pdfrwt>
<totfact> 0.13169155E+01</totfact>
</mgrwt>
</event>
<event>
12    7  0.1698542E-007  0.1480242E+04  0.7818608E-02  0.8897699E-01
         -1   -1    0    0    0  501 -0.00000000000E+00  0.00000000000E+00  0.98727788431E+03  0.98727788431E+03  0.00000000000E+00 0.  1.
          2   -1    0    0  501    0  0.00000000000E+00 -0.00000000000E+00 -0.55483781950E+03  0.55483781950E+03  0.00000000000E+00 0. -1.
         24    2    1    2    0    0  0.37483253903E+03 -0.11000963863E+03 -0.11223454526E+03  0.41464523131E+03  0.82051945709E+02 0.  0.
        254    2    1    2    0    0 -0.37483253903E+03  0.11000963863E+03  0.54467461007E+03  0.11274704725E+04  0.90659675853E+03 0.  0.
         23    2    4    4    0    0  0.24209840436E+03  0.21958651109E+03  0.10421905320E+03  0.35509946032E+03  0.91674109893E+02 0.  0.
         23    2    4    4    0    0 -0.61693094339E+03 -0.10957687246E+03  0.44045555687E+03  0.77237101217E+03  0.99724635770E+02 0.  0.
          4    1    3    3  502    0  0.32645318117E+03 -0.11733910897E+03 -0.11545203049E+03  0.36560814725E+03  0.00000000000E+00 0. -1.
         -3    1    3    3    0  502  0.48379357856E+02  0.73294703415E+01  0.32174852324E+01  0.49037084061E+02  0.00000000000E+00 0.  1.
         13    1    5    5    0    0  0.22932876164E+03  0.16276581227E+03  0.85690924288E+02  0.29398524634E+03  0.00000000000E+00 0. -1.
        -13    1    5    5    0    0  0.12769642717E+02  0.56820698821E+02  0.18528128913E+02  0.61114213983E+02  0.00000000000E+00 0.  1.
          2    1    6    6  503    0 -0.32082415426E+03 -0.47214781142E+02  0.16813862466E+03  0.36527793612E+03  0.00000000000E+00 0. -1.
         -2    1    6    6    0  503 -0.29610678913E+03 -0.62362091318E+02  0.27231693220E+03  0.40709307605E+03  0.00000000000E+00 0.  1.
<mgrwt>
<rscale>  0 0.14802420E+04</rscale>
<asrwt>0</asrwt>
<pdfrwt beam="1">  1        2 0.85359665E-01 0.14802420E+04</pdfrwt>
<pdfrwt beam="2">  1       -1 0.15188891E+00 0.14802420E+04</pdfrwt>
<totfact> 0.20323343E+01</totfact>
</mgrwt>
</event>
<event>
12    7  0.1698542E-007  0.1353646E+04  0.7818608E-02  0.8988072E-01
         -1   -1    0    0    0  501 -0.00000000000E+00  0.00000000000E+00  0.12726312036E+03  0.12726312036E+03  0.00000000000E+00 0.  1.
          2   -1    0    0  501    0  0.00000000000E+00 -0.00000000000E+00 -0.35995476345E+04  0.35995476345E+04  0.00000000000E+00 0. -1.
         24    2    1    2    0    0  0.14398777702E+03  0.16262343032E+03 -0.17939410215E+04  0.18088359215E+04  0.80524172481E+02 0.  0.
        254    2    1    2    0    0 -0.14398777702E+03 -0.16262343032E+03 -0.16783434927E+04  0.19179748334E+04  0.90255843136E+03 0.  0.
         23    2    4    4    0    0 -0.14656272007E+03 -0.31804919527E+03 -0.17151604989E+03  0.40062313687E+03  0.91897882965E+02 0.  0.
         23    2    4    4    0    0  0.25749430587E+01  0.15542576495E+03 -0.15068274428E+04  0.15173516965E+04  0.87541017963E+02 0.  0.
          4    1    3    3  502    0  0.15290134230E+03  0.14390651456E+03 -0.16739175461E+04  0.16870352269E+04  0.00000000000E+00 0. -1.
         -3    1    3    3    0  502 -0.89135652875E+01  0.18716915754E+02 -0.12002347539E+03  0.12180069469E+03  0.00000000000E+00 0.  1.
         13    1    5    5    0    0 -0.32667473889E+02 -0.12310818073E+03 -0.20523818421E+02  0.12901168604E+03  0.00000000000E+00 0. -1.
        -13    1    5    5    0    0 -0.11389524619E+03 -0.19494101454E+03 -0.15099223147E+03  0.27161145083E+03  0.00000000000E+00 0.  1.
          1    1    6    6  503    0 -0.36943818141E+02  0.60426338718E+02 -0.79147180641E+03  0.79463438666E+03  0.00000000000E+00 0. -1.
         -1    1    6    6    0  503  0.39518761200E+02  0.94999426236E+02 -0.71535563635E+03  0.72271730984E+03  0.00000000000E+00 0.  1.
<mgrwt>
<rscale>  0 0.13536464E+04</rscale>
<asrwt>0</asrwt>
<pdfrwt beam="1">  1        2 0.55377665E+00 0.13536464E+04</pdfrwt>
<pdfrwt beam="2">  1       -1 0.19578938E-01 0.13536464E+04</pdfrwt>
<totfact> 0.16631303E+01</totfact>
</mgrwt>
</event>
<event>
12    7  0.1698542E-007  0.1868242E+04  0.7818608E-02  0.8670828E-01
         -1   -1    0    0    0  501 -0.00000000000E+00  0.00000000000E+00  0.65040839491E+03  0.65040839491E+03  0.00000000000E+00 0.  1.
          2   -1    0    0  501    0  0.00000000000E+00 -0.00000000000E+00 -0.13415907369E+04  0.13415907369E+04  0.00000000000E+00 0. -1.
         24    2    1    2    0    0  0.61501458876E+03  0.15058304310E+03  0.85330483319E+02  0.64378636815E+03  0.79129003364E+02 0.  0.
        254    2    1    2    0    0 -0.61501458876E+03 -0.15058304310E+03 -0.77651282529E+03  0.13482127637E+04  0.90210159682E+03 0.  0.
         23    2    4    4    0    0 -0.35349447985E+03  0.75720120451E+02  0.11308270966E+03  0.38935878446E+03  0.90114815042E+02 0.  0.
         23    2    4    4    0    0 -0.26152010892E+03 -0.22630316355E+03 -0.88959553495E+03  0.95885397919E+03  0.91732482848E+02 0.  0.
          2    1    3    3  502    0  0.19082111570E+03  0.60381735078E+02  0.61800991712E+02  0.20947079678E+03  0.00000000000E+00 0. -1.
         -1    1    3    3    0  502  0.42419347306E+03  0.90201308017E+02  0.23529491607E+02  0.43431557137E+03  0.00000000000E+00 0.  1.
         13    1    5    5    0    0 -0.25681737369E+03  0.25119173624E+02  0.48502658915E+02  0.26256169605E+03  0.00000000000E+00 0. -1.
        -13    1    5    5    0    0 -0.96677106157E+02  0.50600946827E+02  0.64580050745E+02  0.12679708841E+03  0.00000000000E+00 0.  1.
          2    1    6    6  503    0 -0.65249414935E+02 -0.70037141106E+02 -0.36517633509E+03  0.37751350042E+03  0.00000000000E+00 0. -1.
         -2    1    6    6    0  503 -0.19627069398E+03 -0.15626602244E+03 -0.52441919986E+03  0.58134047878E+03  0.00000000000E+00 0.  1.
<mgrwt>
<rscale>  0 0.18682418E+04</rscale>
<asrwt>0</asrwt>
<pdfrwt beam="1">  1        2 0.20639858E+00 0.18682418E+04</pdfrwt>
<pdfrwt beam="2">  1       -1 0.10006283E+00 0.18682418E+04</pdfrwt>
<totfact> 0.15927969E+01</totfact>
</mgrwt>
</event>
<event>
12    7  0.1698542E-007  0.1957902E+04  0.7818608E-02  0.8626560E-01
         -1   -1    0    0    0  501 -0.00000000000E+00  0.00000000000E+00  0.66194864726E+03  0.66194864726E+03  0.00000000000E+00 0.  1.
          2   -1    0    0  501    0  0.00000000000E+00 -0.00000000000E+00 -0.14477634188E+04  0.14477634188E+04  0.00000000000E+00 0. -1.
         24    2    1    2    0    0 -0.48834215521E+03 -0.17384463064E+03  0.29959415579E+03  0.60416002252E+03  0.80948492706E+02 0.  0.
        254    2    1    2    0    0  0.48834215521E+03  0.17384463064E+03 -0.10854089273E+04  0.15055520435E+04  0.90546916022E+03 0.  0.
         23    2    4    4    0    0  0.46482148436E+03 -0.29942956160E+03 -0.61369408143E+03  0.83106317741E+03  0.91260640911E+02 0.  0.
         23    2    4    4    0    0  0.23520670847E+02  0.47327419224E+03 -0.47171484590E+03  0.67448886613E+03  0.88761769252E+02 0.  0.
          2    1    3    3  502    0 -0.29874643314E+02 -0.31155330905E+02  0.37200049732E+02  0.56982389008E+02  0.00000000000E+00 0. -1.
         -1    1    3    3    0  502 -0.45846751190E+03 -0.14268929973E+03  0.26239410605E+03  0.54717763351E+03  0.00000000000E+00 0.  1.
         13    1    5    5    0    0  0.42905830945E+03 -0.25184076635E+03 -0.57357048211E+03  0.75927458963E+03  0.00000000000E+00 0. -1.
        -13    1    5    5    0    0  0.35763174912E+02 -0.47588795257E+02 -0.40123599315E+02  0.71788587782E+02  0.00000000000E+00 0.  1.
          2    1    6    6  503    0  0.32062107304E+02  0.47239657072E+03 -0.46428296683E+03  0.66313284645E+03  0.00000000000E+00 0. -1.
         -2    1    6    6    0  503 -0.85414364563E+01  0.87762152175E+00 -0.74318790719E+01  0.11356019673E+02  0.00000000000E+00 0.  1.
<mgrwt>
<rscale>  0 0.19579020E+04</rscale>
<asrwt>0</asrwt>
<pdfrwt beam="1">  1        2 0.22273283E+00 0.19579020E+04</pdfrwt>
<pdfrwt beam="2">  1       -1 0.10183825E+00 0.19579020E+04</pdfrwt>
<totfact> 0.13194922E+01</totfact>
</mgrwt>
</event>
<event>
12    7  0.1698542E-007  0.3276448E+04  0.7818608E-02  0.8168914E-01
          2   -1    0    0  501    0  0.00000000000E+00  0.00000000000E+00  0.30398233957E+04  0.30398233957E+04  0.00000000000E+00 0. -1.
         -1   -1    0    0    0  501 -0.00000000000E+00 -0.00000000000E+00 -0.88287282616E+03  0.88287282616E+03  0.00000000000E+00 0.  1.
         24    2    1    2    0    0 -0.90411333189E+03  0.98181671945E+02 -0.45069799759E+03  0.10181152813E+04  0.79809042728E+02 0.  0.
        254    2    1    2    0    0  0.90411333189E+03 -0.98181671945E+02  0.26076485671E+04  0.29045809406E+04  0.89983266958E+03 0.  0.
         23    2    4    4    0    0  0.39861399155E+03  0.68747995868E+02  0.21708999822E+04  0.22101782696E+04  0.91988311564E+02 0.  0.
         23    2    4    4    0    0  0.50549934035E+03 -0.16692966781E+03  0.43674858488E+03  0.69440267097E+03  0.89725391946E+02 0.  0.
          4    1    3    3  502    0 -0.17812567257E+03  0.14716520264E+02 -0.12466269845E+03  0.21791310098E+03  0.00000000000E+00 0. -1.
         -3    1    3    3    0  502 -0.72598765933E+03  0.83465151681E+02 -0.32603529914E+03  0.80020218028E+03  0.00000000000E+00 0.  1.
         13    1    5    5    0    0  0.16205682244E+03  0.68698949577E+02  0.10416775702E+04  0.10564440920E+04  0.00000000000E+00 0.  1.
        -13    1    5    5    0    0  0.23655716911E+03  0.49046291428E-01  0.11292224121E+04  0.11537341776E+04  0.00000000000E+00 0. -1.
          1    1    6    6  503    0  0.18955197518E+03 -0.82961462188E+02  0.22082980425E+03  0.30261916322E+03  0.00000000000E+00 0. -1.
         -1    1    6    6    0  503  0.31594736517E+03 -0.83968205625E+02  0.21591878063E+03  0.39178350775E+03  0.00000000000E+00 0.  1.
<mgrwt>
<rscale>  0 0.32764478E+04</rscale>
<asrwt>0</asrwt>
<pdfrwt beam="1">  1        2 0.46766513E+00 0.32764478E+04</pdfrwt>
<pdfrwt beam="2">  1       -1 0.13582659E+00 0.32764478E+04</pdfrwt>
<totfact> 0.70775111E-01</totfact>
</mgrwt>
</event>
<event>
12    7  0.1698542E-007  0.1623434E+04  0.7818608E-02  0.8806280E-01
         -3   -1    0    0    0  501 -0.00000000000E+00  0.00000000000E+00  0.75478271272E+03  0.75478271272E+03  0.00000000000E+00 0.  1.
          4   -1    0    0  501    0  0.00000000000E+00 -0.00000000000E+00 -0.87294554209E+03  0.87294554209E+03  0.00000000000E+00 0. -1.
         24    2    1    2    0    0  0.44615663670E+03  0.12303418067E+02  0.31553550067E+03  0.55253747256E+03  0.80795345344E+02 0.  0.
        254    2    1    2    0    0 -0.44615663670E+03 -0.12303418067E+02 -0.43369833005E+03  0.10751907822E+04  0.87677469065E+03 0.  0.
         23    2    4    4    0    0 -0.58551784156E+03  0.19376551475E+03 -0.73913777343E+02  0.62784649739E+03  0.91387965892E+02 0.  0.
         23    2    4    4    0    0  0.13936120486E+03 -0.20606893282E+03 -0.35978455270E+03  0.44734428485E+03  0.93733848382E+02 0.  0.
          4    1    3    3  502    0  0.44676621943E+02 -0.15817775893E+02  0.57257265677E+02  0.74327633188E+02  0.00000000000E+00 0. -1.
         -3    1    3    3    0  502  0.40148001476E+03  0.28121193960E+02  0.25827823500E+03  0.47820983937E+03  0.00000000000E+00 0.  1.
         13    1    5    5    0    0 -0.20405129925E+03  0.29878497226E+02 -0.52030019851E+00  0.20622785465E+03  0.00000000000E+00 0.  1.
        -13    1    5    5    0    0 -0.38146654231E+03  0.16388701753E+03 -0.73393477145E+02  0.42161864274E+03  0.00000000000E+00 0. -1.
          2    1    6    6  503    0  0.14556969737E+02 -0.10286023114E+03 -0.14204491791E+03  0.17597980345E+03  0.00000000000E+00 0. -1.
         -2    1    6    6    0  503  0.12480423512E+03 -0.10320870168E+03 -0.21773963479E+03  0.27136448140E+03  0.00000000000E+00 0.  1.
<mgrwt>
<rscale>  0 0.16234337E+04</rscale>
<asrwt>0</asrwt>
<pdfrwt beam="1">  1        4 0.13429931E+00 0.16234337E+04</pdfrwt>
<pdfrwt beam="2">  1       -3 0.11612042E+00 0.16234337E+04</pdfrwt>
<totfact> 0.53359626E-01</totfact>
</mgrwt>
</event>
<event>
12    7  0.1698542E-007  0.1385436E+04  0.7818608E-02  0.8964428E-01
          2   -1    0    0  501    0  0.00000000000E+00  0.00000000000E+00  0.94322170226E+03  0.94322170226E+03  0.00000000000E+00 0. -1.
         -1   -1    0    0    0  501 -0.00000000000E+00 -0.00000000000E+00 -0.50874406367E+03  0.50874406367E+03  0.00000000000E+00 0.  1.
         24    2    1    2    0    0 -0.11767679433E+03  0.37979213934E+03  0.11538894054E+03  0.42162354114E+03  0.79761555999E+02 0.  0.
        254    2    1    2    0    0  0.11767679433E+03 -0.37979213934E+03  0.31908869804E+03  0.10303422248E+04  0.89537567866E+03 0.  0.
         23    2    4    4    0    0  0.19619220822E+03 -0.72960894632E+02  0.57092162247E+03  0.61577407867E+03  0.97013103450E+02 0.  0.
         23    2    4    4    0    0 -0.78515413885E+02 -0.30683124471E+03 -0.25183292443E+03  0.41456814612E+03  0.90204451142E+02 0.  0.
          2    1    3    3  502    0 -0.52242096302E+02  0.17561819366E+03  0.12060268990E+02  0.18362036014E+03  0.00000000000E+00 0. -1.
         -1    1    3    3    0  502 -0.65434698031E+02  0.20417394568E+03  0.10332867155E+03  0.23800318100E+03  0.00000000000E+00 0.  1.
         13    1    5    5    0    0  0.10454937949E+03  0.10020812474E+02  0.30346468330E+03  0.32112583739E+03  0.00000000000E+00 0. -1.
        -13    1    5    5    0    0  0.91642828730E+02 -0.82981707106E+02  0.26745693918E+03  0.29464824127E+03  0.00000000000E+00 0.  1.
          2    1    6    6  503    0  0.63497727556E+01 -0.15543834685E+03 -0.12603814300E+03  0.20021741377E+03  0.00000000000E+00 0. -1.
         -2    1    6    6    0  503 -0.84865186640E+02 -0.15139289786E+03 -0.12579478143E+03  0.21435073235E+03  0.00000000000E+00 0.  1.
<mgrwt>
<rscale>  0 0.13854363E+04</rscale>
<asrwt>0</asrwt>
<pdfrwt beam="1">  1        2 0.14511103E+00 0.13854363E+04</pdfrwt>
<pdfrwt beam="2">  1       -1 0.78268318E-01 0.13854363E+04</pdfrwt>
<totfact> 0.49854153E+01</totfact>
</mgrwt>
</event>
<event>
12    7  0.1698542E-007  0.3152568E+04  0.7818608E-02  0.8201457E-01
          2   -1    0    0  501    0  0.00000000000E+00  0.00000000000E+00  0.31566186187E+04  0.31566186187E+04  0.00000000000E+00 0. -1.
         -1   -1    0    0    0  501 -0.00000000000E+00 -0.00000000000E+00 -0.78713078474E+03  0.78713078474E+03  0.00000000000E+00 0.  1.
         24    2    1    2    0    0  0.88865645634E+03  0.11358463456E+04  0.12180963808E+04  0.18894592121E+04  0.80250252927E+02 0.  0.
        254    2    1    2    0    0 -0.88865645634E+03 -0.11358463456E+04  0.11513914531E+04  0.20542901913E+04  0.90252351405E+03 0.  0.
         23    2    4    4    0    0 -0.11337025596E+03 -0.68325523859E+03  0.85567317818E+03  0.11046172657E+04  0.91171157246E+02 0.  0.
         23    2    4    4    0    0 -0.77528620038E+03 -0.45259110703E+03  0.29571827494E+03  0.94967292554E+03  0.92314488097E+02 0.  0.
          4    1    3    3  502    0  0.20014595040E+03  0.20629346059E+03  0.25520615053E+03  0.38437686274E+03  0.00000000000E+00 0. -1.
         -3    1    3    3    0  502  0.68851050594E+03  0.92955288503E+03  0.96289023027E+03  0.15050823494E+04  0.00000000000E+00 0.  1.
         13    1    5    5    0    0 -0.93305295256E+02 -0.35149240115E+03  0.39995270412E+03  0.54056909986E+03  0.00000000000E+00 0. -1.
        -13    1    5    5    0    0 -0.20064960705E+02 -0.33176283744E+03  0.45572047407E+03  0.56404816588E+03  0.00000000000E+00 0.  1.
          4    1    6    6  503    0 -0.20939507908E+03 -0.90259946769E+02  0.10599949256E+03  0.25145387163E+03  0.00000000000E+00 0. -1.
         -4    1    6    6    0  503 -0.56589112130E+03 -0.36233116026E+03  0.18971878238E+03  0.69821905392E+03  0.00000000000E+00 0.  1.
<mgrwt>
<rscale>  0 0.31525683E+04</rscale>
<asrwt>0</asrwt>
<pdfrwt beam="1">  1        2 0.48563363E+00 0.31525683E+04</pdfrwt>
<pdfrwt beam="2">  1       -1 0.12109705E+00 0.31525683E+04</pdfrwt>
<totfact> 0.80367802E-01</totfact>
</mgrwt>
</event>
<event>
12    7  0.1698542E-007  0.2845382E+04  0.7818608E-02  0.8289316E-01
          2   -1    0    0  501    0  0.00000000000E+00  0.00000000000E+00  0.93033051375E+03  0.93033051375E+03  0.00000000000E+00 0. -1.
         -1   -1    0    0    0  501 -0.00000000000E+00 -0.00000000000E+00 -0.21756250196E+04  0.21756250196E+04  0.00000000000E+00 0.  1.
         24    2    1    2    0    0  0.77395866667E+03  0.17747395049E+03  0.53026365756E+03  0.95810748859E+03  0.79255235431E+02 0.  0.
        254    2    1    2    0    0 -0.77395866667E+03 -0.17747395049E+03 -0.17755581634E+04  0.21478480448E+04  0.91111767127E+03 0.  0.
         23    2    4    4    0    0 -0.91246853296E+03  0.59566724831E+02 -0.13827987569E+04  0.16603313600E+04  0.91764942539E+02 0.  0.
         23    2    4    4    0    0  0.13850986628E+03 -0.23704067532E+03 -0.39275940652E+03  0.48751668473E+03  0.89662152921E+02 0.  0.
          4    1    3    3  502    0  0.69709245894E+03  0.13961628404E+03  0.48996052401E+03  0.86341873860E+03  0.00000000000E+00 0. -1.
         -3    1    3    3    0  502  0.76866207729E+02  0.37857666456E+02  0.40303133552E+02  0.94688749988E+02  0.00000000000E+00 0.  1.
         13    1    5    5    0    0 -0.85409978392E+03  0.77924845418E+02 -0.12825555096E+04  0.15428892889E+04  0.00000000000E+00 0.  1.
        -13    1    5    5    0    0 -0.58368749033E+02 -0.18358120587E+02 -0.10024324730E+03  0.11744207119E+03  0.00000000000E+00 0. -1.
          4    1    6    6  503    0  0.43825321577E+02 -0.31758710407E+02 -0.35454667598E+02  0.64701684310E+02  0.00000000000E+00 0. -1.
         -4    1    6    6    0  503  0.94684544708E+02 -0.20528196492E+03 -0.35730473892E+03  0.42281500042E+03  0.00000000000E+00 0.  1.
<mgrwt>
<rscale>  0 0.28453825E+04</rscale>
<asrwt>0</asrwt>
<pdfrwt beam="1">  1        2 0.14312777E+00 0.28453825E+04</pdfrwt>
<pdfrwt beam="2">  1       -1 0.33471154E+00 0.28453825E+04</pdfrwt>
<totfact> 0.54194164E-01</totfact>
</mgrwt>
</event>
<event>
12    7  0.1698542E-007  0.1441789E+04  0.7818608E-02  0.8924113E-01
          2   -1    0    0  501    0  0.00000000000E+00  0.00000000000E+00  0.21105576676E+04  0.21105576676E+04  0.00000000000E+00 0. -1.
         -1   -1    0    0    0  501 -0.00000000000E+00 -0.00000000000E+00 -0.24623300952E+03  0.24623300952E+03  0.00000000000E+00 0.  1.
         24    2    1    2    0    0  0.16977772421E+03  0.19143702741E+03  0.11351005221E+04  0.11663691658E+04  0.80568136091E+02 0.  0.
        254    2    1    2    0    0 -0.16977772421E+03 -0.19143702741E+03  0.72922413593E+03  0.11904215113E+04  0.90546282251E+03 0.  0.
         23    2    4    4    0    0 -0.27329856953E+03 -0.27955319032E+03  0.87878774352E+03  0.96612254262E+03  0.91009751541E+02 0.  0.
         23    2    4    4    0    0  0.10352084532E+03  0.88116162909E+02 -0.14956360759E+03  0.22429896864E+03  0.97261148645E+02 0.  0.
          2    1    3    3  502    0  0.14945963941E+03  0.11378780477E+03  0.81301019604E+03  0.83442880296E+03  0.00000000000E+00 0. -1.
         -1    1    3    3    0  502  0.20318084794E+02  0.77649222643E+02  0.32209032608E+03  0.33194036287E+03  0.00000000000E+00 0.  1.
         13    1    5    5    0    0 -0.21260878525E+03 -0.16815465741E+03  0.53668126348E+03  0.60125307729E+03  0.00000000000E+00 0.  1.
        -13    1    5    5    0    0 -0.60689784286E+02 -0.11139853291E+03  0.34210648004E+03  0.36486946534E+03  0.00000000000E+00 0. -1.
          3    1    6    6  503    0  0.97405738736E+01  0.70222698709E+02 -0.74595488936E+02  0.10291060763E+03  0.00000000000E+00 0. -1.
         -3    1    6    6    0  503  0.93780271449E+02  0.17893464201E+02 -0.74968118654E+02  0.12138836101E+03  0.00000000000E+00 0.  1.
<mgrwt>
<rscale>  0 0.14417891E+04</rscale>
<asrwt>0</asrwt>
<pdfrwt beam="1">  1        2 0.32470117E+00 0.14417891E+04</pdfrwt>
<pdfrwt beam="2">  1       -1 0.37882003E-01 0.14417891E+04</pdfrwt>
<totfact> 0.43135663E+01</totfact>
</mgrwt>
</event>
<event>
12    7  0.1698542E-007  0.1931503E+04  0.7818608E-02  0.8639332E-01
          2   -1    0    0  501    0  0.00000000000E+00  0.00000000000E+00  0.44087133506E+03  0.44087133506E+03  0.00000000000E+00 0. -1.
         -1   -1    0    0    0  501 -0.00000000000E+00 -0.00000000000E+00 -0.21155288053E+04  0.21155288053E+04  0.00000000000E+00 0.  1.
         24    2    1    2    0    0 -0.71668773471E+03  0.13702106061E+03 -0.93503720549E+03  0.11892518356E+04  0.87231145616E+02 0.  0.
        254    2    1    2    0    0  0.71668773471E+03 -0.13702106061E+03 -0.73962026478E+03  0.13671483048E+04  0.88861705532E+03 0.  0.
         23    2    4    4    0    0  0.50066672467E+03  0.21204796647E+03 -0.41780162234E+02  0.55235289357E+03  0.87844338485E+02 0.  0.
         23    2    4    4    0    0  0.21602101004E+03 -0.34906902709E+03 -0.69784010254E+03  0.81479541119E+03  0.91632368324E+02 0.  0.
          4    1    3    3  502    0 -0.49546271775E+03  0.99416546630E+02 -0.58021094455E+03  0.76942296209E+03  0.00000000000E+00 0. -1.
         -3    1    3    3    0  502 -0.22122501695E+03  0.37604513984E+02 -0.35482626094E+03  0.41982887353E+03  0.00000000000E+00 0.  1.
         13    1    5    5    0    0  0.45627015565E+02  0.32917411721E+02 -0.28677514858E+02  0.63148874908E+02  0.00000000000E+00 0.  1.
        -13    1    5    5    0    0  0.45503970911E+03  0.17913055475E+03 -0.13102647377E+02  0.48920401866E+03  0.00000000000E+00 0. -1.
          1    1    6    6  503    0  0.33668657208E+02 -0.13455364456E+03 -0.24631934078E+03  0.28268618534E+03  0.00000000000E+00 0. -1.
         -1    1    6    6    0  503  0.18235235283E+03 -0.21451538253E+03 -0.45152076176E+03  0.53210922584E+03  0.00000000000E+00 0.  1.
<mgrwt>
<rscale>  0 0.19315031E+04</rscale>
<asrwt>0</asrwt>
<pdfrwt beam="1">  1        2 0.67826360E-01 0.19315031E+04</pdfrwt>
<pdfrwt beam="2">  1       -1 0.32546597E+00 0.19315031E+04</pdfrwt>
<totfact> 0.17158221E+00</totfact>
</mgrwt>
</event>
<event>
12    7  0.1698542E-007  0.1877684E+04  0.7818608E-02  0.8666045E-01
         -1   -1    0    0    0  501 -0.00000000000E+00  0.00000000000E+00  0.19017974964E+04  0.19017974964E+04  0.00000000000E+00 0.  1.
          2   -1    0    0  501    0  0.00000000000E+00 -0.00000000000E+00 -0.46346903581E+03  0.46346903581E+03  0.00000000000E+00 0. -1.
         24    2    1    2    0    0  0.54847604262E+03  0.86893006250E+02  0.11047688586E+04  0.12390515598E+04  0.79738153515E+02 0.  0.
        254    2    1    2    0    0 -0.54847604262E+03 -0.86893006250E+02  0.33355960205E+03  0.11262149724E+04  0.92126097939E+03 0.  0.
         23    2    4    4    0    0  0.12068546955E+03 -0.35044305602E+02  0.41581544946E+03  0.44397123901E+03  0.91732693966E+02 0.  0.
         23    2    4    4    0    0 -0.66916151218E+03 -0.51848700647E+02 -0.82255847413E+02  0.68224373342E+03  0.90692172868E+02 0.  0.
          2    1    3    3  502    0  0.27746771508E+03  0.32611069137E+02  0.63980043608E+03  0.69813781788E+03  0.00000000000E+00 0. -1.
         -1    1    3    3    0  502  0.27100832755E+03  0.54281937113E+02  0.46496842248E+03  0.54091374192E+03  0.00000000000E+00 0.  1.
         13    1    5    5    0    0  0.88711474888E+02  0.20831851431E+02  0.25093543474E+03  0.26696869521E+03  0.00000000000E+00 0. -1.
        -13    1    5    5    0    0  0.31973994663E+02 -0.55876157033E+02  0.16488001472E+03  0.17700254380E+03  0.00000000000E+00 0.  1.
          3    1    6    6  503    0 -0.41066650863E+03 -0.75175509982E+02 -0.42052764807E+02  0.41960311443E+03  0.00000000000E+00 0. -1.
         -3    1    6    6    0  503 -0.25849500355E+03  0.23326809334E+02 -0.40203082606E+02  0.26264061899E+03  0.00000000000E+00 0.  1.
<mgrwt>
<rscale>  0 0.18776839E+04</rscale>
<asrwt>0</asrwt>
<pdfrwt beam="1">  1        2 0.71302930E-01 0.18776839E+04</pdfrwt>
<pdfrwt beam="2">  1       -1 0.29258423E+00 0.18776839E+04</pdfrwt>
<totfact> 0.26614317E+00</totfact>
</mgrwt>
</event>
<event>
12    7  0.1698542E-007  0.1586986E+04  0.7818608E-02  0.8828583E-01
         -1   -1    0    0    0  501 -0.00000000000E+00  0.00000000000E+00  0.45764588876E+03  0.45764588876E+03  0.00000000000E+00 0.  1.
          2   -1    0    0  501    0  0.00000000000E+00 -0.00000000000E+00 -0.13758046808E+04  0.13758046808E+04  0.00000000000E+00 0. -1.
         24    2    1    2    0    0  0.23784557642E+03  0.12006847722E+03 -0.84097158646E+03  0.88578325080E+03  0.79948738140E+02 0.  0.
        254    2    1    2    0    0 -0.23784557642E+03 -0.12006847722E+03 -0.77187205627E+02  0.94766731880E+03  0.90616142324E+03 0.  0.
         23    2    4    4    0    0  0.27222763085E+03  0.83589482211E+02 -0.22502541284E+03  0.37186986290E+03  0.80967116613E+02 0.  0.
         23    2    4    4    0    0 -0.51007320728E+03 -0.20365795943E+03  0.14783820721E+03  0.57579745590E+03  0.89640021709E+02 0.  0.
          4    1    3    3  502    0  0.10326695083E+03  0.24187099695E+02 -0.42880365346E+03  0.44172576578E+03  0.00000000000E+00 0. -1.
         -3    1    3    3    0  502  0.13457862559E+03  0.95881377521E+02 -0.41216793299E+03  0.44405748503E+03  0.00000000000E+00 0.  1.
         13    1    5    5    0    0  0.25500732249E+03  0.55351351238E+02 -0.18460858808E+03  0.31964486137E+03  0.00000000000E+00 0. -1.
        -13    1    5    5    0    0  0.17220308364E+02  0.28238130973E+02 -0.40416824764E+02  0.52225001532E+02  0.00000000000E+00 0.  1.
          2    1    6    6  503    0 -0.42508371525E+03 -0.17587082843E+03  0.88448738617E+02  0.46845479251E+03  0.00000000000E+00 0. -1.
         -2    1    6    6    0  503 -0.84989492032E+02 -0.27787130999E+02  0.59389468597E+02  0.10734266340E+03  0.00000000000E+00 0.  1.
<mgrwt>
<rscale>  0 0.15869863E+04</rscale>
<asrwt>0</asrwt>
<pdfrwt beam="1">  1        2 0.21166226E+00 0.15869863E+04</pdfrwt>
<pdfrwt beam="2">  1       -1 0.70407060E-01 0.15869863E+04</pdfrwt>
<totfact> 0.33326688E+01</totfact>
</mgrwt>
</event>
<event>
12    7  0.1698542E-007  0.1815023E+04  0.7818608E-02  0.8698351E-01
         -1   -1    0    0    0  501 -0.00000000000E+00  0.00000000000E+00  0.44474892431E+03  0.44474892431E+03  0.00000000000E+00 0.  1.
          2   -1    0    0  501    0  0.00000000000E+00 -0.00000000000E+00 -0.18517792956E+04  0.18517792956E+04  0.00000000000E+00 0. -1.
         24    2    1    2    0    0  0.41624951174E+03 -0.15540707444E+03  0.12250227268E+03  0.46791126091E+03  0.80741107682E+02 0.  0.
        254    2    1    2    0    0 -0.41624951174E+03  0.15540707444E+03 -0.15295326440E+04  0.18286169590E+04  0.89830666199E+03 0.  0.
         23    2    4    4    0    0 -0.69210334457E+03  0.13904137595E+03 -0.11401799469E+04  0.13440609966E+04  0.90277946508E+02 0.  0.
         23    2    4    4    0    0  0.27585383283E+03  0.16365698489E+02 -0.38935269713E+03  0.48455596240E+03  0.82678804787E+02 0.  0.
          2    1    3    3  502    0  0.63722552891E+02 -0.50804057627E+02  0.40955628614E+01  0.81598956203E+02  0.00000000000E+00 0. -1.
         -1    1    3    3    0  502  0.35252695885E+03 -0.10460301681E+03  0.11840670982E+03  0.38631230471E+03  0.00000000000E+00 0.  1.
         13    1    5    5    0    0 -0.15195277683E+02  0.11864205436E+02 -0.13497153565E+02  0.23533571527E+02  0.00000000000E+00 0. -1.
        -13    1    5    5    0    0 -0.67690806688E+03  0.12717717051E+03 -0.11266827933E+04  0.13205274251E+04  0.00000000000E+00 0.  1.
          4    1    6    6  503    0  0.10854214564E+03 -0.12436195985E+02 -0.21519971450E+03  0.24134409765E+03  0.00000000000E+00 0. -1.
         -4    1    6    6    0  503  0.16731168719E+03  0.28801894474E+02 -0.17415298263E+03  0.24321186475E+03  0.00000000000E+00 0.  1.
<mgrwt>
<rscale>  0 0.18150227E+04</rscale>
<asrwt>0</asrwt>
<pdfrwt beam="1">  1        2 0.28488913E+00 0.18150227E+04</pdfrwt>
<pdfrwt beam="2">  1       -1 0.68422910E-01 0.18150227E+04</pdfrwt>
<totfact> 0.18750367E+01</totfact>
</mgrwt>
</event>
<event>
12    7  0.1698542E-007  0.2100734E+04  0.7818608E-02  0.8560920E-01
         -1   -1    0    0    0  501 -0.00000000000E+00  0.00000000000E+00  0.78362023759E+03  0.78362023759E+03  0.00000000000E+00 0.  1.
          2   -1    0    0  501    0  0.00000000000E+00 -0.00000000000E+00 -0.14079154952E+04  0.14079154952E+04  0.00000000000E+00 0. -1.
         24    2    1    2    0    0  0.18508155688E+03 -0.56356908040E+03 -0.89894546028E+03  0.10800409101E+04  0.80747358738E+02 0.  0.
        254    2    1    2    0    0 -0.18508155688E+03  0.56356908040E+03  0.27465020263E+03  0.11114948227E+04  0.89895645946E+03 0.  0.
         23    2    4    4    0    0 -0.78552363751E+02 -0.44565868137E+02 -0.25950989662E+03  0.28994650827E+03  0.92558093977E+02 0.  0.
         23    2    4    4    0    0 -0.10652919313E+03  0.60813494854E+03  0.53416009924E+03  0.82154831443E+03  0.91858786738E+02 0.  0.
          2    1    3    3  502    0  0.13150563158E+03 -0.27169678778E+03 -0.46063315356E+03  0.55072295919E+03  0.00000000000E+00 0. -1.
         -1    1    3    3    0  502  0.53575925297E+02 -0.29187229262E+03 -0.43831230672E+03  0.52931795095E+03  0.00000000000E+00 0.  1.
         13    1    5    5    0    0 -0.79812832749E+02 -0.35846889829E+02 -0.26533302220E+03  0.27938629253E+03  0.00000000000E+00 0. -1.
        -13    1    5    5    0    0  0.12604689976E+01 -0.87189783086E+01  0.58231255865E+01  0.10560215738E+02  0.00000000000E+00 0.  1.
          4    1    6    6  503    0 -0.11321797915E+03  0.48351361828E+03  0.45665835897E+03  0.67464107990E+03  0.00000000000E+00 0. -1.
         -4    1    6    6    0  503  0.66887860221E+01  0.12462133026E+03  0.77501740269E+02  0.14690723453E+03  0.00000000000E+00 0.  1.
<mgrwt>
<rscale>  0 0.21007342E+04</rscale>
<asrwt>0</asrwt>
<pdfrwt beam="1">  1        2 0.21660238E+00 0.21007342E+04</pdfrwt>
<pdfrwt beam="2">  1       -1 0.12055696E+00 0.21007342E+04</pdfrwt>
<totfact> 0.92045942E+00</totfact>
</mgrwt>
</event>
<event>
12    7  0.1698542E-007  0.1690058E+04  0.7818608E-02  0.8767055E-01
          2   -1    0    0  501    0  0.00000000000E+00  0.00000000000E+00  0.12708849835E+04  0.12708849835E+04  0.00000000000E+00 0. -1.
         -1   -1    0    0    0  501 -0.00000000000E+00 -0.00000000000E+00 -0.56187131517E+03  0.56187131517E+03  0.00000000000E+00 0.  1.
         24    2    1    2    0    0  0.18241773323E+02 -0.59260488353E+03  0.34227347112E+03  0.68924677304E+03  0.79979215021E+02 0.  0.
        254    2    1    2    0    0 -0.18241773323E+02  0.59260488353E+03  0.36674019718E+03  0.11435095256E+04  0.90642283325E+03 0.  0.
         23    2    4    4    0    0  0.28302745466E+02  0.60651661667E+03  0.61957073599E+03  0.87152267749E+03  0.83787999036E+02 0.  0.
         23    2    4    4    0    0 -0.46544518789E+02 -0.13911733141E+02 -0.25283053881E+03  0.27198684811E+03  0.87713372079E+02 0.  0.
          2    1    3    3  502    0  0.22232726570E+02 -0.47108421125E+02  0.39249540639E+02  0.65222878747E+02  0.00000000000E+00 0. -1.
         -1    1    3    3    0  502 -0.39909532476E+01 -0.54549646241E+03  0.30302393048E+03  0.62402389430E+03  0.00000000000E+00 0.  1.
         13    1    5    5    0    0  0.33560010662E+02  0.19111294426E+03  0.15542492312E+03  0.24861081735E+03  0.00000000000E+00 0. -1.
        -13    1    5    5    0    0 -0.52572651955E+01  0.41540367242E+03  0.46414581287E+03  0.62291186014E+03  0.00000000000E+00 0.  1.
          2    1    6    6  503    0  0.21300112403E+02 -0.11475155038E+02 -0.27387137810E+02  0.36543525952E+02  0.00000000000E+00 0. -1.
         -2    1    6    6    0  503 -0.67844631192E+02 -0.24365781035E+01 -0.22544340100E+03  0.23544332216E+03  0.00000000000E+00 0.  1.
<mgrwt>
<rscale>  0 0.16900578E+04</rscale>
<asrwt>0</asrwt>
<pdfrwt beam="1">  1        2 0.19552077E+00 0.16900578E+04</pdfrwt>
<pdfrwt beam="2">  1       -1 0.86441741E-01 0.16900578E+04</pdfrwt>
<totfact> 0.24639478E+01</totfact>
</mgrwt>
</event>
<event>
12    7  0.3013941E-007  0.2517686E+04  0.7818608E-02  0.8396712E-01
         -1   -1    0    0    0  501 -0.00000000000E+00  0.00000000000E+00  0.76297794757E+03  0.76297794757E+03  0.00000000000E+00 0.  1.
          2   -1    0    0  501    0  0.00000000000E+00 -0.00000000000E+00 -0.20769739541E+04  0.20769739541E+04  0.00000000000E+00 0. -1.
         24    2    1    2    0    0  0.44341418830E+03  0.37415856388E+03  0.47513212389E+03  0.75414760670E+03  0.79858025468E+02 0.  0.
        254    2    1    2    0    0 -0.44341418830E+03 -0.37415856388E+03 -0.17891281304E+04  0.20858042950E+04  0.90165920199E+03 0.  0.
         23    2    4    4    0    0 -0.36764654780E+02  0.27775876685E+03 -0.56847843310E+03  0.64063898389E+03  0.93536123377E+02 0.  0.
         23    2    4    4    0    0 -0.40664953352E+03 -0.65191733073E+03 -0.12206496973E+04  0.14451653111E+04  0.90316352677E+02 0.  0.
          4    1    3    3  502    0  0.36467107145E+02  0.69344914024E+01  0.23694925219E+02  0.44038466773E+02  0.00000000000E+00 0. -1.
         -3    1    3    3    0  502  0.40694708116E+03  0.36722407248E+03  0.45143719867E+03  0.71010913993E+03  0.00000000000E+00 0.  1.
         13    1    5    5    0    0 -0.42489413348E+02  0.28356677241E+03 -0.55801926607E+03  0.62737625550E+03  0.00000000000E+00 0. -1.
        -13    1    5    5    0    0  0.57247585670E+01 -0.58080055646E+01 -0.10459167030E+02  0.13262728386E+02  0.00000000000E+00 0.  1.
          1    1    6    6  503    0 -0.35628713354E+03 -0.60708555267E+03 -0.10793081683E+04  0.12885649040E+04  0.00000000000E+00 0. -1.
         -1    1    6    6    0  503 -0.50362399982E+02 -0.44831778059E+02 -0.14134152905E+03  0.15660040705E+03  0.00000000000E+00 0.  1.
<mgrwt>
<rscale>  0 0.25176857E+04</rscale>
<asrwt>0</asrwt>
<pdfrwt beam="1">  1        2 0.31953445E+00 0.25176857E+04</pdfrwt>
<pdfrwt beam="2">  1       -1 0.11738122E+00 0.25176857E+04</pdfrwt>
<totfact> 0.40062699E+00</totfact>
</mgrwt>
</event>
<event>
12    7  0.1698542E-007  0.1706187E+04  0.7818608E-02  0.8757844E-01
          2   -1    0    0  501    0  0.00000000000E+00  0.00000000000E+00  0.14349815034E+04  0.14349815034E+04  0.00000000000E+00 0. -1.
         -1   -1    0    0    0  501 -0.00000000000E+00 -0.00000000000E+00 -0.50716208254E+03  0.50716208254E+03  0.00000000000E+00 0.  1.
         24    2    1    2    0    0 -0.34620344543E+03  0.19581526023E+03 -0.19831985470E+03  0.45094318219E+03  0.76279401093E+02 0.  0.
        254    2    1    2    0    0  0.34620344543E+03 -0.19581526023E+03  0.11261392756E+04  0.14912004038E+04  0.89291014913E+03 0.  0.
         23    2    4    4    0    0  0.24657246064E+03  0.25783215096E+03  0.13403639877E+03  0.39193069229E+03  0.91479587623E+02 0.  0.
         23    2    4    4    0    0  0.99630984794E+02 -0.45364741119E+03  0.99210287681E+03  0.10992697115E+04  0.91670461913E+02 0.  0.
          2    1    3    3  502    0 -0.20066106571E+03  0.11812511993E+03 -0.15710828552E+03  0.28089396688E+03  0.00000000000E+00 0. -1.
         -1    1    3    3    0  502 -0.14554237972E+03  0.77690140300E+02 -0.41211569183E+02  0.17004921532E+03  0.00000000000E+00 0.  1.
         13    1    5    5    0    0  0.72563192894E+02  0.62698605108E+02  0.80156046136E+02  0.12498609434E+03  0.00000000000E+00 0. -1.
        -13    1    5    5    0    0  0.17400926774E+03  0.19513354585E+03  0.53880352633E+02  0.26694459795E+03  0.00000000000E+00 0.  1.
          1    1    6    6  503    0  0.39322034177E+02 -0.35755914166E+03  0.73846183980E+03  0.82141381227E+03  0.00000000000E+00 0. -1.
         -1    1    6    6    0  503  0.60308950617E+02 -0.96088269528E+02  0.25364103701E+03  0.27785589921E+03  0.00000000000E+00 0.  1.
<mgrwt>
<rscale>  0 0.17061866E+04</rscale>
<asrwt>0</asrwt>
<pdfrwt beam="1">  1        2 0.22076638E+00 0.17061866E+04</pdfrwt>
<pdfrwt beam="2">  1       -1 0.78024936E-01 0.17061866E+04</pdfrwt>
<totfact> 0.24641288E+01</totfact>
</mgrwt>
</event>
<event>
12    7  0.1698542E-007  0.1318245E+04  0.7818608E-02  0.9015220E-01
          2   -1    0    0  501    0  0.00000000000E+00  0.00000000000E+00  0.11701943466E+04  0.11701943466E+04  0.00000000000E+00 0. -1.
         -1   -1    0    0    0  501 -0.00000000000E+00 -0.00000000000E+00 -0.37125675740E+03  0.37125675740E+03  0.00000000000E+00 0.  1.
         24    2    1    2    0    0  0.12967590302E+03  0.19826474435E+03  0.51319606596E+03  0.57081322751E+03  0.79578828258E+02 0.  0.
        254    2    1    2    0    0 -0.12967590302E+03 -0.19826474435E+03  0.28574152324E+03  0.97063787649E+03  0.89686393644E+03 0.  0.
         23    2    4    4    0    0  0.30603089348E+03 -0.31917182421E+03  0.55192175347E+02  0.45483416943E+03  0.91117420528E+02 0.  0.
         23    2    4    4    0    0 -0.43570679650E+03  0.12090707986E+03  0.23054934790E+03  0.51580370706E+03  0.91877787996E+02 0.  0.
          4    1    3    3  502    0  0.40059119831E+02  0.76655973714E+02  0.27921722564E+03  0.29230656935E+03  0.00000000000E+00 0. -1.
         -3    1    3    3    0  502  0.89616783192E+02  0.12160877064E+03  0.23397884032E+03  0.27850665817E+03  0.00000000000E+00 0.  1.
         13    1    5    5    0    0  0.22481244960E+03 -0.28588805527E+03  0.43515726779E+02  0.36628709521E+03  0.00000000000E+00 0. -1.
        -13    1    5    5    0    0  0.81218443879E+02 -0.33283768946E+02  0.11676448568E+02  0.88547074218E+02  0.00000000000E+00 0.  1.
          2    1    6    6  503    0 -0.23227658871E+03  0.92282484840E+02  0.16764692031E+03  0.30095508063E+03  0.00000000000E+00 0. -1.
         -2    1    6    6    0  503 -0.20343020779E+03  0.28624595023E+02  0.62902427590E+02  0.21484862643E+03  0.00000000000E+00 0.  1.
<mgrwt>
<rscale>  0 0.13182451E+04</rscale>
<asrwt>0</asrwt>
<pdfrwt beam="1">  1        2 0.18002990E+00 0.13182451E+04</pdfrwt>
<pdfrwt beam="2">  1       -1 0.57116425E-01 0.13182451E+04</pdfrwt>
<totfact> 0.68378518E+01</totfact>
</mgrwt>
</event>
<event>
12    7  0.1698542E-007  0.2132228E+04  0.7818608E-02  0.8547178E-01
         -1   -1    0    0    0  501 -0.00000000000E+00  0.00000000000E+00  0.34468742527E+03  0.34468742527E+03  0.00000000000E+00 0.  1.
          2   -1    0    0  501    0  0.00000000000E+00 -0.00000000000E+00 -0.32974782159E+04  0.32974782159E+04  0.00000000000E+00 0. -1.
         24    2    1    2    0    0 -0.23939916609E+03  0.28987151080E+03  0.13353210230E+03  0.40663316678E+03  0.78627326577E+02 0.  0.
        254    2    1    2    0    0  0.23939916609E+03 -0.28987151080E+03 -0.30863228929E+04  0.32355324744E+04  0.89551322709E+03 0.  0.
         23    2    4    4    0    0 -0.40523323578E+02  0.15921376818E+03 -0.12345882743E+03  0.22459374643E+03  0.90604112117E+02 0.  0.
         23    2    4    4    0    0  0.27992248967E+03 -0.44908527898E+03 -0.29628640655E+04  0.30109387280E+04  0.84583478769E+02 0.  0.
          4    1    3    3  502    0 -0.10452301114E+02  0.54312250609E+02  0.13805593315E+02  0.57005838048E+02  0.00000000000E+00 0. -1.
         -3    1    3    3    0  502 -0.22894686497E+03  0.23555926019E+03  0.11972650898E+03  0.34962732873E+03  0.00000000000E+00 0.  1.
         13    1    5    5    0    0  0.28993528618E+02  0.46152285201E+02 -0.29467344231E+02  0.61959523134E+02  0.00000000000E+00 0. -1.
        -13    1    5    5    0    0 -0.69516852195E+02  0.11306148298E+03 -0.93991483197E+02  0.16263422329E+03  0.00000000000E+00 0.  1.
          2    1    6    6  503    0  0.12614899743E+03 -0.21881062177E+03 -0.16472812064E+04  0.16665314370E+04  0.00000000000E+00 0. -1.
         -2    1    6    6    0  503  0.15377349223E+03 -0.23027465720E+03 -0.13155828591E+04  0.13444072909E+04  0.00000000000E+00 0.  1.
<mgrwt>
<rscale>  0 0.21322282E+04</rscale>
<asrwt>0</asrwt>
<pdfrwt beam="1">  1        2 0.50730436E+00 0.21322282E+04</pdfrwt>
<pdfrwt beam="2">  1       -1 0.53028833E-01 0.21322282E+04</pdfrwt>
<totfact> 0.42062542E+00</totfact>
</mgrwt>
</event>
<event>
12    7  0.1698542E-007  0.1586173E+04  0.7818608E-02  0.8829088E-01
          2   -1    0    0  501    0  0.00000000000E+00  0.00000000000E+00  0.20568171773E+04  0.20568171773E+04  0.00000000000E+00 0. -1.
         -1   -1    0    0    0  501 -0.00000000000E+00 -0.00000000000E+00 -0.30580559528E+03  0.30580559528E+03  0.00000000000E+00 0.  1.
         24    2    1    2    0    0 -0.27035993288E+03 -0.44083367615E+03  0.42308449436E+03  0.67302534823E+03  0.80831965506E+02 0.  0.
        254    2    1    2    0    0  0.27035993288E+03  0.44083367615E+03  0.13279270876E+04  0.16895974243E+04  0.90770054693E+03 0.  0.
         23    2    4    4    0    0  0.18900438941E+03 -0.14752438326E+03  0.28293208688E+02  0.25790377109E+03  0.90706927039E+02 0.  0.
         23    2    4    4    0    0  0.81355543472E+02  0.58835805941E+03  0.12996338789E+04  0.14316936532E+04  0.88963851615E+02 0.  0.
          2    1    3    3  502    0 -0.13840989949E+03 -0.20502666499E+03  0.15238612076E+03  0.29054218874E+03  0.00000000000E+00 0. -1.
         -1    1    3    3    0  502 -0.13195003340E+03 -0.23580701116E+03  0.27069837360E+03  0.38248315949E+03  0.00000000000E+00 0.  1.
         13    1    5    5    0    0  0.11329070805E+03 -0.37889411911E+02  0.35049727603E+02  0.12449447968E+03  0.00000000000E+00 0. -1.
        -13    1    5    5    0    0  0.75713681363E+02 -0.10963497135E+03 -0.67565189148E+01  0.13340929141E+03  0.00000000000E+00 0.  1.
          4    1    6    6  503    0  0.94389789540E+02  0.55915910520E+03  0.12040658989E+04  0.13309181140E+04  0.00000000000E+00 0.  1.
         -4    1    6    6    0  503 -0.13034246068E+02  0.29198954206E+02  0.95567980026E+02  0.10077553921E+03  0.00000000000E+00 0. -1.
<mgrwt>
<rscale>  0 0.15861730E+04</rscale>
<asrwt>0</asrwt>
<pdfrwt beam="1">  1        2 0.31643340E+00 0.15861730E+04</pdfrwt>
<pdfrwt beam="2">  1       -1 0.47047016E-01 0.15861730E+04</pdfrwt>
<totfact> 0.30606799E+01</totfact>
</mgrwt>
</event>
<event>
12    7  0.1898612E-007  0.2243522E+04  0.7818608E-02  0.8500529E-01
         -1   -1    0    0    0  501 -0.00000000000E+00  0.00000000000E+00  0.47268727595E+03  0.47268727595E+03  0.00000000000E+00 0.  1.
          2   -1    0    0  501    0  0.00000000000E+00 -0.00000000000E+00 -0.26621140356E+04  0.26621140356E+04  0.00000000000E+00 0. -1.
         24    2    1    2    0    0  0.57967354967E+03  0.56985948116E+03 -0.26282601108E+03  0.85713991176E+03  0.69642399305E+02 0.  0.
        254    2    1    2    0    0 -0.57967354967E+03 -0.56985948116E+03 -0.19266007485E+04  0.22776613997E+04  0.90287859386E+03 0.  0.
         23    2    4    4    0    0 -0.12001581442E+03  0.13939553681E+03 -0.41129495536E+02  0.20947783926E+03  0.91402507309E+02 0.  0.
         23    2    4    4    0    0 -0.45965773524E+03 -0.70925501797E+03 -0.18854712530E+04  0.20681835605E+04  0.89741183181E+02 0.  0.
          2    1    3    3  502    0  0.75424321962E+02  0.52081580397E+02 -0.46103158114E+02  0.10260029507E+03  0.00000000000E+00 0. -1.
         -1    1    3    3    0  502  0.50424922770E+03  0.51777790076E+03 -0.21672285297E+03  0.75453961669E+03  0.00000000000E+00 0.  1.
         13    1    5    5    0    0 -0.24398898036E+02  0.96821134562E+02 -0.10372636460E+02  0.10038540686E+03  0.00000000000E+00 0. -1.
        -13    1    5    5    0    0 -0.95616916387E+02  0.42574402249E+02 -0.30756859076E+02  0.10909243240E+03  0.00000000000E+00 0.  1.
          3    1    6    6  503    0 -0.24992830520E+03 -0.32909227605E+03 -0.84011923800E+03  0.93625115111E+03  0.00000000000E+00 0. -1.
         -3    1    6    6    0  503 -0.20972943004E+03 -0.38016274192E+03 -0.10453520150E+04  0.11319324094E+04  0.00000000000E+00 0.  1.
<mgrwt>
<rscale>  0 0.22435217E+04</rscale>
<asrwt>0</asrwt>
<pdfrwt beam="1">  1        2 0.40955600E+00 0.22435217E+04</pdfrwt>
<pdfrwt beam="2">  1       -1 0.72721120E-01 0.22435217E+04</pdfrwt>
<totfact> 0.55282175E+00</totfact>
</mgrwt>
</event>
<event>
12    7  0.1698542E-007  0.1655591E+04  0.7818608E-02  0.8787105E-01
         -1   -1    0    0    0  501 -0.00000000000E+00  0.00000000000E+00  0.14794872803E+04  0.14794872803E+04  0.00000000000E+00 0.  1.
          2   -1    0    0  501    0  0.00000000000E+00 -0.00000000000E+00 -0.46316435698E+03  0.46316435698E+03  0.00000000000E+00 0. -1.
         24    2    1    2    0    0 -0.50027100875E+03  0.18768176605E+03  0.10235679950E+03  0.55006362959E+03  0.81225332837E+02 0.  0.
        254    2    1    2    0    0  0.50027100875E+03 -0.18768176605E+03  0.91396612379E+03  0.13925880076E+04  0.90469428875E+03 0.  0.
         23    2    4    4    0    0  0.39620485888E+03 -0.20048960941E+02 -0.44802193316E+02  0.40959052439E+03  0.91525461543E+02 0.  0.
         23    2    4    4    0    0  0.10406614987E+03 -0.16763280511E+03  0.95876831711E+03  0.98299748325E+03  0.90093536340E+02 0.  0.
          2    1    3    3  502    0 -0.35237151216E+03  0.98213776117E+02  0.48445373655E+02  0.36899672441E+03  0.00000000000E+00 0. -1.
         -1    1    3    3    0  502 -0.14789949659E+03  0.89467989936E+02  0.53911425840E+02  0.18106690518E+03  0.00000000000E+00 0.  1.
         13    1    5    5    0    0  0.27137542759E+03  0.24492311028E+02 -0.10476644708E+02  0.27267976838E+03  0.00000000000E+00 0.  1.
        -13    1    5    5    0    0  0.12482943130E+03 -0.44541271968E+02 -0.34325548608E+02  0.13691075602E+03  0.00000000000E+00 0. -1.
          3    1    6    6  503    0  0.55668462891E+01  0.32457510328E+01  0.16381534971E+03  0.16394204304E+03  0.00000000000E+00 0. -1.
         -3    1    6    6    0  503  0.98499303577E+02 -0.17087855614E+03  0.79495296740E+03  0.81905544021E+03  0.00000000000E+00 0.  1.
<mgrwt>
<rscale>  0 0.16555915E+04</rscale>
<asrwt>0</asrwt>
<pdfrwt beam="1">  1        2 0.71256056E-01 0.16555915E+04</pdfrwt>
<pdfrwt beam="2">  1       -1 0.22761343E+00 0.16555915E+04</pdfrwt>
<totfact> 0.71904675E+00</totfact>
</mgrwt>
</event>
<event>
12    7  0.1698542E-007  0.1740100E+04  0.7818608E-02  0.8738819E-01
          2   -1    0    0  501    0  0.00000000000E+00  0.00000000000E+00  0.19231126606E+04  0.19231126606E+04  0.00000000000E+00 0. -1.
         -1   -1    0    0    0  501 -0.00000000000E+00 -0.00000000000E+00 -0.39362574866E+03  0.39362574866E+03  0.00000000000E+00 0.  1.
         24    2    1    2    0    0 -0.16341190163E+02  0.55415569259E+03  0.15068297230E+03  0.57930143840E+03  0.74358807599E+02 0.  0.
        254    2    1    2    0    0  0.16341190163E+02 -0.55415569259E+03  0.13788039396E+04  0.17374369708E+04  0.90012852283E+03 0.  0.
         23    2    4    4    0    0 -0.20492994952E+03 -0.16346422745E+02  0.10266045365E+04  0.10514147103E+04  0.96397763982E+02 0.  0.
         23    2    4    4    0    0  0.22127113968E+03 -0.53780926985E+03  0.35219940311E+03  0.68602226054E+03  0.91555417250E+02 0.  0.
          2    1    3    3  502    0 -0.26680301894E+01  0.43595650086E+02  0.34123942424E+02  0.55426911677E+02  0.00000000000E+00 0. -1.
         -1    1    3    3    0  502 -0.13673159974E+02  0.51056004250E+03  0.11655902988E+03  0.52387452673E+03  0.00000000000E+00 0.  1.
         13    1    5    5    0    0 -0.10867521164E+03  0.32794812862E+02  0.41063930923E+03  0.42604042492E+03  0.00000000000E+00 0. -1.
        -13    1    5    5    0    0 -0.96254737874E+02 -0.49141235607E+02  0.61596522726E+03  0.62537428536E+03  0.00000000000E+00 0.  1.
          4    1    6    6  503    0  0.71029768821E+02 -0.86074137196E+02  0.51186207639E+02  0.12277627216E+03  0.00000000000E+00 0. -1.
         -4    1    6    6    0  503  0.15024137086E+03 -0.45173513265E+03  0.30101319547E+03  0.56324598839E+03  0.00000000000E+00 0.  1.
<mgrwt>
<rscale>  0 0.17400996E+04</rscale>
<asrwt>0</asrwt>
<pdfrwt beam="1">  1        2 0.29586348E+00 0.17400996E+04</pdfrwt>
<pdfrwt beam="2">  1       -1 0.60557809E-01 0.17400996E+04</pdfrwt>
<totfact> 0.22024880E+01</totfact>
</mgrwt>
</event>
<event>
12    7  0.1698542E-007  0.1756284E+04  0.7818608E-02  0.8729899E-01
         -1   -1    0    0    0  501 -0.00000000000E+00  0.00000000000E+00  0.15049223594E+04  0.15049223594E+04  0.00000000000E+00 0.  1.
          2   -1    0    0  501    0  0.00000000000E+00 -0.00000000000E+00 -0.51240745832E+03  0.51240745832E+03  0.00000000000E+00 0. -1.
         24    2    1    2    0    0  0.23082142313E+03  0.59646032150E+03  0.25801242242E+03  0.69440640151E+03  0.81156613007E+02 0.  0.
        254    2    1    2    0    0 -0.23082142313E+03 -0.59646032150E+03  0.73450247871E+03  0.13229234163E+04  0.89531504486E+03 0.  0.
         23    2    4    4    0    0 -0.33733070796E+03  0.12143495529E+03  0.26369014662E+03  0.45323693096E+03  0.85748278489E+02 0.  0.
         23    2    4    4    0    0  0.10650928483E+03 -0.71789527679E+03  0.47081233209E+03  0.86968648530E+03  0.89288714126E+02 0.  0.
          4    1    3    3  502    0  0.21642519139E+03  0.57776791222E+03  0.23164905570E+03  0.65902724441E+03  0.00000000000E+00 0. -1.
         -3    1    3    3    0  502  0.14396231733E+02  0.18692409281E+02  0.26363366712E+02  0.35379157102E+02  0.00000000000E+00 0.  1.
         13    1    5    5    0    0 -0.23481848984E+03  0.59773661986E+02  0.13436843599E+03  0.27706946859E+03  0.00000000000E+00 0. -1.
        -13    1    5    5    0    0 -0.10251221812E+03  0.61661293303E+02  0.12932171063E+03  0.17616746237E+03  0.00000000000E+00 0.  1.
          1    1    6    6  503    0  0.10826880130E+03 -0.71897203768E+03  0.46388154022E+03  0.86245522067E+03  0.00000000000E+00 0. -1.
         -1    1    6    6    0  503 -0.17595164631E+01  0.10767608924E+01  0.69307918682E+01  0.72312646282E+01  0.00000000000E+00 0.  1.
<mgrwt>
<rscale>  0 0.17562841E+04</rscale>
<asrwt>0</asrwt>
<pdfrwt beam="1">  1        2 0.78831917E-01 0.17562841E+04</pdfrwt>
<pdfrwt beam="2">  1       -1 0.23152652E+00 0.17562841E+04</pdfrwt>
<totfact> 0.59740215E+00</totfact>
</mgrwt>
</event>
<event>
12    7  0.1698542E-007  0.1185579E+04  0.7818608E-02  0.9125574E-01
         -1   -1    0    0    0  501 -0.00000000000E+00  0.00000000000E+00  0.26620206207E+03  0.26620206207E+03  0.00000000000E+00 0.  1.
          2   -1    0    0  501    0  0.00000000000E+00 -0.00000000000E+00 -0.13200471663E+04  0.13200471663E+04  0.00000000000E+00 0. -1.
         24    2    1    2    0    0  0.23015382118E+03 -0.34453338386E+02 -0.36560426056E+03  0.44074829246E+03  0.80217005887E+02 0.  0.
        254    2    1    2    0    0 -0.23015382118E+03  0.34453338386E+02 -0.68824084364E+03  0.11455009359E+04  0.88562922341E+03 0.  0.
         23    2    4    4    0    0 -0.22965442283E+03 -0.33841576318E+03 -0.81956376436E+02  0.42788859666E+03  0.95422328701E+02 0.  0.
         23    2    4    4    0    0 -0.49939835073E+00  0.37286910157E+03 -0.60628446721E+03  0.71761233924E+03  0.91405677896E+02 0.  0.
          2    1    3    3  502    0  0.17949426390E+03 -0.42289315764E+02 -0.33098910405E+03  0.37889360512E+03  0.00000000000E+00 0. -1.
         -1    1    3    3    0  502  0.50659557277E+02  0.78359773778E+01 -0.34615156508E+02  0.61854687333E+02  0.00000000000E+00 0.  1.
         13    1    5    5    0    0 -0.23771577614E+03 -0.33581431521E+03 -0.81303354064E+02  0.41939275137E+03  0.00000000000E+00 0. -1.
        -13    1    5    5    0    0  0.80613533136E+01 -0.26014479767E+01 -0.65302237260E+00  0.84958452811E+01  0.00000000000E+00 0.  1.
          1    1    6    6  503    0  0.24873551724E+02  0.31296539565E+03 -0.45365154406E+03  0.55169353438E+03  0.00000000000E+00 0. -1.
         -1    1    6    6    0  503 -0.25372950075E+02  0.59903705921E+02 -0.15263292314E+03  0.16591880486E+03  0.00000000000E+00 0.  1.
<mgrwt>
<rscale>  0 0.11855788E+04</rscale>
<asrwt>0</asrwt>
<pdfrwt beam="1">  1        2 0.20308418E+00 0.11855788E+04</pdfrwt>
<pdfrwt beam="2">  1       -1 0.40954164E-01 0.11855788E+04</pdfrwt>
<totfact> 0.10559649E+02</totfact>
</mgrwt>
</event>
<event>
12    7  0.1698542E-007  0.2341455E+04  0.7818608E-02  0.8461753E-01
          2   -1    0    0  501    0  0.00000000000E+00  0.00000000000E+00  0.12258212290E+04  0.12258212290E+04  0.00000000000E+00 0. -1.
         -1   -1    0    0    0  501 -0.00000000000E+00 -0.00000000000E+00 -0.11181099457E+04  0.11181099457E+04  0.00000000000E+00 0.  1.
         24    2    1    2    0    0 -0.33565512304E+03 -0.14729104031E+03 -0.88347212149E+03  0.95992068602E+03  0.81029141890E+02 0.  0.
        254    2    1    2    0    0  0.33565512304E+03  0.14729104031E+03  0.99118340480E+03  0.13840104888E+04  0.89368981133E+03 0.  0.
         23    2    4    4    0    0  0.62987455261E+03  0.10593408429E+03  0.75648723823E+03  0.99436571160E+03  0.92337665943E+02 0.  0.
         23    2    4    4    0    0 -0.29421942957E+03  0.41356956013E+02  0.23469616656E+03  0.38964477716E+03  0.92007017209E+02 0.  0.
          2    1    3    3  502    0 -0.18486638503E+02 -0.99329156518E+00 -0.10584698710E+03  0.10745383711E+03  0.00000000000E+00 0. -1.
         -1    1    3    3    0  502 -0.31716848454E+03 -0.14629774874E+03 -0.77762513439E+03  0.85246684892E+03  0.00000000000E+00 0.  1.
         13    1    5    5    0    0  0.34645201549E+03  0.29401670929E+02  0.46544943985E+03  0.58097903435E+03  0.00000000000E+00 0. -1.
        -13    1    5    5    0    0  0.28342253713E+03  0.76532413363E+02  0.29103779838E+03  0.41338667725E+03  0.00000000000E+00 0.  1.
          3    1    6    6  503    0 -0.47889850134E+02  0.21465615747E+01  0.11619551527E+01  0.47952013641E+02  0.00000000000E+00 0. -1.
         -3    1    6    6    0  503 -0.24632957944E+03  0.39210394439E+02  0.23353421141E+03  0.34169276352E+03  0.00000000000E+00 0.  1.
<mgrwt>
<rscale>  0 0.23414550E+04</rscale>
<asrwt>0</asrwt>
<pdfrwt beam="1">  1        2 0.18858788E+00 0.23414550E+04</pdfrwt>
<pdfrwt beam="2">  1       -1 0.17201691E+00 0.23414550E+04</pdfrwt>
<totfact> 0.44775032E+00</totfact>
</mgrwt>
</event>
<event>
12    7  0.1698542E-007  0.1145411E+04  0.7818608E-02  0.9162027E-01
          2   -1    0    0  501    0  0.00000000000E+00  0.00000000000E+00  0.29561445069E+03  0.29561445069E+03  0.00000000000E+00 0. -1.
         -1   -1    0    0    0  501 -0.00000000000E+00 -0.00000000000E+00 -0.11095255874E+04  0.11095255874E+04  0.00000000000E+00 0.  1.
         24    2    1    2    0    0  0.16098012971E+03  0.32008101883E+02 -0.31732640619E+03  0.36536133628E+03  0.76509719901E+02 0.  0.
        254    2    1    2    0    0 -0.16098012971E+03 -0.32008101883E+02 -0.49658473048E+03  0.10397787018E+04  0.89866803290E+03 0.  0.
         23    2    4    4    0    0  0.64906423091E+02 -0.41673198359E+03 -0.11564002643E+03  0.44606797872E+03  0.87895597302E+02 0.  0.
         23    2    4    4    0    0 -0.22588655280E+03  0.38472388171E+03 -0.38094470405E+03  0.59371072304E+03  0.91303643010E+02 0.  0.
          4    1    3    3  502    0 -0.33285499310E+01  0.15565702827E+02 -0.30162335283E+02  0.34104791729E+02  0.00000000000E+00 0. -1.
         -3    1    3    3    0  502  0.16430867964E+03  0.16442399056E+02 -0.28716407090E+03  0.33125654455E+03  0.00000000000E+00 0.  1.
         13    1    5    5    0    0  0.15659110878E+02 -0.31936557357E+03 -0.67441519151E+02  0.32678423438E+03  0.00000000000E+00 0.  1.
        -13    1    5    5    0    0  0.49247312213E+02 -0.97366410022E+02 -0.48198507281E+02  0.11928374434E+03  0.00000000000E+00 0. -1.
          1    1    6    6  503    0 -0.34606126377E+01  0.69481267427E+02 -0.57412765649E+02  0.90198935817E+02  0.00000000000E+00 0. -1.
         -1    1    6    6    0  503 -0.22242594016E+03  0.31524261428E+03 -0.32353193840E+03  0.50351178723E+03  0.00000000000E+00 0.  1.
<mgrwt>
<rscale>  0 0.11454114E+04</rscale>
<asrwt>0</asrwt>
<pdfrwt beam="1">  1        2 0.45479146E-01 0.11454114E+04</pdfrwt>
<pdfrwt beam="2">  1       -1 0.17069625E+00 0.11454114E+04</pdfrwt>
<totfact> 0.30799347E+01</totfact>
</mgrwt>
</event>
<event>
12    7  0.1698542E-007  0.1238424E+04  0.7818608E-02  0.9079873E-01
          2   -1    0    0  501    0  0.00000000000E+00  0.00000000000E+00  0.16057771588E+04  0.16057771588E+04  0.00000000000E+00 0. -1.
         -1   -1    0    0    0  501 -0.00000000000E+00 -0.00000000000E+00 -0.23877766183E+03  0.23877766183E+03  0.00000000000E+00 0.  1.
         24    2    1    2    0    0 -0.14724105766E+03 -0.94332314646E+02  0.35778821747E+02  0.18622382704E+03  0.53110027530E+02 0.  0.
        254    2    1    2    0    0  0.14724105766E+03  0.94332314646E+02  0.13312206753E+04  0.16583309936E+04  0.97331119564E+03 0.  0.
         23    2    4    4    0    0  0.46360154387E+03 -0.51049570808E+02  0.28800111833E+03  0.55514443129E+03  0.87796613144E+02 0.  0.
         23    2    4    4    0    0 -0.31636048621E+03  0.14538188545E+03  0.10432195569E+04  0.11031865623E+04  0.86566145269E+02 0.  0.
          2    1    3    3  502    0 -0.41511545540E+02 -0.15736547160E+02  0.31459244950E+02  0.54410765685E+02  0.00000000000E+00 0. -1.
         -1    1    3    3    0  502 -0.10572951212E+03 -0.78595767486E+02  0.43195767975E+01  0.13181306135E+03  0.00000000000E+00 0.  1.
         13    1    5    5    0    0  0.24904869687E+03 -0.70923027522E+02  0.16466271198E+03  0.30686990396E+03  0.00000000000E+00 0. -1.
        -13    1    5    5    0    0  0.21455284700E+03  0.19873456714E+02  0.12333840635E+03  0.24827452733E+03  0.00000000000E+00 0.  1.
          4    1    6    6  503    0 -0.18257402321E+03  0.12824874380E+03  0.68465594612E+03  0.72009359030E+03  0.00000000000E+00 0. -1.
         -4    1    6    6    0  503 -0.13378646300E+03  0.17133141649E+02  0.35856361081E+03  0.38309297204E+03  0.00000000000E+00 0.  1.
<mgrwt>
<rscale>  0 0.12384243E+04</rscale>
<asrwt>0</asrwt>
<pdfrwt beam="1">  1        2 0.24704263E+00 0.12384243E+04</pdfrwt>
<pdfrwt beam="2">  1       -1 0.36735026E-01 0.12384243E+04</pdfrwt>
<totfact> 0.88254839E+01</totfact>
</mgrwt>
</event>
<event>
12    7  0.1698542E-007  0.1969463E+04  0.7818608E-02  0.8621032E-01
         -1   -1    0    0    0  501 -0.00000000000E+00  0.00000000000E+00  0.56451896264E+03  0.56451896264E+03  0.00000000000E+00 0.  1.
          2   -1    0    0  501    0  0.00000000000E+00 -0.00000000000E+00 -0.17177391717E+04  0.17177391717E+04  0.00000000000E+00 0. -1.
         24    2    1    2    0    0  0.55847724109E+03  0.15580260822E+03 -0.10754773516E+04  0.12243721029E+04  0.79146895308E+02 0.  0.
        254    2    1    2    0    0 -0.55847724109E+03 -0.15580260822E+03 -0.77742857455E+02  0.10578860314E+04  0.88142363371E+03 0.  0.
         23    2    4    4    0    0 -0.53355326206E+03 -0.16020367775E+03 -0.41993986690E+03  0.70362547505E+03  0.91624317203E+02 0.  0.
         23    2    4    4    0    0 -0.24923979024E+02  0.44010695241E+01  0.34219700944E+03  0.35426055638E+03  0.88097527721E+02 0.  0.
          4    1    3    3  502    0  0.47805173912E+03  0.15261705631E+03 -0.96503443487E+03  0.10877117686E+04  0.00000000000E+00 0. -1.
         -3    1    3    3    0  502  0.80425501967E+02  0.31855519063E+01 -0.11044291678E+03  0.13666033431E+03  0.00000000000E+00 0.  1.
         13    1    5    5    0    0 -0.20670194815E+03 -0.39933674400E+02 -0.11061133706E+03  0.23781350173E+03  0.00000000000E+00 0. -1.
        -13    1    5    5    0    0 -0.32685131391E+03 -0.12027000335E+03 -0.30932852984E+03  0.46581197332E+03  0.00000000000E+00 0.  1.
          3    1    6    6  503    0  0.37482517586E+01 -0.12470109999E+02  0.29048248502E+01  0.13341328346E+02  0.00000000000E+00 0. -1.
         -3    1    6    6    0  503 -0.28672230782E+02  0.16871179523E+02  0.33929218459E+03  0.34091922803E+03  0.00000000000E+00 0.  1.
<mgrwt>
<rscale>  0 0.19694632E+04</rscale>
<asrwt>0</asrwt>
<pdfrwt beam="1">  1        2 0.26426757E+00 0.19694632E+04</pdfrwt>
<pdfrwt beam="2">  1       -1 0.86849071E-01 0.19694632E+04</pdfrwt>
<totfact> 0.13283977E+01</totfact>
</mgrwt>
</event>
<event>
12    7  0.1698542E-007  0.1162349E+04  0.7818608E-02  0.9146466E-01
         -1   -1    0    0    0  501 -0.00000000000E+00  0.00000000000E+00  0.34603008768E+03  0.34603008768E+03  0.00000000000E+00 0.  1.
          2   -1    0    0  501    0  0.00000000000E+00 -0.00000000000E+00 -0.97611134548E+03  0.97611134548E+03  0.00000000000E+00 0. -1.
         24    2    1    2    0    0 -0.10252045541E+03 -0.27819823599E+00  0.46097267459E+02  0.13783162572E+03  0.79762634167E+02 0.  0.
        254    2    1    2    0    0  0.10252045541E+03  0.27819823599E+00 -0.67617852525E+03  0.11843098074E+04  0.96688251655E+03 0.  0.
         23    2    4    4    0    0  0.36590620780E+03  0.26232434645E+02  0.72430667581E+02  0.38459491888E+03  0.89953079358E+02 0.  0.
         23    2    4    4    0    0 -0.26338575239E+03 -0.25954236409E+02 -0.74860919283E+03  0.79971488856E+03  0.95302163889E+02 0.  0.
          2    1    3    3  502    0 -0.88415847921E+02 -0.21259284045E+01 -0.11917065727E+01  0.88449431314E+02  0.00000000000E+00 0. -1.
         -3    1    3    3    0  502 -0.14104607488E+02  0.18477301686E+01  0.47288974032E+02  0.49382194404E+02  0.00000000000E+00 0.  1.
         13    1    5    5    0    0  0.20627195936E+03  0.59013644025E+02  0.47354453734E+02  0.21971157386E+03  0.00000000000E+00 0.  1.
        -13    1    5    5    0    0  0.15963424844E+03 -0.32781209380E+02  0.25076213847E+02  0.16488334502E+03  0.00000000000E+00 0. -1.
          1    1    6    6  503    0 -0.25075254375E+03 -0.32620946770E+02 -0.74213571224E+03  0.78403212929E+03  0.00000000000E+00 0. -1.
         -1    1    6    6    0  503 -0.12633208638E+02  0.66667103611E+01 -0.64734805904E+01  0.15682759275E+02  0.00000000000E+00 0.  1.
<mgrwt>
<rscale>  0 0.11623492E+04</rscale>
<asrwt>0</asrwt>
<pdfrwt beam="1">  1        2 0.15017097E+00 0.11623492E+04</pdfrwt>
<pdfrwt beam="2">  1       -1 0.53235399E-01 0.11623492E+04</pdfrwt>
<totfact> 0.10479107E+02</totfact>
</mgrwt>
</event>
<event>
12    7  0.1698542E-007  0.2176184E+04  0.7818608E-02  0.8528407E-01
         -1   -1    0    0    0  501 -0.00000000000E+00  0.00000000000E+00  0.24084362610E+04  0.24084362610E+04  0.00000000000E+00 0.  1.
          2   -1    0    0  501    0  0.00000000000E+00 -0.00000000000E+00 -0.49158218003E+03  0.49158218003E+03  0.00000000000E+00 0. -1.
         24    2    1    2    0    0 -0.31510857912E+01  0.11539431578E+03 -0.39326915173E+03  0.41814419536E+03  0.82814038349E+02 0.  0.
        254    2    1    2    0    0  0.31510857912E+01 -0.11539431578E+03  0.23101232327E+04  0.24818742456E+04  0.89983589813E+03 0.  0.
         23    2    4    4    0    0 -0.36985934183E+03  0.11615100065E+03  0.64998842047E+03  0.76234597102E+03  0.91648486591E+02 0.  0.
         23    2    4    4    0    0  0.37301042763E+03 -0.23154531643E+03  0.16601348122E+04  0.17195282746E+04  0.89330173180E+02 0.  0.
          2    1    3    3  502    0  0.10764512310E+01  0.10537956093E+03 -0.21395703935E+03  0.23850288321E+03  0.00000000000E+00 0. -1.
         -1    1    3    3    0  502 -0.42275370222E+01  0.10014754852E+02 -0.17931211238E+03  0.17964131215E+03  0.00000000000E+00 0.  1.
         13    1    5    5    0    0 -0.27797680947E+03  0.11360794361E+03  0.43555671660E+03  0.52904397249E+03  0.00000000000E+00 0. -1.
        -13    1    5    5    0    0 -0.91882532360E+02  0.25430570362E+01  0.21443170388E+03  0.23330199853E+03  0.00000000000E+00 0.  1.
          4    1    6    6  503    0  0.34335655099E+03 -0.17899180551E+03  0.14079151914E+04  0.14601907319E+04  0.00000000000E+00 0. -1.
         -4    1    6    6    0  503  0.29653876640E+02 -0.52553510928E+02  0.25221962082E+03  0.25933754266E+03  0.00000000000E+00 0.  1.
<mgrwt>
<rscale>  0 0.21761841E+04</rscale>
<asrwt>0</asrwt>
<pdfrwt beam="1">  1        2 0.75628029E-01 0.21761841E+04</pdfrwt>
<pdfrwt beam="2">  1       -1 0.37052865E+00 0.21761841E+04</pdfrwt>
<totfact> 0.74529624E-01</totfact>
</mgrwt>
</event>
<event>
12    7  0.1698542E-007  0.2501267E+04  0.7818608E-02  0.8402534E-01
         -1   -1    0    0    0  501 -0.00000000000E+00  0.00000000000E+00  0.68126249898E+03  0.68126249898E+03  0.00000000000E+00 0.  1.
          2   -1    0    0  501    0  0.00000000000E+00 -0.00000000000E+00 -0.22958611766E+04  0.22958611766E+04  0.00000000000E+00 0. -1.
         24    2    1    2    0    0 -0.83695458550E+03 -0.51189490565E+03 -0.12604890429E+04  0.15993036355E+04  0.80063216830E+02 0.  0.
        254    2    1    2    0    0  0.83695458550E+03  0.51189490565E+03 -0.35410963475E+03  0.13778200401E+04  0.90025832783E+03 0.  0.
         23    2    4    4    0    0  0.39453140990E+02  0.11107690971E+03 -0.45164693328E+03  0.47549966116E+03  0.90666119451E+02 0.  0.
         23    2    4    4    0    0  0.79750144451E+03  0.40081799594E+03  0.97537298529E+02  0.90232037893E+03  0.89470228350E+02 0.  0.
          2    1    3    3  502    0 -0.27217363847E+03 -0.13440276743E+03 -0.43046597352E+03  0.52672910279E+03  0.00000000000E+00 0. -1.
         -1    1    3    3    0  502 -0.56478094703E+03 -0.37749213822E+03 -0.83002306938E+03  0.10725745327E+04  0.00000000000E+00 0.  1.
         13    1    5    5    0    0  0.28793179577E+02  0.27221794061E+01 -0.18868641821E+03  0.19089007797E+03  0.00000000000E+00 0. -1.
        -13    1    5    5    0    0  0.10659961413E+02  0.10835473030E+03 -0.26296051507E+03  0.28460958319E+03  0.00000000000E+00 0.  1.
          1    1    6    6  503    0  0.22254457124E+03  0.14782418024E+03  0.36948983866E+01  0.26719230289E+03  0.00000000000E+00 0. -1.
         -1    1    6    6    0  503  0.57495687327E+03  0.25299381570E+03  0.93842400142E+02  0.63512807604E+03  0.00000000000E+00 0.  1.
<mgrwt>
<rscale>  0 0.25012670E+04</rscale>
<asrwt>0</asrwt>
<pdfrwt beam="1">  1        2 0.35320941E+00 0.25012670E+04</pdfrwt>
<pdfrwt beam="2">  1       -1 0.10480962E+00 0.25012670E+04</pdfrwt>
<totfact> 0.39526411E+00</totfact>
</mgrwt>
</event>
<event>
12    7  0.1698542E-007  0.2240465E+04  0.7818608E-02  0.8501772E-01
          2   -1    0    0  501    0  0.00000000000E+00  0.00000000000E+00  0.25611694928E+04  0.25611694928E+04  0.00000000000E+00 0. -1.
         -1   -1    0    0    0  501 -0.00000000000E+00 -0.00000000000E+00 -0.48997971532E+03  0.48997971532E+03  0.00000000000E+00 0.  1.
         24    2    1    2    0    0 -0.77491962624E+03  0.49811542760E+03  0.10204576006E+04  0.13780320957E+04  0.94970183182E+02 0.  0.
        254    2    1    2    0    0  0.77491962624E+03 -0.49811542760E+03  0.10507321768E+04  0.16731171124E+04  0.92014311828E+03 0.  0.
         23    2    4    4    0    0  0.78007221688E+03 -0.62795673756E+03  0.54369118892E+03  0.11437503058E+04  0.98601852325E+02 0.  0.
         23    2    4    4    0    0 -0.51525906414E+01  0.12984130996E+03  0.50704098791E+03  0.52936680663E+03  0.79078047446E+02 0.  0.
          4    1    3    3  502    0 -0.33353361298E+03  0.17838080139E+03  0.47151313319E+03  0.60447416492E+03  0.00000000000E+00 0. -1.
         -3    1    3    3    0  502 -0.44138601326E+03  0.31973462621E+03  0.54894446744E+03  0.77355793075E+03  0.00000000000E+00 0.  1.
         13    1    5    5    0    0  0.57533437275E+03 -0.43637665089E+03  0.43513755891E+03  0.84307705287E+03  0.00000000000E+00 0.  1.
        -13    1    5    5    0    0  0.20473784413E+03 -0.19158008667E+03  0.10855363001E+03  0.30067325291E+03  0.00000000000E+00 0. -1.
          3    1    6    6  503    0  0.27125737373E+02  0.62146607823E+02  0.33334362434E+03  0.34017051368E+03  0.00000000000E+00 0. -1.
         -3    1    6    6    0  503 -0.32278328014E+02  0.67694702135E+02  0.17369736357E+03  0.18919629295E+03  0.00000000000E+00 0.  1.
<mgrwt>
<rscale>  0 0.22404652E+04</rscale>
<asrwt>0</asrwt>
<pdfrwt beam="1">  1        2 0.39402607E+00 0.22404652E+04</pdfrwt>
<pdfrwt beam="2">  1       -1 0.75381496E-01 0.22404652E+04</pdfrwt>
<totfact> 0.58815094E+00</totfact>
</mgrwt>
</event>
<event>
12    7  0.1698542E-007  0.1935977E+04  0.7818608E-02  0.8637153E-01
          2   -1    0    0  501    0  0.00000000000E+00  0.00000000000E+00  0.11890116626E+04  0.11890116626E+04  0.00000000000E+00 0. -1.
         -1   -1    0    0    0  501 -0.00000000000E+00 -0.00000000000E+00 -0.78805114767E+03  0.78805114767E+03  0.00000000000E+00 0.  1.
         24    2    1    2    0    0  0.81499154770E+02 -0.25001136637E+03 -0.58365004886E+03  0.64552821155E+03  0.83135412540E+02 0.  0.
        254    2    1    2    0    0 -0.81499154770E+02  0.25001136637E+03  0.98461056376E+03  0.13315345987E+04  0.85695894283E+03 0.  0.
         23    2    4    4    0    0 -0.18927726470E+03  0.42091686622E+03  0.19087212602E+03  0.50750404199E+03  0.90173682072E+02 0.  0.
         23    2    4    4    0    0  0.10777810993E+03 -0.17090549984E+03  0.79373843774E+03  0.82403055671E+03  0.90447995993E+02 0.  0.
          2    1    3    3  502    0  0.95948168068E+01 -0.12860970077E+03 -0.34460738177E+03  0.36794940306E+03  0.00000000000E+00 0. -1.
         -1    1    3    3    0  502  0.71904337963E+02 -0.12140166560E+03 -0.23904266710E+03  0.27757880849E+03  0.00000000000E+00 0.  1.
         13    1    5    5    0    0 -0.24751511222E+02  0.36592149282E+02  0.49124829869E+02  0.66067174955E+02  0.00000000000E+00 0.  1.
        -13    1    5    5    0    0 -0.16452575348E+03  0.38432471694E+03  0.14174729615E+03  0.44143686703E+03  0.00000000000E+00 0. -1.
          3    1    6    6  503    0  0.98914867493E+02 -0.16992469639E+03  0.62816483107E+03  0.65821699192E+03  0.00000000000E+00 0. -1.
         -3    1    6    6    0  503  0.88632424408E+01 -0.98080345316E+00  0.16557360667E+03  0.16581356479E+03  0.00000000000E+00 0.  1.
<mgrwt>
<rscale>  0 0.19359773E+04</rscale>
<asrwt>0</asrwt>
<pdfrwt beam="1">  1        2 0.18292487E+00 0.19359773E+04</pdfrwt>
<pdfrwt beam="2">  1       -1 0.12123864E+00 0.19359773E+04</pdfrwt>
<totfact> 0.12361935E+01</totfact>
</mgrwt>
</event>
<event>
12    7  0.1698542E-007  0.2779718E+04  0.7818608E-02  0.8309593E-01
         -1   -1    0    0    0  501 -0.00000000000E+00  0.00000000000E+00  0.10183443600E+04  0.10183443600E+04  0.00000000000E+00 0.  1.
          2   -1    0    0  501    0  0.00000000000E+00 -0.00000000000E+00 -0.18969108901E+04  0.18969108901E+04  0.00000000000E+00 0. -1.
         24    2    1    2    0    0  0.10259561722E+04 -0.71996504591E+02  0.34062063421E+03  0.10862305049E+04  0.78132767264E+02 0.  0.
        254    2    1    2    0    0 -0.10259561722E+04  0.71996504591E+02 -0.12191871642E+04  0.18290247452E+04  0.89506682042E+03 0.  0.
         23    2    4    4    0    0 -0.63860663752E+03  0.45430361867E+03 -0.87708556088E+03  0.11797856410E+04  0.91678035206E+02 0.  0.
         23    2    4    4    0    0 -0.38734953472E+03 -0.38230711407E+03 -0.34210160337E+03  0.64923910421E+03  0.90991845192E+02 0.  0.
          2    1    3    3  502    0  0.37581434222E+03 -0.63376948631E+02  0.13398482430E+03  0.40398637425E+03  0.00000000000E+00 0. -1.
         -1    1    3    3    0  502  0.65014183002E+03 -0.86195559608E+01  0.20663580991E+03  0.68224413066E+03  0.00000000000E+00 0.  1.
         13    1    5    5    0    0 -0.26496315976E+03  0.21305907950E+03 -0.44161956158E+03  0.55733964918E+03  0.00000000000E+00 0. -1.
        -13    1    5    5    0    0 -0.37364347776E+03  0.24124453916E+03 -0.43546599930E+03  0.62244599179E+03  0.00000000000E+00 0.  1.
          1    1    6    6  503    0 -0.35411683075E+03 -0.31244579175E+03 -0.27283807393E+03  0.54540051081E+03  0.00000000000E+00 0. -1.
         -1    1    6    6    0  503 -0.33232703971E+02 -0.69861322324E+02 -0.69263529442E+02  0.10383859341E+03  0.00000000000E+00 0.  1.
<mgrwt>
<rscale>  0 0.27797183E+04</rscale>
<asrwt>0</asrwt>
<pdfrwt beam="1">  1        2 0.29183244E+00 0.27797183E+04</pdfrwt>
<pdfrwt beam="2">  1       -1 0.15666836E+00 0.27797183E+04</pdfrwt>
<totfact> 0.23426740E+00</totfact>
</mgrwt>
</event>
<event>
12    7  0.1698542E-007  0.1347130E+04  0.7818608E-02  0.8993003E-01
          2   -1    0    0  501    0  0.00000000000E+00  0.00000000000E+00  0.18521824095E+04  0.18521824095E+04  0.00000000000E+00 0. -1.
         -1   -1    0    0    0  501 -0.00000000000E+00 -0.00000000000E+00 -0.24494889253E+03  0.24494889253E+03  0.00000000000E+00 0.  1.
         24    2    1    2    0    0  0.34208196469E+03  0.57087823537E+02  0.60281605001E+03  0.70340147271E+03  0.10539142042E+03 0.  0.
        254    2    1    2    0    0 -0.34208196469E+03 -0.57087823537E+02  0.10044174670E+04  0.13937298293E+04  0.90185880217E+03 0.  0.
         23    2    4    4    0    0 -0.21922554049E+03  0.70913950790E+02 -0.10318516787E+03  0.26829513067E+03  0.90810088939E+02 0.  0.
         23    2    4    4    0    0 -0.12285642421E+03 -0.12800177433E+03  0.11076026348E+04  0.11254346987E+04  0.91331862248E+02 0.  0.
          4    1    3    3  502    0  0.17372186037E+03  0.44392081100E+02  0.21189325412E+03  0.27757646294E+03  0.00000000000E+00 0. -1.
         -3    1    3    3    0  502  0.16836010432E+03  0.12695742436E+02  0.39092279589E+03  0.42582500978E+03  0.00000000000E+00 0.  1.
         13    1    5    5    0    0 -0.23852042933E+02 -0.17782240795E+02  0.10127889384E+01  0.29768335210E+02  0.00000000000E+00 0. -1.
        -13    1    5    5    0    0 -0.19537349755E+03  0.88696191585E+02 -0.10419795681E+03  0.23852679546E+03  0.00000000000E+00 0.  1.
          1    1    6    6  503    0 -0.73298756271E+00 -0.58063344755E+02  0.28092502651E+03  0.28686366064E+03  0.00000000000E+00 0. -1.
         -1    1    6    6    0  503 -0.12212343664E+03 -0.69938429572E+02  0.82667760831E+03  0.83857103801E+03  0.00000000000E+00 0.  1.
<mgrwt>
<rscale>  0 0.13471303E+04</rscale>
<asrwt>0</asrwt>
<pdfrwt beam="1">  1        2 0.28495113E+00 0.13471303E+04</pdfrwt>
<pdfrwt beam="2">  1       -1 0.37684446E-01 0.13471303E+04</pdfrwt>
<totfact> 0.61021480E+01</totfact>
</mgrwt>
</event>
<event>
12    7  0.1698542E-007  0.1164530E+04  0.7818608E-02  0.9144482E-01
         -1   -1    0    0    0  501 -0.00000000000E+00  0.00000000000E+00  0.23252267169E+03  0.23252267169E+03  0.00000000000E+00 0.  1.
          2   -1    0    0  501    0  0.00000000000E+00 -0.00000000000E+00 -0.14580630020E+04  0.14580630020E+04  0.00000000000E+00 0. -1.
         24    2    1    2    0    0  0.36894258468E+02  0.16531696671E+03 -0.45775907620E+03  0.49452361350E+03  0.79494318542E+02 0.  0.
        254    2    1    2    0    0 -0.36894258468E+02 -0.16531696671E+03 -0.76778125408E+03  0.11960620602E+04  0.90132431003E+03 0.  0.
         23    2    4    4    0    0  0.18317301297E+02 -0.46210911293E+03 -0.74308146713E+03  0.87990230500E+03  0.90430325584E+02 0.  0.
         23    2    4    4    0    0 -0.55211559765E+02  0.29679214621E+03 -0.24699786955E+02  0.31615975516E+03  0.90625696804E+02 0.  0.
          4    1    3    3  502    0  0.98399336518E+01  0.12698402731E+03 -0.40177074206E+03  0.42147538084E+03  0.00000000000E+00 0. -1.
         -3    1    3    3    0  502  0.27054324816E+02  0.38332939406E+02 -0.55988334140E+02  0.73048232658E+02  0.00000000000E+00 0.  1.
         13    1    5    5    0    0  0.35324862964E+01 -0.35095337875E+03 -0.48648318323E+03  0.59987218645E+03  0.00000000000E+00 0.  1.
        -13    1    5    5    0    0  0.14784815001E+02 -0.11115573417E+03 -0.25659828390E+03  0.28003011855E+03  0.00000000000E+00 0. -1.
          3    1    6    6  503    0 -0.34197000654E+02  0.27842210799E+02  0.65670138654E+01  0.44584181354E+02  0.00000000000E+00 0. -1.
         -3    1    6    6    0  503 -0.21014559111E+02  0.26894993541E+03 -0.31266800821E+02  0.27157557381E+03  0.00000000000E+00 0.  1.
<mgrwt>
<rscale>  0 0.11645303E+04</rscale>
<asrwt>0</asrwt>
<pdfrwt beam="1">  1        2 0.22431739E+00 0.11645303E+04</pdfrwt>
<pdfrwt beam="2">  1       -1 0.35772718E-01 0.11645303E+04</pdfrwt>
<totfact> 0.11266050E+02</totfact>
</mgrwt>
</event>
<event>
12    7  0.1698542E-007  0.1153106E+04  0.7818608E-02  0.9154923E-01
         -1   -1    0    0    0  501 -0.00000000000E+00  0.00000000000E+00  0.17494032219E+03  0.17494032219E+03  0.00000000000E+00 0.  1.
          2   -1    0    0  501    0  0.00000000000E+00 -0.00000000000E+00 -0.19001522266E+04  0.19001522266E+04  0.00000000000E+00 0. -1.
         24    2    1    2    0    0 -0.18526691090E+02  0.67002528929E+02 -0.77275848581E+03  0.77997913559E+03  0.79869877909E+02 0.  0.
        254    2    1    2    0    0  0.18526691090E+02 -0.67002528929E+02 -0.95245341862E+03  0.12951134132E+04  0.87482493181E+03 0.  0.
         23    2    4    4    0    0  0.91658477115E+02  0.38135409890E+03 -0.54965709008E+03  0.68095275765E+03  0.87985886919E+02 0.  0.
         23    2    4    4    0    0 -0.73131786026E+02 -0.44835662783E+03 -0.40279632854E+03  0.61416065558E+03  0.92609420317E+02 0.  0.
          4    1    3    3  502    0 -0.49283098654E+02  0.35621826467E+02 -0.50354094833E+03  0.50719939371E+03  0.00000000000E+00 0. -1.
         -3    1    3    3    0  502  0.30756407565E+02  0.31380702462E+02 -0.26921753748E+03  0.27277974188E+03  0.00000000000E+00 0.  1.
         13    1    5    5    0    0  0.79607045817E+02  0.25146767309E+03 -0.42699806033E+03  0.50189701720E+03  0.00000000000E+00 0. -1.
        -13    1    5    5    0    0  0.12051431298E+02  0.12988642581E+03 -0.12265902975E+03  0.17905574045E+03  0.00000000000E+00 0.  1.
          2    1    6    6  503    0 -0.79168086380E+02 -0.20927949582E+03 -0.17763526240E+03  0.28569175648E+03  0.00000000000E+00 0. -1.
         -2    1    6    6    0  503  0.60363003542E+01 -0.23907713201E+03 -0.22516106614E+03  0.32846889910E+03  0.00000000000E+00 0.  1.
<mgrwt>
<rscale>  0 0.11531058E+04</rscale>
<asrwt>0</asrwt>
<pdfrwt beam="1">  1        2 0.29233112E+00 0.11531058E+04</pdfrwt>
<pdfrwt beam="2">  1       -1 0.26913895E-01 0.11531058E+04</pdfrwt>
<totfact> 0.10566526E+02</totfact>
</mgrwt>
</event>
<event>
12    7  0.1698542E-007  0.1209813E+04  0.7818608E-02  0.9104311E-01
         -1   -1    0    0    0  501 -0.00000000000E+00  0.00000000000E+00  0.18580530136E+03  0.18580530136E+03  0.00000000000E+00 0.  1.
          2   -1    0    0  501    0  0.00000000000E+00 -0.00000000000E+00 -0.19693289385E+04  0.19693289385E+04  0.00000000000E+00 0. -1.
         24    2    1    2    0    0  0.26523188880E+03  0.78235164110E+00 -0.38979511015E+03  0.47864258512E+03  0.82522296900E+02 0.  0.
        254    2    1    2    0    0 -0.26523188880E+03 -0.78235164110E+00 -0.13937285270E+04  0.16764916547E+04  0.89319454463E+03 0.  0.
         23    2    4    4    0    0  0.26091814064E+03 -0.20273389251E+02 -0.92449069213E+03  0.96524060418E+03  0.92288123239E+02 0.  0.
         23    2    4    4    0    0 -0.52615002944E+03  0.19491037610E+02 -0.46923783483E+03  0.71125105054E+03  0.92087769177E+02 0.  0.
          4    1    3    3  502    0  0.11023064720E+03 -0.16322703803E+02 -0.22886983068E+03  0.25455574171E+03  0.00000000000E+00 0. -1.
         -3    1    3    3    0  502  0.15500124160E+03  0.17105055445E+02 -0.16092527948E+03  0.22408684342E+03  0.00000000000E+00 0.  1.
         13    1    5    5    0    0  0.52716452135E+02 -0.40391374353E+02 -0.27465230257E+03  0.28256746939E+03  0.00000000000E+00 0. -1.
        -13    1    5    5    0    0  0.20820168850E+03  0.20117985102E+02 -0.64983838956E+03  0.68267313480E+03  0.00000000000E+00 0.  1.
          2    1    6    6  503    0 -0.15505889140E+03  0.44727290027E+02 -0.12073891245E+03  0.20154819586E+03  0.00000000000E+00 0. -1.
         -2    1    6    6    0  503 -0.37109113804E+03 -0.25236252417E+02 -0.34849892238E+03  0.50970285467E+03  0.00000000000E+00 0.  1.
<mgrwt>
<rscale>  0 0.12098128E+04</rscale>
<asrwt>0</asrwt>
<pdfrwt beam="1">  1        2 0.30297368E+00 0.12098128E+04</pdfrwt>
<pdfrwt beam="2">  1       -1 0.28585431E-01 0.12098128E+04</pdfrwt>
<totfact> 0.86783200E+01</totfact>
</mgrwt>
</event>
<event>
12    7  0.1698542E-007  0.1316791E+04  0.7818608E-02  0.9016354E-01
          2   -1    0    0  501    0  0.00000000000E+00  0.00000000000E+00  0.68049656757E+03  0.68049656757E+03  0.00000000000E+00 0. -1.
         -1   -1    0    0    0  501 -0.00000000000E+00 -0.00000000000E+00 -0.63701265369E+03  0.63701265369E+03  0.00000000000E+00 0.  1.
         24    2    1    2    0    0 -0.35786028486E+03  0.27220572656E+02 -0.32252444159E+02  0.36987709294E+03  0.83449989029E+02 0.  0.
        254    2    1    2    0    0  0.35786028486E+03 -0.27220572656E+02  0.75736358042E+02  0.94763212833E+03  0.87376524974E+03 0.  0.
         23    2    4    4    0    0  0.20440062029E+03  0.38204020318E+03 -0.12248638064E+03  0.45858733115E+03  0.86977562757E+02 0.  0.
         23    2    4    4    0    0  0.15345966457E+03 -0.40926077584E+03  0.19822273868E+03  0.48904479718E+03  0.93959077398E+02 0.  0.
          4    1    3    3  502    0 -0.25956317378E+03  0.21520440794E+02  0.14545007839E+02  0.26085959405E+03  0.00000000000E+00 0. -1.
         -3    1    3    3    0  502 -0.98297111079E+02  0.57001318623E+01 -0.46797451998E+02  0.10901749889E+03  0.00000000000E+00 0.  1.
         13    1    5    5    0    0  0.32923417094E+02  0.67237339952E+02  0.11789834215E+02  0.75787937482E+02  0.00000000000E+00 0.  1.
        -13    1    5    5    0    0  0.17147720320E+03  0.31480286323E+03 -0.13427621486E+03  0.38279939367E+03  0.00000000000E+00 0. -1.
          1    1    6    6  503    0  0.52617935199E+02 -0.56777016619E+02  0.57125577840E+02  0.96206072388E+02  0.00000000000E+00 0.  1.
         -1    1    6    6    0  503  0.10084172937E+03 -0.35248375922E+03  0.14109716084E+03  0.39283872479E+03  0.00000000000E+00 0. -1.
<mgrwt>
<rscale>  0 0.13167914E+04</rscale>
<asrwt>0</asrwt>
<pdfrwt beam="1">  1        2 0.10469178E+00 0.13167914E+04</pdfrwt>
<pdfrwt beam="2">  1       -1 0.98001946E-01 0.13167914E+04</pdfrwt>
<totfact> 0.47418561E+01</totfact>
</mgrwt>
</event>
<event>
12    7  0.1698542E-007  0.2493084E+04  0.7818608E-02  0.8405454E-01
          2   -1    0    0  501    0  0.00000000000E+00  0.00000000000E+00  0.29993558351E+04  0.29993558351E+04  0.00000000000E+00 0. -1.
         -1   -1    0    0    0  501 -0.00000000000E+00 -0.00000000000E+00 -0.51806671841E+03  0.51806671841E+03  0.00000000000E+00 0.  1.
         24    2    1    2    0    0  0.21886771642E+03  0.84219275941E+03  0.19710379634E+04  0.21559678782E+04  0.77557187306E+02 0.  0.
        254    2    1    2    0    0 -0.21886771642E+03 -0.84219275941E+03  0.51025115328E+03  0.13614546753E+04  0.91433630150E+03 0.  0.
         23    2    4    4    0    0 -0.88327141145E+02 -0.73963812483E+03  0.74790635637E+03  0.10597011004E+04  0.93467987282E+02 0.  0.
         23    2    4    4    0    0 -0.13054057527E+03 -0.10255463458E+03 -0.23765520309E+03  0.30175357496E+03  0.83767115118E+02 0.  0.
          2    1    3    3  502    0  0.89412001060E+02  0.37110346965E+03  0.95895192751E+03  0.10321342405E+04  0.00000000000E+00 0. -1.
         -1    1    3    3    0  502  0.12945571536E+03  0.47108928976E+03  0.10120860359E+04  0.11238336377E+04  0.00000000000E+00 0.  1.
         13    1    5    5    0    0 -0.29699007459E+02 -0.71674552684E+02  0.52504858376E+02  0.93680481957E+02  0.00000000000E+00 0.  1.
        -13    1    5    5    0    0 -0.58628133686E+02 -0.66796357214E+03  0.69540149800E+03  0.96602061841E+03  0.00000000000E+00 0. -1.
          3    1    6    6  503    0 -0.11743585317E+03 -0.81776954603E+02 -0.23738995118E+03  0.27718701058E+03  0.00000000000E+00 0. -1.
         -3    1    6    6    0  503 -0.13104722099E+02 -0.20777679981E+02 -0.26525191529E+00  0.24566564376E+02  0.00000000000E+00 0.  1.
<mgrwt>
<rscale>  0 0.24930836E+04</rscale>
<asrwt>0</asrwt>
<pdfrwt beam="1">  1        2 0.46143935E+00 0.24930836E+04</pdfrwt>
<pdfrwt beam="2">  1       -1 0.79702574E-01 0.24930836E+04</pdfrwt>
<totfact> 0.27814737E+00</totfact>
</mgrwt>
</event>
<event>
12    7  0.1698542E-007  0.1448142E+04  0.7818608E-02  0.8919690E-01
          2   -1    0    0  501    0  0.00000000000E+00  0.00000000000E+00  0.77464056023E+03  0.77464056023E+03  0.00000000000E+00 0. -1.
         -1   -1    0    0    0  501 -0.00000000000E+00 -0.00000000000E+00 -0.67680229060E+03  0.67680229060E+03  0.00000000000E+00 0.  1.
         24    2    1    2    0    0 -0.36757870277E+02 -0.20088409160E+03  0.41441818698E+03  0.46819212933E+03  0.75867496173E+02 0.  0.
        254    2    1    2    0    0  0.36757870277E+02  0.20088409160E+03 -0.31657991735E+03  0.98325072150E+03  0.90821449998E+03 0.  0.
         23    2    4    4    0    0 -0.24292090089E+03  0.19756192187E+03 -0.52753492223E+03  0.62144937336E+03  0.99322466812E+02 0.  0.
         23    2    4    4    0    0  0.27967877117E+03  0.33221697329E+01  0.21095500488E+03  0.36180134814E+03  0.90371176680E+02 0.  0.
          2    1    3    3  502    0 -0.27747148435E+02 -0.17757554596E+03  0.28915704433E+03  0.34046258980E+03  0.00000000000E+00 0. -1.
         -1    1    3    3    0  502 -0.90107218424E+01 -0.23308545638E+02  0.12526114266E+03  0.12772953953E+03  0.00000000000E+00 0.  1.
         13    1    5    5    0    0 -0.37726446733E+02  0.88008218657E+02 -0.14601367476E+03  0.17461020747E+03  0.00000000000E+00 0.  1.
        -13    1    5    5    0    0 -0.20519445416E+03  0.10955370321E+03 -0.38152124747E+03  0.44683916589E+03  0.00000000000E+00 0. -1.
          1    1    6    6  503    0  0.12233075940E+03  0.45632527796E+02  0.84114140189E+02  0.15531365319E+03  0.00000000000E+00 0. -1.
         -1    1    6    6    0  503  0.15734801177E+03 -0.42310358063E+02  0.12684086469E+03  0.20648769494E+03  0.00000000000E+00 0.  1.
<mgrwt>
<rscale>  0 0.14481416E+04</rscale>
<asrwt>0</asrwt>
<pdfrwt beam="1">  1        2 0.11917547E+00 0.14481416E+04</pdfrwt>
<pdfrwt beam="2">  1       -1 0.10412343E+00 0.14481416E+04</pdfrwt>
<totfact> 0.34575776E+01</totfact>
</mgrwt>
</event>
<event>
12    7  0.1698542E-007  0.3436575E+04  0.7818608E-02  0.8128987E-01
          2   -1    0    0  501    0  0.00000000000E+00  0.00000000000E+00  0.34902247764E+04  0.34902247764E+04  0.00000000000E+00 0. -1.
         -1   -1    0    0    0  501 -0.00000000000E+00 -0.00000000000E+00 -0.84593764087E+03  0.84593764087E+03  0.00000000000E+00 0.  1.
         24    2    1    2    0    0  0.10773199931E+04 -0.18446290507E+03 -0.23192643417E+03  0.11202678944E+04  0.81026869202E+02 0.  0.
        254    2    1    2    0    0 -0.10773199931E+04  0.18446290507E+03  0.28762135697E+04  0.32158945229E+04  0.93526902683E+03 0.  0.
         23    2    4    4    0    0 -0.15965797652E+03 -0.13598712794E+03  0.60574967206E+02  0.23580941533E+03  0.89182875460E+02 0.  0.
         23    2    4    4    0    0 -0.91766201660E+03  0.32045003301E+03  0.28156386025E+04  0.29800851075E+04  0.91075286077E+02 0.  0.
          2    1    3    3  502    0  0.31655113732E+03 -0.17460234007E+02 -0.60893342946E+02  0.32282732463E+03  0.00000000000E+00 0. -1.
         -1    1    3    3    0  502  0.76076885579E+03 -0.16700267107E+03 -0.17103309122E+03  0.79744056981E+03  0.00000000000E+00 0.  1.
         13    1    5    5    0    0  0.51813634223E+01 -0.90827122062E+01 -0.11596973096E+02  0.15615120010E+02  0.00000000000E+00 0.  1.
        -13    1    5    5    0    0 -0.16483933994E+03 -0.12690441573E+03  0.72171940302E+02  0.22019429532E+03  0.00000000000E+00 0. -1.
          2    1    6    6  503    0 -0.81956697419E+03  0.25609127107E+03  0.24527887389E+04  0.25987391870E+04  0.00000000000E+00 0. -1.
         -2    1    6    6    0  503 -0.98095042412E+02  0.64358761940E+02  0.36284986366E+03  0.38134592058E+03  0.00000000000E+00 0.  1.
<mgrwt>
<rscale>  0 0.34365753E+04</rscale>
<asrwt>0</asrwt>
<pdfrwt beam="1">  1        2 0.53695765E+00 0.34365753E+04</pdfrwt>
<pdfrwt beam="2">  1       -1 0.13014425E+00 0.34365753E+04</pdfrwt>
<totfact> 0.39103537E-01</totfact>
</mgrwt>
</event>
<event>
12    7  0.1698542E-007  0.1248901E+04  0.7818608E-02  0.9071098E-01
          2   -1    0    0  501    0  0.00000000000E+00  0.00000000000E+00  0.93376690006E+03  0.93376690006E+03  0.00000000000E+00 0. -1.
         -1   -1    0    0    0  501 -0.00000000000E+00 -0.00000000000E+00 -0.41759729849E+03  0.41759729849E+03  0.00000000000E+00 0.  1.
         24    2    1    2    0    0 -0.15717443258E+03  0.24291152167E+03  0.14670942862E+03  0.33261907062E+03  0.73498163768E+02 0.  0.
        254    2    1    2    0    0  0.15717443258E+03 -0.24291152167E+03  0.36946017295E+03  0.10187451279E+04  0.90422950994E+03 0.  0.
         23    2    4    4    0    0 -0.33954593538E+03 -0.26977442417E+03  0.18364460262E+03  0.47988225102E+03  0.92151791077E+02 0.  0.
         23    2    4    4    0    0  0.49672036796E+03  0.26862902501E+02  0.18581557033E+03  0.53886287690E+03  0.91613505817E+02 0.  0.
          2    1    3    3  502    0 -0.12152533018E+03  0.15194529506E+03  0.64641746437E+02  0.20502276446E+03  0.00000000000E+00 0. -1.
         -1    1    3    3    0  502 -0.35649102399E+02  0.90966226609E+02  0.82067682184E+02  0.12759630616E+03  0.00000000000E+00 0.  1.
         13    1    5    5    0    0 -0.10070821085E+03 -0.10495477646E+03  0.10447555677E+03  0.17908877909E+03  0.00000000000E+00 0.  1.
        -13    1    5    5    0    0 -0.23883772454E+03 -0.16481964771E+03  0.79169045847E+02  0.30079347193E+03  0.00000000000E+00 0. -1.
          3    1    6    6  503    0  0.42023643925E+03  0.99925921101E+01  0.12162577041E+03  0.43759724040E+03  0.00000000000E+00 0. -1.
         -3    1    6    6    0  503  0.76483928707E+02  0.16870310391E+02  0.64189799923E+02  0.10126563651E+03  0.00000000000E+00 0.  1.
<mgrwt>
<rscale>  0 0.12489012E+04</rscale>
<asrwt>0</asrwt>
<pdfrwt beam="1">  1        2 0.14365645E+00 0.12489012E+04</pdfrwt>
<pdfrwt beam="2">  1       -1 0.64245738E-01 0.12489012E+04</pdfrwt>
<totfact> 0.76746598E+01</totfact>
</mgrwt>
</event>
<event>
12    7  0.1698542E-007  0.1529267E+04  0.7818608E-02  0.8865221E-01
         -1   -1    0    0    0  501 -0.00000000000E+00  0.00000000000E+00  0.19921922006E+03  0.19921922006E+03  0.00000000000E+00 0.  1.
          2   -1    0    0  501    0  0.00000000000E+00 -0.00000000000E+00 -0.29347777613E+04  0.29347777613E+04  0.00000000000E+00 0. -1.
         24    2    1    2    0    0 -0.33313029086E+03  0.28907266539E+03 -0.40546971804E+03  0.60477570700E+03  0.82517676610E+02 0.  0.
        254    2    1    2    0    0  0.33313029086E+03 -0.28907266539E+03 -0.23300888232E+04  0.25292212743E+04  0.87926533773E+03 0.  0.
         23    2    4    4    0    0  0.39443353242E+03 -0.57539745237E+01 -0.37837788166E+03  0.55389850103E+03  0.89570131147E+02 0.  0.
         23    2    4    4    0    0 -0.61303241552E+02 -0.28331869087E+03 -0.19517109415E+04  0.19753227733E+04  0.93257125859E+02 0.  0.
          2    1    3    3  502    0 -0.10261297538E+03  0.66153951666E+02 -0.70168862164E+02  0.14081703468E+03  0.00000000000E+00 0. -1.
         -3    1    3    3    0  502 -0.23051731548E+03  0.22291871373E+03 -0.33530085588E+03  0.46395867232E+03  0.00000000000E+00 0.  1.
         13    1    5    5    0    0  0.31891853618E+03  0.30996219564E+02 -0.30504233198E+03  0.44240323535E+03  0.00000000000E+00 0. -1.
        -13    1    5    5    0    0  0.75514996233E+02 -0.36750194088E+02 -0.73335549677E+02  0.11149526568E+03  0.00000000000E+00 0.  1.
          2    1    6    6  503    0 -0.66969872663E+02 -0.15404648727E+03 -0.88572821923E+03  0.90151525912E+03  0.00000000000E+00 0. -1.
         -2    1    6    6    0  503  0.56666311108E+01 -0.12927220360E+03 -0.10659827223E+04  0.10738075142E+04  0.00000000000E+00 0.  1.
<mgrwt>
<rscale>  0 0.15292667E+04</rscale>
<asrwt>0</asrwt>
<pdfrwt beam="1">  1        2 0.45150426E+00 0.15292667E+04</pdfrwt>
<pdfrwt beam="2">  1       -1 0.30649111E-01 0.15292667E+04</pdfrwt>
<totfact> 0.20755397E+01</totfact>
</mgrwt>
</event>
<event>
12    7  0.1698542E-007  0.1766746E+04  0.7818608E-02  0.8724186E-01
         -1   -1    0    0    0  501 -0.00000000000E+00  0.00000000000E+00  0.66337767737E+03  0.66337767737E+03  0.00000000000E+00 0.  1.
          2   -1    0    0  501    0  0.00000000000E+00 -0.00000000000E+00 -0.11763246327E+04  0.11763246327E+04  0.00000000000E+00 0. -1.
         24    2    1    2    0    0  0.33850191680E+02 -0.15930533649E+03 -0.85820977112E+03  0.87714993664E+03  0.79649070252E+02 0.  0.
        254    2    1    2    0    0 -0.33850191680E+02  0.15930533649E+03  0.34526281575E+03  0.96255237347E+03  0.88361565968E+03 0.  0.
         23    2    4    4    0    0  0.17682970962E+03  0.90073206131E+02  0.58448659040E+03  0.62386518702E+03  0.90560855547E+02 0.  0.
         23    2    4    4    0    0 -0.21067990130E+03  0.69232130359E+02 -0.23922377465E+03  0.33868718645E+03  0.91114692677E+02 0.  0.
          2    1    3    3  502    0  0.44249659766E+02 -0.82220576765E+02 -0.31984941247E+03  0.33319949324E+03  0.00000000000E+00 0. -1.
         -1    1    3    3    0  502 -0.10399468086E+02 -0.77084759725E+02 -0.53836035864E+03  0.54395044340E+03  0.00000000000E+00 0.  1.
         13    1    5    5    0    0  0.71594873386E+02 -0.20401728776E+00  0.12655060421E+03  0.14539918481E+03  0.00000000000E+00 0.  1.
        -13    1    5    5    0    0  0.10523483623E+03  0.90277223419E+02  0.45793598619E+03  0.47846600221E+03  0.00000000000E+00 0. -1.
          2    1    6    6  503    0 -0.18276798412E+03  0.91011401384E+02 -0.20833099606E+03  0.29170021446E+03  0.00000000000E+00 0. -1.
         -2    1    6    6    0  503 -0.27911917183E+02 -0.21779271025E+02 -0.30892778591E+02  0.46986971984E+02  0.00000000000E+00 0.  1.
<mgrwt>
<rscale>  0 0.17667456E+04</rscale>
<asrwt>0</asrwt>
<pdfrwt beam="1">  1        2 0.18097302E+00 0.17667456E+04</pdfrwt>
<pdfrwt beam="2">  1       -1 0.10205811E+00 0.17667456E+04</pdfrwt>
<totfact> 0.19214379E+01</totfact>
</mgrwt>
</event>
<event>
12    7  0.1698542E-007  0.1407567E+04  0.7818608E-02  0.8948359E-01
          4   -1    0    0  501    0  0.00000000000E+00  0.00000000000E+00  0.17093987097E+04  0.17093987097E+04  0.00000000000E+00 0. -1.
         -3   -1    0    0    0  501 -0.00000000000E+00 -0.00000000000E+00 -0.28975774260E+03  0.28975774260E+03  0.00000000000E+00 0.  1.
         24    2    1    2    0    0  0.17454220333E+02 -0.23018033595E+03  0.90273959868E+03  0.93532965118E+03  0.81333489363E+02 0.  0.
        254    2    1    2    0    0 -0.17454220333E+02  0.23018033595E+03  0.51690136846E+03  0.10638268012E+04  0.90069573180E+03 0.  0.
         23    2    4    4    0    0  0.40568470704E+03 -0.41672958272E+02  0.25530284065E+03  0.48978386159E+03  0.91607716159E+02 0.  0.
         23    2    4    4    0    0 -0.42313892737E+03  0.27185329422E+03  0.26159852781E+03  0.57404293957E+03  0.90226056521E+02 0.  0.
          4    1    3    3  502    0  0.16473371812E+02 -0.23645891712E+03  0.89089148787E+03  0.92188493567E+03  0.00000000000E+00 0. -1.
         -3    1    3    3    0  502  0.98084852047E+00  0.62785811708E+01  0.11848110811E+02  0.13444715509E+02  0.00000000000E+00 0.  1.
         13    1    5    5    0    0  0.86841054643E+02  0.24623262572E+02  0.76151603691E+02  0.11809631906E+03  0.00000000000E+00 0. -1.
        -13    1    5    5    0    0  0.31884365240E+03 -0.66296220844E+02  0.17915123696E+03  0.37168754253E+03  0.00000000000E+00 0.  1.
          1    1    6    6  503    0 -0.19721693759E+02 -0.61169148292E+01  0.15330649275E+02  0.25717516577E+02  0.00000000000E+00 0. -1.
         -1    1    6    6    0  503 -0.40341723361E+03  0.27797020905E+03  0.24626787854E+03  0.54832542299E+03  0.00000000000E+00 0.  1.
<mgrwt>
<rscale>  0 0.14075674E+04</rscale>
<asrwt>0</asrwt>
<pdfrwt beam="1">  1        4 0.26298441E+00 0.14075674E+04</pdfrwt>
<pdfrwt beam="2">  1       -3 0.44578115E-01 0.14075674E+04</pdfrwt>
<totfact> 0.58635191E-01</totfact>
</mgrwt>
</event>
<event>
12    7  0.1698542E-007  0.1874613E+04  0.7818608E-02  0.8667597E-01
         -1   -1    0    0    0  501 -0.00000000000E+00  0.00000000000E+00  0.31720559131E+03  0.31720559131E+03  0.00000000000E+00 0.  1.
          2   -1    0    0  501    0  0.00000000000E+00 -0.00000000000E+00 -0.27696352498E+04  0.27696352498E+04  0.00000000000E+00 0. -1.
         24    2    1    2    0    0 -0.63529906239E+03  0.66078018264E+02 -0.14848160149E+04  0.16183710438E+04  0.80467596675E+02 0.  0.
        254    2    1    2    0    0  0.63529906239E+03 -0.66078018264E+02 -0.96761364362E+03  0.14684697974E+04  0.90119708125E+03 0.  0.
         23    2    4    4    0    0  0.35060830355E+03 -0.37513763520E+03 -0.88948567351E+03  0.10306570647E+04  0.86109197362E+02 0.  0.
         23    2    4    4    0    0  0.28469075884E+03  0.30905961694E+03 -0.78127970108E+02  0.43781273261E+03  0.94917512236E+02 0.  0.
          4    1    3    3  502    0 -0.62478342856E+03  0.64728072183E+02 -0.14775417446E+04  0.16055135200E+04  0.00000000000E+00 0. -1.
         -3    1    3    3    0  502 -0.10515633822E+02  0.13499460809E+01 -0.72742702991E+01  0.12857523770E+02  0.00000000000E+00 0.  1.
         13    1    5    5    0    0  0.55470586333E+02 -0.28537211381E+02 -0.74691332934E+02  0.97314714186E+02  0.00000000000E+00 0. -1.
        -13    1    5    5    0    0  0.29513771721E+03 -0.34660042382E+03 -0.81479434058E+03  0.93334235056E+03  0.00000000000E+00 0.  1.
          1    1    6    6  503    0  0.10828890322E+03  0.15598892338E+03 -0.75195726134E+02  0.20423865454E+03  0.00000000000E+00 0. -1.
         -1    1    6    6    0  503  0.17640185562E+03  0.15307069356E+03 -0.29322439740E+01  0.23357407807E+03  0.00000000000E+00 0.  1.
<mgrwt>
<rscale>  0 0.18746133E+04</rscale>
<asrwt>0</asrwt>
<pdfrwt beam="1">  1        2 0.42609773E+00 0.18746133E+04</pdfrwt>
<pdfrwt beam="2">  1       -1 0.48800860E-01 0.18746133E+04</pdfrwt>
<totfact> 0.10854752E+01</totfact>
</mgrwt>
</event>
<event>
12    7  0.1698542E-007  0.2235291E+04  0.7818608E-02  0.8503881E-01
          2   -1    0    0  501    0  0.00000000000E+00  0.00000000000E+00  0.18932823767E+04  0.18932823767E+04  0.00000000000E+00 0. -1.
         -1   -1    0    0    0  501 -0.00000000000E+00 -0.00000000000E+00 -0.65977047698E+03  0.65977047698E+03  0.00000000000E+00 0.  1.
         24    2    1    2    0    0 -0.55088520873E+03  0.67333797980E+03  0.12954777927E+03  0.88327803565E+03  0.80863544965E+02 0.  0.
        254    2    1    2    0    0  0.55088520873E+03 -0.67333797980E+03  0.11039641205E+04  0.16697748181E+04  0.90141700421E+03 0.  0.
         23    2    4    4    0    0 -0.37724135192E+02 -0.24455797916E+03 -0.81389825574E+02  0.27564840585E+03  0.90144464016E+02 0.  0.
         23    2    4    4    0    0  0.58860934392E+03 -0.42878000064E+03  0.11853539461E+04  0.13941264122E+04  0.90615821395E+02 0.  0.
          4    1    3    3  502    0 -0.32454946619E+02  0.41981012022E+02 -0.11399243645E+02  0.54274042471E+02  0.00000000000E+00 0. -1.
         -3    1    3    3    0  502 -0.51843026211E+03  0.63135696777E+03  0.14094702291E+03  0.82900399317E+03  0.00000000000E+00 0.  1.
         13    1    5    5    0    0 -0.69839417041E+01 -0.21865664185E+03 -0.86253471611E+02  0.23515774244E+03  0.00000000000E+00 0. -1.
        -13    1    5    5    0    0 -0.30740193488E+02 -0.25901337313E+02  0.48636460376E+01  0.40490663406E+02  0.00000000000E+00 0.  1.
          3    1    6    6  503    0  0.32867140042E+03 -0.27596165743E+03  0.75883929847E+03  0.87178942797E+03  0.00000000000E+00 0. -1.
         -3    1    6    6    0  503  0.25993794351E+03 -0.15281834321E+03  0.42651464760E+03  0.52233698425E+03  0.00000000000E+00 0.  1.
<mgrwt>
<rscale>  0 0.22352913E+04</rscale>
<asrwt>0</asrwt>
<pdfrwt beam="1">  1        2 0.29127421E+00 0.22352913E+04</pdfrwt>
<pdfrwt beam="2">  1       -1 0.10150315E+00 0.22352913E+04</pdfrwt>
<totfact> 0.73176901E+00</totfact>
</mgrwt>
</event>
<event>
12    7  0.1698542E-007  0.1515419E+04  0.7818608E-02  0.8874263E-01
          2   -1    0    0  501    0  0.00000000000E+00  0.00000000000E+00  0.11360892124E+04  0.11360892124E+04  0.00000000000E+00 0. -1.
         -1   -1    0    0    0  501 -0.00000000000E+00 -0.00000000000E+00 -0.50535113815E+03  0.50535113815E+03  0.00000000000E+00 0.  1.
         24    2    1    2    0    0  0.15984344725E+03  0.33071688861E+03  0.54767389362E+03  0.66432430366E+03  0.80352340628E+02 0.  0.
        254    2    1    2    0    0 -0.15984344725E+03 -0.33071688861E+03  0.83064180604E+02  0.97711604685E+03  0.90162770747E+03 0.  0.
         23    2    4    4    0    0  0.50541806114E+02  0.10781942919E+03  0.37417487962E+03  0.40308290041E+03  0.91046584735E+02 0.  0.
         23    2    4    4    0    0 -0.21038525336E+03 -0.43853631780E+03 -0.29111069901E+03  0.57403314644E+03  0.90512746483E+02 0.  0.
          2    1    3    3  502    0  0.11635360846E+03  0.28464550163E+03  0.49084919945E+03  0.57921857740E+03  0.00000000000E+00 0. -1.
         -1    1    3    3    0  502  0.43489838782E+02  0.46071386977E+02  0.56824694163E+02  0.85105726258E+02  0.00000000000E+00 0.  1.
         13    1    5    5    0    0  0.61030881115E+02  0.37353660775E+02  0.12616735288E+03  0.14504573539E+03  0.00000000000E+00 0.  1.
        -13    1    5    5    0    0 -0.10489075001E+02  0.70465768412E+02  0.24800752674E+03  0.25803716502E+03  0.00000000000E+00 0. -1.
          1    1    6    6  503    0 -0.15981221493E+03 -0.39580434443E+03 -0.23511070828E+03  0.48731721523E+03  0.00000000000E+00 0. -1.
         -1    1    6    6    0  503 -0.50573038427E+02 -0.42731973363E+02 -0.55999990735E+02  0.86715931210E+02  0.00000000000E+00 0.  1.
<mgrwt>
<rscale>  0 0.15154194E+04</rscale>
<asrwt>0</asrwt>
<pdfrwt beam="1">  1        2 0.17478296E+00 0.15154194E+04</pdfrwt>
<pdfrwt beam="2">  1       -1 0.77746329E-01 0.15154194E+04</pdfrwt>
<totfact> 0.37772915E+01</totfact>
</mgrwt>
</event>
<event>
12    7  0.1698542E-007  0.1864039E+04  0.7818608E-02  0.8672966E-01
          2   -1    0    0  501    0  0.00000000000E+00  0.00000000000E+00  0.21285448470E+04  0.21285448470E+04  0.00000000000E+00 0. -1.
         -1   -1    0    0    0  501 -0.00000000000E+00 -0.00000000000E+00 -0.40810070306E+03  0.40810070306E+03  0.00000000000E+00 0.  1.
         24    2    1    2    0    0 -0.40850382573E+03 -0.15951239327E+03  0.14203135919E+04  0.14886544275E+04  0.80509167153E+02 0.  0.
        254    2    1    2    0    0  0.40850382573E+03  0.15951239327E+03  0.30013055205E+03  0.10479911225E+04  0.90326489217E+03 0.  0.
         23    2    4    4    0    0 -0.19805027990E+03  0.27587274268E+03  0.22621774552E+03  0.42030120126E+03  0.10074198662E+03 0.  0.
         23    2    4    4    0    0  0.60655410562E+03 -0.11636034942E+03  0.73912806531E+02  0.62768992129E+03  0.84166028472E+02 0.  0.
          2    1    3    3  502    0 -0.27793874774E+03 -0.14774350873E+03  0.10072924754E+04  0.10553275429E+04  0.00000000000E+00 0. -1.
         -1    1    3    3    0  502 -0.13056507799E+03 -0.11768884534E+02  0.41302111655E+03  0.43332688463E+03  0.00000000000E+00 0.  1.
         13    1    5    5    0    0 -0.20295050204E+03  0.27850943442E+03  0.22931329561E+03  0.41393356820E+03  0.00000000000E+00 0. -1.
        -13    1    5    5    0    0  0.49002221456E+01 -0.26366917390E+01 -0.30955500885E+01  0.63676330574E+01  0.00000000000E+00 0.  1.
          1    1    6    6  503    0  0.44102770394E+03 -0.12129588182E+03  0.45372335627E+02  0.45964853467E+03  0.00000000000E+00 0. -1.
         -1    1    6    6    0  503  0.16552640169E+03  0.49355324024E+01  0.28540470904E+02  0.16804138661E+03  0.00000000000E+00 0.  1.
<mgrwt>
<rscale>  0 0.18640393E+04</rscale>
<asrwt>0</asrwt>
<pdfrwt beam="1">  1        2 0.32746843E+00 0.18640393E+04</pdfrwt>
<pdfrwt beam="2">  1       -1 0.62784725E-01 0.18640393E+04</pdfrwt>
<totfact> 0.15587160E+01</totfact>
</mgrwt>
</event>
<event>
12    7  0.1698542E-007  0.1999771E+04  0.7818608E-02  0.8606728E-01
          2   -1    0    0  501    0  0.00000000000E+00  0.00000000000E+00  0.15814182055E+04  0.15814182055E+04  0.00000000000E+00 0. -1.
         -1   -1    0    0    0  501 -0.00000000000E+00 -0.00000000000E+00 -0.63219914449E+03  0.63219914449E+03  0.00000000000E+00 0.  1.
         24    2    1    2    0    0  0.36350129784E+03 -0.67563501507E+03  0.56730963219E+03  0.95778890749E+03  0.83087336112E+02 0.  0.
        254    2    1    2    0    0 -0.36350129784E+03  0.67563501507E+03  0.38190942883E+03  0.12558284425E+04  0.91795119591E+03 0.  0.
         23    2    4    4    0    0  0.12912635365E+03 -0.51764692354E+02 -0.15060347557E+03  0.22443012124E+03  0.91292244395E+02 0.  0.
         23    2    4    4    0    0 -0.49262765149E+03  0.72739970743E+03  0.53251290440E+03  0.10313983213E+04  0.91761464655E+02 0.  0.
          4    1    3    3  502    0  0.12337049269E+02 -0.64039893435E+02  0.33613249566E+02  0.73370029864E+02  0.00000000000E+00 0. -1.
         -3    1    3    3    0  502  0.35116424857E+03 -0.61159512164E+03  0.53369638262E+03  0.88441887763E+03  0.00000000000E+00 0.  1.
         13    1    5    5    0    0  0.25714653435E+02 -0.43999135111E+02 -0.13864365735E+02  0.52814656385E+02  0.00000000000E+00 0. -1.
        -13    1    5    5    0    0  0.10341170022E+03 -0.77655572429E+01 -0.13673910983E+03  0.17161546486E+03  0.00000000000E+00 0.  1.
          4    1    6    6  503    0 -0.19303509145E+03  0.32520494426E+03  0.18316542282E+03  0.42020277774E+03  0.00000000000E+00 0. -1.
         -4    1    6    6    0  503 -0.29959256004E+03  0.40219476317E+03  0.34934748158E+03  0.61119554354E+03  0.00000000000E+00 0.  1.
<mgrwt>
<rscale>  0 0.19997712E+04</rscale>
<asrwt>0</asrwt>
<pdfrwt beam="1">  1        2 0.24329511E+00 0.19997712E+04</pdfrwt>
<pdfrwt beam="2">  1       -1 0.97261407E-01 0.19997712E+04</pdfrwt>
<totfact> 0.12275194E+01</totfact>
</mgrwt>
</event>
<event>
12    7  0.1698542E-007  0.1122340E+04  0.7818608E-02  0.9183687E-01
         -1   -1    0    0    0  501 -0.00000000000E+00  0.00000000000E+00  0.24290718895E+03  0.24290718895E+03  0.00000000000E+00 0.  1.
          2   -1    0    0  501    0  0.00000000000E+00 -0.00000000000E+00 -0.12964287195E+04  0.12964287195E+04  0.00000000000E+00 0. -1.
         24    2    1    2    0    0 -0.16124591388E+03  0.97009987433E+02 -0.16854541407E+03  0.26500905822E+03  0.80069107228E+02 0.  0.
        254    2    1    2    0    0  0.16124591388E+03 -0.97009987433E+02 -0.88497611651E+03  0.12743268503E+04  0.89739345445E+03 0.  0.
         23    2    4    4    0    0 -0.19355004553E+03 -0.37802615654E+03 -0.56642363649E+03  0.71346239450E+03  0.88472918111E+02 0.  0.
         23    2    4    4    0    0  0.35479595941E+03  0.28101616911E+03 -0.31855248002E+03  0.56086445576E+03  0.90790941699E+02 0.  0.
          2    1    3    3  502    0 -0.73881233365E+02  0.84101793558E+02 -0.12049346127E+03  0.16446951855E+03  0.00000000000E+00 0. -1.
         -1    1    3    3    0  502 -0.87364680511E+02  0.12908193875E+02 -0.48051952808E+02  0.10053953968E+03  0.00000000000E+00 0.  1.
         13    1    5    5    0    0 -0.14295372283E+03 -0.33935932585E+03 -0.50487770946E+03  0.62490160859E+03  0.00000000000E+00 0.  1.
        -13    1    5    5    0    0 -0.50596322705E+02 -0.38666830692E+02 -0.61545927030E+02  0.88560785910E+02  0.00000000000E+00 0. -1.
          3    1    6    6  503    0  0.11094652456E+03  0.40507814075E+02 -0.98219048778E+02  0.15361313699E+03  0.00000000000E+00 0. -1.
         -3    1    6    6    0  503  0.24384943485E+03  0.24050835503E+03 -0.22033343124E+03  0.40725131877E+03  0.00000000000E+00 0.  1.
<mgrwt>
<rscale>  0 0.11223402E+04</rscale>
<asrwt>0</asrwt>
<pdfrwt beam="1">  1        2 0.19945057E+00 0.11223402E+04</pdfrwt>
<pdfrwt beam="2">  1       -1 0.37370337E-01 0.11223402E+04</pdfrwt>
<totfact> 0.12931531E+02</totfact>
</mgrwt>
</event>
<event>
12    7  0.1698542E-007  0.2168746E+04  0.7818608E-02  0.8531550E-01
         -1   -1    0    0    0  501 -0.00000000000E+00  0.00000000000E+00  0.10714459963E+04  0.10714459963E+04  0.00000000000E+00 0.  1.
          2   -1    0    0  501    0  0.00000000000E+00 -0.00000000000E+00 -0.10974562048E+04  0.10974562048E+04  0.00000000000E+00 0. -1.
         24    2    1    2    0    0 -0.35518313358E+03 -0.39656659884E+03 -0.72908277551E+03  0.90627224593E+03  0.79671604086E+02 0.  0.
        254    2    1    2    0    0  0.35518313358E+03  0.39656659884E+03  0.70307256694E+03  0.12626299552E+04  0.90360569036E+03 0.  0.
         23    2    4    4    0    0  0.35863286640E+03 -0.61855727435E+02  0.70081842206E+03  0.79509976438E+03  0.92701190642E+02 0.  0.
         23    2    4    4    0    0 -0.34497328175E+01  0.45842232628E+03  0.22541448845E+01  0.46753019080E+03  0.91741311616E+02 0.  0.
          4    1    3    3  502    0 -0.28575518397E+03 -0.27026555075E+03 -0.55567805821E+03  0.68079188998E+03  0.00000000000E+00 0. -1.
         -3    1    3    3    0  502 -0.69427949612E+02 -0.12630104809E+03 -0.17340471730E+03  0.22548035595E+03  0.00000000000E+00 0.  1.
         13    1    5    5    0    0  0.52777097311E+02 -0.44241665989E+02  0.14169176361E+03  0.15754143228E+03  0.00000000000E+00 0. -1.
        -13    1    5    5    0    0  0.30585576909E+03 -0.17614061446E+02  0.55912665845E+03  0.63755833210E+03  0.00000000000E+00 0.  1.
          4    1    6    6  503    0  0.36206418383E+02  0.10234154038E+03  0.11221570198E+02  0.10913578358E+03  0.00000000000E+00 0. -1.
         -4    1    6    6    0  503 -0.39656151200E+02  0.35608078590E+03 -0.89674253137E+01  0.35839440723E+03  0.00000000000E+00 0.  1.
<mgrwt>
<rscale>  0 0.21687462E+04</rscale>
<asrwt>0</asrwt>
<pdfrwt beam="1">  1        2 0.16883942E+00 0.21687462E+04</pdfrwt>
<pdfrwt beam="2">  1       -1 0.16483785E+00 0.21687462E+04</pdfrwt>
<totfact> 0.61401609E+00</totfact>
</mgrwt>
</event>
<event>
12    7  0.1698542E-007  0.2069360E+04  0.7818608E-02  0.8574862E-01
          4   -1    0    0  501    0  0.00000000000E+00  0.00000000000E+00  0.96013484430E+03  0.96013484430E+03  0.00000000000E+00 0. -1.
         -3   -1    0    0    0  501 -0.00000000000E+00 -0.00000000000E+00 -0.11150129136E+04  0.11150129136E+04  0.00000000000E+00 0.  1.
         24    2    1    2    0    0  0.78747415102E+03 -0.11626498121E+03 -0.32083131219E+03  0.86239285982E+03  0.84590953387E+02 0.  0.
        254    2    1    2    0    0 -0.78747415102E+03  0.11626498121E+03  0.16595324290E+03  0.12127548981E+04  0.89977823911E+03 0.  0.
         23    2    4    4    0    0 -0.67206285786E+03 -0.25559924340E+03 -0.99739449649E+02  0.73229108955E+03  0.96451147648E+02 0.  0.
         23    2    4    4    0    0 -0.11541129316E+03  0.37186422461E+03  0.26569269255E+03  0.48046380852E+03  0.93005893845E+02 0.  0.
          2    1    3    3  502    0  0.27532848648E+03 -0.37372874288E+02 -0.15584497621E+03  0.31857520904E+03  0.00000000000E+00 0. -1.
         -1    1    3    3    0  502  0.51214566454E+03 -0.78892106923E+02 -0.16498633598E+03  0.54381765078E+03  0.00000000000E+00 0.  1.
         13    1    5    5    0    0 -0.57051715424E+03 -0.18607058712E+03 -0.60582177582E+02  0.60314367021E+03  0.00000000000E+00 0.  1.
        -13    1    5    5    0    0 -0.10154570362E+03 -0.69528656276E+02 -0.39157272067E+02  0.12914741934E+03  0.00000000000E+00 0. -1.
          4    1    6    6  503    0  0.14500359679E+02  0.23231769840E+02  0.26815549011E+02  0.38328178009E+02  0.00000000000E+00 0. -1.
         -4    1    6    6    0  503 -0.12991165284E+03  0.34863245477E+03  0.23887714353E+03  0.44213563051E+03  0.00000000000E+00 0.  1.
<mgrwt>
<rscale>  0 0.20693600E+04</rscale>
<asrwt>0</asrwt>
<pdfrwt beam="1">  1        4 0.14771305E+00 0.20693600E+04</pdfrwt>
<pdfrwt beam="2">  1       -3 0.17154045E+00 0.20693600E+04</pdfrwt>
<totfact> 0.14784426E-01</totfact>
</mgrwt>
</event>
<event>
12    7  0.1698542E-007  0.1628691E+04  0.7818608E-02  0.8803113E-01
         -1   -1    0    0    0  501 -0.00000000000E+00  0.00000000000E+00  0.10792634851E+04  0.10792634851E+04  0.00000000000E+00 0.  1.
          2   -1    0    0  501    0  0.00000000000E+00 -0.00000000000E+00 -0.61445510995E+03  0.61445510995E+03  0.00000000000E+00 0. -1.
         24    2    1    2    0    0  0.83239764885E+02 -0.47984432939E+03  0.43024713702E+02  0.49537147598E+03  0.79764242123E+02 0.  0.
        254    2    1    2    0    0 -0.83239764885E+02  0.47984432939E+03  0.42178366146E+03  0.11983471191E+04  0.10104231400E+04 0.  0.
         23    2    4    4    0    0 -0.19383857347E+02 -0.30904457458E+03  0.87252105849E+02  0.33454642996E+03  0.91782900499E+02 0.  0.
         23    2    4    4    0    0 -0.63855907538E+02  0.78888890397E+03  0.33453155561E+03  0.86380068911E+03  0.88413738058E+02 0.  0.
          2    1    3    3  502    0  0.77748296789E+02 -0.35085329888E+03  0.25751128462E+00  0.35936457992E+03  0.00000000000E+00 0. -1.
         -1    1    3    3    0  502  0.54914680958E+01 -0.12899103051E+03  0.42767202418E+02  0.13600689606E+03  0.00000000000E+00 0.  1.
         13    1    5    5    0    0 -0.91897861659E+01 -0.18187116021E+02 -0.15820418838E+02  0.25797461331E+02  0.00000000000E+00 0. -1.
        -13    1    5    5    0    0 -0.10194071181E+02 -0.29085745856E+03  0.10307252469E+03  0.30874896863E+03  0.00000000000E+00 0.  1.
          3    1    6    6  503    0  0.48613038943E+01  0.54741907963E+02  0.47182360126E+02  0.72432616065E+02  0.00000000000E+00 0. -1.
         -3    1    6    6    0  503 -0.68717211432E+02  0.73414699601E+03  0.28734919549E+03  0.79136807305E+03  0.00000000000E+00 0.  1.
<mgrwt>
<rscale>  0 0.16286915E+04</rscale>
<asrwt>0</asrwt>
<pdfrwt beam="1">  1        2 0.94531556E-01 0.16286915E+04</pdfrwt>
<pdfrwt beam="2">  1       -1 0.16604054E+00 0.16286915E+04</pdfrwt>
<totfact> 0.13863712E+01</totfact>
</mgrwt>
</event>
<event>
12    7  0.1698542E-007  0.1359202E+04  0.7818608E-02  0.8983891E-01
         -1   -1    0    0    0  501 -0.00000000000E+00  0.00000000000E+00  0.11239628045E+04  0.11239628045E+04  0.00000000000E+00 0.  1.
          2   -1    0    0  501    0  0.00000000000E+00 -0.00000000000E+00 -0.41091884869E+03  0.41091884869E+03  0.00000000000E+00 0. -1.
         24    2    1    2    0    0 -0.35384493315E+03  0.90339977906E+02  0.99732727898E+02  0.38678339303E+03  0.79292041112E+02 0.  0.
        254    2    1    2    0    0  0.35384493315E+03 -0.90339977906E+02  0.61331122795E+03  0.11480982602E+04  0.89922822711E+03 0.  0.
         23    2    4    4    0    0 -0.64298865918E+02 -0.40193007753E+03  0.14841224418E+03  0.44347394791E+03  0.94661591317E+02 0.  0.
         23    2    4    4    0    0  0.41814379907E+03  0.31159009962E+03  0.46489898377E+03  0.70462431230E+03  0.91824449267E+02 0.  0.
          2    1    3    3  502    0 -0.78494450959E+02 -0.12572318316E+02  0.27123577399E+02  0.83994824068E+02  0.00000000000E+00 0. -1.
         -1    1    3    3    0  502 -0.27535048219E+03  0.10291229622E+03  0.72609150499E+02  0.30278856896E+03  0.00000000000E+00 0.  1.
         13    1    5    5    0    0 -0.74675549457E+02 -0.34781775040E+03  0.15488128625E+03  0.38799721393E+03  0.00000000000E+00 0. -1.
        -13    1    5    5    0    0  0.10376683539E+02 -0.54112327126E+02 -0.64690420723E+01  0.55476733984E+02  0.00000000000E+00 0.  1.
          2    1    6    6  503    0  0.22080227290E+03  0.21158774025E+03  0.30279943441E+03  0.43036091019E+03  0.00000000000E+00 0. -1.
         -2    1    6    6    0  503  0.19734152617E+03  0.10000235937E+03  0.16209954937E+03  0.27426340211E+03  0.00000000000E+00 0.  1.
<mgrwt>
<rscale>  0 0.13592020E+04</rscale>
<asrwt>0</asrwt>
<pdfrwt beam="1">  1        2 0.63218285E-01 0.13592020E+04</pdfrwt>
<pdfrwt beam="2">  1       -1 0.17291735E+00 0.13592020E+04</pdfrwt>
<totfact> 0.20178093E+01</totfact>
</mgrwt>
</event>
<event>
12    7  0.1698542E-007  0.1951504E+04  0.7818608E-02  0.8629636E-01
         -1   -1    0    0    0  501 -0.00000000000E+00  0.00000000000E+00  0.46556675635E+03  0.46556675635E+03  0.00000000000E+00 0.  1.
          2   -1    0    0  501    0  0.00000000000E+00 -0.00000000000E+00 -0.20450164617E+04  0.20450164617E+04  0.00000000000E+00 0. -1.
         24    2    1    2    0    0  0.49123616064E+02  0.45306093847E+03  0.15618149168E+03  0.48783814843E+03  0.76915909268E+02 0.  0.
        254    2    1    2    0    0 -0.49123616064E+02 -0.45306093847E+03 -0.17356311971E+04  0.20227450697E+04  0.93349055752E+03 0.  0.
         23    2    4    4    0    0 -0.31830163330E+03 -0.41219087229E+03 -0.16349358196E+04  0.17183193732E+04  0.91591971523E+02 0.  0.
         23    2    4    4    0    0  0.26917801724E+03 -0.40870066188E+02 -0.10069537744E+03  0.30442569641E+03  0.91696664729E+02 0.  0.
          2    1    3    3  502    0 -0.14965025775E+02  0.14294004816E+03  0.29220738786E+02  0.14666172281E+03  0.00000000000E+00 0. -1.
         -1    1    3    3    0  502  0.64088641839E+02  0.31012089032E+03  0.12696075289E+03  0.34117642562E+03  0.00000000000E+00 0.  1.
         13    1    5    5    0    0 -0.41343959784E+02 -0.24423304828E+02 -0.96707767031E+02  0.10797320516E+03  0.00000000000E+00 0. -1.
        -13    1    5    5    0    0 -0.27695767352E+03 -0.38776756746E+03 -0.15382280526E+04  0.16103461681E+04  0.00000000000E+00 0.  1.
          2    1    6    6  503    0  0.19456995335E+03 -0.39579072649E+02 -0.11351543246E+03  0.22871318971E+03  0.00000000000E+00 0. -1.
         -2    1    6    6    0  503  0.74608063883E+02 -0.12909935384E+01  0.12820055014E+02  0.75712506703E+02  0.00000000000E+00 0.  1.
<mgrwt>
<rscale>  0 0.19515037E+04</rscale>
<asrwt>0</asrwt>
<pdfrwt beam="1">  1        2 0.31461792E+00 0.19515037E+04</pdfrwt>
<pdfrwt beam="2">  1       -1 0.71625655E-01 0.19515037E+04</pdfrwt>
<totfact> 0.13178105E+01</totfact>
</mgrwt>
</event>
<event>
12    7  0.1698542E-007  0.1709947E+04  0.7818608E-02  0.8755711E-01
          2   -1    0    0  501    0  0.00000000000E+00  0.00000000000E+00  0.20907983641E+04  0.20907983641E+04  0.00000000000E+00 0. -1.
         -1   -1    0    0    0  501 -0.00000000000E+00 -0.00000000000E+00 -0.34961748010E+03  0.34961748010E+03  0.00000000000E+00 0.  1.
         24    2    1    2    0    0 -0.51170313326E+03  0.25676908568E+03  0.31437274619E+03  0.65778898911E+03  0.78010708868E+02 0.  0.
        254    2    1    2    0    0  0.51170313326E+03 -0.25676908568E+03  0.14268081378E+04  0.17826268551E+04  0.90233396390E+03 0.  0.
         23    2    4    4    0    0  0.28878744318E+03 -0.56205054030E+03  0.11134239812E+04  0.12834640283E+04  0.90928284800E+02 0.  0.
         23    2    4    4    0    0  0.22291569008E+03  0.30528145461E+03  0.31338415663E+03  0.49916282676E+03  0.89809390214E+02 0.  0.
          2    1    3    3  502    0 -0.89185696685E+02  0.43535756611E+02  0.90187629776E+02  0.13410167472E+03  0.00000000000E+00 0. -1.
         -1    1    3    3    0  502 -0.42251743658E+03  0.21323332907E+03  0.22418511641E+03  0.52368731440E+03  0.00000000000E+00 0.  1.
         13    1    5    5    0    0  0.11453822763E+03 -0.27191910679E+03  0.43987499023E+03  0.52966877693E+03  0.00000000000E+00 0. -1.
        -13    1    5    5    0    0  0.17424921555E+03 -0.29013143350E+03  0.67354899095E+03  0.75379525140E+03  0.00000000000E+00 0.  1.
          1    1    6    6  503    0  0.61560708066E+02  0.67794039108E+02  0.12805245043E+03  0.15742675305E+03  0.00000000000E+00 0. -1.
         -1    1    6    6    0  503  0.16135498202E+03  0.23748741551E+03  0.18533170620E+03  0.34173607370E+03  0.00000000000E+00 0.  1.
<mgrwt>
<rscale>  0 0.17099470E+04</rscale>
<asrwt>0</asrwt>
<pdfrwt beam="1">  1        2 0.32166128E+00 0.17099470E+04</pdfrwt>
<pdfrwt beam="2">  1       -1 0.53787306E-01 0.17099470E+04</pdfrwt>
<totfact> 0.22467786E+01</totfact>
</mgrwt>
</event>
<event>
12    7  0.1698542E-007  0.2598355E+04  0.7818608E-02  0.8368760E-01
         -1   -1    0    0    0  501 -0.00000000000E+00  0.00000000000E+00  0.13320263969E+04  0.13320263969E+04  0.00000000000E+00 0.  1.
          2   -1    0    0  501    0  0.00000000000E+00 -0.00000000000E+00 -0.12671382840E+04  0.12671382840E+04  0.00000000000E+00 0. -1.
         24    2    1    2    0    0 -0.54210694321E+03 -0.30774810555E+03 -0.93120717304E+03  0.11231261118E+04  0.75343411100E+02 0.  0.
        254    2    1    2    0    0  0.54210694321E+03  0.30774810555E+03  0.99609528600E+03  0.14760385690E+04  0.89324979942E+03 0.  0.
         23    2    4    4    0    0 -0.21480339672E+03  0.40557714782E+02  0.69673690549E+02  0.24673692316E+03  0.90770362052E+02 0.  0.
         23    2    4    4    0    0  0.75691033993E+03  0.26719039077E+03  0.92642159545E+03  0.12293016459E+04  0.92852552134E+02 0.  0.
          2    1    3    3  502    0 -0.43300969968E+03 -0.24571685126E+03 -0.79398291486E+03  0.93716756244E+03  0.00000000000E+00 0. -1.
         -1    1    3    3    0  502 -0.10909724353E+03 -0.62031254287E+02 -0.13722425818E+03  0.18595854938E+03  0.00000000000E+00 0.  1.
         13    1    5    5    0    0 -0.12835445498E+03  0.13253238071E+02 -0.52228246377E+01  0.12914252720E+03  0.00000000000E+00 0. -1.
        -13    1    5    5    0    0 -0.86448941733E+02  0.27304476711E+02  0.74896515187E+02  0.11759439597E+03  0.00000000000E+00 0.  1.
          2    1    6    6  503    0  0.75748963666E+03  0.26401128459E+03  0.92712890823E+03  0.12259936870E+04  0.00000000000E+00 0. -1.
         -2    1    6    6    0  503 -0.57929672823E+00  0.31791061725E+01 -0.70731277505E+00  0.33079589050E+01  0.00000000000E+00 0.  1.
<mgrwt>
<rscale>  0 0.25983546E+04</rscale>
<asrwt>0</asrwt>
<pdfrwt beam="1">  1        2 0.19494435E+00 0.25983546E+04</pdfrwt>
<pdfrwt beam="2">  1       -1 0.20492714E+00 0.25983546E+04</pdfrwt>
<totfact> 0.24251237E+00</totfact>
</mgrwt>
</event>
<event>
12    7  0.1698542E-007  0.1673590E+04  0.7818608E-02  0.8776572E-01
          2   -1    0    0  501    0  0.00000000000E+00  0.00000000000E+00  0.13090102182E+04  0.13090102182E+04  0.00000000000E+00 0. -1.
         -1   -1    0    0    0  501 -0.00000000000E+00 -0.00000000000E+00 -0.53492770920E+03  0.53492770920E+03  0.00000000000E+00 0.  1.
         24    2    1    2    0    0  0.43592473006E+02  0.12836303305E+02 -0.36973445650E+03  0.38089930399E+03  0.79470982574E+02 0.  0.
        254    2    1    2    0    0 -0.43592473006E+02 -0.12836303305E+02  0.11438169655E+04  0.14630386234E+04  0.91109806754E+03 0.  0.
         23    2    4    4    0    0  0.36966691171E+03 -0.21073906848E+03  0.66230556066E+03  0.79249065672E+03  0.91258997960E+02 0.  0.
         23    2    4    4    0    0 -0.41325938472E+03  0.19790276518E+03  0.48151140483E+03  0.67054796670E+03  0.88501520534E+02 0.  0.
          2    1    3    3  502    0  0.10503246960E+02  0.43601769954E+02 -0.14969870400E+03  0.15627262882E+03  0.00000000000E+00 0. -1.
         -1    1    3    3    0  502  0.33089226046E+02 -0.30765466649E+02 -0.22003575250E+03  0.22462667517E+03  0.00000000000E+00 0.  1.
         13    1    5    5    0    0  0.24698583744E+03 -0.18632873789E+03  0.45052683391E+03  0.54652980754E+03  0.00000000000E+00 0.  1.
        -13    1    5    5    0    0  0.12268107427E+03 -0.24410330589E+02  0.21177872675E+03  0.24596084918E+03  0.00000000000E+00 0. -1.
          1    1    6    6  503    0 -0.37454054907E+03  0.15940370364E+03  0.45277009927E+03  0.60884392616E+03  0.00000000000E+00 0. -1.
         -1    1    6    6    0  503 -0.38718835645E+02  0.38499061537E+02  0.28741305567E+02  0.61704040537E+02  0.00000000000E+00 0.  1.
<mgrwt>
<rscale>  0 0.16735900E+04</rscale>
<asrwt>0</asrwt>
<pdfrwt beam="1">  1        2 0.20138619E+00 0.16735900E+04</pdfrwt>
<pdfrwt beam="2">  1       -1 0.82296571E-01 0.16735900E+04</pdfrwt>
<totfact> 0.26065749E+01</totfact>
</mgrwt>
</event>
<event>
12    7  0.1698542E-007  0.2124588E+04  0.7818608E-02  0.8550489E-01
         -1   -1    0    0    0  501 -0.00000000000E+00  0.00000000000E+00  0.72215895186E+03  0.72215895186E+03  0.00000000000E+00 0.  1.
          2   -1    0    0  501    0  0.00000000000E+00 -0.00000000000E+00 -0.15626324006E+04  0.15626324006E+04  0.00000000000E+00 0. -1.
         24    2    1    2    0    0 -0.12279341945E+03 -0.24074877740E+03  0.54359443474E+03  0.61229243151E+03  0.79805479271E+02 0.  0.
        254    2    1    2    0    0  0.12279341945E+03  0.24074877740E+03 -0.13840678835E+04  0.16724989209E+04  0.89920550308E+03 0.  0.
         23    2    4    4    0    0  0.19977417302E+02  0.50303026576E+03 -0.41477251474E+03  0.65862379979E+03  0.91162081972E+02 0.  0.
         23    2    4    4    0    0  0.10281600215E+03 -0.26228148835E+03 -0.96929536875E+03  0.10138751212E+04  0.95113300809E+02 0.  0.
          4    1    3    3  502    0 -0.92768107348E+01 -0.98813028159E+02  0.17042607118E+03  0.19721845626E+03  0.00000000000E+00 0. -1.
         -3    1    3    3    0  502 -0.11351660872E+03 -0.14193574924E+03  0.37316836356E+03  0.41507397525E+03  0.00000000000E+00 0.  1.
         13    1    5    5    0    0  0.22799748813E+02  0.40077363704E+03 -0.37352636917E+03  0.54832589320E+03  0.00000000000E+00 0. -1.
        -13    1    5    5    0    0 -0.28223315110E+01  0.10225662872E+03 -0.41246145572E+02  0.11029790659E+03  0.00000000000E+00 0.  1.
          2    1    6    6  503    0  0.36539187023E+02 -0.20503707922E+03 -0.72676117339E+03  0.75601396759E+03  0.00000000000E+00 0. -1.
         -2    1    6    6    0  503  0.66276815127E+02 -0.57244409134E+02 -0.24253419536E+03  0.25786115357E+03  0.00000000000E+00 0.  1.
<mgrwt>
<rscale>  0 0.21245884E+04</rscale>
<asrwt>0</asrwt>
<pdfrwt beam="1">  1        2 0.24040498E+00 0.21245884E+04</pdfrwt>
<pdfrwt beam="2">  1       -1 0.11110138E+00 0.21245884E+04</pdfrwt>
<totfact> 0.91389544E+00</totfact>
</mgrwt>
</event>
<event>
12    7  0.1698542E-007  0.2628343E+04  0.7818608E-02  0.8358637E-01
          2   -1    0    0  501    0  0.00000000000E+00  0.00000000000E+00  0.21273305953E+04  0.21273305953E+04  0.00000000000E+00 0. -1.
         -1   -1    0    0    0  501 -0.00000000000E+00 -0.00000000000E+00 -0.81183740882E+03  0.81183740882E+03  0.00000000000E+00 0.  1.
         24    2    1    2    0    0  0.52892598952E+03 -0.73535692226E+03 -0.22488951701E+03  0.93674217109E+03  0.79988091154E+02 0.  0.
        254    2    1    2    0    0 -0.52892598952E+03  0.73535692226E+03  0.15403827035E+04  0.20024258331E+04  0.90355843096E+03 0.  0.
         23    2    4    4    0    0 -0.45333456997E+03  0.24711073321E+03  0.18390312762E+03  0.55581029938E+03  0.92351403669E+02 0.  0.
         23    2    4    4    0    0 -0.75591419556E+02  0.48824618905E+03  0.13564795759E+04  0.14466155337E+04  0.92527069756E+02 0.  0.
          4    1    3    3  502    0  0.92162587724E+02 -0.91047473543E+02 -0.14127634654E+02  0.13031951149E+03  0.00000000000E+00 0. -1.
         -3    1    3    3    0  502  0.43676340180E+03 -0.64430944872E+03 -0.21076188235E+03  0.80642265960E+03  0.00000000000E+00 0.  1.
         13    1    5    5    0    0 -0.32103617775E+03  0.19014935450E+03  0.17323089917E+03  0.41137567851E+03  0.00000000000E+00 0. -1.
        -13    1    5    5    0    0 -0.13229839221E+03  0.56961378710E+02  0.10672228448E+02  0.14443462087E+03  0.00000000000E+00 0.  1.
          1    1    6    6  503    0  0.10571250257E+02  0.22294975043E+03  0.63563344733E+03  0.67368258246E+03  0.00000000000E+00 0. -1.
         -1    1    6    6    0  503 -0.86162669813E+02  0.26529643863E+03  0.72084612858E+03  0.77293295123E+03  0.00000000000E+00 0.  1.
<mgrwt>
<rscale>  0 0.26283429E+04</rscale>
<asrwt>0</asrwt>
<pdfrwt beam="1">  1        2 0.32728163E+00 0.26283429E+04</pdfrwt>
<pdfrwt beam="2">  1       -1 0.12489806E+00 0.26283429E+04</pdfrwt>
<totfact> 0.31929730E+00</totfact>
</mgrwt>
</event>
<event>
12    7  0.1698542E-007  0.2055156E+04  0.7818608E-02  0.8581259E-01
         -1   -1    0    0    0  501 -0.00000000000E+00  0.00000000000E+00  0.32457411324E+03  0.32457411324E+03  0.00000000000E+00 0.  1.
          2   -1    0    0  501    0  0.00000000000E+00 -0.00000000000E+00 -0.32532385041E+04  0.32532385041E+04  0.00000000000E+00 0. -1.
         24    2    1    2    0    0 -0.36296140610E+03 -0.22176604474E+03  0.52402779436E+02  0.43611604363E+03  0.80808361574E+02 0.  0.
        254    2    1    2    0    0  0.36296140610E+03  0.22176604474E+03 -0.29810671703E+04  0.31416965737E+04  0.89586535070E+03 0.  0.
         23    2    4    4    0    0  0.49442481073E+03 -0.16085089464E+03 -0.11682034240E+04  0.12819825654E+04  0.91930159817E+02 0.  0.
         23    2    4    4    0    0 -0.13146340463E+03  0.38261693938E+03 -0.18128637463E+04  0.18597140084E+04  0.91558075411E+02 0.  0.
          4    1    3    3  502    0 -0.81332366946E+02 -0.89240963186E+02  0.16574669506E+01  0.12075450559E+03  0.00000000000E+00 0. -1.
         -3    1    3    3    0  502 -0.28162903916E+03 -0.13252508156E+03  0.50745312486E+02  0.31536153804E+03  0.00000000000E+00 0.  1.
         13    1    5    5    0    0  0.35398861776E+03 -0.15768996897E+03 -0.85604672388E+03  0.93967550850E+03  0.00000000000E+00 0. -1.
        -13    1    5    5    0    0  0.14043619297E+03 -0.31609256695E+01 -0.31215670015E+03  0.34230705688E+03  0.00000000000E+00 0.  1.
          2    1    6    6  503    0 -0.13587334363E+03  0.38407970187E+03 -0.17551286720E+04  0.18017922850E+04  0.00000000000E+00 0. -1.
         -2    1    6    6    0  503  0.44099390000E+01 -0.14627624820E+01 -0.57735074271E+02  0.57921723362E+02  0.00000000000E+00 0.  1.
<mgrwt>
<rscale>  0 0.20551564E+04</rscale>
<asrwt>0</asrwt>
<pdfrwt beam="1">  1        2 0.50049824E+00 0.20551564E+04</pdfrwt>
<pdfrwt beam="2">  1       -1 0.49934478E-01 0.20551564E+04</pdfrwt>
<totfact> 0.50850064E+00</totfact>
</mgrwt>
</event>
<event>
12    7  0.1698542E-007  0.3260335E+04  0.7818608E-02  0.8173062E-01
         -1   -1    0    0    0  501 -0.00000000000E+00  0.00000000000E+00  0.18794203337E+04  0.18794203337E+04  0.00000000000E+00 0.  1.
          2   -1    0    0  501    0  0.00000000000E+00 -0.00000000000E+00 -0.14139711470E+04  0.14139711470E+04  0.00000000000E+00 0. -1.
         24    2    1    2    0    0  0.29268140630E+03 -0.12161513159E+04  0.10452398543E+04  0.16320113283E+04  0.79045518140E+02 0.  0.
        254    2    1    2    0    0 -0.29268140630E+03  0.12161513159E+04 -0.57979066767E+03  0.16613801524E+04  0.92700612930E+03 0.  0.
         23    2    4    4    0    0  0.29470453000E+03  0.67621106192E+03 -0.17905195473E+03  0.76384712906E+03  0.85385442640E+02 0.  0.
         23    2    4    4    0    0 -0.58738593631E+03  0.53994025398E+03 -0.40073871294E+03  0.89753302336E+03  0.91740372405E+02 0.  0.
          4    1    3    3  502    0  0.50987440251E+02 -0.11735137448E+03  0.11868576374E+03  0.17452041333E+03  0.00000000000E+00 0. -1.
         -3    1    3    3    0  502  0.24169396605E+03 -0.10987999414E+04  0.92655409056E+03  0.14574909150E+04  0.00000000000E+00 0.  1.
         13    1    5    5    0    0  0.26369776917E+03  0.51705524406E+03 -0.14048615343E+03  0.59717585197E+03  0.00000000000E+00 0. -1.
        -13    1    5    5    0    0  0.31006760833E+02  0.15915581786E+03 -0.38565801300E+02  0.16667127708E+03  0.00000000000E+00 0.  1.
          4    1    6    6  503    0 -0.22871277642E+03  0.26113137010E+03 -0.14492520364E+03  0.37616810232E+03  0.00000000000E+00 0.  1.
         -4    1    6    6    0  503 -0.35867315989E+03  0.27880888388E+03 -0.25581350930E+03  0.52136492104E+03  0.00000000000E+00 0. -1.
<mgrwt>
<rscale>  0 0.32603350E+04</rscale>
<asrwt>0</asrwt>
<pdfrwt beam="1">  1        2 0.21753402E+00 0.32603350E+04</pdfrwt>
<pdfrwt beam="2">  1       -1 0.28914159E+00 0.32603350E+04</pdfrwt>
<totfact> 0.52635080E-01</totfact>
</mgrwt>
</event>
<event>
12    7  0.1698542E-007  0.2990897E+04  0.7818608E-02  0.8246335E-01
         -1   -1    0    0    0  501 -0.00000000000E+00  0.00000000000E+00  0.12360703016E+04  0.12360703016E+04  0.00000000000E+00 0.  1.
          2   -1    0    0  501    0  0.00000000000E+00 -0.00000000000E+00 -0.18092549433E+04  0.18092549433E+04  0.00000000000E+00 0. -1.
         24    2    1    2    0    0 -0.88119398338E+03 -0.61934237815E+03  0.58306445732E+03  0.12273320599E+04  0.79322167500E+02 0.  0.
        254    2    1    2    0    0  0.88119398338E+03  0.61934237815E+03 -0.11562490991E+04  0.18179931850E+04  0.89894350420E+03 0.  0.
         23    2    4    4    0    0  0.13398006206E+02 -0.13741149903E+03  0.24379163404E+02  0.16641200724E+03  0.89650353649E+02 0.  0.
         23    2    4    4    0    0  0.86779597718E+03  0.75675387718E+03 -0.11806282625E+04  0.16515811777E+04  0.89950007243E+02 0.  0.
          4    1    3    3  502    0 -0.16697518144E+02 -0.73762314358E+00  0.12428176071E+02  0.20828124268E+02  0.00000000000E+00 0. -1.
         -3    1    3    3    0  502 -0.86449646524E+03 -0.61860475500E+03  0.57063628125E+03  0.12065039357E+04  0.00000000000E+00 0.  1.
         13    1    5    5    0    0 -0.23726087035E+02 -0.55527953607E+02  0.43592993332E+02  0.74475700100E+02  0.00000000000E+00 0. -1.
        -13    1    5    5    0    0  0.37124093241E+02 -0.81883545427E+02 -0.19213829927E+02  0.91936307144E+02  0.00000000000E+00 0.  1.
          3    1    6    6  503    0  0.17028125470E+03  0.12590661392E+03 -0.17518362682E+03  0.27484083437E+03  0.00000000000E+00 0. -1.
         -3    1    6    6    0  503  0.69751472248E+03  0.63084726326E+03 -0.10054446357E+04  0.13767403434E+04  0.00000000000E+00 0.  1.
<mgrwt>
<rscale>  0 0.29908971E+04</rscale>
<asrwt>0</asrwt>
<pdfrwt beam="1">  1        2 0.27834691E+00 0.29908971E+04</pdfrwt>
<pdfrwt beam="2">  1       -1 0.19016466E+00 0.29908971E+04</pdfrwt>
<totfact> 0.14650063E+00</totfact>
</mgrwt>
</event>
<event>
12    7  0.1698542E-007  0.1047313E+04  0.7818608E-02  0.9258123E-01
          2   -1    0    0  501    0  0.00000000000E+00  0.00000000000E+00  0.21318366666E+04  0.21318366666E+04  0.00000000000E+00 0. -1.
         -1   -1    0    0    0  501 -0.00000000000E+00 -0.00000000000E+00 -0.12862895417E+03  0.12862895417E+03  0.00000000000E+00 0.  1.
         24    2    1    2    0    0 -0.13991768020E+01 -0.84821638599E+02  0.78532385226E+02  0.14114695748E+03  0.80984319503E+02 0.  0.
        254    2    1    2    0    0  0.13991768020E+01  0.84821638599E+02  0.19246753272E+04  0.21193186633E+04  0.88314201198E+03 0.  0.
         23    2    4    4    0    0 -0.32342630725E+03  0.81599922558E+02  0.29327869542E+03  0.45335383488E+03  0.90852533430E+02 0.  0.
         23    2    4    4    0    0  0.32482548405E+03  0.32217160403E+01  0.16313966318E+04  0.16659648284E+04  0.91988394589E+02 0.  0.
          2    1    3    3  502    0  0.10993603181E+02  0.29937346578E+01 -0.10490573926E+02  0.15487862971E+02  0.00000000000E+00 0. -1.
         -1    1    3    3    0  502 -0.12392779983E+02 -0.87815373256E+02  0.89022959152E+02  0.12565909451E+03  0.00000000000E+00 0.  1.
         13    1    5    5    0    0 -0.59942461114E+02  0.51404086787E+02  0.49992120948E+02  0.93459568476E+02  0.00000000000E+00 0. -1.
        -13    1    5    5    0    0 -0.26348384614E+03  0.30195835771E+02  0.24328657447E+03  0.35989426640E+03  0.00000000000E+00 0.  1.
          2    1    6    6  503    0  0.50099012574E+01 -0.15574736124E+02  0.56886049101E+02  0.59192010426E+02  0.00000000000E+00 0. -1.
         -2    1    6    6    0  503  0.31981558280E+03  0.18796452164E+02  0.15745105827E+04  0.16067728180E+04  0.00000000000E+00 0.  1.
<mgrwt>
<rscale>  0 0.10473126E+04</rscale>
<asrwt>0</asrwt>
<pdfrwt beam="1">  1        2 0.32797485E+00 0.10473126E+04</pdfrwt>
<pdfrwt beam="2">  1       -1 0.19789071E-01 0.10473126E+04</pdfrwt>
<totfact> 0.13380895E+02</totfact>
</mgrwt>
</event>
<event>
12    7  0.1698542E-007  0.3135182E+04  0.7818608E-02  0.8206148E-01
          2   -1    0    0  501    0  0.00000000000E+00  0.00000000000E+00  0.11289495796E+04  0.11289495796E+04  0.00000000000E+00 0. -1.
         -1   -1    0    0    0  501 -0.00000000000E+00 -0.00000000000E+00 -0.21766624175E+04  0.21766624175E+04  0.00000000000E+00 0.  1.
         24    2    1    2    0    0 -0.51410418677E+03 -0.30891261559E+03 -0.18129592982E+04  0.19112811106E+04  0.80274204073E+02 0.  0.
        254    2    1    2    0    0  0.51410418677E+03  0.30891261559E+03  0.76524646025E+03  0.13943308865E+04  0.99941300628E+03 0.  0.
         23    2    4    4    0    0 -0.16130592929E+03 -0.22691866268E+03  0.14396273485E+03  0.32776186622E+03  0.95869127586E+02 0.  0.
         23    2    4    4    0    0  0.67541011606E+03  0.53583127827E+03  0.62128372540E+03  0.10665690203E+04  0.91005625496E+02 0.  0.
          4    1    3    3  502    0 -0.21092126964E+03 -0.92517579809E+02 -0.61313446977E+03  0.65496653547E+03  0.00000000000E+00 0. -1.
         -3    1    3    3    0  502 -0.30318291714E+03 -0.21639503578E+03 -0.11998248285E+04  0.12563145752E+04  0.00000000000E+00 0.  1.
         13    1    5    5    0    0  0.64648257106E+01 -0.40421872410E+02  0.36549218654E+02  0.54877747082E+02  0.00000000000E+00 0.  1.
        -13    1    5    5    0    0 -0.16777075500E+03 -0.18649679027E+03  0.10741351620E+03  0.27288411914E+03  0.00000000000E+00 0. -1.
          2    1    6    6  503    0  0.62219382043E+03  0.45775643763E+03  0.55489373486E+03  0.95109051271E+03  0.00000000000E+00 0. -1.
         -2    1    6    6    0  503  0.53216295627E+02  0.78074840642E+02  0.66389990534E+02  0.11547850754E+03  0.00000000000E+00 0.  1.
<mgrwt>
<rscale>  0 0.31351824E+04</rscale>
<asrwt>0</asrwt>
<pdfrwt beam="1">  1        2 0.17368455E+00 0.31351824E+04</pdfrwt>
<pdfrwt beam="2">  1       -1 0.33487114E+00 0.31351824E+04</pdfrwt>
<totfact> 0.39433652E-01</totfact>
</mgrwt>
</event>
<event>
12    7  0.1698542E-007  0.1694116E+04  0.7818608E-02  0.8764727E-01
          2   -1    0    0  501    0  0.00000000000E+00  0.00000000000E+00  0.21607313918E+04  0.21607313918E+04  0.00000000000E+00 0. -1.
         -1   -1    0    0    0  501 -0.00000000000E+00 -0.00000000000E+00 -0.33206703870E+03  0.33206703870E+03  0.00000000000E+00 0.  1.
         24    2    1    2    0    0  0.59615496954E+02  0.19224988256E+03 -0.17937089812E+03  0.28078746554E+03  0.78445247742E+02 0.  0.
        254    2    1    2    0    0 -0.59615496954E+02 -0.19224988256E+03  0.20080352513E+04  0.22120109650E+04  0.90568919289E+03 0.  0.
         23    2    4    4    0    0 -0.42968258901E+03 -0.21698446039E+03  0.74545650321E+03  0.89276120493E+03  0.98019322079E+02 0.  0.
         23    2    4    4    0    0  0.37006709206E+03  0.24734577831E+02  0.12625787481E+04  0.13192497601E+04  0.93559512780E+02 0.  0.
          4    1    3    3  502    0  0.45622155602E+02  0.44073887727E+02 -0.78795068102E+02  0.10115607455E+03  0.00000000000E+00 0. -1.
         -1    1    3    3    0  502  0.13993341352E+02  0.14817599483E+03 -0.10057583002E+03  0.17963139099E+03  0.00000000000E+00 0.  1.
         13    1    5    5    0    0 -0.43372432217E+03 -0.20948350648E+03  0.73882049527E+03  0.88196136614E+03  0.00000000000E+00 0. -1.
        -13    1    5    5    0    0  0.40417331639E+01 -0.75009539070E+01  0.66360079369E+01  0.10799838787E+02  0.00000000000E+00 0.  1.
          3    1    6    6  503    0  0.28886768987E+03  0.57634200377E+02  0.99587929241E+03  0.10385286748E+04  0.00000000000E+00 0. -1.
         -3    1    6    6    0  503  0.81199402186E+02 -0.32899622546E+02  0.26669945565E+03  0.28072108528E+03  0.00000000000E+00 0.  1.
<mgrwt>
<rscale>  0 0.16941165E+04</rscale>
<asrwt>0</asrwt>
<pdfrwt beam="1">  1        2 0.33242020E+00 0.16941165E+04</pdfrwt>
<pdfrwt beam="2">  1       -1 0.51087238E-01 0.16941165E+04</pdfrwt>
<totfact> 0.22701102E+01</totfact>
</mgrwt>
</event>
<event>
12    7  0.1698542E-007  0.1588650E+04  0.7818608E-02  0.8827551E-01
          2   -1    0    0  501    0  0.00000000000E+00  0.00000000000E+00  0.49359206567E+04  0.49359206567E+04  0.00000000000E+00 0. -1.
         -1   -1    0    0    0  501 -0.00000000000E+00 -0.00000000000E+00 -0.12782861664E+03  0.12782861664E+03  0.00000000000E+00 0.  1.
         24    2    1    2    0    0  0.15943533544E+03 -0.47667667893E+03  0.10765658087E+04  0.11909718047E+04  0.82338427989E+02 0.  0.
        254    2    1    2    0    0 -0.15943533544E+03  0.47667667893E+03  0.37315262314E+04  0.38727774686E+04  0.90635369682E+03 0.  0.
         23    2    4    4    0    0 -0.30969304557E+03  0.39941030202E+02  0.28925528545E+04  0.29107626329E+04  0.90399229479E+02 0.  0.
         23    2    4    4    0    0  0.15025771013E+03  0.43673564872E+03  0.83897337683E+03  0.96201483569E+03  0.90998960071E+02 0.  0.
          4    1    3    3  502    0  0.11731679749E+03 -0.23301395833E+03  0.51220011547E+03  0.57481100723E+03  0.00000000000E+00 0. -1.
         -3    1    3    3    0  502  0.42118537954E+02 -0.24366272059E+03  0.56436569319E+03  0.61616079743E+03  0.00000000000E+00 0.  1.
         13    1    5    5    0    0 -0.21816251094E+03  0.49931427534E+02  0.23300903307E+04  0.23408137427E+04  0.00000000000E+00 0. -1.
        -13    1    5    5    0    0 -0.91530534626E+02 -0.99903973323E+01  0.56246252382E+03  0.56994889026E+03  0.00000000000E+00 0.  1.
          1    1    6    6  503    0  0.88969908063E+02  0.36408364225E+03  0.69212429632E+03  0.78708867649E+03  0.00000000000E+00 0. -1.
         -1    1    6    6    0  503  0.61287802064E+02  0.72652006474E+02  0.14684908051E+03  0.17492615920E+03  0.00000000000E+00 0.  1.
<mgrwt>
<rscale>  0 0.15886496E+04</rscale>
<asrwt>0</asrwt>
<pdfrwt beam="1">  1        2 0.75937226E+00 0.15886496E+04</pdfrwt>
<pdfrwt beam="2">  1       -1 0.19665945E-01 0.15886496E+04</pdfrwt>
<totfact> 0.99025641E-01</totfact>
</mgrwt>
</event>
<event>
12    7  0.1698542E-007  0.1349016E+04  0.7818608E-02  0.8991573E-01
         -1   -1    0    0    0  501 -0.00000000000E+00  0.00000000000E+00  0.11110575231E+04  0.11110575231E+04  0.00000000000E+00 0.  1.
          2   -1    0    0  501    0  0.00000000000E+00 -0.00000000000E+00 -0.40948466631E+03  0.40948466631E+03  0.00000000000E+00 0. -1.
         24    2    1    2    0    0 -0.23062429577E+03  0.28132036976E+03  0.21633674632E+03  0.43076757981E+03  0.80189798373E+02 0.  0.
        254    2    1    2    0    0  0.23062429577E+03 -0.28132036976E+03  0.48523611049E+03  0.10897746096E+04  0.90544237840E+03 0.  0.
         23    2    4    4    0    0  0.40274268578E+03 -0.33753313049E+03 -0.31332143463E+02  0.53487575645E+03  0.94763318292E+02 0.  0.
         23    2    4    4    0    0 -0.17211839002E+03  0.56212760727E+02  0.51656825395E+03  0.55489885317E+03  0.91023961693E+02 0.  0.
          2    1    3    3  502    0 -0.17046212929E+03  0.16363614158E+03  0.16845289482E+03  0.29019045836E+03  0.00000000000E+00 0. -1.
         -1    1    3    3    0  502 -0.60162166475E+02  0.11768422819E+03  0.47883851503E+02  0.14057712144E+03  0.00000000000E+00 0.  1.
         13    1    5    5    0    0  0.17594203945E+02 -0.19586182680E+02  0.19647720751E+02  0.32851293660E+02  0.00000000000E+00 0.  1.
        -13    1    5    5    0    0  0.38514848184E+03 -0.31794694781E+03 -0.50979864214E+02  0.50202446279E+03  0.00000000000E+00 0. -1.
          3    1    6    6  503    0 -0.11993330774E+03 -0.71182631134E+01  0.28853483562E+03  0.31254922707E+03  0.00000000000E+00 0. -1.
         -3    1    6    6    0  503 -0.52185082280E+02  0.63331023841E+02  0.22803341834E+03  0.24234962610E+03  0.00000000000E+00 0.  1.
<mgrwt>
<rscale>  0 0.13490160E+04</rscale>
<asrwt>0</asrwt>
<pdfrwt beam="1">  1        2 0.62997641E-01 0.13490160E+04</pdfrwt>
<pdfrwt beam="2">  1       -1 0.17093193E+00 0.13490160E+04</pdfrwt>
<totfact> 0.20963480E+01</totfact>
</mgrwt>
</event>
<event>
12    7  0.1698542E-007  0.1659521E+04  0.7818608E-02  0.8784794E-01
          2   -1    0    0  501    0  0.00000000000E+00  0.00000000000E+00  0.41266268707E+03  0.41266268707E+03  0.00000000000E+00 0. -1.
         -1   -1    0    0    0  501 -0.00000000000E+00 -0.00000000000E+00 -0.16684389030E+04  0.16684389030E+04  0.00000000000E+00 0.  1.
         24    2    1    2    0    0 -0.31950749023E+03 -0.46889749662E+03 -0.30564517367E+03  0.64934568376E+03  0.79252420597E+02 0.  0.
        254    2    1    2    0    0  0.31950749023E+03  0.46889749662E+03 -0.95013104221E+03  0.14317559063E+04  0.90841955014E+03 0.  0.
         23    2    4    4    0    0  0.26601539356E+03 -0.22621874940E+03 -0.24908269655E+03  0.43896024400E+03  0.93299485020E+02 0.  0.
         23    2    4    4    0    0  0.53492096676E+02  0.69511624602E+03 -0.70104834567E+03  0.99279566226E+03  0.90146792224E+02 0.  0.
          4    1    3    3  502    0 -0.18439696338E+03 -0.33019883620E+03 -0.18303147143E+03  0.42015953049E+03  0.00000000000E+00 0. -1.
         -3    1    3    3    0  502 -0.13511052685E+03 -0.13869866042E+03 -0.12261370224E+03  0.22918615326E+03  0.00000000000E+00 0.  1.
         13    1    5    5    0    0  0.14566099653E+03 -0.10895708500E+03 -0.18407308503E+03  0.25878885779E+03  0.00000000000E+00 0.  1.
        -13    1    5    5    0    0  0.12035439702E+03 -0.11726166440E+03 -0.65009611520E+02  0.18017138622E+03  0.00000000000E+00 0. -1.
          3    1    6    6  503    0 -0.31590364059E+01 -0.17311248281E+01 -0.19888503717E+01  0.41148304929E+01  0.00000000000E+00 0. -1.
         -3    1    6    6    0  503  0.56651133082E+02  0.69684737085E+03 -0.69905949530E+03  0.98868083177E+03  0.00000000000E+00 0.  1.
<mgrwt>
<rscale>  0 0.16595210E+04</rscale>
<asrwt>0</asrwt>
<pdfrwt beam="1">  1        2 0.63486566E-01 0.16595210E+04</pdfrwt>
<pdfrwt beam="2">  1       -1 0.25668291E+00 0.16595210E+04</pdfrwt>
<totfact> 0.52864611E+00</totfact>
</mgrwt>
</event>
<event>
12    7  0.1698542E-007  0.2723110E+04  0.7818608E-02  0.8327545E-01
         -1   -1    0    0    0  501 -0.00000000000E+00  0.00000000000E+00  0.87840965959E+03  0.87840965959E+03  0.00000000000E+00 0.  1.
          2   -1    0    0  501    0  0.00000000000E+00 -0.00000000000E+00 -0.21104414217E+04  0.21104414217E+04  0.00000000000E+00 0. -1.
         24    2    1    2    0    0  0.20094933620E+03 -0.11902825064E+04 -0.63487205519E+03  0.13662259538E+04  0.79735497616E+02 0.  0.
        254    2    1    2    0    0 -0.20094933620E+03  0.11902825064E+04 -0.59715970687E+03  0.16226251274E+04  0.90507431062E+03 0.  0.
         23    2    4    4    0    0 -0.45415761956E+03  0.85331055845E+03 -0.67750363131E+03  0.11839324438E+04  0.91031908846E+02 0.  0.
         23    2    4    4    0    0  0.25320828336E+03  0.33697194799E+03  0.80343924435E+02  0.43869268364E+03  0.91277576590E+02 0.  0.
          2    1    3    3  502    0  0.14031361306E+02 -0.46908372625E+02 -0.10258730819E+02  0.50025154477E+02  0.00000000000E+00 0. -1.
         -1    1    3    3    0  502  0.18691797490E+03 -0.11433741338E+04 -0.62461332438E+03  0.13162007994E+04  0.00000000000E+00 0.  1.
         13    1    5    5    0    0 -0.29876001673E+03  0.46956602521E+03 -0.40425421447E+03  0.68787445769E+03  0.00000000000E+00 0.  1.
        -13    1    5    5    0    0 -0.15539760283E+03  0.38374453325E+03 -0.27324941684E+03  0.49605798609E+03  0.00000000000E+00 0. -1.
          1    1    6    6  503    0  0.23003280784E+02  0.87859687850E+02  0.34098743146E+01  0.90885108344E+02  0.00000000000E+00 0. -1.
         -1    1    6    6    0  503  0.23020500257E+03  0.24911226014E+03  0.76934050121E+02  0.34780757529E+03  0.00000000000E+00 0.  1.
<mgrwt>
<rscale>  0 0.27231101E+04</rscale>
<asrwt>0</asrwt>
<pdfrwt beam="1">  1        2 0.32468329E+00 0.27231101E+04</pdfrwt>
<pdfrwt beam="2">  1       -1 0.13513995E+00 0.27231101E+04</pdfrwt>
<totfact> 0.26526294E+00</totfact>
</mgrwt>
</event>
<event>
12    7  0.1698542E-007  0.1329018E+04  0.7818608E-02  0.9006865E-01
         -1   -1    0    0    0  501 -0.00000000000E+00  0.00000000000E+00  0.22534672031E+03  0.22534672031E+03  0.00000000000E+00 0.  1.
          2   -1    0    0  501    0  0.00000000000E+00 -0.00000000000E+00 -0.19595236444E+04  0.19595236444E+04  0.00000000000E+00 0. -1.
         24    2    1    2    0    0 -0.22772789898E+03 -0.19130918998E+03 -0.75147206897E+03  0.81142606699E+03  0.72407110173E+02 0.  0.
        254    2    1    2    0    0  0.22772789898E+03  0.19130918998E+03 -0.98270485512E+03  0.13734442977E+04  0.91223966396E+03 0.  0.
         23    2    4    4    0    0  0.35532726672E+03  0.40521330738E+03 -0.26306195921E+03  0.60645853284E+03  0.90194604697E+02 0.  0.
         23    2    4    4    0    0 -0.12759936774E+03 -0.21390411740E+03 -0.71964289591E+03  0.76698576487E+03  0.91349306497E+02 0.  0.
          2    1    3    3  502    0 -0.16343841417E+03 -0.12160496710E+03 -0.58988012358E+03  0.62406605696E+03  0.00000000000E+00 0. -1.
         -1    1    3    3    0  502 -0.64289484817E+02 -0.69704222883E+02 -0.16159194539E+03  0.18736001003E+03  0.00000000000E+00 0.  1.
         13    1    5    5    0    0  0.34666467867E+03  0.38368991939E+03 -0.26846184800E+03  0.58263720918E+03  0.00000000000E+00 0. -1.
        -13    1    5    5    0    0  0.86625880454E+01  0.21523387988E+02  0.53998887900E+01  0.23821323663E+02  0.00000000000E+00 0.  1.
          1    1    6    6  503    0 -0.13907125269E+03 -0.21204174294E+03 -0.69204354270E+03  0.73703919778E+03  0.00000000000E+00 0. -1.
         -1    1    6    6    0  503  0.11471884955E+02 -0.18623744661E+01 -0.27599353212E+02  0.29946567096E+02  0.00000000000E+00 0.  1.
<mgrwt>
<rscale>  0 0.13290180E+04</rscale>
<asrwt>0</asrwt>
<pdfrwt beam="1">  1        2 0.30146519E+00 0.13290180E+04</pdfrwt>
<pdfrwt beam="2">  1       -1 0.34668724E-01 0.13290180E+04</pdfrwt>
<totfact> 0.61932209E+01</totfact>
</mgrwt>
</event>
<event>
12    7  0.1704445E-007  0.1758504E+04  0.7818608E-02  0.8728683E-01
          2   -1    0    0  501    0  0.00000000000E+00  0.00000000000E+00  0.12844635981E+04  0.12844635981E+04  0.00000000000E+00 0. -1.
         -1   -1    0    0    0  501 -0.00000000000E+00 -0.00000000000E+00 -0.60187292554E+03  0.60187292554E+03  0.00000000000E+00 0.  1.
         24    2    1    2    0    0 -0.64343296834E+03 -0.10805317709E+03  0.34366784303E+03  0.74171394306E+03  0.79690107099E+02 0.  0.
        254    2    1    2    0    0  0.64343296834E+03  0.10805317709E+03  0.33892282951E+03  0.11446225806E+04  0.87727458287E+03 0.  0.
         23    2    4    4    0    0  0.31040303242E+03  0.43755388992E+03 -0.24460905455E+02  0.54471618944E+03  0.91180820482E+02 0.  0.
         23    2    4    4    0    0  0.33302993592E+03 -0.32950071283E+03  0.36338373497E+03  0.59990639112E+03  0.91434573865E+02 0.  0.
          2    1    3    3  502    0 -0.60012484593E+03 -0.11788800929E+03  0.33154092887E+03  0.69567722470E+03  0.00000000000E+00 0. -1.
         -3    1    3    3    0  502 -0.43308122409E+02  0.98348321986E+01  0.12126914155E+02  0.46036718366E+02  0.00000000000E+00 0.  1.
         13    1    5    5    0    0  0.21635537858E+02  0.18992650131E+02 -0.21949522367E+02  0.36202193159E+02  0.00000000000E+00 0. -1.
        -13    1    5    5    0    0  0.28876749456E+03  0.41856123979E+03 -0.25113830878E+01  0.50851399629E+03  0.00000000000E+00 0.  1.
          4    1    6    6  503    0  0.57614636222E+01 -0.10283232037E+01 -0.50039830398E+01  0.77001141513E+01  0.00000000000E+00 0. -1.
         -4    1    6    6    0  503  0.32726847230E+03 -0.32847238962E+03  0.36838771801E+03  0.59220627697E+03  0.00000000000E+00 0.  1.
<mgrwt>
<rscale>  0 0.17585038E+04</rscale>
<asrwt>0</asrwt>
<pdfrwt beam="1">  1        2 0.19760978E+00 0.17585038E+04</pdfrwt>
<pdfrwt beam="2">  1       -1 0.92595835E-01 0.17585038E+04</pdfrwt>
<totfact> 0.20673166E+01</totfact>
</mgrwt>
</event>
<event>
12    7  0.1698542E-007  0.1035793E+04  0.7818608E-02  0.9270136E-01
         -1   -1    0    0    0  501 -0.00000000000E+00  0.00000000000E+00  0.19836337723E+03  0.19836337723E+03  0.00000000000E+00 0.  1.
          2   -1    0    0  501    0  0.00000000000E+00 -0.00000000000E+00 -0.13521497727E+04  0.13521497727E+04  0.00000000000E+00 0. -1.
         24    2    1    2    0    0 -0.26628319030E+02  0.30468594066E+02 -0.28315174757E+03  0.29714229806E+03  0.80506090128E+02 0.  0.
        254    2    1    2    0    0  0.26628319030E+02 -0.30468594066E+02 -0.87063464786E+03  0.12533708518E+04  0.90071993404E+03 0.  0.
         23    2    4    4    0    0 -0.12324220451E+03 -0.11088473597E+03 -0.10020986494E+04  0.10200056439E+04  0.93411696052E+02 0.  0.
         23    2    4    4    0    0  0.14987052354E+03  0.80416141908E+02  0.13146400151E+03  0.23336520790E+03  0.90821841313E+02 0.  0.
          4    1    3    3  502    0 -0.45146682184E+02 -0.76449807786E+01 -0.17746726344E+03  0.18327929026E+03  0.00000000000E+00 0. -1.
         -3    1    3    3    0  502  0.18518363154E+02  0.38113574845E+02 -0.10568448413E+03  0.11386300781E+03  0.00000000000E+00 0.  1.
         13    1    5    5    0    0 -0.73308566907E+02 -0.60455288391E+02 -0.30892039203E+03  0.32320395494E+03  0.00000000000E+00 0.  1.
        -13    1    5    5    0    0 -0.49933637601E+02 -0.50429447583E+02 -0.69317825734E+03  0.69680168900E+03  0.00000000000E+00 0. -1.
          2    1    6    6  503    0  0.91589173515E+02  0.14987848404E+02  0.10851285723E+03  0.14278743814E+03  0.00000000000E+00 0. -1.
         -2    1    6    6    0  503  0.58281350022E+02  0.65428293504E+02  0.22951144278E+02  0.90577769761E+02  0.00000000000E+00 0.  1.
<mgrwt>
<rscale>  0 0.10357934E+04</rscale>
<asrwt>0</asrwt>
<pdfrwt beam="1">  1        2 0.20802305E+00 0.10357934E+04</pdfrwt>
<pdfrwt beam="2">  1       -1 0.30517442E-01 0.10357934E+04</pdfrwt>
<totfact> 0.17314187E+02</totfact>
</mgrwt>
</event>
<event>
12    7  0.1698542E-007  0.1586697E+04  0.7818608E-02  0.8828763E-01
         -1   -1    0    0    0  501 -0.00000000000E+00  0.00000000000E+00  0.48655421544E+03  0.48655421544E+03  0.00000000000E+00 0.  1.
          2   -1    0    0  501    0  0.00000000000E+00 -0.00000000000E+00 -0.12935899203E+04  0.12935899203E+04  0.00000000000E+00 0. -1.
         24    2    1    2    0    0 -0.51401486019E+03 -0.10040012253E+03 -0.13015702465E+03  0.54549022010E+03  0.79544126500E+02 0.  0.
        254    2    1    2    0    0  0.51401486019E+03  0.10040012253E+03 -0.67687868018E+03  0.12346539156E+04  0.88989554587E+03 0.  0.
         23    2    4    4    0    0  0.32593243925E+03  0.48690295929E+03 -0.39973341504E+03  0.71499999914E+03  0.90176210609E+02 0.  0.
         23    2    4    4    0    0  0.18808242094E+03 -0.38650283675E+03 -0.27714526514E+03  0.51965391647E+03  0.92039421047E+02 0.  0.
          2    1    3    3  502    0 -0.13430094054E+02 -0.15323628480E+02  0.29049652651E+01  0.20582027093E+02  0.00000000000E+00 0. -1.
         -1    1    3    3    0  502 -0.50058476613E+03 -0.85076494055E+02 -0.13306198991E+03  0.52490819301E+03  0.00000000000E+00 0.  1.
         13    1    5    5    0    0  0.24489294531E+03  0.42536587402E+03 -0.32327773799E+03  0.58772202386E+03  0.00000000000E+00 0. -1.
        -13    1    5    5    0    0  0.81039493935E+02  0.61537085267E+02 -0.76455677047E+02  0.12727797529E+03  0.00000000000E+00 0.  1.
          3    1    6    6  503    0  0.93808397523E+02 -0.27322460734E+03 -0.21304015976E+03  0.35893984339E+03  0.00000000000E+00 0. -1.
         -3    1    6    6    0  503  0.94274023416E+02 -0.11327822942E+03 -0.64105105384E+02  0.16071407309E+03  0.00000000000E+00 0.  1.
<mgrwt>
<rscale>  0 0.15866967E+04</rscale>
<asrwt>0</asrwt>
<pdfrwt beam="1">  1        2 0.19901383E+00 0.15866967E+04</pdfrwt>
<pdfrwt beam="2">  1       -1 0.74854496E-01 0.15866967E+04</pdfrwt>
<totfact> 0.32758557E+01</totfact>
</mgrwt>
</event>
<event>
12    7  0.1698542E-007  0.2099379E+04  0.7818608E-02  0.8561517E-01
          2   -1    0    0  501    0  0.00000000000E+00  0.00000000000E+00  0.24769902724E+04  0.24769902724E+04  0.00000000000E+00 0. -1.
         -1   -1    0    0    0  501 -0.00000000000E+00 -0.00000000000E+00 -0.44483362355E+03  0.44483362355E+03  0.00000000000E+00 0.  1.
         24    2    1    2    0    0  0.42436481786E+03  0.65057999883E+03  0.13396012500E+04  0.15505769738E+04  0.80109982006E+02 0.  0.
        254    2    1    2    0    0 -0.42436481786E+03 -0.65057999883E+03  0.69255539881E+03  0.13712469221E+04  0.89294193956E+03 0.  0.
         23    2    4    4    0    0 -0.34516665375E+03 -0.73544332225E+03  0.83329562133E+03  0.11674937900E+04  0.92969124334E+02 0.  0.
         23    2    4    4    0    0 -0.79198164111E+02  0.84863323411E+02 -0.14074022251E+03  0.20375313210E+03  0.90738061190E+02 0.  0.
          2    1    3    3  502    0  0.24864487542E+03  0.30812747748E+03  0.68578189954E+03  0.79187349380E+03  0.00000000000E+00 0. -1.
         -1    1    3    3    0  502  0.17571994244E+03  0.34245252136E+03  0.65381935050E+03  0.75870348005E+03  0.00000000000E+00 0.  1.
         13    1    5    5    0    0 -0.27706047454E+03 -0.59023083404E+03  0.71855687804E+03  0.97028806598E+03  0.00000000000E+00 0.  1.
        -13    1    5    5    0    0 -0.68106179205E+02 -0.14521248820E+03  0.11473874329E+03  0.19720572402E+03  0.00000000000E+00 0. -1.
          4    1    6    6  503    0 -0.29703890126E+02 -0.16540674557E+02 -0.25773069876E+02  0.42663405094E+02  0.00000000000E+00 0. -1.
         -4    1    6    6    0  503 -0.49494273985E+02  0.10140399797E+03 -0.11496715264E+03  0.16108972701E+03  0.00000000000E+00 0.  1.
<mgrwt>
<rscale>  0 0.20993795E+04</rscale>
<asrwt>0</asrwt>
<pdfrwt beam="1">  1        2 0.38107542E+00 0.20993795E+04</pdfrwt>
<pdfrwt beam="2">  1       -1 0.68435943E-01 0.20993795E+04</pdfrwt>
<totfact> 0.81393993E+00</totfact>
</mgrwt>
</event>
<event>
12    7  0.1698542E-007  0.2130343E+04  0.7818608E-02  0.8547994E-01
         -1   -1    0    0    0  501 -0.00000000000E+00  0.00000000000E+00  0.91701034603E+03  0.91701034603E+03  0.00000000000E+00 0.  1.
          2   -1    0    0  501    0  0.00000000000E+00 -0.00000000000E+00 -0.12372707379E+04  0.12372707379E+04  0.00000000000E+00 0. -1.
         24    2    1    2    0    0 -0.54046383464E+03  0.67727672998E+03 -0.21207823527E+03  0.89631830231E+03  0.87203186030E+02 0.  0.
        254    2    1    2    0    0  0.54046383464E+03 -0.67727672998E+03 -0.10818215656E+03  0.12579627816E+04  0.90551756212E+03 0.  0.
         23    2    4    4    0    0 -0.21110196401E+03 -0.32493689479E+03 -0.14021980417E+03  0.42178133186E+03  0.89943724757E+02 0.  0.
         23    2    4    4    0    0  0.75156579865E+03 -0.35233983519E+03  0.32037647616E+02  0.83618144972E+03  0.95804471820E+02 0.  0.
          4    1    3    3  502    0 -0.17735053518E+03  0.26178334595E+03 -0.11239847156E+03  0.33558478653E+03  0.00000000000E+00 0. -1.
         -3    1    3    3    0  502 -0.36311329947E+03  0.41549338403E+03 -0.99679763704E+02  0.56073351578E+03  0.00000000000E+00 0.  1.
         13    1    5    5    0    0 -0.10301604303E+03 -0.21688727666E+03 -0.53269573182E+02  0.24594723687E+03  0.00000000000E+00 0. -1.
        -13    1    5    5    0    0 -0.10808592098E+03 -0.10804961813E+03 -0.86950230991E+02  0.17583409499E+03  0.00000000000E+00 0.  1.
          3    1    6    6  503    0  0.62615380920E+03 -0.32416851851E+03  0.47650209325E+02  0.70669962758E+03  0.00000000000E+00 0. -1.
         -3    1    6    6    0  503  0.12541198945E+03 -0.28171316683E+02 -0.15612561709E+02  0.12948182214E+03  0.00000000000E+00 0.  1.
<mgrwt>
<rscale>  0 0.21303428E+04</rscale>
<asrwt>0</asrwt>
<pdfrwt beam="1">  1        2 0.19034935E+00 0.21303428E+04</pdfrwt>
<pdfrwt beam="2">  1       -1 0.14107851E+00 0.21303428E+04</pdfrwt>
<totfact> 0.77481821E+00</totfact>
</mgrwt>
</event>
<event>
12    7  0.1698542E-007  0.3288779E+04  0.7818608E-02  0.8165756E-01
         -1   -1    0    0    0  501 -0.00000000000E+00  0.00000000000E+00  0.11761145688E+04  0.11761145688E+04  0.00000000000E+00 0.  1.
          2   -1    0    0  501    0  0.00000000000E+00 -0.00000000000E+00 -0.22991099333E+04  0.22991099333E+04  0.00000000000E+00 0. -1.
         24    2    1    2    0    0  0.36748795190E+02 -0.91243820535E+03  0.76360238801E+03  0.11930073575E+04  0.79271656533E+02 0.  0.
        254    2    1    2    0    0 -0.36748795190E+02  0.91243820535E+03 -0.18865977525E+04  0.22822171446E+04  0.90297843991E+03 0.  0.
         23    2    4    4    0    0  0.78937567923E+02  0.91072236178E+03 -0.90414924533E+03  0.12890258354E+04  0.91953176053E+02 0.  0.
         23    2    4    4    0    0 -0.11568636311E+03  0.17158435785E+01 -0.98244850720E+03  0.99319130927E+03  0.88530383326E+02 0.  0.
          2    1    3    3  502    0 -0.59810590509E+01 -0.14513892943E+03  0.88478012540E+02  0.17008656798E+03  0.00000000000E+00 0. -1.
         -1    1    3    3    0  502  0.42729854241E+02 -0.76729927593E+03  0.67512437547E+03  0.10229207895E+04  0.00000000000E+00 0.  1.
         13    1    5    5    0    0  0.69754474170E+02  0.55496695577E+03 -0.60694262722E+03  0.82536862153E+03  0.00000000000E+00 0. -1.
        -13    1    5    5    0    0  0.91830937529E+01  0.35575540600E+03 -0.29720661811E+03  0.46365721385E+03  0.00000000000E+00 0.  1.
          1    1    6    6  503    0 -0.63914934409E+02 -0.35536977069E+02 -0.35147280634E+03  0.35900017991E+03  0.00000000000E+00 0. -1.
         -1    1    6    6    0  503 -0.51771428704E+02  0.37252820648E+02 -0.63097570086E+03  0.63419112935E+03  0.00000000000E+00 0.  1.
<mgrwt>
<rscale>  0 0.32887789E+04</rscale>
<asrwt>0</asrwt>
<pdfrwt beam="1">  1        2 0.35370922E+00 0.32887789E+04</pdfrwt>
<pdfrwt beam="2">  1       -1 0.18094070E+00 0.32887789E+04</pdfrwt>
<totfact> 0.88376113E-01</totfact>
</mgrwt>
</event>
<event>
12    7  0.1698542E-007  0.2610877E+04  0.7818608E-02  0.8364516E-01
          2   -1    0    0  501    0  0.00000000000E+00  0.00000000000E+00  0.14316094129E+04  0.14316094129E+04  0.00000000000E+00 0. -1.
         -3   -1    0    0    0  501 -0.00000000000E+00 -0.00000000000E+00 -0.11903877120E+04  0.11903877120E+04  0.00000000000E+00 0.  1.
         24    2    1    2    0    0  0.35737092035E+03  0.51457965766E+03 -0.85875630726E+03  0.10659975561E+04  0.79888644663E+02 0.  0.
        254    2    1    2    0    0 -0.35737092035E+03 -0.51457965766E+03  0.10999780081E+04  0.15559995688E+04  0.90480762653E+03 0.  0.
         23    2    4    4    0    0 -0.10206185757E+03  0.16870508425E+03 -0.18216734319E+02  0.21791791618E+03  0.90985386519E+02 0.  0.
         23    2    4    4    0    0 -0.25530906278E+03 -0.68328474191E+03  0.11181947424E+04  0.13380816526E+04  0.89678710164E+02 0.  0.
          2    1    3    3  502    0  0.97787417651E+02  0.97677868109E+02 -0.15303995741E+03  0.20621487224E+03  0.00000000000E+00 0. -1.
         -1    1    3    3    0  502  0.25958350269E+03  0.41690178955E+03 -0.70571634985E+03  0.85978268385E+03  0.00000000000E+00 0.  1.
         13    1    5    5    0    0 -0.86568990858E+02  0.13578608451E+03  0.23304559165E+02  0.16271187235E+03  0.00000000000E+00 0. -1.
        -13    1    5    5    0    0 -0.15492866707E+02  0.32918999739E+02 -0.41521293484E+02  0.55206043828E+02  0.00000000000E+00 0.  1.
          4    1    6    6  503    0 -0.11368942698E+03 -0.22376373824E+03  0.44307092077E+03  0.50922228662E+03  0.00000000000E+00 0.  1.
         -4    1    6    6    0  503 -0.14161963580E+03 -0.45952100367E+03  0.67512382164E+03  0.82885936600E+03  0.00000000000E+00 0. -1.
<mgrwt>
<rscale>  0 0.26108774E+04</rscale>
<asrwt>0</asrwt>
<pdfrwt beam="1">  1        2 0.22024760E+00 0.26108774E+04</pdfrwt>
<pdfrwt beam="2">  1       -3 0.18313657E+00 0.26108774E+04</pdfrwt>
<totfact> 0.14600829E+00</totfact>
</mgrwt>
</event>
<event>
12    7  0.1698542E-007  0.1308394E+04  0.7818608E-02  0.9022935E-01
          2   -1    0    0  501    0  0.00000000000E+00  0.00000000000E+00  0.98500458070E+03  0.98500458070E+03  0.00000000000E+00 0. -1.
         -1   -1    0    0    0  501 -0.00000000000E+00 -0.00000000000E+00 -0.43448928609E+03  0.43448928609E+03  0.00000000000E+00 0.  1.
         24    2    1    2    0    0  0.26165845321E+03  0.18631687867E+03  0.26950841183E+03  0.42659991857E+03  0.78572139246E+02 0.  0.
        254    2    1    2    0    0 -0.26165845321E+03 -0.18631687867E+03  0.28100688277E+03  0.99289394822E+03  0.89649004391E+03 0.  0.
         23    2    4    4    0    0  0.85369784626E+02  0.67379760019E+02 -0.25967176873E+03  0.29611338370E+03  0.91791482968E+02 0.  0.
         23    2    4    4    0    0 -0.34702823784E+03 -0.25369663869E+03  0.54067865150E+03  0.69678056451E+03  0.91537798500E+02 0.  0.
          2    1    3    3  502    0  0.25507790239E+03  0.19194702741E+03  0.25073989888E+03  0.40592966695E+03  0.00000000000E+00 0. -1.
         -1    1    3    3    0  502  0.65805508148E+01 -0.56301487350E+01  0.18768512949E+02  0.20670251622E+02  0.00000000000E+00 0.  1.
         13    1    5    5    0    0  0.43338107559E+02  0.26260611673E+02 -0.29683505163E+02  0.58727521411E+02  0.00000000000E+00 0. -1.
        -13    1    5    5    0    0  0.42031677067E+02  0.41119148346E+02 -0.22998826357E+03  0.23738586229E+03  0.00000000000E+00 0.  1.
          3    1    6    6  503    0 -0.21476780570E+03 -0.14815005749E+03  0.25548619596E+03  0.36516687448E+03  0.00000000000E+00 0. -1.
         -3    1    6    6    0  503 -0.13226043214E+03 -0.10554658120E+03  0.28519245555E+03  0.33161369003E+03  0.00000000000E+00 0.  1.
<mgrwt>
<rscale>  0 0.13083943E+04</rscale>
<asrwt>0</asrwt>
<pdfrwt beam="1">  1        2 0.15153917E+00 0.13083943E+04</pdfrwt>
<pdfrwt beam="2">  1       -1 0.66844506E-01 0.13083943E+04</pdfrwt>
<totfact> 0.65278052E+01</totfact>
</mgrwt>
</event>
<event>
12    7  0.1698542E-007  0.1192166E+04  0.7818608E-02  0.9119742E-01
          2   -1    0    0  501    0  0.00000000000E+00  0.00000000000E+00  0.46675816232E+03  0.46675816232E+03  0.00000000000E+00 0. -1.
         -1   -1    0    0    0  501 -0.00000000000E+00 -0.00000000000E+00 -0.76123969258E+03  0.76123969258E+03  0.00000000000E+00 0.  1.
         24    2    1    2    0    0 -0.21654185844E+03  0.14942310987E+02  0.33894354866E+02  0.24183704532E+03  0.10110727020E+03 0.  0.
        254    2    1    2    0    0  0.21654185844E+03 -0.14942310987E+02 -0.32837588512E+03  0.98616080958E+03  0.90419509582E+03 0.  0.
         23    2    4    4    0    0 -0.32479539083E+01  0.40538466897E+03 -0.29469423322E+02  0.41673406622E+03  0.91932344675E+02 0.  0.
         23    2    4    4    0    0  0.21978981234E+03 -0.42032697995E+03 -0.29890646180E+03  0.56942674336E+03  0.99596242202E+02 0.  0.
          4    1    3    3  502    0 -0.20402242353E+03  0.41360830461E+02  0.19030938588E+02  0.20904077168E+03  0.00000000000E+00 0. -1.
         -3    1    3    3    0  502 -0.12519434902E+02 -0.26418519473E+02  0.14863416279E+02  0.32796273644E+02  0.00000000000E+00 0.  1.
         13    1    5    5    0    0  0.44268204907E+02  0.18223290366E+03 -0.14154443245E+02  0.18806608787E+03  0.00000000000E+00 0. -1.
        -13    1    5    5    0    0 -0.47516158816E+02  0.22315176531E+03 -0.15314980077E+02  0.22866797835E+03  0.00000000000E+00 0.  1.
          4    1    6    6  503    0  0.18033587858E+03 -0.39753666604E+03 -0.25204698476E+03  0.50406756737E+03  0.00000000000E+00 0. -1.
         -4    1    6    6    0  503  0.39453933759E+02 -0.22790313915E+02 -0.46859477037E+02  0.65359175986E+02  0.00000000000E+00 0.  1.
<mgrwt>
<rscale>  0 0.11921658E+04</rscale>
<asrwt>0</asrwt>
<pdfrwt beam="1">  1        2 0.71808949E-01 0.11921658E+04</pdfrwt>
<pdfrwt beam="2">  1       -1 0.11711380E+00 0.11921658E+04</pdfrwt>
<totfact> 0.49493821E+01</totfact>
</mgrwt>
</event>
<event>
12    7  0.1698542E-007  0.1928130E+04  0.7818608E-02  0.8640980E-01
         -1   -1    0    0    0  501 -0.00000000000E+00  0.00000000000E+00  0.49014905530E+03  0.49014905530E+03  0.00000000000E+00 0.  1.
          2   -1    0    0  501    0  0.00000000000E+00 -0.00000000000E+00 -0.18962008699E+04  0.18962008699E+04  0.00000000000E+00 0. -1.
         24    2    1    2    0    0  0.10776595311E+03 -0.57486159808E+03  0.34709387454E+02  0.59119108082E+03  0.78884693483E+02 0.  0.
        254    2    1    2    0    0 -0.10776595311E+03  0.57486159808E+03 -0.14407612021E+04  0.17951588444E+04  0.89706358618E+03 0.  0.
         23    2    4    4    0    0 -0.37323332917E+03  0.54544729843E+03 -0.13391813706E+04  0.14960722060E+04  0.89495412353E+02 0.  0.
         23    2    4    4    0    0  0.26546737606E+03  0.29414299649E+02 -0.10157983151E+03  0.29908663843E+03  0.88296241960E+02 0.  0.
          4    1    3    3  502    0 -0.60195499249E+01 -0.68758695738E+01  0.65360726842E+01  0.11235337548E+02  0.00000000000E+00 0. -1.
         -3    1    3    3    0  502  0.11378550303E+03 -0.56798572850E+03  0.28173314770E+02  0.57995574327E+03  0.00000000000E+00 0.  1.
         13    1    5    5    0    0 -0.37726316006E+02  0.10198849434E+03 -0.26626867287E+03  0.28761768731E+03  0.00000000000E+00 0.  1.
        -13    1    5    5    0    0 -0.33550701316E+03  0.44345880409E+03 -0.10729126977E+04  0.12084545187E+04  0.00000000000E+00 0. -1.
          1    1    6    6  503    0  0.12609573866E+03 -0.30279396618E+02 -0.45525820910E+02  0.13743935949E+03  0.00000000000E+00 0. -1.
         -1    1    6    6    0  503  0.13937163740E+03  0.59693696266E+02 -0.56054010595E+02  0.16164727894E+03  0.00000000000E+00 0.  1.
<mgrwt>
<rscale>  0 0.19281297E+04</rscale>
<asrwt>0</asrwt>
<pdfrwt beam="1">  1        2 0.29172321E+00 0.19281297E+04</pdfrwt>
<pdfrwt beam="2">  1       -1 0.75407548E-01 0.19281297E+04</pdfrwt>
<totfact> 0.14352281E+01</totfact>
</mgrwt>
</event>
<event>
12    7  0.1698542E-007  0.1563638E+04  0.7818608E-02  0.8843203E-01
         -1   -1    0    0    0  501 -0.00000000000E+00  0.00000000000E+00  0.10470640801E+04  0.10470640801E+04  0.00000000000E+00 0.  1.
          2   -1    0    0  501    0  0.00000000000E+00 -0.00000000000E+00 -0.58376669428E+03  0.58376669428E+03  0.00000000000E+00 0. -1.
         24    2    1    2    0    0  0.29916543559E+03 -0.31853080351E+03  0.46512022786E+03  0.64295316722E+03  0.78039209569E+02 0.  0.
        254    2    1    2    0    0 -0.29916543559E+03  0.31853080351E+03 -0.18228420367E+01  0.98787760716E+03  0.88596671119E+03 0.  0.
         23    2    4    4    0    0  0.22341722051E+03 -0.12516978966E+03 -0.91050785902E+02  0.29084712335E+03  0.10353295554E+03 0.  0.
         23    2    4    4    0    0 -0.52258265610E+03  0.44370059317E+03  0.89227943865E+02  0.69703048381E+03  0.89033816932E+02 0.  0.
          2    1    3    3  502    0  0.22178285354E+02 -0.55598595971E+02  0.42969805676E+02  0.73685035217E+02  0.00000000000E+00 0. -1.
         -1    1    3    3    0  502  0.27698715023E+03 -0.26293220754E+03  0.42215042219E+03  0.56926813200E+03  0.00000000000E+00 0.  1.
         13    1    5    5    0    0  0.14331400054E+03 -0.21654377246E+02 -0.55630975676E+02  0.15525018602E+03  0.00000000000E+00 0.  1.
        -13    1    5    5    0    0  0.80103219976E+02 -0.10351541241E+03 -0.35419810226E+02  0.13559693733E+03  0.00000000000E+00 0. -1.
          1    1    6    6  503    0 -0.26523213860E+03  0.28267456190E+03  0.44317446481E+02  0.39015001135E+03  0.00000000000E+00 0. -1.
         -1    1    6    6    0  503 -0.25735051749E+03  0.16102603127E+03  0.44910497385E+02  0.30688047246E+03  0.00000000000E+00 0.  1.
<mgrwt>
<rscale>  0 0.15636382E+04</rscale>
<asrwt>0</asrwt>
<pdfrwt beam="1">  1        2 0.89810261E-01 0.15636382E+04</pdfrwt>
<pdfrwt beam="2">  1       -1 0.16108678E+00 0.15636382E+04</pdfrwt>
<totfact> 0.16153126E+01</totfact>
</mgrwt>
</event>
<event>
12    7  0.1698542E-007  0.1118916E+04  0.7818608E-02  0.9186949E-01
          2   -1    0    0  501    0  0.00000000000E+00  0.00000000000E+00  0.25453323499E+04  0.25453323499E+04  0.00000000000E+00 0. -1.
         -1   -1    0    0    0  501 -0.00000000000E+00 -0.00000000000E+00 -0.12296757714E+03  0.12296757714E+03  0.00000000000E+00 0.  1.
         24    2    1    2    0    0 -0.87808663895E+02  0.10851512638E+03  0.76603101566E+03  0.78275422932E+03  0.80092274619E+02 0.  0.
        254    2    1    2    0    0  0.87808663895E+02 -0.10851512638E+03  0.16563337571E+04  0.18855456977E+04  0.89014334195E+03 0.  0.
         23    2    4    4    0    0  0.19794472992E+03  0.35157744576E+03  0.66175619819E+03  0.78048398021E+03  0.91897557381E+02 0.  0.
         23    2    4    4    0    0 -0.11013606602E+03 -0.46009257213E+03  0.99457755892E+03  0.11050617175E+04  0.90342409086E+02 0.  0.
          4    1    3    3  502    0 -0.69499849809E+02  0.58966185601E+02  0.29470411237E+03  0.30847650480E+03  0.00000000000E+00 0. -1.
         -3    1    3    3    0  502 -0.18308814085E+02  0.49548940776E+02  0.47132690330E+03  0.47427772452E+03  0.00000000000E+00 0.  1.
         13    1    5    5    0    0  0.18283322271E+03  0.24543007343E+03  0.50714852744E+03  0.59233735080E+03  0.00000000000E+00 0.  1.
        -13    1    5    5    0    0  0.15111507203E+02  0.10614737233E+03  0.15460767075E+03  0.18814662940E+03  0.00000000000E+00 0. -1.
          3    1    6    6  503    0 -0.55061876208E+01 -0.15246358692E+03  0.25333322322E+03  0.29572484749E+03  0.00000000000E+00 0. -1.
         -3    1    6    6    0  503 -0.10462987840E+03 -0.30762898522E+03  0.74124433571E+03  0.80933687005E+03  0.00000000000E+00 0.  1.
<mgrwt>
<rscale>  0 0.11189162E+04</rscale>
<asrwt>0</asrwt>
<pdfrwt beam="1">  1        2 0.39158956E+00 0.11189162E+04</pdfrwt>
<pdfrwt beam="2">  1       -1 0.18918091E-01 0.11189162E+04</pdfrwt>
<totfact> 0.83825819E+01</totfact>
</mgrwt>
</event>
<event>
12    7  0.1698542E-007  0.1441263E+04  0.7818608E-02  0.8924480E-01
          2   -1    0    0  501    0  0.00000000000E+00  0.00000000000E+00  0.76772916555E+03  0.76772916555E+03  0.00000000000E+00 0. -1.
         -1   -1    0    0    0  501 -0.00000000000E+00 -0.00000000000E+00 -0.67642308845E+03  0.67642308845E+03  0.00000000000E+00 0.  1.
         24    2    1    2    0    0 -0.81494525079E+02 -0.30127275059E+03 -0.26233506501E+03  0.41578262548E+03  0.81540649074E+02 0.  0.
        254    2    1    2    0    0  0.81494525079E+02  0.30127275059E+03  0.35364114212E+03  0.10283696285E+04  0.91382460439E+03 0.  0.
         23    2    4    4    0    0 -0.14556416898E+03 -0.18930547673E+03  0.40352136402E+03  0.47770113007E+03  0.91342145979E+02 0.  0.
         23    2    4    4    0    0  0.22705869406E+03  0.49057822732E+03 -0.49880221906E+02  0.55066849845E+03  0.92331527593E+02 0.  0.
          4    1    3    3  502    0  0.47760571472E+00 -0.45883727804E+02 -0.88478121303E+01  0.46731449409E+02  0.00000000000E+00 0. -1.
         -3    1    3    3    0  502 -0.81972130794E+02 -0.25538902278E+03 -0.25348725288E+03  0.36905117607E+03  0.00000000000E+00 0.  1.
         13    1    5    5    0    0 -0.12512758328E+03 -0.91465558545E+02  0.26267084095E+03  0.30498988701E+03  0.00000000000E+00 0.  1.
        -13    1    5    5    0    0 -0.20436585699E+02 -0.97839918183E+02  0.14085052308E+03  0.17271124305E+03  0.00000000000E+00 0. -1.
          2    1    6    6  503    0  0.40947147724E+02  0.15526281887E+03  0.16671103602E+02  0.16143462307E+03  0.00000000000E+00 0. -1.
         -2    1    6    6    0  503  0.18611154633E+03  0.33531540845E+03 -0.66551325508E+02  0.38923387539E+03  0.00000000000E+00 0.  1.
<mgrwt>
<rscale>  0 0.14412630E+04</rscale>
<asrwt>0</asrwt>
<pdfrwt beam="1">  1        2 0.11811218E+00 0.14412630E+04</pdfrwt>
<pdfrwt beam="2">  1       -1 0.10406509E+00 0.14412630E+04</pdfrwt>
<totfact> 0.35049832E+01</totfact>
</mgrwt>
</event>
<event>
12    7  0.1698542E-007  0.1177475E+04  0.7818608E-02  0.9132805E-01
         -1   -1    0    0    0  501 -0.00000000000E+00  0.00000000000E+00  0.17351489123E+04  0.17351489123E+04  0.00000000000E+00 0.  1.
          2   -1    0    0  501    0  0.00000000000E+00 -0.00000000000E+00 -0.19975905732E+03  0.19975905732E+03  0.00000000000E+00 0. -1.
         24    2    1    2    0    0 -0.14959100643E+03 -0.17351036088E+02  0.60970225737E+03  0.63651828807E+03  0.10363474682E+03 0.  0.
        254    2    1    2    0    0  0.14959100643E+03  0.17351036088E+02  0.92568759758E+03  0.12983896815E+04  0.89790851934E+03 0.  0.
         23    2    4    4    0    0  0.20871418495E+03 -0.22784801485E+03 -0.13296821075E+02  0.32167903086E+03  0.88454873107E+02 0.  0.
         23    2    4    4    0    0 -0.59123178519E+02  0.24519905094E+03  0.93898441866E+03  0.97671065066E+03  0.93025973822E+02 0.  0.
          2    1    3    3  502    0 -0.61272131722E+02 -0.83915170765E+01  0.89454550745E+02  0.10875113026E+03  0.00000000000E+00 0. -1.
         -1    1    3    3    0  502 -0.88318874704E+02 -0.89595190118E+01  0.52024770663E+03  0.52776715781E+03  0.00000000000E+00 0.  1.
         13    1    5    5    0    0  0.10462109647E+03 -0.10964488220E+03  0.37619828612E+02  0.15615000969E+03  0.00000000000E+00 0. -1.
        -13    1    5    5    0    0  0.10409308847E+03 -0.11820313265E+03 -0.50916649687E+02  0.16552902117E+03  0.00000000000E+00 0.  1.
          3    1    6    6  503    0 -0.52292105777E+02  0.21832251535E+03  0.67676122176E+03  0.71302520033E+03  0.00000000000E+00 0. -1.
         -3    1    6    6    0  503 -0.68310727426E+01  0.26876535590E+02  0.26222319690E+03  0.26368545032E+03  0.00000000000E+00 0.  1.
<mgrwt>
<rscale>  0 0.11774748E+04</rscale>
<asrwt>0</asrwt>
<pdfrwt beam="1">  1        2 0.30732164E-01 0.11774748E+04</pdfrwt>
<pdfrwt beam="2">  1       -1 0.26694598E+00 0.11774748E+04</pdfrwt>
<totfact> 0.10668934E+01</totfact>
</mgrwt>
</event>
<event>
12    7  0.1698542E-007  0.1953960E+04  0.7818608E-02  0.8628453E-01
         -1   -1    0    0    0  501 -0.00000000000E+00  0.00000000000E+00  0.66222204826E+03  0.66222204826E+03  0.00000000000E+00 0.  1.
          2   -1    0    0  501    0  0.00000000000E+00 -0.00000000000E+00 -0.14413447914E+04  0.14413447914E+04  0.00000000000E+00 0. -1.
         24    2    1    2    0    0  0.18051707019E+03  0.20748115702E+03 -0.10639645814E+04  0.11018617304E+04  0.80273278540E+02 0.  0.
        254    2    1    2    0    0 -0.18051707019E+03 -0.20748115702E+03  0.28484183821E+03  0.10017051093E+04  0.92013227859E+03 0.  0.
         23    2    4    4    0    0 -0.33544962860E+03  0.94972190736E+02 -0.19238891972E+03  0.40821095117E+03  0.89869426843E+02 0.  0.
         23    2    4    4    0    0  0.15493255841E+03 -0.30245334776E+03  0.47723075793E+03  0.59349415815E+03  0.94889378864E+02 0.  0.
          4    1    3    3  502    0  0.14638035977E+03  0.16055964757E+03 -0.68933467581E+03  0.72276476493E+03  0.00000000000E+00 0. -1.
         -3    1    3    3    0  502  0.34136710422E+02  0.46921509451E+02 -0.37462990556E+03  0.37909696542E+03  0.00000000000E+00 0.  1.
         13    1    5    5    0    0 -0.24812811106E+03  0.27973143084E+02 -0.14073707264E+03  0.28663038891E+03  0.00000000000E+00 0. -1.
        -13    1    5    5    0    0 -0.87321517542E+02  0.66999047652E+02 -0.51651847081E+02  0.12158056226E+03  0.00000000000E+00 0.  1.
          2    1    6    6  503    0  0.10657517953E+03 -0.11961569949E+03  0.17772889651E+03  0.23927754827E+03  0.00000000000E+00 0. -1.
         -2    1    6    6    0  503  0.48357378887E+02 -0.18283764827E+03  0.29950186142E+03  0.35421660988E+03  0.00000000000E+00 0.  1.
<mgrwt>
<rscale>  0 0.19539604E+04</rscale>
<asrwt>0</asrwt>
<pdfrwt beam="1">  1        2 0.22174535E+00 0.19539604E+04</pdfrwt>
<pdfrwt beam="2">  1       -1 0.10188032E+00 0.19539604E+04</pdfrwt>
<totfact> 0.13298171E+01</totfact>
</mgrwt>
</event>
<event>
12    7  0.1698542E-007  0.1877169E+04  0.7818608E-02  0.8666305E-01
         -1   -1    0    0    0  501 -0.00000000000E+00  0.00000000000E+00  0.48142378873E+03  0.48142378873E+03  0.00000000000E+00 0.  1.
          2   -1    0    0  501    0  0.00000000000E+00 -0.00000000000E+00 -0.18298663962E+04  0.18298663962E+04  0.00000000000E+00 0. -1.
         24    2    1    2    0    0  0.27787909630E+03  0.48591032333E+03 -0.10767262866E+04  0.12164934810E+04  0.84801289283E+02 0.  0.
        254    2    1    2    0    0 -0.27787909630E+03 -0.48591032333E+03 -0.27171632089E+03  0.10947967039E+04  0.90079100204E+03 0.  0.
         23    2    4    4    0    0 -0.88936260701E+02  0.62089704468E+02  0.26425898226E+03  0.30008957310E+03  0.91957339616E+02 0.  0.
         23    2    4    4    0    0 -0.18894283560E+03 -0.54800002780E+03 -0.53597530314E+03  0.79470713081E+03  0.91030064202E+02 0.  0.
          2    1    3    3  502    0  0.17091956725E+03  0.36652165818E+03 -0.73089005832E+03  0.83531545044E+03  0.00000000000E+00 0. -1.
         -1    1    3    3    0  502  0.10695952905E+03  0.11938866515E+03 -0.34583622828E+03  0.38117803060E+03  0.00000000000E+00 0.  1.
         13    1    5    5    0    0 -0.81273105436E+02  0.14811080605E+02  0.10395283379E+03  0.13278131430E+03  0.00000000000E+00 0.  1.
        -13    1    5    5    0    0 -0.76631552650E+01  0.47278623863E+02  0.16030614847E+03  0.16730825879E+03  0.00000000000E+00 0. -1.
          1    1    6    6  503    0 -0.18370537934E+03 -0.42082299618E+03 -0.40893290176E+03  0.61487053812E+03  0.00000000000E+00 0. -1.
         -1    1    6    6    0  503 -0.52374562623E+01 -0.12717703162E+03 -0.12704240139E+03  0.17983659269E+03  0.00000000000E+00 0.  1.
<mgrwt>
<rscale>  0 0.18771694E+04</rscale>
<asrwt>0</asrwt>
<pdfrwt beam="1">  1        2 0.28151791E+00 0.18771694E+04</pdfrwt>
<pdfrwt beam="2">  1       -1 0.74065198E-01 0.18771694E+04</pdfrwt>
<totfact> 0.16288701E+01</totfact>
</mgrwt>
</event>
<event>
12    7  0.1698542E-007  0.1222688E+04  0.7818608E-02  0.9093226E-01
          2   -1    0    0  501    0  0.00000000000E+00  0.00000000000E+00  0.35823014306E+03  0.35823014306E+03  0.00000000000E+00 0. -1.
         -1   -1    0    0    0  501 -0.00000000000E+00 -0.00000000000E+00 -0.10432997376E+04  0.10432997376E+04  0.00000000000E+00 0.  1.
         24    2    1    2    0    0 -0.16774374658E+03 -0.13233178065E+03  0.82803976875E+01  0.22892316472E+03  0.81777659990E+02 0.  0.
        254    2    1    2    0    0  0.16774374658E+03  0.13233178065E+03 -0.69334999226E+03  0.11726067160E+04  0.92120716122E+03 0.  0.
         23    2    4    4    0    0  0.22094953503E+03  0.30651891310E+03 -0.83717694568E+03  0.92289823138E+03  0.90018697996E+02 0.  0.
         23    2    4    4    0    0 -0.53205788450E+02 -0.17418713245E+03  0.14382695343E+03  0.24970848458E+03  0.92174409171E+02 0.  0.
          4    1    3    3  502    0 -0.48116195010E+02 -0.11674116429E+02  0.29594505829E+02  0.57682648967E+02  0.00000000000E+00 0. -1.
         -3    1    3    3    0  502 -0.11962755157E+03 -0.12065766422E+03 -0.21314108141E+02  0.17124051576E+03  0.00000000000E+00 0.  1.
         13    1    5    5    0    0  0.19017500124E+03  0.19839901348E+03 -0.56031153432E+03  0.62408149719E+03  0.00000000000E+00 0.  1.
        -13    1    5    5    0    0  0.30774533798E+02  0.10811989962E+03 -0.27686541136E+03  0.29881673419E+03  0.00000000000E+00 0. -1.
          1    1    6    6  503    0 -0.18730344848E+02 -0.16180425523E+03  0.13612241661E+03  0.21227518728E+03  0.00000000000E+00 0. -1.
         -1    1    6    6    0  503 -0.34475443602E+02 -0.12382877218E+02  0.77045368132E+01  0.37433297307E+02  0.00000000000E+00 0.  1.
<mgrwt>
<rscale>  0 0.12226879E+04</rscale>
<asrwt>0</asrwt>
<pdfrwt beam="1">  1        2 0.55112330E-01 0.12226879E+04</pdfrwt>
<pdfrwt beam="2">  1       -1 0.16050765E+00 0.12226879E+04</pdfrwt>
<totfact> 0.29420562E+01</totfact>
</mgrwt>
</event>
<event>
12    7  0.1698542E-007  0.1749320E+04  0.7818608E-02  0.8733725E-01
          2   -1    0    0  501    0  0.00000000000E+00  0.00000000000E+00  0.76663792810E+03  0.76663792810E+03  0.00000000000E+00 0. -1.
         -1   -1    0    0    0  501 -0.00000000000E+00 -0.00000000000E+00 -0.99790261211E+03  0.99790261211E+03  0.00000000000E+00 0.  1.
         24    2    1    2    0    0  0.62208915092E+03  0.48434800469E+02 -0.10105048871E+03  0.63590313900E+03  0.69431688208E+02 0.  0.
        254    2    1    2    0    0 -0.62208915092E+03 -0.48434800469E+02 -0.13021419531E+03  0.11286374012E+04  0.93141065334E+03 0.  0.
         23    2    4    4    0    0 -0.10830996522E+03  0.37573007827E+03  0.10270123910E+03  0.41700609107E+03  0.10218803840E+03 0.  0.
         23    2    4    4    0    0 -0.51377918571E+03 -0.42416487874E+03 -0.23291543441E+03  0.71163131014E+03  0.91019920729E+02 0.  0.
          2    1    3    3  502    0  0.24346149056E+03  0.40109494469E+02 -0.66873634302E+02  0.25564497236E+03  0.00000000000E+00 0. -1.
         -1    1    3    3    0  502  0.37862766037E+03  0.83253059994E+01 -0.34176854406E+02  0.38025816663E+03  0.00000000000E+00 0.  1.
         13    1    5    5    0    0 -0.19987738636E+01  0.18818510059E+03  0.56949391538E+02  0.19662365163E+03  0.00000000000E+00 0. -1.
        -13    1    5    5    0    0 -0.10631119136E+03  0.18754497768E+03  0.45751847563E+02  0.22038243944E+03  0.00000000000E+00 0.  1.
          2    1    6    6  503    0 -0.46327873096E+03 -0.41316366591E+03 -0.21499416819E+03  0.65692761378E+03  0.00000000000E+00 0. -1.
         -2    1    6    6    0  503 -0.50500454742E+02 -0.11001212830E+02 -0.17921266214E+02  0.54703696361E+02  0.00000000000E+00 0.  1.
<mgrwt>
<rscale>  0 0.17493199E+04</rscale>
<asrwt>0</asrwt>
<pdfrwt beam="1">  1        2 0.11794430E+00 0.17493199E+04</pdfrwt>
<pdfrwt beam="2">  1       -1 0.15352348E+00 0.17493199E+04</pdfrwt>
<totfact> 0.12919191E+01</totfact>
</mgrwt>
</event>
<event>
12    7  0.1698542E-007  0.1788790E+04  0.7818608E-02  0.8712284E-01
         -1   -1    0    0    0  501 -0.00000000000E+00  0.00000000000E+00  0.89134236606E+03  0.89134236606E+03  0.00000000000E+00 0.  1.
          2   -1    0    0  501    0  0.00000000000E+00 -0.00000000000E+00 -0.89745802715E+03  0.89745802715E+03  0.00000000000E+00 0. -1.
         24    2    1    2    0    0 -0.30597945299E+03 -0.27535194714E+03 -0.54091096657E+03  0.68445856992E+03  0.80353840787E+02 0.  0.
        254    2    1    2    0    0  0.30597945299E+03  0.27535194714E+03  0.53479530548E+03  0.11043418233E+04  0.87414113475E+03 0.  0.
         23    2    4    4    0    0  0.54048734450E+03  0.37946336471E+03  0.25390730131E+03  0.71332053251E+03  0.90764804384E+02 0.  0.
         23    2    4    4    0    0 -0.23450789151E+03 -0.10411141756E+03  0.28088800416E+03  0.39102129079E+03  0.90368360161E+02 0.  0.
          4    1    3    3  502    0 -0.26748992281E+03 -0.21743506331E+03 -0.48606594372E+03  0.59589341934E+03  0.00000000000E+00 0. -1.
         -3    1    3    3    0  502 -0.38489530182E+02 -0.57916883830E+02 -0.54845022850E+02  0.88565150582E+02  0.00000000000E+00 0.  1.
         13    1    5    5    0    0  0.52802841143E+03  0.35585137829E+03  0.25656551014E+03  0.68649112718E+03  0.00000000000E+00 0. -1.
        -13    1    5    5    0    0  0.12458933071E+02  0.23611986413E+02 -0.26582088300E+01  0.26829405320E+02  0.00000000000E+00 0.  1.
          4    1    6    6  503    0 -0.13901983061E+03 -0.67816226690E+02  0.10282839314E+03  0.18573968973E+03  0.00000000000E+00 0. -1.
         -4    1    6    6    0  503 -0.95488060904E+02 -0.36295190871E+02  0.17805961102E+03  0.20528160106E+03  0.00000000000E+00 0.  1.
<mgrwt>
<rscale>  0 0.17887899E+04</rscale>
<asrwt>0</asrwt>
<pdfrwt beam="1">  1        2 0.13807047E+00 0.17887899E+04</pdfrwt>
<pdfrwt beam="2">  1       -1 0.13712959E+00 0.17887899E+04</pdfrwt>
<totfact> 0.14045837E+01</totfact>
</mgrwt>
</event>
<event>
12    7  0.1698542E-007  0.1391431E+04  0.7818608E-02  0.8960045E-01
          2   -1    0    0  501    0  0.00000000000E+00  0.00000000000E+00  0.12602826390E+04  0.12602826390E+04  0.00000000000E+00 0. -1.
         -1   -1    0    0    0  501 -0.00000000000E+00 -0.00000000000E+00 -0.38405655219E+03  0.38405655219E+03  0.00000000000E+00 0.  1.
         24    2    1    2    0    0 -0.22684487665E+02 -0.79414975783E+02 -0.20708572903E+03  0.23666184969E+03  0.79391482971E+02 0.  0.
        254    2    1    2    0    0  0.22684487665E+02  0.79414975783E+02  0.10833118158E+04  0.14076773415E+04  0.89508082486E+03 0.  0.
         23    2    4    4    0    0  0.66680028269E+02  0.20727162228E+03  0.11892276388E+04  0.12125972143E+04  0.93390982972E+02 0.  0.
         23    2    4    4    0    0 -0.43995540604E+02 -0.12785664650E+03 -0.10591582295E+03  0.19508012718E+03  0.92494133991E+02 0.  0.
          4    1    3    3  502    0  0.12604432832E+02 -0.32404020074E+02 -0.19036486561E+02  0.39639375178E+02  0.00000000000E+00 0. -1.
         -3    1    3    3    0  502 -0.35288920497E+02 -0.47010955709E+02 -0.18804924247E+03  0.19702247451E+03  0.00000000000E+00 0.  1.
         13    1    5    5    0    0  0.90316568231E+02  0.16245531145E+03  0.96146705515E+03  0.97926896655E+03  0.00000000000E+00 0. -1.
        -13    1    5    5    0    0 -0.23636539962E+02  0.44816310838E+02  0.22776058362E+03  0.23332824773E+03  0.00000000000E+00 0.  1.
          3    1    6    6  503    0 -0.56269541372E+02 -0.12827591647E+03 -0.68945236726E+02  0.15612308510E+03  0.00000000000E+00 0. -1.
         -3    1    6    6    0  503  0.12274000767E+02  0.41926997163E+00 -0.36970586228E+02  0.38957042087E+02  0.00000000000E+00 0.  1.
<mgrwt>
<rscale>  0 0.13914306E+04</rscale>
<asrwt>0</asrwt>
<pdfrwt beam="1">  1        2 0.19388963E+00 0.13914306E+04</pdfrwt>
<pdfrwt beam="2">  1       -1 0.59085624E-01 0.13914306E+04</pdfrwt>
<totfact> 0.56224839E+01</totfact>
</mgrwt>
</event>
<event>
12    7  0.1698542E-007  0.2090223E+04  0.7818608E-02  0.8565563E-01
          2   -1    0    0  501    0  0.00000000000E+00  0.00000000000E+00  0.30172358823E+04  0.30172358823E+04  0.00000000000E+00 0. -1.
         -1   -1    0    0    0  501 -0.00000000000E+00 -0.00000000000E+00 -0.36200610488E+03  0.36200610488E+03  0.00000000000E+00 0.  1.
         24    2    1    2    0    0 -0.35636919690E+03 -0.34648608663E+03  0.22700318709E+04  0.23251264214E+04  0.78208489747E+02 0.  0.
        254    2    1    2    0    0  0.35636919690E+03  0.34648608663E+03  0.38519790653E+03  0.10541155658E+04  0.84600862061E+03 0.  0.
         23    2    4    4    0    0  0.22213805120E+03 -0.18643163448E+03  0.39315880006E+03  0.49687317288E+03  0.90592713487E+02 0.  0.
         23    2    4    4    0    0  0.13423114570E+03  0.53291772111E+03 -0.79608935227E+01  0.55724239293E+03  0.91849935762E+02 0.  0.
          4    1    3    3  502    0 -0.31868119045E+03 -0.29172238114E+03  0.20602572762E+04  0.21050699971E+04  0.00000000000E+00 0. -1.
         -3    1    3    3    0  502 -0.37688006445E+02 -0.54763705487E+02  0.20977459473E+03  0.22005642427E+03  0.00000000000E+00 0.  1.
         13    1    5    5    0    0  0.18377224865E+03 -0.18907549842E+03  0.35908470555E+03  0.44549254678E+03  0.00000000000E+00 0.  1.
        -13    1    5    5    0    0  0.38365802542E+02  0.26438639408E+01  0.34074094506E+02  0.51380626093E+02  0.00000000000E+00 0. -1.
          3    1    6    6  503    0 -0.49396617961E+01  0.14349379793E+03  0.15745369022E+01  0.14358742797E+03  0.00000000000E+00 0. -1.
         -3    1    6    6    0  503  0.13917080749E+03  0.38942392318E+03 -0.95354304249E+01  0.41365496496E+03  0.00000000000E+00 0.  1.
<mgrwt>
<rscale>  0 0.20902228E+04</rscale>
<asrwt>0</asrwt>
<pdfrwt beam="1">  1        2 0.46419012E+00 0.20902228E+04</pdfrwt>
<pdfrwt beam="2">  1       -1 0.55693249E-01 0.20902228E+04</pdfrwt>
<totfact> 0.58233405E+00</totfact>
</mgrwt>
</event>
<event>
12    7  0.1698542E-007  0.1949784E+04  0.7818608E-02  0.8630465E-01
          2   -1    0    0  501    0  0.00000000000E+00  0.00000000000E+00  0.16272657575E+04  0.16272657575E+04  0.00000000000E+00 0. -1.
         -1   -1    0    0    0  501 -0.00000000000E+00 -0.00000000000E+00 -0.58405590607E+03  0.58405590607E+03  0.00000000000E+00 0.  1.
         24    2    1    2    0    0  0.23787469267E+03 -0.72372636493E+03  0.35760210867E+03  0.84533624998E+03  0.79686176350E+02 0.  0.
        254    2    1    2    0    0 -0.23787469267E+03  0.72372636493E+03  0.68560774276E+03  0.13659854136E+04  0.90304703781E+03 0.  0.
         23    2    4    4    0    0  0.10073683535E+03  0.38565667753E+03 -0.11891998176E+03  0.42550252467E+03  0.89618377117E+02 0.  0.
         23    2    4    4    0    0 -0.33861152802E+03  0.33806968739E+03  0.80452772451E+03  0.94048288892E+03  0.91073181540E+02 0.  0.
          4    1    3    3  502    0 -0.60583610628E+01 -0.11304531974E+02  0.79757911403E+01  0.15103291900E+02  0.00000000000E+00 0. -1.
         -3    1    3    3    0  502  0.24393305374E+03 -0.71242183295E+03  0.34962631753E+03  0.83023295808E+03  0.00000000000E+00 0.  1.
         13    1    5    5    0    0  0.89388871660E+02  0.19430118207E+03 -0.88269246226E+02  0.23137584048E+03  0.00000000000E+00 0.  1.
        -13    1    5    5    0    0  0.11347963685E+02  0.19135549546E+03 -0.30650735529E+02  0.19412668418E+03  0.00000000000E+00 0. -1.
          4    1    6    6  503    0 -0.29372725999E+03  0.32584046852E+03  0.70050828539E+03  0.82653467688E+03  0.00000000000E+00 0. -1.
         -4    1    6    6    0  503 -0.44884268025E+02  0.12229218870E+02  0.10401943913E+03  0.11394821204E+03  0.00000000000E+00 0.  1.
<mgrwt>
<rscale>  0 0.19497838E+04</rscale>
<asrwt>0</asrwt>
<pdfrwt beam="1">  1        2 0.25034858E+00 0.19497838E+04</pdfrwt>
<pdfrwt beam="2">  1       -1 0.89854755E-01 0.19497838E+04</pdfrwt>
<totfact> 0.13869433E+01</totfact>
</mgrwt>
</event>
<event>
12    7  0.1698542E-007  0.1985917E+04  0.7818608E-02  0.8613233E-01
          2   -1    0    0  501    0  0.00000000000E+00  0.00000000000E+00  0.22509377635E+04  0.22509377635E+04  0.00000000000E+00 0. -1.
         -1   -1    0    0    0  501 -0.00000000000E+00 -0.00000000000E+00 -0.43802502075E+03  0.43802502075E+03  0.00000000000E+00 0.  1.
         24    2    1    2    0    0  0.23080867677E+03  0.29136577109E+03  0.16570385811E+04  0.17000872396E+04  0.79706368216E+02 0.  0.
        254    2    1    2    0    0 -0.23080867677E+03 -0.29136577109E+03  0.15587416165E+03  0.98887554465E+03  0.90300134590E+03 0.  0.
         23    2    4    4    0    0 -0.54938373957E+03 -0.28471456357E+03  0.75407710343E+01  0.62536763881E+03  0.90238264792E+02 0.  0.
         23    2    4    4    0    0  0.31857506280E+03 -0.66512075253E+01  0.14833339061E+03  0.36350790583E+03  0.92741002963E+02 0.  0.
          4    1    3    3  502    0  0.10711403206E+03  0.91440597696E+02  0.50293915294E+03  0.52228592775E+03  0.00000000000E+00 0. -1.
         -3    1    3    3    0  502  0.12369464472E+03  0.19992517340E+03  0.11540994281E+04  0.11778013118E+04  0.00000000000E+00 0.  1.
         13    1    5    5    0    0 -0.20337670191E+03 -0.74890518174E+02  0.36062736884E+02  0.21970706312E+03  0.00000000000E+00 0.  1.
        -13    1    5    5    0    0 -0.34600703766E+03 -0.20982404540E+03 -0.28521965850E+02  0.40566057569E+03  0.00000000000E+00 0. -1.
          4    1    6    6  503    0  0.22674312286E+03  0.28585477054E+02  0.13164428618E+03  0.26374190291E+03  0.00000000000E+00 0. -1.
         -4    1    6    6    0  503  0.91831939940E+02 -0.35236684579E+02  0.16689104431E+02  0.99766002927E+02  0.00000000000E+00 0.  1.
<mgrwt>
<rscale>  0 0.19859175E+04</rscale>
<asrwt>0</asrwt>
<pdfrwt beam="1">  1        2 0.34629811E+00 0.19859175E+04</pdfrwt>
<pdfrwt beam="2">  1       -1 0.67388466E-01 0.19859175E+04</pdfrwt>
<totfact> 0.11415477E+01</totfact>
</mgrwt>
</event>
<event>
12    7  0.1698542E-007  0.1647983E+04  0.7818608E-02  0.8791601E-01
         -1   -1    0    0    0  501 -0.00000000000E+00  0.00000000000E+00  0.86345170416E+03  0.86345170416E+03  0.00000000000E+00 0.  1.
          2   -1    0    0  501    0  0.00000000000E+00 -0.00000000000E+00 -0.78633468104E+03  0.78633468104E+03  0.00000000000E+00 0. -1.
         24    2    1    2    0    0 -0.99358921907E+02 -0.11331784825E+03 -0.52949399925E+03  0.55572345535E+03  0.75838865305E+02 0.  0.
        254    2    1    2    0    0  0.99358921907E+02  0.11331784825E+03  0.60661102237E+03  0.10940629299E+04  0.89793297741E+03 0.  0.
         23    2    4    4    0    0  0.30531861927E+03  0.37201955609E+03  0.56106041358E+03  0.74477276230E+03  0.90992694174E+02 0.  0.
         23    2    4    4    0    0 -0.20595969736E+03 -0.25870170784E+03  0.45550608792E+02  0.34929016755E+03  0.10287270097E+03 0.  0.
          2    1    3    3  502    0 -0.48353744368E+02 -0.42734141269E+02 -0.35374045888E+03  0.35957836930E+03  0.00000000000E+00 0. -1.
         -1    1    3    3    0  502 -0.51005177539E+02 -0.70583706981E+02 -0.17575354038E+03  0.19614508605E+03  0.00000000000E+00 0.  1.
         13    1    5    5    0    0  0.21602658519E+03  0.32106162901E+03  0.44123564277E+03  0.58688750845E+03  0.00000000000E+00 0. -1.
        -13    1    5    5    0    0  0.89292034081E+02  0.50957927087E+02  0.11982477081E+03  0.15788525385E+03  0.00000000000E+00 0.  1.
          1    1    6    6  503    0 -0.74520183123E+02 -0.11265840049E+03 -0.30720768911E+02  0.13852414424E+03  0.00000000000E+00 0. -1.
         -1    1    6    6    0  503 -0.13143951424E+03 -0.14604330735E+03  0.76271377704E+02  0.21076602331E+03  0.00000000000E+00 0.  1.
<mgrwt>
<rscale>  0 0.16479830E+04</rscale>
<asrwt>0</asrwt>
<pdfrwt beam="1">  1        2 0.12097457E+00 0.16479830E+04</pdfrwt>
<pdfrwt beam="2">  1       -1 0.13283872E+00 0.16479830E+04</pdfrwt>
<totfact> 0.18458329E+01</totfact>
</mgrwt>
</event>
<event>
12    7  0.1698542E-007  0.2572689E+04  0.7818608E-02  0.8377538E-01
         -1   -1    0    0    0  501 -0.00000000000E+00  0.00000000000E+00  0.21711747481E+04  0.21711747481E+04  0.00000000000E+00 0.  1.
          2   -1    0    0  501    0  0.00000000000E+00 -0.00000000000E+00 -0.76211396430E+03  0.76211396430E+03  0.00000000000E+00 0. -1.
         24    2    1    2    0    0 -0.30355189662E+03 -0.14054860336E+03 -0.61099299803E+03  0.70100397065E+03  0.78717592570E+02 0.  0.
        254    2    1    2    0    0  0.30355189662E+03  0.14054860336E+03  0.20200537818E+04  0.22322847417E+04  0.88914578270E+03 0.  0.
         23    2    4    4    0    0  0.11731722560E+03 -0.30955304608E+03  0.13836516626E+04  0.14256006967E+04  0.90879057711E+02 0.  0.
         23    2    4    4    0    0  0.18623467103E+03  0.45010164944E+03  0.63640211919E+03  0.80668404505E+03  0.91960011488E+02 0.  0.
          4    1    3    3  502    0 -0.25687870054E+03 -0.14594002738E+03 -0.54600288356E+03  0.62080939687E+03  0.00000000000E+00 0. -1.
         -1    1    3    3    0  502 -0.46673196085E+02  0.53914240255E+01 -0.64990114469E+02  0.80194573784E+02  0.00000000000E+00 0.  1.
         13    1    5    5    0    0  0.41339558180E+02 -0.73033078552E+02  0.52756293273E+03  0.53419606665E+03  0.00000000000E+00 0.  1.
        -13    1    5    5    0    0  0.75977667416E+02 -0.23651996753E+03  0.85608872987E+03  0.89140463000E+03  0.00000000000E+00 0. -1.
          2    1    6    6  503    0  0.14685210716E+03  0.31644116417E+03  0.38723974416E+03  0.52120549807E+03  0.00000000000E+00 0. -1.
         -2    1    6    6    0  503  0.39382563869E+02  0.13366048527E+03  0.24916237502E+03  0.28547854698E+03  0.00000000000E+00 0.  1.
<mgrwt>
<rscale>  0 0.25726893E+04</rscale>
<asrwt>0</asrwt>
<pdfrwt beam="1">  1        2 0.11724830E+00 0.25726893E+04</pdfrwt>
<pdfrwt beam="2">  1       -1 0.33402688E+00 0.25726893E+04</pdfrwt>
<totfact> 0.73567352E-01</totfact>
</mgrwt>
</event>
<event>
12    7  0.1698542E-007  0.4597605E+04  0.7818608E-02  0.7893768E-01
         -1   -1    0    0    0  501 -0.00000000000E+00  0.00000000000E+00  0.17049415857E+04  0.17049415857E+04  0.00000000000E+00 0.  1.
          2   -1    0    0  501    0  0.00000000000E+00 -0.00000000000E+00 -0.30995148766E+04  0.30995148766E+04  0.00000000000E+00 0. -1.
         24    2    1    2    0    0  0.70121163024E+03  0.19387918200E+04 -0.15023421408E+04  0.25522449443E+04  0.79441020682E+02 0.  0.
        254    2    1    2    0    0 -0.70121163024E+03 -0.19387918200E+04  0.10776884997E+03  0.22522115180E+04  0.90012839348E+03 0.  0.
         23    2    4    4    0    0 -0.60466159296E+03 -0.19814174263E+04  0.20253918425E+03  0.20832514023E+04  0.85344154801E+02 0.  0.
         23    2    4    4    0    0 -0.96550037280E+02  0.42625606220E+02 -0.94770334280E+02  0.16896011570E+03  0.91800067720E+02 0.  0.
          4    1    3    3  502    0  0.51637537185E+03  0.14871825564E+04 -0.11130284983E+04  0.19280010163E+04  0.00000000000E+00 0. -1.
         -3    1    3    3    0  502  0.18483625840E+03  0.45160926359E+03 -0.38931364254E+03  0.62424392800E+03  0.00000000000E+00 0.  1.
         13    1    5    5    0    0 -0.43190934643E+03 -0.15294274691E+04  0.14127631593E+03  0.15955102834E+04  0.00000000000E+00 0.  1.
        -13    1    5    5    0    0 -0.17275224653E+03 -0.45198995711E+03  0.61262868319E+02  0.48774111888E+03  0.00000000000E+00 0. -1.
          3    1    6    6  503    0 -0.99576914735E+01  0.68516522591E+00  0.18085806873E+02  0.20657237983E+02  0.00000000000E+00 0. -1.
         -3    1    6    6    0  503 -0.86592345807E+02  0.41940440994E+02 -0.11285614115E+03  0.14830287772E+03  0.00000000000E+00 0.  1.
<mgrwt>
<rscale>  0 0.45976045E+04</rscale>
<asrwt>0</asrwt>
<pdfrwt beam="1">  1        2 0.47684844E+00 0.45976045E+04</pdfrwt>
<pdfrwt beam="2">  1       -1 0.26229871E+00 0.45976045E+04</pdfrwt>
<totfact> 0.74500550E-02</totfact>
</mgrwt>
</event>
<event>
12    7  0.1698542E-007  0.2262077E+04  0.7818608E-02  0.8493025E-01
         -1   -1    0    0    0  501 -0.00000000000E+00  0.00000000000E+00  0.12619158178E+04  0.12619158178E+04  0.00000000000E+00 0.  1.
          2   -1    0    0  501    0  0.00000000000E+00 -0.00000000000E+00 -0.10137353040E+04  0.10137353040E+04  0.00000000000E+00 0. -1.
         24    2    1    2    0    0 -0.12534143906E+03 -0.68435400850E+03  0.75437464801E+03  0.10292471010E+04  0.78851760035E+02 0.  0.
        254    2    1    2    0    0  0.12534143906E+03  0.68435400850E+03 -0.50619413414E+03  0.12464040208E+04  0.90179797981E+03 0.  0.
         23    2    4    4    0    0  0.14173916299E+03  0.18011078502E+03  0.23751912327E+03  0.34286688003E+03  0.92803439031E+02 0.  0.
         23    2    4    4    0    0 -0.16397723928E+02  0.50424322348E+03 -0.74371325741E+03  0.90353714079E+03  0.93487120853E+02 0.  0.
          2    1    3    3  502    0 -0.54181917925E+02 -0.30963771034E+03  0.28371428161E+03  0.42344419406E+03  0.00000000000E+00 0. -1.
         -1    1    3    3    0  502 -0.71159521133E+02 -0.37471629816E+03  0.47066036640E+03  0.60580290694E+03  0.00000000000E+00 0.  1.
         13    1    5    5    0    0  0.14577240967E+03  0.18500093666E+03  0.21305959424E+03  0.31759932727E+03  0.00000000000E+00 0. -1.
        -13    1    5    5    0    0 -0.40332466840E+01 -0.48901516381E+01  0.24459529032E+02  0.25267552757E+02  0.00000000000E+00 0.  1.
          1    1    6    6  503    0  0.16375385149E+02  0.44144564087E+03 -0.65436810067E+03  0.78951885238E+03  0.00000000000E+00 0. -1.
         -1    1    6    6    0  503 -0.32773109077E+02  0.62797582612E+02 -0.89345156741E+02  0.11401828842E+03  0.00000000000E+00 0.  1.
<mgrwt>
<rscale>  0 0.22620775E+04</rscale>
<asrwt>0</asrwt>
<pdfrwt beam="1">  1        2 0.15595928E+00 0.22620775E+04</pdfrwt>
<pdfrwt beam="2">  1       -1 0.19414090E+00 0.22620775E+04</pdfrwt>
<totfact> 0.42306936E+00</totfact>
</mgrwt>
</event>
<event>
12    7  0.1698542E-007  0.1162596E+04  0.7818608E-02  0.9146241E-01
         -1   -1    0    0    0  501 -0.00000000000E+00  0.00000000000E+00  0.10029942682E+03  0.10029942682E+03  0.00000000000E+00 0.  1.
          2   -1    0    0  501    0  0.00000000000E+00 -0.00000000000E+00 -0.33689863112E+04  0.33689863112E+04  0.00000000000E+00 0. -1.
         24    2    1    2    0    0 -0.15609966231E+03 -0.14471612321E+03 -0.94967625649E+03  0.97656248501E+03  0.80494932074E+02 0.  0.
        254    2    1    2    0    0  0.15609966231E+03  0.14471612321E+03 -0.23190106279E+04  0.24927232530E+04  0.88912826013E+03 0.  0.
         23    2    4    4    0    0  0.68528491237E+01 -0.33456546234E+03 -0.53603475257E+03  0.63814675736E+03  0.88977625433E+02 0.  0.
         23    2    4    4    0    0  0.14924681319E+03  0.47928158555E+03 -0.17829758753E+04  0.18545764957E+04  0.92008460487E+02 0.  0.
          2    1    3    3  502    0 -0.94129353065E+02 -0.76911991454E+02 -0.70104726339E+03  0.71150759310E+03  0.00000000000E+00 0. -1.
         -1    1    3    3    0  502 -0.61970309247E+02 -0.67804131759E+02 -0.24862899311E+03  0.26505489191E+03  0.00000000000E+00 0.  1.
         13    1    5    5    0    0 -0.28526210133E+02 -0.27704089086E+03 -0.42211243911E+03  0.50571168775E+03  0.00000000000E+00 0. -1.
        -13    1    5    5    0    0  0.35379059256E+02 -0.57524571480E+02 -0.11392231346E+03  0.13243506961E+03  0.00000000000E+00 0.  1.
          2    1    6    6  503    0  0.12463213867E+03  0.45659367417E+03 -0.17099488718E+04  0.17742424010E+04  0.00000000000E+00 0. -1.
         -2    1    6    6    0  503  0.24614674518E+02  0.22687911381E+02 -0.73027003476E+02  0.80334094637E+02  0.00000000000E+00 0.  1.
<mgrwt>
<rscale>  0 0.11625961E+04</rscale>
<asrwt>0</asrwt>
<pdfrwt beam="1">  1        2 0.51830560E+00 0.11625961E+04</pdfrwt>
<pdfrwt beam="2">  1       -1 0.15430681E-01 0.11625961E+04</pdfrwt>
<totfact> 0.36303585E+01</totfact>
</mgrwt>
</event>
<event>
12    7  0.1698542E-007  0.1514774E+04  0.7818608E-02  0.8874688E-01
          2   -1    0    0  501    0  0.00000000000E+00  0.00000000000E+00  0.78657829462E+03  0.78657829462E+03  0.00000000000E+00 0. -1.
         -1   -1    0    0    0  501 -0.00000000000E+00 -0.00000000000E+00 -0.72927887484E+03  0.72927887484E+03  0.00000000000E+00 0.  1.
         24    2    1    2    0    0 -0.91778334960E+02  0.36832517894E+03 -0.28724079174E+03  0.48239984065E+03  0.78202516656E+02 0.  0.
        254    2    1    2    0    0  0.91778334960E+02 -0.36832517894E+03  0.34454021153E+03  0.10334573288E+04  0.89735132078E+03 0.  0.
         23    2    4    4    0    0  0.13818422468E+03  0.21835633560E+03 -0.98289664786E+02  0.29110116162E+03  0.91129900967E+02 0.  0.
         23    2    4    4    0    0 -0.46405889720E+02 -0.58668151453E+03  0.44282987631E+03  0.74235616718E+03  0.92982113900E+02 0.  0.
          2    1    3    3  502    0 -0.13193661308E+02  0.76502384482E+02 -0.10106151689E+03  0.12743672048E+03  0.00000000000E+00 0. -1.
         -1    1    3    3    0  502 -0.78584673652E+02  0.29182279445E+03 -0.18617927485E+03  0.35496312017E+03  0.00000000000E+00 0.  1.
         13    1    5    5    0    0  0.26278207022E+02  0.93609488382E+02 -0.81790885551E+00  0.97231422155E+02  0.00000000000E+00 0. -1.
        -13    1    5    5    0    0  0.11190601766E+03  0.12474684721E+03 -0.97471755931E+02  0.19386973947E+03  0.00000000000E+00 0.  1.
          2    1    6    6  503    0 -0.12087782619E+02 -0.49442061817E+01  0.92428307232E+01  0.15999674471E+02  0.00000000000E+00 0. -1.
         -2    1    6    6    0  503 -0.34318107101E+02 -0.58173730835E+03  0.43358704559E+03  0.72635649271E+03  0.00000000000E+00 0.  1.
<mgrwt>
<rscale>  0 0.15147738E+04</rscale>
<asrwt>0</asrwt>
<pdfrwt beam="1">  1        2 0.12101204E+00 0.15147738E+04</pdfrwt>
<pdfrwt beam="2">  1       -1 0.11219675E+00 0.15147738E+04</pdfrwt>
<totfact> 0.28276786E+01</totfact>
</mgrwt>
</event>
<event>
12    7  0.1698542E-007  0.2010227E+04  0.7818608E-02  0.8601854E-01
          2   -1    0    0  501    0  0.00000000000E+00  0.00000000000E+00  0.13592296335E+04  0.13592296335E+04  0.00000000000E+00 0. -1.
         -1   -1    0    0    0  501 -0.00000000000E+00 -0.00000000000E+00 -0.74325394724E+03  0.74325394724E+03  0.00000000000E+00 0.  1.
         24    2    1    2    0    0  0.42926480314E+03 -0.89813526966E+02 -0.45405667821E+03  0.63631881562E+03  0.79996420224E+02 0.  0.
        254    2    1    2    0    0 -0.42926480314E+03  0.89813526966E+02  0.10700323644E+04  0.14661647651E+04  0.90129635336E+03 0.  0.
         23    2    4    4    0    0  0.70091068346E+01  0.12019248050E+03 -0.12153191803E+03  0.19321809566E+03  0.89821297272E+02 0.  0.
         23    2    4    4    0    0 -0.43627390998E+03 -0.30378953533E+02  0.11915642825E+04  0.12729466694E+04  0.96488230434E+02 0.  0.
          2    1    3    3  502    0  0.26105425821E+03 -0.36845192357E+02 -0.22073212593E+03  0.34384526366E+03  0.00000000000E+00 0. -1.
         -1    1    3    3    0  502  0.16821054494E+03 -0.52968334609E+02 -0.23332455228E+03  0.29247355196E+03  0.00000000000E+00 0.  1.
         13    1    5    5    0    0 -0.66570799873E+01 -0.13751945676E+02 -0.89164977583E+01  0.17690015718E+02  0.00000000000E+00 0. -1.
        -13    1    5    5    0    0  0.13666186822E+02  0.13394442618E+03 -0.11261542027E+03  0.17552807994E+03  0.00000000000E+00 0.  1.
          3    1    6    6  503    0 -0.29768162229E+03  0.24598129661E+02  0.80404075441E+03  0.85773011547E+03  0.00000000000E+00 0. -1.
         -3    1    6    6    0  503 -0.13859228768E+03 -0.54977083194E+02  0.38752352804E+03  0.41521655394E+03  0.00000000000E+00 0.  1.
<mgrwt>
<rscale>  0 0.20102266E+04</rscale>
<asrwt>0</asrwt>
<pdfrwt beam="1">  1        2 0.20911225E+00 0.20102266E+04</pdfrwt>
<pdfrwt beam="2">  1       -1 0.11434676E+00 0.20102266E+04</pdfrwt>
<totfact> 0.11244998E+01</totfact>
</mgrwt>
</event>
<event>
12    7  0.1698542E-007  0.1738258E+04  0.7818608E-02  0.8739840E-01
         -3   -1    0    0    0  501 -0.00000000000E+00  0.00000000000E+00  0.51317223889E+03  0.51317223889E+03  0.00000000000E+00 0.  1.
          2   -1    0    0  501    0  0.00000000000E+00 -0.00000000000E+00 -0.14719911186E+04  0.14719911186E+04  0.00000000000E+00 0. -1.
         24    2    1    2    0    0 -0.59540237233E+03 -0.14189054298E+03 -0.16543086971E+03  0.63952002341E+03  0.83555828783E+02 0.  0.
        254    2    1    2    0    0  0.59540237233E+03  0.14189054298E+03 -0.79338801004E+03  0.13456433341E+04  0.89813948641E+03 0.  0.
         23    2    4    4    0    0  0.56580671583E+03  0.12170544050E+03 -0.41098015846E+02  0.58739386371E+03  0.91613592283E+02 0.  0.
         23    2    4    4    0    0  0.29595656499E+02  0.20185102475E+02 -0.75228999419E+03  0.75824947042E+03  0.87856034406E+02 0.  0.
          2    1    3    3  502    0 -0.21142534186E+03 -0.98183461334E+01 -0.60294832807E+02  0.22007394658E+03  0.00000000000E+00 0. -1.
         -1    1    3    3    0  502 -0.38397703047E+03 -0.13207219684E+03 -0.10513603690E+03  0.41944607682E+03  0.00000000000E+00 0.  1.
         13    1    5    5    0    0  0.20678819548E+03  0.89803964992E+02 -0.20382466284E+02  0.22636597547E+03  0.00000000000E+00 0. -1.
        -13    1    5    5    0    0  0.35901852035E+03  0.31901475512E+02 -0.20715549563E+02  0.36102788824E+03  0.00000000000E+00 0.  1.
          3    1    6    6  503    0  0.32391748383E+02 -0.97475943088E+01 -0.66625727658E+03  0.66711543196E+03  0.00000000000E+00 0.  1.
         -3    1    6    6    0  503 -0.27960918840E+01  0.29932696784E+02 -0.86032717610E+02  0.91134038459E+02  0.00000000000E+00 0. -1.
<mgrwt>
<rscale>  0 0.17382577E+04</rscale>
<asrwt>0</asrwt>
<pdfrwt beam="1">  1        2 0.22646017E+00 0.17382577E+04</pdfrwt>
<pdfrwt beam="2">  1       -3 0.78949576E-01 0.17382577E+04</pdfrwt>
<totfact> 0.11925717E+01</totfact>
</mgrwt>
</event>
<event>
12    7  0.1698542E-007  0.1237491E+04  0.7818608E-02  0.9080659E-01
          2   -1    0    0  501    0  0.00000000000E+00  0.00000000000E+00  0.26311811244E+04  0.26311811244E+04  0.00000000000E+00 0. -1.
         -1   -1    0    0    0  501 -0.00000000000E+00 -0.00000000000E+00 -0.14550338499E+03  0.14550338499E+03  0.00000000000E+00 0.  1.
         24    2    1    2    0    0 -0.14006226466E+03 -0.16718952279E+03  0.18854324372E+03  0.30202378372E+03  0.90000203700E+02 0.  0.
        254    2    1    2    0    0  0.14006226466E+03  0.16718952279E+03  0.22971344957E+04  0.24746607257E+04  0.89417506197E+03 0.  0.
         23    2    4    4    0    0  0.46976395801E+03  0.18257448072E+03  0.17941483962E+04  0.18657967031E+04  0.90649060937E+02 0.  0.
         23    2    4    4    0    0 -0.32970169335E+03 -0.15384957926E+02  0.50298609948E+03  0.60886402263E+03  0.93704206173E+02 0.  0.
          4    1    3    3  502    0 -0.29742535979E+02  0.36577384704E+01  0.40939126416E+02  0.50734697879E+02  0.00000000000E+00 0. -1.
         -3    1    3    3    0  502 -0.11031972868E+03 -0.17084726126E+03  0.14760411731E+03  0.25128908584E+03  0.00000000000E+00 0.  1.
         13    1    5    5    0    0  0.22687689167E+03  0.52495039726E+02  0.93422419541E+03  0.96281031385E+03  0.00000000000E+00 0. -1.
        -13    1    5    5    0    0  0.24288706633E+03  0.13007944099E+03  0.85992420084E+03  0.90298638924E+03  0.00000000000E+00 0.  1.
          2    1    6    6  503    0  0.11632421536E+01 -0.11320696272E+02  0.25593733589E+02  0.28009828550E+02  0.00000000000E+00 0.  1.
         -2    1    6    6    0  503 -0.33086493550E+03 -0.40642616542E+01  0.47739236589E+03  0.58085419407E+03  0.00000000000E+00 0. -1.
<mgrwt>
<rscale>  0 0.12374906E+04</rscale>
<asrwt>0</asrwt>
<pdfrwt beam="1">  1        2 0.40479706E+00 0.12374906E+04</pdfrwt>
<pdfrwt beam="2">  1       -1 0.22385138E-01 0.12374906E+04</pdfrwt>
<totfact> 0.55732457E+01</totfact>
</mgrwt>
</event>
<event>
12    7  0.1698542E-007  0.1658372E+04  0.7818608E-02  0.8785469E-01
         -1   -1    0    0    0  501 -0.00000000000E+00  0.00000000000E+00  0.12529322273E+04  0.12529322273E+04  0.00000000000E+00 0.  1.
          2   -1    0    0  501    0  0.00000000000E+00 -0.00000000000E+00 -0.54875225769E+03  0.54875225769E+03  0.00000000000E+00 0. -1.
         24    2    1    2    0    0 -0.15891131727E+03  0.34822708824E+03  0.74229663629E+03  0.83895310669E+03  0.79517967948E+02 0.  0.
        254    2    1    2    0    0  0.15891131727E+03 -0.34822708824E+03 -0.38116666717E+02  0.96273137827E+03  0.88254400156E+03 0.  0.
         23    2    4    4    0    0 -0.24490583794E+03 -0.41672661608E+03 -0.17245365323E+03  0.52127447447E+03  0.91361223785E+02 0.  0.
         23    2    4    4    0    0  0.40381715521E+03  0.68499527840E+02  0.13433698651E+03  0.44145690380E+03  0.95274822538E+02 0.  0.
          4    1    3    3  502    0 -0.32270988315E+02  0.13787867463E+03  0.32978023745E+03  0.35889685234E+03  0.00000000000E+00 0. -1.
         -3    1    3    3    0  502 -0.12664032895E+03  0.21034841361E+03  0.41251639884E+03  0.48005625435E+03  0.00000000000E+00 0.  1.
         13    1    5    5    0    0 -0.12203624400E+03 -0.28850320886E+03 -0.12654195529E+03  0.33784584180E+03  0.00000000000E+00 0. -1.
        -13    1    5    5    0    0 -0.12286959395E+03 -0.12822340722E+03 -0.45911697937E+02  0.18342863267E+03  0.00000000000E+00 0.  1.
          1    1    6    6  503    0  0.29609160995E+02  0.29539677670E+02 -0.40332685934E+00  0.41826518433E+02  0.00000000000E+00 0. -1.
         -1    1    6    6    0  503  0.37420799422E+03  0.38959850171E+02  0.13474031337E+03  0.39963038537E+03  0.00000000000E+00 0.  1.
<mgrwt>
<rscale>  0 0.16583720E+04</rscale>
<asrwt>0</asrwt>
<pdfrwt beam="1">  1        2 0.84423425E-01 0.16583720E+04</pdfrwt>
<pdfrwt beam="2">  1       -1 0.19275880E+00 0.16583720E+04</pdfrwt>
<totfact> 0.10175247E+01</totfact>
</mgrwt>
</event>
<event>
12    7  0.1698542E-007  0.4046055E+04  0.7818608E-02  0.7995320E-01
         -1   -1    0    0    0  501 -0.00000000000E+00  0.00000000000E+00  0.20602435889E+04  0.20602435889E+04  0.00000000000E+00 0.  1.
          2   -1    0    0  501    0  0.00000000000E+00 -0.00000000000E+00 -0.19864837918E+04  0.19864837918E+04  0.00000000000E+00 0. -1.
         24    2    1    2    0    0 -0.30319524662E+03 -0.17895487538E+04 -0.59803502088E+03  0.19126977477E+04  0.79716298850E+02 0.  0.
        254    2    1    2    0    0  0.30319524662E+03  0.17895487538E+04  0.67179481799E+03  0.21340296330E+04  0.89908959353E+03 0.  0.
         23    2    4    4    0    0 -0.16844691307E+03  0.29049305629E+03 -0.12645184330E+03  0.36918902291E+03  0.86890089695E+02 0.  0.
         23    2    4    4    0    0  0.47164215968E+03  0.14990556975E+04  0.79824666129E+03  0.17648406101E+04  0.88602120217E+02 0.  0.
          2    1    3    3  502    0 -0.15697251674E+03 -0.10867671190E+04 -0.33174312797E+03  0.11470643596E+04  0.00000000000E+00 0. -1.
         -1    1    3    3    0  502 -0.14622272987E+03 -0.70278163473E+03 -0.26629189290E+03  0.76563338816E+03  0.00000000000E+00 0.  1.
         13    1    5    5    0    0 -0.15040585934E+03  0.19782404284E+03 -0.66137269876E+02  0.25715834211E+03  0.00000000000E+00 0.  1.
        -13    1    5    5    0    0 -0.18041053731E+02  0.92669013450E+02 -0.60314573424E+02  0.11203068080E+03  0.00000000000E+00 0. -1.
          1    1    6    6  503    0  0.12601990779E+03  0.45949897916E+03  0.20122166200E+03  0.51721415899E+03  0.00000000000E+00 0. -1.
         -1    1    6    6    0  503  0.34562225189E+03  0.10395567183E+04  0.59702499929E+03  0.12476264511E+04  0.00000000000E+00 0.  1.
<mgrwt>
<rscale>  0 0.40460551E+04</rscale>
<asrwt>0</asrwt>
<pdfrwt beam="1">  1        2 0.30561289E+00 0.40460551E+04</pdfrwt>
<pdfrwt beam="2">  1       -1 0.31696055E+00 0.40460551E+04</pdfrwt>
<totfact> 0.15572680E-01</totfact>
</mgrwt>
</event>
<event>
12    7  0.1698542E-007  0.3602858E+04  0.7818608E-02  0.8089837E-01
         -1   -1    0    0    0  501 -0.00000000000E+00  0.00000000000E+00  0.89702060057E+03  0.89702060057E+03  0.00000000000E+00 0.  1.
          2   -1    0    0  501    0  0.00000000000E+00 -0.00000000000E+00 -0.36176950826E+04  0.36176950826E+04  0.00000000000E+00 0. -1.
         24    2    1    2    0    0  0.56104665096E+02  0.32438316737E+03 -0.33558953832E+04  0.33731347132E+04  0.87360161052E+02 0.  0.
        254    2    1    2    0    0 -0.56104665096E+02 -0.32438316737E+03  0.63522090121E+03  0.11415809699E+04  0.88956694230E+03 0.  0.
         23    2    4    4    0    0  0.10892884699E+03  0.15433613116E+03  0.58935363815E+03  0.62515489194E+03  0.88293788185E+02 0.  0.
         23    2    4    4    0    0 -0.16503351209E+03 -0.47871929853E+03  0.45867263056E+02  0.51642607798E+03  0.90464696399E+02 0.  0.
          4    1    3    3  502    0  0.75570207843E+02  0.29038900766E+03 -0.30548770351E+04  0.30695782010E+04  0.00000000000E+00 0. -1.
         -3    1    3    3    0  502 -0.19465542747E+02  0.33994159711E+02 -0.30101834809E+03  0.30355651226E+03  0.00000000000E+00 0.  1.
         13    1    5    5    0    0  0.10991527184E+03  0.12665160516E+03  0.39918019293E+03  0.43297439013E+03  0.00000000000E+00 0.  1.
        -13    1    5    5    0    0 -0.98642485020E+00  0.27684526001E+02  0.19017344522E+03  0.19218050182E+03  0.00000000000E+00 0. -1.
          2    1    6    6  503    0 -0.69859746259E+02 -0.33207609933E+03  0.37414157330E+02  0.34140114098E+03  0.00000000000E+00 0. -1.
         -2    1    6    6    0  503 -0.95173765828E+02 -0.14664319920E+03  0.84531057263E+01  0.17502493700E+03  0.00000000000E+00 0.  1.
<mgrwt>
<rscale>  0 0.36028583E+04</rscale>
<asrwt>0</asrwt>
<pdfrwt beam="1">  1        2 0.55656848E+00 0.36028583E+04</pdfrwt>
<pdfrwt beam="2">  1       -1 0.13800317E+00 0.36028583E+04</pdfrwt>
<totfact> 0.26929372E-01</totfact>
</mgrwt>
</event>
<event>
12    7  0.1698542E-007  0.1506083E+04  0.7818608E-02  0.8880418E-01
          2   -1    0    0  501    0  0.00000000000E+00  0.00000000000E+00  0.11486100581E+04  0.11486100581E+04  0.00000000000E+00 0. -1.
         -1   -1    0    0    0  501 -0.00000000000E+00 -0.00000000000E+00 -0.49370238167E+03  0.49370238167E+03  0.00000000000E+00 0.  1.
         24    2    1    2    0    0  0.84466770795E+02  0.20583022474E+03 -0.25586109259E+03  0.35041867653E+03  0.88473913526E+02 0.  0.
        254    2    1    2    0    0 -0.84466770795E+02 -0.20583022474E+03  0.91076876906E+03  0.12918937633E+04  0.88881326955E+03 0.  0.
         23    2    4    4    0    0  0.11534199331E+03  0.31680555146E+03  0.31804122590E+03  0.47175242547E+03  0.87923811987E+02 0.  0.
         23    2    4    4    0    0 -0.19980876411E+03 -0.52263577619E+03  0.59272754316E+03  0.82014133781E+03  0.90742364931E+02 0.  0.
          2    1    3    3  502    0  0.32889860314E+02  0.98401800927E+01 -0.21162919729E+02  0.40329161003E+02  0.00000000000E+00 0. -1.
         -1    1    3    3    0  502  0.51576910481E+02  0.19599004464E+03 -0.23469817287E+03  0.31008951553E+03  0.00000000000E+00 0.  1.
         13    1    5    5    0    0  0.11939440977E+03  0.21761780714E+03  0.24243721243E+03  0.34697022500E+03  0.00000000000E+00 0.  1.
        -13    1    5    5    0    0 -0.40524164537E+01  0.99187744316E+02  0.75604013469E+02  0.12478220047E+03  0.00000000000E+00 0. -1.
          1    1    6    6  503    0 -0.18747491750E+03 -0.50006792050E+03  0.58738496602E+03  0.79387396236E+03  0.00000000000E+00 0. -1.
         -1    1    6    6    0  503 -0.12333846608E+02 -0.22567855685E+02  0.53425771408E+01  0.26267375447E+02  0.00000000000E+00 0.  1.
<mgrwt>
<rscale>  0 0.15060830E+04</rscale>
<asrwt>0</asrwt>
<pdfrwt beam="1">  1        2 0.17670924E+00 0.15060830E+04</pdfrwt>
<pdfrwt beam="2">  1       -1 0.75954213E-01 0.15060830E+04</pdfrwt>
<totfact> 0.39011925E+01</totfact>
</mgrwt>
</event>
<event>
12    7  0.1698542E-007  0.1826052E+04  0.7818608E-02  0.8692567E-01
          2   -1    0    0  501    0  0.00000000000E+00  0.00000000000E+00  0.33366527634E+04  0.33366527634E+04  0.00000000000E+00 0. -1.
         -1   -1    0    0    0  501 -0.00000000000E+00 -0.00000000000E+00 -0.24983615433E+03  0.24983615433E+03  0.00000000000E+00 0.  1.
         24    2    1    2    0    0 -0.50861834898E+03  0.16187163290E+03  0.20361620298E+04  0.21065267455E+04  0.81265414934E+02 0.  0.
        254    2    1    2    0    0  0.50861834898E+03 -0.16187163290E+03  0.10506545793E+04  0.14799621722E+04  0.89527534072E+03 0.  0.
         23    2    4    4    0    0  0.12374595360E+03  0.23632893441E+02  0.10313870479E+04  0.10427206544E+04  0.87381610239E+02 0.  0.
         23    2    4    4    0    0  0.38487239539E+03 -0.18550452634E+03  0.19267531393E+02  0.43724151783E+03  0.90940734126E+02 0.  0.
          4    1    3    3  502    0 -0.48004839999E+03  0.17073198284E+03  0.19010344809E+04  0.19681280380E+04  0.00000000000E+00 0. -1.
         -3    1    3    3    0  502 -0.28569948991E+02 -0.88603499466E+01  0.13512754888E+03  0.13839870756E+03  0.00000000000E+00 0.  1.
         13    1    5    5    0    0  0.12987999225E+03  0.19373360689E+02  0.76215234127E+03  0.77338239623E+03  0.00000000000E+00 0. -1.
        -13    1    5    5    0    0 -0.61340386557E+01  0.42595327520E+01  0.26923470662E+03  0.26933825815E+03  0.00000000000E+00 0.  1.
          2    1    6    6  503    0  0.34693578963E+03 -0.17441455629E+03  0.43721433910E+02  0.39076392279E+03  0.00000000000E+00 0. -1.
         -2    1    6    6    0  503  0.37936605757E+02 -0.11089970048E+02 -0.24453902518E+02  0.46477595037E+02  0.00000000000E+00 0.  1.
<mgrwt>
<rscale>  0 0.18260520E+04</rscale>
<asrwt>0</asrwt>
<pdfrwt beam="1">  1        2 0.51333116E+00 0.18260520E+04</pdfrwt>
<pdfrwt beam="2">  1       -1 0.38436334E-01 0.18260520E+04</pdfrwt>
<totfact> 0.74420922E+00</totfact>
</mgrwt>
</event>
<event>
12    7  0.1698542E-007  0.1549825E+04  0.7818608E-02  0.8851979E-01
         -1   -1    0    0    0  501 -0.00000000000E+00  0.00000000000E+00  0.25515890802E+03  0.25515890802E+03  0.00000000000E+00 0.  1.
          2   -1    0    0  501    0  0.00000000000E+00 -0.00000000000E+00 -0.23533948657E+04  0.23533948657E+04  0.00000000000E+00 0. -1.
         24    2    1    2    0    0  0.11894289284E+03 -0.97383711328E+02  0.11452154575E+03  0.20733626083E+03  0.79007225138E+02 0.  0.
        254    2    1    2    0    0 -0.11894289284E+03  0.97383711328E+02 -0.22127575034E+04  0.24012175128E+04  0.91973842814E+03 0.  0.
         23    2    4    4    0    0 -0.43842758756E+03 -0.15872687830E+03 -0.83644901856E+03  0.96185696080E+03  0.90049325187E+02 0.  0.
         23    2    4    4    0    0  0.31948469472E+03  0.25611058963E+03 -0.13763084848E+04  0.14393605520E+04  0.99351140351E+02 0.  0.
          2    1    3    3  502    0 -0.71220447590E+01 -0.42697920706E+01 -0.54772470777E+01  0.99476068190E+01  0.00000000000E+00 0. -1.
         -1    1    3    3    0  502  0.12606493760E+03 -0.93113919258E+02  0.11999879283E+03  0.19738865401E+03  0.00000000000E+00 0.  1.
         13    1    5    5    0    0 -0.75770862286E+02  0.34191877000E+01 -0.16693679602E+03  0.18335977825E+03  0.00000000000E+00 0.  1.
        -13    1    5    5    0    0 -0.36265672527E+03 -0.16214606600E+03 -0.66951222254E+03  0.77849718255E+03  0.00000000000E+00 0. -1.
          1    1    6    6  503    0  0.20254358774E+03  0.18411584136E+03 -0.10551198022E+04  0.10900460288E+04  0.00000000000E+00 0. -1.
         -1    1    6    6    0  503  0.11694110697E+03  0.71994748269E+02 -0.32118868263E+03  0.34931452322E+03  0.00000000000E+00 0.  1.
<mgrwt>
<rscale>  0 0.15498254E+04</rscale>
<asrwt>0</asrwt>
<pdfrwt beam="1">  1        2 0.36206074E+00 0.15498254E+04</pdfrwt>
<pdfrwt beam="2">  1       -1 0.39255217E-01 0.15498254E+04</pdfrwt>
<totfact> 0.29261128E+01</totfact>
</mgrwt>
</event>
<event>
12    7  0.1698542E-007  0.1844053E+04  0.7818608E-02  0.8683217E-01
          2   -1    0    0  501    0  0.00000000000E+00  0.00000000000E+00  0.12337888580E+04  0.12337888580E+04  0.00000000000E+00 0. -1.
         -1   -1    0    0    0  501 -0.00000000000E+00 -0.00000000000E+00 -0.68904226508E+03  0.68904226508E+03  0.00000000000E+00 0.  1.
         24    2    1    2    0    0 -0.47303020006E+03  0.18009211626E+03  0.71217899751E+03  0.87818958400E+03  0.88471918967E+02 0.  0.
        254    2    1    2    0    0  0.47303020006E+03 -0.18009211626E+03 -0.16743240461E+03  0.10446415391E+04  0.89836050366E+03 0.  0.
         23    2    4    4    0    0  0.66090355542E+03  0.10822715631E+03 -0.12255244064E+03  0.68577188664E+03  0.82203119617E+02 0.  0.
         23    2    4    4    0    0 -0.18787335536E+03 -0.28831927258E+03 -0.44879963962E+02  0.35886965243E+03  0.91371853861E+02 0.  0.
          4    1    3    3  502    0 -0.36830749301E+03  0.17570236690E+03  0.54441795166E+03  0.68037683472E+03  0.00000000000E+00 0. -1.
         -3    1    3    3    0  502 -0.10472270705E+03  0.43897493628E+01  0.16776104586E+03  0.19781274928E+03  0.00000000000E+00 0.  1.
         13    1    5    5    0    0  0.35936655033E+03  0.56793362449E+02 -0.10806714499E+03  0.37953696966E+03  0.00000000000E+00 0.  1.
        -13    1    5    5    0    0  0.30153700509E+03  0.51433793866E+02 -0.14485295658E+02  0.30623491698E+03  0.00000000000E+00 0. -1.
          3    1    6    6  503    0 -0.14791556878E+03 -0.16345442035E+03 -0.45962484286E+00  0.22044630701E+03  0.00000000000E+00 0.  1.
         -3    1    6    6    0  503 -0.39957786574E+02 -0.12486485222E+03 -0.44420339120E+02  0.13842334542E+03  0.00000000000E+00 0. -1.
<mgrwt>
<rscale>  0 0.18440528E+04</rscale>
<asrwt>0</asrwt>
<pdfrwt beam="1">  1        2 0.18981367E+00 0.18440528E+04</pdfrwt>
<pdfrwt beam="2">  1       -1 0.10600650E+00 0.18440528E+04</pdfrwt>
<totfact> 0.16150055E+01</totfact>
</mgrwt>
</event>
<event>
12    7  0.1698542E-007  0.2372005E+04  0.7818608E-02  0.8450059E-01
          2   -1    0    0  501    0  0.00000000000E+00  0.00000000000E+00  0.49113763764E+03  0.49113763764E+03  0.00000000000E+00 0. -1.
         -1   -1    0    0    0  501 -0.00000000000E+00 -0.00000000000E+00 -0.28639677216E+04  0.28639677216E+04  0.00000000000E+00 0.  1.
         24    2    1    2    0    0 -0.38339859518E+03 -0.79312430100E+03 -0.30458904137E+03  0.93549803890E+03  0.79633265912E+02 0.  0.
        254    2    1    2    0    0  0.38339859518E+03  0.79312430100E+03 -0.20682410425E+04  0.24196073203E+04  0.89489548814E+03 0.  0.
         23    2    4    4    0    0  0.63691808463E+03  0.34497043803E+03 -0.11257651855E+04  0.13417080981E+04  0.90355509840E+02 0.  0.
         23    2    4    4    0    0 -0.25351948945E+03  0.44815386297E+03 -0.94247585709E+03  0.10778992222E+04  0.92151915336E+02 0.  0.
          4    1    3    3  502    0 -0.33396292764E+03 -0.64438688462E+03 -0.22598414232E+03  0.76015427821E+03  0.00000000000E+00 0. -1.
         -3    1    3    3    0  502 -0.49435667543E+02 -0.14873741638E+03 -0.78604899051E+02  0.17534376069E+03  0.00000000000E+00 0.  1.
         13    1    5    5    0    0  0.11855577976E+02 -0.15590336399E+01 -0.40689827785E+02  0.42410463334E+02  0.00000000000E+00 0. -1.
        -13    1    5    5    0    0  0.62506250666E+03  0.34652947167E+03 -0.10850753577E+04  0.12992976348E+04  0.00000000000E+00 0.  1.
          4    1    6    6  503    0 -0.40194111640E+02  0.48499489340E+02 -0.65798957050E+02  0.91089350780E+02  0.00000000000E+00 0. -1.
         -4    1    6    6    0  503 -0.21332537781E+03  0.39965437363E+03 -0.87667690004E+03  0.98680987137E+03  0.00000000000E+00 0.  1.
<mgrwt>
<rscale>  0 0.23720053E+04</rscale>
<asrwt>0</asrwt>
<pdfrwt beam="1">  1        2 0.75559635E-01 0.23720053E+04</pdfrwt>
<pdfrwt beam="2">  1       -1 0.44061043E+00 0.23720053E+04</pdfrwt>
<totfact> 0.24294997E-01</totfact>
</mgrwt>
</event>
<event>
12    7  0.1698542E-007  0.3625160E+04  0.7818608E-02  0.8084753E-01
         -1   -1    0    0    0  501 -0.00000000000E+00  0.00000000000E+00  0.18675087162E+04  0.18675087162E+04  0.00000000000E+00 0.  1.
          2   -1    0    0  501    0  0.00000000000E+00 -0.00000000000E+00 -0.17592672364E+04  0.17592672364E+04  0.00000000000E+00 0. -1.
         24    2    1    2    0    0  0.16110746630E+04 -0.29575550867E+03  0.50631948117E+03  0.17161547416E+04  0.76123514590E+02 0.  0.
        254    2    1    2    0    0 -0.16110746630E+04  0.29575550867E+03 -0.39807800136E+03  0.19106212111E+04  0.89943005647E+03 0.  0.
         23    2    4    4    0    0 -0.37928389752E+03  0.48174845599E+03 -0.12505557625E+03  0.63188943297E+03  0.87792417525E+02 0.  0.
         23    2    4    4    0    0 -0.12317907655E+04 -0.18599294732E+03 -0.27302242510E+03  0.12787317781E+04  0.93337288575E+02 0.  0.
          2    1    3    3  502    0  0.63146917750E+03 -0.14035870187E+03  0.17020442119E+03  0.66889717619E+03  0.00000000000E+00 0. -1.
         -1    1    3    3    0  502  0.97960548547E+03 -0.15539680680E+03  0.33611505998E+03  0.10472575654E+04  0.00000000000E+00 0.  1.
         13    1    5    5    0    0 -0.11206319097E+03  0.18615532780E+03 -0.77019049994E+02  0.23052960526E+03  0.00000000000E+00 0. -1.
        -13    1    5    5    0    0 -0.26722070655E+03  0.29559312820E+03 -0.48036526260E+02  0.40135982771E+03  0.00000000000E+00 0.  1.
          3    1    6    6  503    0 -0.65252334037E+03 -0.58169692749E+02 -0.11861574426E+03  0.66576280886E+03  0.00000000000E+00 0. -1.
         -3    1    6    6    0  503 -0.57926742509E+03 -0.12782325457E+03 -0.15440668084E+03  0.61296896925E+03  0.00000000000E+00 0.  1.
<mgrwt>
<rscale>  0 0.36251604E+04</rscale>
<asrwt>0</asrwt>
<pdfrwt beam="1">  1        2 0.27065650E+00 0.36251604E+04</pdfrwt>
<pdfrwt beam="2">  1       -1 0.28730903E+00 0.36251604E+04</pdfrwt>
<totfact> 0.33580039E-01</totfact>
</mgrwt>
</event>
<event>
12    7  0.1698542E-007  0.1354173E+04  0.7818608E-02  0.8987675E-01
          2   -1    0    0  501    0  0.00000000000E+00  0.00000000000E+00  0.12654488153E+04  0.12654488153E+04  0.00000000000E+00 0. -1.
         -1   -1    0    0    0  501 -0.00000000000E+00 -0.00000000000E+00 -0.36227953285E+03  0.36227953285E+03  0.00000000000E+00 0.  1.
         24    2    1    2    0    0 -0.13104938037E+02  0.10326739603E+03  0.66464687032E+03  0.67737236987E+03  0.79006143718E+02 0.  0.
        254    2    1    2    0    0  0.13104938037E+02 -0.10326739603E+03  0.23852241210E+03  0.95035597824E+03  0.91402825439E+03 0.  0.
         23    2    4    4    0    0  0.13853346007E+03 -0.40805818399E+03  0.37894201341E+03  0.58086837713E+03  0.90044549761E+02 0.  0.
         23    2    4    4    0    0 -0.12542852203E+03  0.30479078796E+03 -0.14041960132E+03  0.36948760111E+03  0.90408430913E+02 0.  0.
          2    1    3    3  502    0 -0.38605114870E+02  0.64897609676E+02  0.52295898914E+03  0.52838258768E+03  0.00000000000E+00 0. -1.
         -1    1    3    3    0  502  0.25500176833E+02  0.38369786355E+02  0.14168788118E+03  0.14898978219E+03  0.00000000000E+00 0.  1.
         13    1    5    5    0    0  0.14546513396E+02 -0.17678823862E+03  0.14010713117E+03  0.22604355901E+03  0.00000000000E+00 0. -1.
        -13    1    5    5    0    0  0.12398694667E+03 -0.23126994537E+03  0.23883488225E+03  0.35482481812E+03  0.00000000000E+00 0.  1.
          4    1    6    6  503    0 -0.11466082017E+02  0.75500376300E+02  0.21992492664E+01  0.76397739205E+02  0.00000000000E+00 0. -1.
         -4    1    6    6    0  503 -0.11396244002E+03  0.22929041166E+03 -0.14261885058E+03  0.29308986191E+03  0.00000000000E+00 0.  1.
<mgrwt>
<rscale>  0 0.13541731E+04</rscale>
<asrwt>0</asrwt>
<pdfrwt beam="1">  1        2 0.19468443E+00 0.13541731E+04</pdfrwt>
<pdfrwt beam="2">  1       -1 0.55735313E-01 0.13541731E+04</pdfrwt>
<totfact> 0.62768754E+01</totfact>
</mgrwt>
</event>
<event>
12    7  0.1698542E-007  0.1239467E+04  0.7818608E-02  0.9078995E-01
          2   -1    0    0  501    0  0.00000000000E+00  0.00000000000E+00  0.73271590508E+03  0.73271590508E+03  0.00000000000E+00 0. -1.
         -1   -1    0    0    0  501 -0.00000000000E+00 -0.00000000000E+00 -0.52417284009E+03  0.52417284009E+03  0.00000000000E+00 0.  1.
         24    2    1    2    0    0 -0.21138631723E+03  0.78678951347E+02  0.24848719490E+03  0.34522279947E+03  0.80983595579E+02 0.  0.
        254    2    1    2    0    0  0.21138631723E+03 -0.78678951347E+02 -0.39944129910E+02  0.91166594570E+03  0.88241980403E+03 0.  0.
         23    2    4    4    0    0  0.48384776661E+03  0.67444848225E+02 -0.21891447943E+03  0.54305479885E+03  0.91255117361E+02 0.  0.
         23    2    4    4    0    0 -0.27246144938E+03 -0.14612379957E+03  0.17897034952E+03  0.36861114685E+03  0.90864654169E+02 0.  0.
          2    1    3    3  502    0 -0.13483830453E+03  0.56965291931E+02  0.10164300410E+03  0.17820693907E+03  0.00000000000E+00 0. -1.
         -1    1    3    3    0  502 -0.76548012700E+02  0.21713659416E+02  0.14684419080E+03  0.16701586040E+03  0.00000000000E+00 0.  1.
         13    1    5    5    0    0  0.30748879693E+03  0.13155081557E+02 -0.17235898960E+03  0.35274642125E+03  0.00000000000E+00 0. -1.
        -13    1    5    5    0    0  0.17635896968E+03  0.54289766669E+02 -0.46555489828E+02  0.19030837760E+03  0.00000000000E+00 0.  1.
          1    1    6    6  503    0 -0.21689302233E+02 -0.75407563850E+01  0.48755731030E+02  0.53892579698E+02  0.00000000000E+00 0. -1.
         -1    1    6    6    0  503 -0.25077214715E+03 -0.13858304319E+03  0.13021461849E+03  0.31471856716E+03  0.00000000000E+00 0.  1.
<mgrwt>
<rscale>  0 0.12394673E+04</rscale>
<asrwt>0</asrwt>
<pdfrwt beam="1">  1        2 0.11272552E+00 0.12394673E+04</pdfrwt>
<pdfrwt beam="2">  1       -1 0.80641975E-01 0.12394673E+04</pdfrwt>
<totfact> 0.66646046E+01</totfact>
</mgrwt>
</event>
<event>
12    7  0.1698542E-007  0.2129501E+04  0.7818608E-02  0.8548358E-01
         -1   -1    0    0    0  501 -0.00000000000E+00  0.00000000000E+00  0.77078832377E+03  0.77078832377E+03  0.00000000000E+00 0.  1.
          2   -1    0    0  501    0  0.00000000000E+00 -0.00000000000E+00 -0.14708234613E+04  0.14708234613E+04  0.00000000000E+00 0. -1.
         24    2    1    2    0    0 -0.35259677286E+03 -0.59296954715E+03  0.26414178493E+03  0.74322046025E+03  0.81660283562E+02 0.  0.
        254    2    1    2    0    0  0.35259677286E+03  0.59296954715E+03 -0.96417692250E+03  0.14983913249E+04  0.91629801728E+03 0.  0.
         23    2    4    4    0    0  0.59094071134E+00 -0.24427687517E+02 -0.74242538088E+03  0.74839939297E+03  0.91154506739E+02 0.  0.
         23    2    4    4    0    0  0.35200583215E+03  0.61739723466E+03 -0.22175154162E+03  0.74999193189E+03  0.90701160138E+02 0.  0.
          2    1    3    3  502    0 -0.59626936862E+02 -0.51158412041E+02  0.35381425724E+02  0.86164958123E+02  0.00000000000E+00 0. -1.
         -1    1    3    3    0  502 -0.29296983600E+03 -0.54181113511E+03  0.22876035921E+03  0.65705550213E+03  0.00000000000E+00 0.  1.
         13    1    5    5    0    0 -0.31084524373E+02  0.82602486196E+01 -0.53832907058E+03  0.53928903901E+03  0.00000000000E+00 0. -1.
        -13    1    5    5    0    0  0.31675465084E+02 -0.32687936136E+02 -0.20409631030E+03  0.20911035397E+03  0.00000000000E+00 0.  1.
          4    1    6    6  503    0  0.24329817166E+03  0.49553525759E+03 -0.15336616488E+03  0.57294883924E+03  0.00000000000E+00 0. -1.
         -4    1    6    6    0  503  0.10870766049E+03  0.12186197707E+03 -0.68385376743E+02  0.17704309265E+03  0.00000000000E+00 0.  1.
<mgrwt>
<rscale>  0 0.21295009E+04</rscale>
<asrwt>0</asrwt>
<pdfrwt beam="1">  1        2 0.22628053E+00 0.21295009E+04</pdfrwt>
<pdfrwt beam="2">  1       -1 0.11858282E+00 0.21295009E+04</pdfrwt>
<totfact> 0.88032655E+00</totfact>
</mgrwt>
</event>
<event>
12    7  0.1698542E-007  0.1476536E+04  0.7818608E-02  0.8900208E-01
         -1   -1    0    0    0  501 -0.00000000000E+00  0.00000000000E+00  0.47574484534E+03  0.47574484534E+03  0.00000000000E+00 0.  1.
          2   -1    0    0  501    0  0.00000000000E+00 -0.00000000000E+00 -0.11456558610E+04  0.11456558610E+04  0.00000000000E+00 0. -1.
         24    2    1    2    0    0 -0.20061086692E+03  0.30968598921E+03  0.86276827700E+02  0.38681636641E+03  0.77672894128E+02 0.  0.
        254    2    1    2    0    0  0.20061086692E+03 -0.30968598921E+03 -0.75618784334E+03  0.12345843399E+04  0.90345354397E+03 0.  0.
         23    2    4    4    0    0  0.26042644455E+02  0.30040267119E+03 -0.37070101378E+03  0.48654602887E+03  0.91585000980E+02 0.  0.
         23    2    4    4    0    0  0.17456822247E+03 -0.61008866039E+03 -0.38548682956E+03  0.74803831105E+03  0.90988906968E+02 0.  0.
          2    1    3    3  502    0 -0.13160152644E+03  0.20166946983E+03  0.93759825842E+02  0.25841912036E+03  0.00000000000E+00 0. -1.
         -3    1    3    3    0  502 -0.69009340481E+02  0.10801651937E+03 -0.74829981425E+01  0.12839724605E+03  0.00000000000E+00 0.  1.
         13    1    5    5    0    0  0.29449718538E+02  0.10094766012E+03 -0.72320804351E+02  0.12762450684E+03  0.00000000000E+00 0. -1.
        -13    1    5    5    0    0 -0.34070740830E+01  0.19945501107E+03 -0.29838020943E+03  0.35892152202E+03  0.00000000000E+00 0.  1.
          1    1    6    6  503    0  0.15663225301E+01 -0.26793205969E+02  0.16699956953E+01  0.26890856030E+02  0.00000000000E+00 0. -1.
         -1    1    6    6    0  503  0.17300189994E+03 -0.58329545443E+03 -0.38715682526E+03  0.72114745502E+03  0.00000000000E+00 0.  1.
<mgrwt>
<rscale>  0 0.14765363E+04</rscale>
<asrwt>0</asrwt>
<pdfrwt beam="1">  1        2 0.17625474E+00 0.14765363E+04</pdfrwt>
<pdfrwt beam="2">  1       -1 0.73191516E-01 0.14765363E+04</pdfrwt>
<totfact> 0.42423351E+01</totfact>
</mgrwt>
</event>
<event>
12    7  0.1698542E-007  0.2837800E+04  0.7818608E-02  0.8291628E-01
          2   -1    0    0  501    0  0.00000000000E+00  0.00000000000E+00  0.15397036493E+04  0.15397036493E+04  0.00000000000E+00 0. -1.
         -1   -1    0    0    0  501 -0.00000000000E+00 -0.00000000000E+00 -0.13075746959E+04  0.13075746959E+04  0.00000000000E+00 0.  1.
         24    2    1    2    0    0 -0.11816443302E+04 -0.39999762081E+03  0.23362530145E+03  0.12718155997E+04  0.81564197299E+02 0.  0.
        254    2    1    2    0    0  0.11816443302E+04  0.39999762081E+03 -0.14963480231E+01  0.15754627455E+04  0.96218459961E+03 0.  0.
         23    2    4    4    0    0  0.74112493019E+03 -0.11179261312E+03 -0.32360127755E+03  0.82151447530E+03  0.91676037184E+02 0.  0.
         23    2    4    4    0    0  0.44051940004E+03  0.51179023393E+03  0.32210492953E+03  0.75394827024E+03  0.93272842900E+02 0.  0.
          2    1    3    3  502    0 -0.11472250567E+04 -0.37685276117E+03  0.23554185722E+03  0.12302939896E+04  0.00000000000E+00 0. -1.
         -1    1    3    3    0  502 -0.34419273556E+02 -0.23144859636E+02 -0.19165557783E+01  0.41521610105E+02  0.00000000000E+00 0.  1.
         13    1    5    5    0    0  0.25133636568E+03 -0.87848003770E+01 -0.14377399298E+03  0.28968621383E+03  0.00000000000E+00 0.  1.
        -13    1    5    5    0    0  0.48978856451E+03 -0.10300781274E+03 -0.17982728458E+03  0.53182826146E+03  0.00000000000E+00 0. -1.
          2    1    6    6  503    0  0.39586423279E+03  0.45446518152E+03  0.31730717431E+03  0.68112475721E+03  0.00000000000E+00 0. -1.
         -2    1    6    6    0  503  0.44655167248E+02  0.57325052408E+02  0.47977552219E+01  0.72823513034E+02  0.00000000000E+00 0.  1.
<mgrwt>
<rscale>  0 0.28378002E+04</rscale>
<asrwt>0</asrwt>
<pdfrwt beam="1">  1        2 0.23687748E+00 0.28378002E+04</pdfrwt>
<pdfrwt beam="2">  1       -1 0.20116534E+00 0.28378002E+04</pdfrwt>
<totfact> 0.17594239E+00</totfact>
</mgrwt>
</event>
<event>
12    7  0.1698542E-007  0.1207969E+04  0.7818608E-02  0.9105910E-01
          2   -1    0    0  501    0  0.00000000000E+00  0.00000000000E+00  0.14309691435E+04  0.14309691435E+04  0.00000000000E+00 0. -1.
         -1   -1    0    0    0  501 -0.00000000000E+00 -0.00000000000E+00 -0.25493012645E+03  0.25493012645E+03  0.00000000000E+00 0.  1.
         24    2    1    2    0    0  0.11668256437E+03 -0.14368454725E+03  0.51569196674E+03  0.55302748841E+03  0.75107445938E+02 0.  0.
        254    2    1    2    0    0 -0.11668256437E+03  0.14368454725E+03  0.66034705031E+03  0.11328717815E+04  0.90170958550E+03 0.  0.
         23    2    4    4    0    0 -0.83851077809E+02 -0.20641130900E+03 -0.12457893037E+03  0.26794688274E+03  0.81479999663E+02 0.  0.
         23    2    4    4    0    0 -0.32831486564E+02  0.35009585625E+03  0.78492598068E+03  0.86492489878E+03  0.91330555215E+02 0.  0.
          2    1    3    3  502    0  0.66427125977E+02 -0.28577497298E+02  0.15361002316E+03  0.16978008020E+03  0.00000000000E+00 0. -1.
         -1    1    3    3    0  502  0.50255438396E+02 -0.11510704995E+03  0.36208194358E+03  0.38324740822E+03  0.00000000000E+00 0.  1.
         13    1    5    5    0    0 -0.75815663691E+02 -0.89316453317E+02 -0.42082015703E+02  0.12448429515E+03  0.00000000000E+00 0.  1.
        -13    1    5    5    0    0 -0.80354141182E+01 -0.11709485569E+03 -0.82496914671E+02  0.14346258759E+03  0.00000000000E+00 0. -1.
          2    1    6    6  503    0 -0.12045901769E+02  0.24621101142E+02  0.13505701712E+03  0.13781037786E+03  0.00000000000E+00 0. -1.
         -2    1    6    6    0  503 -0.20785584795E+02  0.32547475511E+03  0.64986896356E+03  0.72711452093E+03  0.00000000000E+00 0.  1.
<mgrwt>
<rscale>  0 0.12079688E+04</rscale>
<asrwt>0</asrwt>
<pdfrwt beam="1">  1        2 0.22014910E+00 0.12079688E+04</pdfrwt>
<pdfrwt beam="2">  1       -1 0.39220020E-01 0.12079688E+04</pdfrwt>
<totfact> 0.98536444E+01</totfact>
</mgrwt>
</event>
<event>
12    7  0.1698542E-007  0.1879845E+04  0.7818608E-02  0.8664955E-01
          2   -1    0    0  501    0  0.00000000000E+00  0.00000000000E+00  0.11640317892E+04  0.11640317892E+04  0.00000000000E+00 0. -1.
         -1   -1    0    0    0  501 -0.00000000000E+00 -0.00000000000E+00 -0.75896023925E+03  0.75896023925E+03  0.00000000000E+00 0.  1.
         24    2    1    2    0    0 -0.44526440866E+03  0.56589224956E+03  0.20220431624E+03  0.75224796507E+03  0.80597665631E+02 0.  0.
        254    2    1    2    0    0  0.44526440866E+03 -0.56589224956E+03  0.20286723376E+03  0.11707440634E+04  0.90055100677E+03 0.  0.
         23    2    4    4    0    0  0.21503336521E+03 -0.76716362409E+03  0.26605731805E+03  0.84493130610E+03  0.91340249909E+02 0.  0.
         23    2    4    4    0    0  0.23023104345E+03  0.20127137453E+03 -0.63190084290E+02  0.32581275734E+03  0.92975623236E+02 0.  0.
          4    1    3    3  502    0 -0.50972070107E+02  0.10249238021E+03  0.13777228343E+02  0.11529376372E+03  0.00000000000E+00 0. -1.
         -3    1    3    3    0  502 -0.39429233856E+03  0.46339986935E+03  0.18842708789E+03  0.63695420135E+03  0.00000000000E+00 0.  1.
         13    1    5    5    0    0  0.20207538153E+03 -0.64752305434E+03  0.25265336289E+03  0.72384686744E+03  0.00000000000E+00 0.  1.
        -13    1    5    5    0    0  0.12957983677E+02 -0.11964056974E+03  0.13403955164E+02  0.12108443865E+03  0.00000000000E+00 0. -1.
          4    1    6    6  503    0  0.14307441888E+03  0.93055660517E+02  0.56035381729E+01  0.17076605322E+03  0.00000000000E+00 0. -1.
         -4    1    6    6    0  503  0.87156624576E+02  0.10821571401E+03 -0.68793622463E+02  0.15504670412E+03  0.00000000000E+00 0.  1.
<mgrwt>
<rscale>  0 0.18798445E+04</rscale>
<asrwt>0</asrwt>
<pdfrwt beam="1">  1        2 0.17908181E+00 0.18798445E+04</pdfrwt>
<pdfrwt beam="2">  1       -1 0.11676311E+00 0.18798445E+04</pdfrwt>
<totfact> 0.14093339E+01</totfact>
</mgrwt>
</event>
<event>
12    7  0.1698542E-007  0.2447727E+04  0.7818608E-02  0.8421848E-01
          2   -1    0    0  501    0  0.00000000000E+00  0.00000000000E+00  0.99434615437E+03  0.99434615437E+03  0.00000000000E+00 0. -1.
         -1   -1    0    0    0  501 -0.00000000000E+00 -0.00000000000E+00 -0.15063587764E+04  0.15063587764E+04  0.00000000000E+00 0.  1.
         24    2    1    2    0    0 -0.66126769309E+03  0.52373798004E+03  0.42489313311E+03  0.94816790422E+03  0.83137033723E+02 0.  0.
        254    2    1    2    0    0  0.66126769309E+03 -0.52373798004E+03 -0.93690575518E+03  0.15525370266E+04  0.90609182270E+03 0.  0.
         23    2    4    4    0    0  0.33225544190E+03 -0.25000313750E+03  0.91395973622E+02  0.43534870345E+03  0.90994627172E+02 0.  0.
         23    2    4    4    0    0  0.32901225119E+03 -0.27373484254E+03 -0.10283017288E+04  0.11171883231E+04  0.86749515403E+02 0.  0.
          2    1    3    3  502    0 -0.53364795715E+03  0.40967900802E+03  0.30191342524E+03  0.73740677250E+03  0.00000000000E+00 0. -1.
         -3    1    3    3    0  502 -0.12761973594E+03  0.11405897202E+03  0.12297970787E+03  0.21076113173E+03  0.00000000000E+00 0.  1.
         13    1    5    5    0    0  0.10894283468E+03 -0.10215647250E+03  0.74759098542E+02  0.16701319982E+03  0.00000000000E+00 0. -1.
        -13    1    5    5    0    0  0.22331260722E+03 -0.14784666500E+03  0.16636875080E+02  0.26833550363E+03  0.00000000000E+00 0.  1.
          3    1    6    6  503    0  0.31172481482E+03 -0.22549308087E+03 -0.88544547888E+03  0.96541865829E+03  0.00000000000E+00 0. -1.
         -3    1    6    6    0  503  0.17287436373E+02 -0.48241761663E+02 -0.14285624992E+03  0.15176966484E+03  0.00000000000E+00 0.  1.
<mgrwt>
<rscale>  0 0.24477272E+04</rscale>
<asrwt>0</asrwt>
<pdfrwt beam="1">  1        2 0.15297633E+00 0.24477272E+04</pdfrwt>
<pdfrwt beam="2">  1       -1 0.23174750E+00 0.24477272E+04</pdfrwt>
<totfact> 0.23840570E+00</totfact>
</mgrwt>
</event>
<event>
12    7  0.1698542E-007  0.1957972E+04  0.7818608E-02  0.8626526E-01
          2   -1    0    0  501    0  0.00000000000E+00  0.00000000000E+00  0.18806819601E+04  0.18806819601E+04  0.00000000000E+00 0. -1.
         -1   -1    0    0    0  501 -0.00000000000E+00 -0.00000000000E+00 -0.50960947530E+03  0.50960947530E+03  0.00000000000E+00 0.  1.
         24    2    1    2    0    0  0.49530526943E+01 -0.73491304990E+03  0.83884016531E+03  0.11180734399E+04  0.79458608480E+02 0.  0.
        254    2    1    2    0    0 -0.49530526943E+01  0.73491304990E+03  0.53223231949E+03  0.12722179955E+04  0.89170940471E+03 0.  0.
         23    2    4    4    0    0  0.32437089842E+03  0.24457481743E+02  0.34947029212E+02  0.33997995497E+03  0.92468517749E+02 0.  0.
         23    2    4    4    0    0 -0.32932395111E+03  0.71045556816E+03  0.49728529028E+03  0.93223804051E+03  0.92594411991E+02 0.  0.
          2    1    3    3  502    0 -0.90067172930E+01 -0.68558073677E+03  0.75559430408E+03  0.10203062383E+04  0.00000000000E+00 0. -1.
         -1    1    3    3    0  502  0.13959769987E+02 -0.49332313132E+02  0.83245861227E+02  0.97767201598E+02  0.00000000000E+00 0.  1.
         13    1    5    5    0    0  0.43933195685E+01 -0.70056325604E+01  0.15868308608E+02  0.17893668224E+02  0.00000000000E+00 0. -1.
        -13    1    5    5    0    0  0.31997757885E+03  0.31463114303E+02  0.19078720603E+02  0.32208628675E+03  0.00000000000E+00 0.  1.
          1    1    6    6  503    0 -0.23141797532E+03  0.57272119825E+03  0.41592242627E+03  0.74468470838E+03  0.00000000000E+00 0. -1.
         -1    1    6    6    0  503 -0.97905975793E+02  0.13773436991E+03  0.81362864010E+02  0.18755333213E+03  0.00000000000E+00 0.  1.
<mgrwt>
<rscale>  0 0.19579718E+04</rscale>
<asrwt>0</asrwt>
<pdfrwt beam="1">  1        2 0.28933568E+00 0.19579718E+04</pdfrwt>
<pdfrwt beam="2">  1       -1 0.78401459E-01 0.19579718E+04</pdfrwt>
<totfact> 0.13452960E+01</totfact>
</mgrwt>
</event>
<event>
12    7  0.1698542E-007  0.1833128E+04  0.7818608E-02  0.8688878E-01
         -1   -1    0    0    0  501 -0.00000000000E+00  0.00000000000E+00  0.28843039225E+03  0.28843039225E+03  0.00000000000E+00 0.  1.
          2   -1    0    0  501    0  0.00000000000E+00 -0.00000000000E+00 -0.29126239622E+04  0.29126239622E+04  0.00000000000E+00 0. -1.
         24    2    1    2    0    0 -0.49278386768E+03 -0.41586269065E+03 -0.14147428343E+04  0.15565710071E+04  0.75088581713E+02 0.  0.
        254    2    1    2    0    0  0.49278386768E+03  0.41586269065E+03 -0.12094507356E+04  0.16444833473E+04  0.90872255399E+03 0.  0.
         23    2    4    4    0    0  0.64726015102E+03  0.80609959145E+02 -0.45852547916E+03  0.80250823971E+03  0.91269880886E+02 0.  0.
         23    2    4    4    0    0 -0.15447628334E+03  0.33525273151E+03 -0.75092525643E+03  0.84197510762E+03  0.93680440931E+02 0.  0.
          4    1    3    3  502    0 -0.28969167287E+03 -0.20987105796E+03 -0.71851946645E+03  0.80264397460E+03  0.00000000000E+00 0. -1.
         -3    1    3    3    0  502 -0.20309219480E+03 -0.20599163269E+03 -0.69622336787E+03  0.75392703248E+03  0.00000000000E+00 0.  1.
         13    1    5    5    0    0  0.35750256677E+03  0.66558445921E+02 -0.30308316449E+03  0.47338939212E+03  0.00000000000E+00 0.  1.
        -13    1    5    5    0    0  0.28975758424E+03  0.14051513224E+02 -0.15544231467E+03  0.32911884759E+03  0.00000000000E+00 0. -1.
          4    1    6    6  503    0 -0.12290022363E+03  0.32399881042E+03 -0.69881224130E+03  0.78001169396E+03  0.00000000000E+00 0. -1.
         -4    1    6    6    0  503 -0.31576059711E+02  0.11253921081E+02 -0.52113015134E+02  0.61963413664E+02  0.00000000000E+00 0.  1.
<mgrwt>
<rscale>  0 0.18331277E+04</rscale>
<asrwt>0</asrwt>
<pdfrwt beam="1">  1        2 0.44809602E+00 0.18331277E+04</pdfrwt>
<pdfrwt beam="2">  1       -1 0.44373904E-01 0.18331277E+04</pdfrwt>
<totfact> 0.10666517E+01</totfact>
</mgrwt>
</event>
<event>
12    7  0.1698542E-007  0.1817669E+04  0.7818608E-02  0.8696959E-01
          2   -1    0    0  501    0  0.00000000000E+00  0.00000000000E+00  0.29912854738E+04  0.29912854738E+04  0.00000000000E+00 0. -1.
         -1   -1    0    0    0  501 -0.00000000000E+00 -0.00000000000E+00 -0.27612886012E+03  0.27612886012E+03  0.00000000000E+00 0.  1.
         24    2    1    2    0    0  0.36565261134E+03  0.48859870313E+03  0.47149590291E+03  0.77529862631E+03  0.79680917442E+02 0.  0.
        254    2    1    2    0    0 -0.36565261134E+03 -0.48859870313E+03  0.22436607108E+04  0.24921157076E+04  0.89677019923E+03 0.  0.
         23    2    4    4    0    0 -0.10854186294E+03 -0.35470642463E+03  0.20937178327E+03  0.43539534492E+03  0.90191901347E+02 0.  0.
         23    2    4    4    0    0 -0.25711074840E+03 -0.13389227850E+03  0.20342889275E+04  0.20567203627E+04  0.87943905861E+02 0.  0.
          4    1    3    3  502    0  0.23824219388E+02  0.60425177158E+02  0.73662776116E+02  0.98208961145E+02  0.00000000000E+00 0. -1.
         -3    1    3    3    0  502  0.34182839195E+03  0.42817352597E+03  0.39783312680E+03  0.67708966516E+03  0.00000000000E+00 0.  1.
         13    1    5    5    0    0 -0.18592805120E+02 -0.29303099150E+02  0.52956779843E+02  0.63314963108E+02  0.00000000000E+00 0.  1.
        -13    1    5    5    0    0 -0.89949057818E+02 -0.32540332548E+03  0.15641500342E+03  0.37208038181E+03  0.00000000000E+00 0. -1.
          1    1    6    6  503    0 -0.23074103905E+03 -0.13627043973E+03  0.16594742441E+04  0.16809716912E+04  0.00000000000E+00 0. -1.
         -1    1    6    6    0  503 -0.26369709351E+02  0.23781612277E+01  0.37481468341E+03  0.37574867149E+03  0.00000000000E+00 0.  1.
<mgrwt>
<rscale>  0 0.18176691E+04</rscale>
<asrwt>0</asrwt>
<pdfrwt beam="1">  1        2 0.46019774E+00 0.18176691E+04</pdfrwt>
<pdfrwt beam="2">  1       -1 0.42481365E-01 0.18176691E+04</pdfrwt>
<totfact> 0.10354098E+01</totfact>
</mgrwt>
</event>
<event>
12    7  0.1698542E-007  0.1831521E+04  0.7818608E-02  0.8689714E-01
          2   -1    0    0  501    0  0.00000000000E+00  0.00000000000E+00  0.21210913825E+04  0.21210913825E+04  0.00000000000E+00 0. -1.
         -1   -1    0    0    0  501 -0.00000000000E+00 -0.00000000000E+00 -0.39537049211E+03  0.39537049211E+03  0.00000000000E+00 0.  1.
         24    2    1    2    0    0 -0.42107512754E+03  0.40033956301E+03  0.11697114732E+04  0.13085275827E+04  0.80271260528E+02 0.  0.
        254    2    1    2    0    0  0.42107512754E+03 -0.40033956301E+03  0.55600941716E+03  0.12079342919E+04  0.90132277955E+03 0.  0.
         23    2    4    4    0    0 -0.89876119497E+02 -0.34979167320E+03 -0.84919475334E+02  0.38192018129E+03  0.90662980806E+02 0.  0.
         23    2    4    4    0    0  0.51095124703E+03 -0.50547889812E+02  0.64092889250E+03  0.82601411065E+03  0.88787385094E+02 0.  0.
          4    1    3    3  502    0 -0.41945500595E+03  0.39118483769E+03  0.11639420903E+04  0.12975859389E+04  0.00000000000E+00 0. -1.
         -3    1    3    3    0  502 -0.16201215853E+01  0.91547253193E+01  0.57693829994E+01  0.10941643835E+02  0.00000000000E+00 0.  1.
         13    1    5    5    0    0 -0.97071721353E+02 -0.20455768198E+03 -0.41781957411E+02  0.23024442732E+03  0.00000000000E+00 0.  1.
        -13    1    5    5    0    0  0.71956018560E+01 -0.14523399121E+03 -0.43137517922E+02  0.15167575397E+03  0.00000000000E+00 0. -1.
          2    1    6    6  503    0  0.51357155749E+03 -0.51936358661E+02  0.62884593588E+03  0.81357257886E+03  0.00000000000E+00 0. -1.
         -2    1    6    6    0  503 -0.26203104522E+01  0.13884688487E+01  0.12082956619E+02  0.12441531790E+02  0.00000000000E+00 0.  1.
<mgrwt>
<rscale>  0 0.18315206E+04</rscale>
<asrwt>0</asrwt>
<pdfrwt beam="1">  1        2 0.32632175E+00 0.18315206E+04</pdfrwt>
<pdfrwt beam="2">  1       -1 0.60826231E-01 0.18315206E+04</pdfrwt>
<totfact> 0.16809982E+01</totfact>
</mgrwt>
</event>
<event>
12    7  0.1698542E-007  0.1661419E+04  0.7818608E-02  0.8783679E-01
          2   -1    0    0  501    0  0.00000000000E+00  0.00000000000E+00  0.17619573409E+04  0.17619573409E+04  0.00000000000E+00 0. -1.
         -1   -1    0    0    0  501 -0.00000000000E+00 -0.00000000000E+00 -0.39165448494E+03  0.39165448494E+03  0.00000000000E+00 0.  1.
         24    2    1    2    0    0  0.40392468550E+03 -0.30799127433E+03  0.10748367842E+03  0.52474927667E+03  0.76126773334E+02 0.  0.
        254    2    1    2    0    0 -0.40392468550E+03  0.30799127433E+03  0.12628191776E+04  0.16288625492E+04  0.89468829897E+03 0.  0.
         23    2    4    4    0    0  0.39207813434E+02  0.19188597741E+03  0.11210881920E+04  0.11416262606E+04  0.90079429327E+02 0.  0.
         23    2    4    4    0    0 -0.44313249893E+03  0.11610529693E+03  0.14173098555E+03  0.48723628863E+03  0.86398362855E+02 0.  0.
          4    1    3    3  502    0 -0.20248313176E+01 -0.67529212306E+00 -0.30619783091E+01  0.37325155701E+01  0.00000000000E+00 0. -1.
         -3    1    3    3    0  502  0.40594951682E+03 -0.30731598221E+03  0.11054565673E+03  0.52101676110E+03  0.00000000000E+00 0.  1.
         13    1    5    5    0    0  0.43140214797E+02  0.13599417809E+03  0.56550752707E+03  0.58322744944E+03  0.00000000000E+00 0. -1.
        -13    1    5    5    0    0 -0.39324013632E+01  0.55891799318E+02  0.55558066493E+03  0.55839881112E+03  0.00000000000E+00 0.  1.
          1    1    6    6  503    0 -0.44009362728E+03  0.10217569780E+03  0.13919526578E+03  0.47275532362E+03  0.00000000000E+00 0. -1.
         -1    1    6    6    0  503 -0.30388716514E+01  0.13929599128E+02  0.25357197726E+01  0.14480965008E+02  0.00000000000E+00 0.  1.
<mgrwt>
<rscale>  0 0.16614193E+04</rscale>
<asrwt>0</asrwt>
<pdfrwt beam="1">  1        2 0.27107036E+00 0.16614193E+04</pdfrwt>
<pdfrwt beam="2">  1       -1 0.60254537E-01 0.16614193E+04</pdfrwt>
<totfact> 0.27506844E+01</totfact>
</mgrwt>
</event>
<event>
12    7  0.1698542E-007  0.2737877E+04  0.7818608E-02  0.8322819E-01
          2   -1    0    0  501    0  0.00000000000E+00  0.00000000000E+00  0.36107989493E+04  0.36107989493E+04  0.00000000000E+00 0. -1.
         -1   -1    0    0    0  501 -0.00000000000E+00 -0.00000000000E+00 -0.51899673054E+03  0.51899673054E+03  0.00000000000E+00 0.  1.
         24    2    1    2    0    0  0.52632832299E+03 -0.60946700553E+03 -0.19966119922E+01  0.80730556364E+03  0.57155509040E+02 0.  0.
        254    2    1    2    0    0 -0.52632832299E+03  0.60946700553E+03  0.30937988308E+04  0.33224901162E+04  0.90491868840E+03 0.  0.
         23    2    4    4    0    0 -0.27879955982E+03  0.22072993715E+03  0.26522429649E+04  0.26774604412E+04  0.89167088208E+02 0.  0.
         23    2    4    4    0    0 -0.24752876317E+03  0.38873706838E+03  0.44155586588E+03  0.64502967502E+03  0.93298992649E+02 0.  0.
          4    1    3    3  502    0  0.88545967307E+02 -0.11485281011E+03  0.20097983835E+02  0.14640862430E+03  0.00000000000E+00 0. -1.
         -3    1    3    3    0  502  0.43778235568E+03 -0.49461419542E+03 -0.22094595828E+02  0.66089693934E+03  0.00000000000E+00 0.  1.
         13    1    5    5    0    0 -0.11927267015E+03  0.66376563851E+02  0.12964719612E+04  0.13036377428E+04  0.00000000000E+00 0. -1.
        -13    1    5    5    0    0 -0.15952688967E+03  0.15435337330E+03  0.13557710037E+04  0.13738226984E+04  0.00000000000E+00 0.  1.
          4    1    6    6  503    0 -0.21396119250E+03  0.35627167725E+03  0.42762175416E+03  0.59629628921E+03  0.00000000000E+00 0. -1.
         -4    1    6    6    0  503 -0.33567570675E+02  0.32465391133E+02  0.13934111728E+02  0.48733385806E+02  0.00000000000E+00 0.  1.
<mgrwt>
<rscale>  0 0.27378772E+04</rscale>
<asrwt>0</asrwt>
<pdfrwt beam="1">  1        2 0.55550752E+00 0.27378772E+04</pdfrwt>
<pdfrwt beam="2">  1       -1 0.79845653E-01 0.27378772E+04</pdfrwt>
<totfact> 0.10562000E+00</totfact>
</mgrwt>
</event>
<event>
12    7  0.1698542E-007  0.1346909E+04  0.7818608E-02  0.8993171E-01
          2   -1    0    0  501    0  0.00000000000E+00  0.00000000000E+00  0.22827021150E+04  0.22827021150E+04  0.00000000000E+00 0. -1.
         -1   -1    0    0    0  501 -0.00000000000E+00 -0.00000000000E+00 -0.19868602157E+03  0.19868602157E+03  0.00000000000E+00 0.  1.
         24    2    1    2    0    0 -0.20258478714E+03 -0.27516940388E+03  0.45726749295E+03  0.57663112284E+03  0.81554245231E+02 0.  0.
        254    2    1    2    0    0  0.20258478714E+03  0.27516940388E+03  0.16267486004E+04  0.19047570137E+04  0.93006960779E+03 0.  0.
         23    2    4    4    0    0 -0.24178989307E+03  0.79861992216E+02  0.12618179384E+04  0.12904070843E+04  0.90142349455E+02 0.  0.
         23    2    4    4    0    0  0.44437468021E+03  0.19530741166E+03  0.36493066201E+03  0.61434992942E+03  0.92938723105E+02 0.  0.
          2    1    3    3  502    0 -0.14270025732E+03 -0.16053005364E+03  0.33933406340E+03  0.40159789360E+03  0.00000000000E+00 0. -1.
         -1    1    3    3    0  502 -0.59884529823E+02 -0.11463935023E+03  0.11793342954E+03  0.17503322924E+03  0.00000000000E+00 0.  1.
         13    1    5    5    0    0 -0.13129281331E+03  0.44429045063E+02  0.46609439852E+03  0.48626713975E+03  0.00000000000E+00 0.  1.
        -13    1    5    5    0    0 -0.11049707976E+03  0.35432947152E+02  0.79572353992E+03  0.80413994451E+03  0.00000000000E+00 0. -1.
          3    1    6    6  503    0  0.20434524818E+03  0.53868003928E+02  0.19785019074E+03  0.28948823858E+03  0.00000000000E+00 0. -1.
         -3    1    6    6    0  503  0.24002943203E+03  0.14143940773E+03  0.16708047127E+03  0.32486169085E+03  0.00000000000E+00 0.  1.
<mgrwt>
<rscale>  0 0.13469091E+04</rscale>
<asrwt>0</asrwt>
<pdfrwt beam="1">  1        2 0.35118492E+00 0.13469091E+04</pdfrwt>
<pdfrwt beam="2">  1       -1 0.30567082E-01 0.13469091E+04</pdfrwt>
<totfact> 0.51069326E+01</totfact>
</mgrwt>
</event>
<event>
12    7  0.1698542E-007  0.1335942E+04  0.7818608E-02  0.9001539E-01
          2   -1    0    0  501    0  0.00000000000E+00  0.00000000000E+00  0.17324628694E+04  0.17324628694E+04  0.00000000000E+00 0. -1.
         -1   -1    0    0    0  501 -0.00000000000E+00 -0.00000000000E+00 -0.25754376370E+03  0.25754376370E+03  0.00000000000E+00 0.  1.
         24    2    1    2    0    0  0.16169703576E+02 -0.28573332632E+03  0.83145446678E+02  0.30855604365E+03  0.79929179177E+02 0.  0.
        254    2    1    2    0    0 -0.16169703576E+02  0.28573332632E+03  0.13917736591E+04  0.16814505895E+04  0.89907573307E+03 0.  0.
         23    2    4    4    0    0 -0.12243272276E+01  0.48583057945E+03  0.13784398040E+04  0.14646115710E+04  0.94646233801E+02 0.  0.
         23    2    4    4    0    0 -0.14945376348E+02 -0.20009725313E+03  0.13333855044E+02  0.21683901855E+03  0.81111610068E+02 0.  0.
          2    1    3    3  502    0 -0.65074092910E+01 -0.40960389050E+02 -0.14665035690E+02  0.43990488956E+02  0.00000000000E+00 0. -1.
         -1    1    3    3    0  502  0.22677112867E+02 -0.24477293727E+03  0.97810482368E+02  0.26456555469E+03  0.00000000000E+00 0.  1.
         13    1    5    5    0    0 -0.26254663437E+02  0.38530839314E+03  0.99194799165E+03  0.10644776575E+04  0.00000000000E+00 0. -1.
        -13    1    5    5    0    0  0.25030336210E+02  0.10052218631E+03  0.38649181237E+03  0.40013391346E+03  0.00000000000E+00 0.  1.
          3    1    6    6  503    0  0.69102242960E+01  0.16997085586E+01  0.11889984809E+02  0.13856837582E+02  0.00000000000E+00 0.  1.
         -3    1    6    6    0  503 -0.21855600644E+02 -0.20179696169E+03  0.14438702352E+01  0.20298218096E+03  0.00000000000E+00 0. -1.
<mgrwt>
<rscale>  0 0.13359416E+04</rscale>
<asrwt>0</asrwt>
<pdfrwt beam="1">  1        2 0.26653274E+00 0.13359416E+04</pdfrwt>
<pdfrwt beam="2">  1       -1 0.39622119E-01 0.13359416E+04</pdfrwt>
<totfact> 0.64944087E+01</totfact>
</mgrwt>
</event>
<event>
12    7  0.1698542E-007  0.1254976E+04  0.7818608E-02  0.9066052E-01
         -1   -1    0    0    0  501 -0.00000000000E+00  0.00000000000E+00  0.14170783301E+03  0.14170783301E+03  0.00000000000E+00 0.  1.
          2   -1    0    0  501    0  0.00000000000E+00 -0.00000000000E+00 -0.27785413206E+04  0.27785413206E+04  0.00000000000E+00 0. -1.
         24    2    1    2    0    0  0.67580978519E+02  0.11800422904E+03 -0.30471260506E+02  0.16038160819E+03  0.79382465322E+02 0.  0.
        254    2    1    2    0    0 -0.67580978519E+02 -0.11800422904E+03 -0.26063622270E+04  0.27598675454E+04  0.89735869234E+03 0.  0.
         23    2    4    4    0    0 -0.33105359788E+03 -0.16863783981E+03 -0.23401643126E+04  0.23712192132E+04  0.90974399714E+02 0.  0.
         23    2    4    4    0    0  0.26347261936E+03  0.50633610765E+02 -0.26619791448E+03  0.38864833221E+03  0.90579317523E+02 0.  0.
          4    1    3    3  502    0 -0.46823096957E+01  0.23340559927E+02  0.19944926605E+02  0.31056494636E+02  0.00000000000E+00 0. -1.
         -3    1    3    3    0  502  0.72263288215E+02  0.94663669114E+02 -0.50416187111E+02  0.12932511356E+03  0.00000000000E+00 0.  1.
         13    1    5    5    0    0 -0.10913663207E+03 -0.96555472319E+02 -0.74965538272E+03  0.76368642553E+03  0.00000000000E+00 0. -1.
        -13    1    5    5    0    0 -0.22191696581E+03 -0.72082367487E+02 -0.15905089298E+04  0.16075327876E+04  0.00000000000E+00 0.  1.
          2    1    6    6  503    0  0.35533986647E+02 -0.14517224536E+02 -0.10147881789E+02  0.39703822487E+02  0.00000000000E+00 0. -1.
         -2    1    6    6    0  503  0.22793863271E+03  0.65150835301E+02 -0.25605003269E+03  0.34894450972E+03  0.00000000000E+00 0.  1.
<mgrwt>
<rscale>  0 0.12549758E+04</rscale>
<asrwt>0</asrwt>
<pdfrwt beam="1">  1        2 0.42746790E+00 0.12549758E+04</pdfrwt>
<pdfrwt beam="2">  1       -1 0.21801205E-01 0.12549758E+04</pdfrwt>
<totfact> 0.47626306E+01</totfact>
</mgrwt>
</event>
<event>
12    7  0.1698542E-007  0.1173589E+04  0.7818608E-02  0.9136294E-01
          2   -1    0    0  501    0  0.00000000000E+00  0.00000000000E+00  0.54024599880E+03  0.54024599880E+03  0.00000000000E+00 0. -1.
         -1   -1    0    0    0  501 -0.00000000000E+00 -0.00000000000E+00 -0.63735325530E+03  0.63735325530E+03  0.00000000000E+00 0.  1.
         24    2    1    2    0    0 -0.15737338810E+03  0.63952986198E+02  0.14946876111E+03  0.23970736769E+03  0.79134972356E+02 0.  0.
        254    2    1    2    0    0  0.15737338810E+03 -0.63952986198E+02 -0.24657601762E+03  0.93789188641E+03  0.88881105439E+03 0.  0.
         23    2    4    4    0    0 -0.10628535473E+03 -0.42037842115E+03 -0.56099625808E+02  0.44656775054E+03  0.90890011559E+02 0.  0.
         23    2    4    4    0    0  0.26365874283E+03  0.35642543496E+03 -0.19047639181E+03  0.49132413588E+03  0.92537167136E+02 0.  0.
          4    1    3    3  502    0 -0.16438634170E+03  0.67901525640E+02  0.14830224415E+03  0.23157513282E+03  0.00000000000E+00 0. -1.
         -3    1    3    3    0  502  0.70129536056E+01 -0.39485394425E+01  0.11665169595E+01  0.81322348601E+01  0.00000000000E+00 0.  1.
         13    1    5    5    0    0 -0.10636632441E+00 -0.70345067628E+02  0.19618994808E+02  0.73029752914E+02  0.00000000000E+00 0.  1.
        -13    1    5    5    0    0 -0.10617898841E+03 -0.35003335353E+03 -0.75718620617E+02  0.37353799762E+03  0.00000000000E+00 0. -1.
          4    1    6    6  503    0  0.21786201960E+03  0.22267187349E+03 -0.13099824417E+03  0.33794550271E+03  0.00000000000E+00 0. -1.
         -4    1    6    6    0  503  0.45796723228E+02  0.13375356147E+03 -0.59478147644E+02  0.15337863317E+03  0.00000000000E+00 0.  1.
<mgrwt>
<rscale>  0 0.11735886E+04</rscale>
<asrwt>0</asrwt>
<pdfrwt beam="1">  1        2 0.83114769E-01 0.11735886E+04</pdfrwt>
<pdfrwt beam="2">  1       -1 0.98054347E-01 0.11735886E+04</pdfrwt>
<totfact> 0.63376871E+01</totfact>
</mgrwt>
</event>
<event>
12    7  0.1698542E-007  0.2235193E+04  0.7818608E-02  0.8503921E-01
         -1   -1    0    0    0  501 -0.00000000000E+00  0.00000000000E+00  0.56258430990E+03  0.56258430990E+03  0.00000000000E+00 0.  1.
          2   -1    0    0  501    0  0.00000000000E+00 -0.00000000000E+00 -0.22201504374E+04  0.22201504374E+04  0.00000000000E+00 0. -1.
         24    2    1    2    0    0 -0.83914596037E+02  0.19530345891E+03 -0.18313703203E+04  0.18454123838E+04  0.80277742356E+02 0.  0.
        254    2    1    2    0    0  0.83914596037E+02 -0.19530345891E+03  0.17380419280E+03  0.93732236345E+03  0.89620322199E+03 0.  0.
         23    2    4    4    0    0  0.24488395425E+03  0.21672235719E+03 -0.15870835384E+03  0.37609123834E+03  0.96537799987E+02 0.  0.
         23    2    4    4    0    0 -0.16096935821E+03 -0.41202581610E+03  0.33251254664E+03  0.56123112511E+03  0.93484622797E+02 0.  0.
          2    1    3    3  502    0 -0.72288944027E+02  0.16668872308E+03 -0.17280255095E+04  0.17375508578E+04  0.00000000000E+00 0. -1.
         -1    1    3    3    0  502 -0.11625652011E+02  0.28614735825E+02 -0.10334481075E+03  0.10786152604E+03  0.00000000000E+00 0.  1.
         13    1    5    5    0    0  0.46605865670E+02  0.91443372135E+01  0.11772547958E+01  0.47509068047E+02  0.00000000000E+00 0. -1.
        -13    1    5    5    0    0  0.19827808858E+03  0.20757801998E+03 -0.15988560864E+03  0.32858217030E+03  0.00000000000E+00 0.  1.
          2    1    6    6  503    0 -0.10525664156E+03 -0.36218424129E+03  0.28363451960E+03  0.47191622767E+03  0.00000000000E+00 0.  1.
         -2    1    6    6    0  503 -0.55712716654E+02 -0.49841574810E+02  0.48878027039E+02  0.89314897435E+02  0.00000000000E+00 0. -1.
<mgrwt>
<rscale>  0 0.22351929E+04</rscale>
<asrwt>0</asrwt>
<pdfrwt beam="1">  1        2 0.34156161E+00 0.22351929E+04</pdfrwt>
<pdfrwt beam="2">  1       -1 0.86551432E-01 0.22351929E+04</pdfrwt>
<totfact> 0.68668425E+00</totfact>
</mgrwt>
</event>
<event>
12    7  0.1698542E-007  0.1541429E+04  0.7818608E-02  0.8857361E-01
         -1   -1    0    0    0  501 -0.00000000000E+00  0.00000000000E+00  0.69719744046E+03  0.69719744046E+03  0.00000000000E+00 0.  1.
          2   -1    0    0  501    0  0.00000000000E+00 -0.00000000000E+00 -0.85198409339E+03  0.85198409339E+03  0.00000000000E+00 0. -1.
         24    2    1    2    0    0 -0.22044306902E+03  0.13424798769E+03  0.36287168508E+03  0.45257700348E+03  0.80823359061E+02 0.  0.
        254    2    1    2    0    0  0.22044306902E+03 -0.13424798769E+03 -0.51765833801E+03  0.10966045304E+04  0.93164031270E+03 0.  0.
         23    2    4    4    0    0  0.21992886436E+03 -0.81090451753E+01  0.23063459402E+03  0.33203629125E+03  0.92851067591E+02 0.  0.
         23    2    4    4    0    0  0.51420465479E+00 -0.12613894251E+03 -0.74829293203E+03  0.76456823912E+03  0.93332646600E+02 0.  0.
          4    1    3    3  502    0 -0.53788969542E+02  0.10233210400E+02  0.36854513507E+02  0.66001719715E+02  0.00000000000E+00 0. -1.
         -3    1    3    3    0  502 -0.16665409948E+03  0.12401477729E+03  0.32601717158E+03  0.38657528377E+03  0.00000000000E+00 0.  1.
         13    1    5    5    0    0  0.10214342903E+03  0.34671226665E+02  0.71194719805E+02  0.12924419592E+03  0.00000000000E+00 0. -1.
        -13    1    5    5    0    0  0.11778543534E+03 -0.42780271840E+02  0.15943987422E+03  0.20279209532E+03  0.00000000000E+00 0.  1.
          3    1    6    6  503    0  0.14619333562E+02 -0.67437115202E+02 -0.60710709187E+03  0.61101596577E+03  0.00000000000E+00 0. -1.
         -3    1    6    6    0  503 -0.14105128907E+02 -0.58701827310E+02 -0.14118584016E+03  0.15355227335E+03  0.00000000000E+00 0.  1.
<mgrwt>
<rscale>  0 0.15414294E+04</rscale>
<asrwt>0</asrwt>
<pdfrwt beam="1">  1        2 0.13107448E+00 0.15414294E+04</pdfrwt>
<pdfrwt beam="2">  1       -1 0.10726114E+00 0.15414294E+04</pdfrwt>
<totfact> 0.28182082E+01</totfact>
</mgrwt>
</event>
<event>
12    7  0.1698542E-007  0.2408682E+04  0.7818608E-02  0.8436260E-01
         -1   -1    0    0    0  501 -0.00000000000E+00  0.00000000000E+00  0.12890307405E+04  0.12890307405E+04  0.00000000000E+00 0.  1.
          2   -1    0    0  501    0  0.00000000000E+00 -0.00000000000E+00 -0.11252149629E+04  0.11252149629E+04  0.00000000000E+00 0. -1.
         24    2    1    2    0    0 -0.32844341236E+03 -0.23232873367E+03 -0.88709465204E+03  0.97755979054E+03  0.82671075919E+02 0.  0.
        254    2    1    2    0    0  0.32844341236E+03  0.23232873367E+03  0.10509104297E+04  0.14366859129E+04  0.89319760719E+03 0.  0.
         23    2    4    4    0    0  0.13856562115E+03 -0.27976163337E+03  0.72143421125E+03  0.79211194215E+03  0.97503871083E+02 0.  0.
         23    2    4    4    0    0  0.18987779120E+03  0.51209036704E+03  0.32947621841E+03  0.64457397073E+03  0.92902667523E+02 0.  0.
          4    1    3    3  502    0 -0.25926093942E+03 -0.13887445522E+03 -0.65300754367E+03  0.71618517237E+03  0.00000000000E+00 0. -1.
         -3    1    3    3    0  502 -0.69182472933E+02 -0.93454278453E+02 -0.23408710837E+03  0.26137461818E+03  0.00000000000E+00 0.  1.
         13    1    5    5    0    0  0.30612329759E+01 -0.18994983223E+02  0.85934465010E+01  0.21071968530E+02  0.00000000000E+00 0. -1.
        -13    1    5    5    0    0  0.13550438818E+03 -0.26076665014E+03  0.71284076475E+03  0.77103997362E+03  0.00000000000E+00 0.  1.
          3    1    6    6  503    0 -0.84097697815E+01  0.36020090565E+02  0.11606367158E+02  0.38766982224E+02  0.00000000000E+00 0. -1.
         -3    1    6    6    0  503  0.19828756099E+03  0.47607027647E+03  0.31786985125E+03  0.60580698850E+03  0.00000000000E+00 0.  1.
<mgrwt>
<rscale>  0 0.24086815E+04</rscale>
<asrwt>0</asrwt>
<pdfrwt beam="1">  1        2 0.17310999E+00 0.24086815E+04</pdfrwt>
<pdfrwt beam="2">  1       -1 0.19831242E+00 0.24086815E+04</pdfrwt>
<totfact> 0.33291243E+00</totfact>
</mgrwt>
</event>
<event>
12    7  0.1698542E-007  0.2309012E+04  0.7818608E-02  0.8474376E-01
          2   -1    0    0  501    0  0.00000000000E+00  0.00000000000E+00  0.18061936741E+04  0.18061936741E+04  0.00000000000E+00 0. -1.
         -1   -1    0    0    0  501 -0.00000000000E+00 -0.00000000000E+00 -0.73795200011E+03  0.73795200011E+03  0.00000000000E+00 0.  1.
         24    2    1    2    0    0  0.72405279352E+03 -0.51202569625E+03  0.90918079056E+03  0.12719435016E+04  0.69338299945E+02 0.  0.
        254    2    1    2    0    0 -0.72405279352E+03  0.51202569625E+03  0.15906088340E+03  0.12722021726E+04  0.89820668109E+03 0.  0.
         23    2    4    4    0    0 -0.50039536731E+03  0.30715692704E+03 -0.33775743649E+03  0.68316015172E+03  0.88807688512E+02 0.  0.
         23    2    4    4    0    0 -0.22365742621E+03  0.20486876921E+03  0.49681831989E+03  0.58904202089E+03  0.90267394464E+02 0.  0.
          2    1    3    3  502    0  0.66644672832E+03 -0.44659341936E+03  0.82535694889E+03  0.11510043514E+04  0.00000000000E+00 0. -1.
         -1    1    3    3    0  502  0.57606065198E+02 -0.65432276895E+02  0.83823841678E+02  0.12093915016E+03  0.00000000000E+00 0.  1.
         13    1    5    5    0    0 -0.49115883532E+03  0.29226387712E+03 -0.34071363751E+03  0.66538782538E+03  0.00000000000E+00 0.  1.
        -13    1    5    5    0    0 -0.92365319912E+01  0.14893049913E+02  0.29562010173E+01  0.17772326336E+02  0.00000000000E+00 0. -1.
          1    1    6    6  503    0 -0.62135931585E+02  0.94879372522E+02  0.12353217849E+03  0.16769963759E+03  0.00000000000E+00 0. -1.
         -1    1    6    6    0  503 -0.16152149463E+03  0.10998939669E+03  0.37328614140E+03  0.42134238331E+03  0.00000000000E+00 0.  1.
<mgrwt>
<rscale>  0 0.23090121E+04</rscale>
<asrwt>0</asrwt>
<pdfrwt beam="1">  1        2 0.27787595E+00 0.23090121E+04</pdfrwt>
<pdfrwt beam="2">  1       -1 0.11353108E+00 0.23090121E+04</pdfrwt>
<totfact> 0.62499689E+00</totfact>
</mgrwt>
</event>
<event>
12    7  0.1698542E-007  0.1579768E+04  0.7818608E-02  0.8833075E-01
          2   -1    0    0  501    0  0.00000000000E+00  0.00000000000E+00  0.21350706438E+04  0.21350706438E+04  0.00000000000E+00 0. -1.
         -1   -1    0    0    0  501 -0.00000000000E+00 -0.00000000000E+00 -0.29222293791E+03  0.29222293791E+03  0.00000000000E+00 0.  1.
         24    2    1    2    0    0 -0.44875545452E+03  0.10348794296E+02  0.18708006015E+03  0.49235729049E+03  0.76994786101E+02 0.  0.
        254    2    1    2    0    0  0.44875545452E+03 -0.10348794296E+02  0.16557676458E+04  0.19349362913E+04  0.89494323783E+03 0.  0.
         23    2    4    4    0    0  0.70973072799E+03  0.20392897157E+02  0.10837650622E+04  0.12988388651E+04  0.91115920090E+02 0.  0.
         23    2    4    4    0    0 -0.26097527347E+03 -0.30741691453E+02  0.57200258352E+03  0.63609742613E+03  0.91541438865E+02 0.  0.
          2    1    3    3  502    0 -0.21739271925E+03 -0.12015436803E+02  0.12785622484E+03  0.25248995888E+03  0.00000000000E+00 0. -1.
         -1    1    3    3    0  502 -0.23136273527E+03  0.22364231099E+02  0.59223835309E+02  0.23986733161E+03  0.00000000000E+00 0.  1.
         13    1    5    5    0    0  0.30142705087E+02  0.72807780049E+01  0.21548050102E+02  0.37761234904E+02  0.00000000000E+00 0. -1.
        -13    1    5    5    0    0  0.67958802290E+03  0.13112119152E+02  0.10622170121E+04  0.12610776302E+04  0.00000000000E+00 0.  1.
          3    1    6    6  503    0 -0.81082649854E+02 -0.58839763956E+01  0.91370026193E+02  0.12230085434E+03  0.00000000000E+00 0. -1.
         -3    1    6    6    0  503 -0.17989262361E+03 -0.24857715058E+02  0.48063255732E+03  0.51379657180E+03  0.00000000000E+00 0.  1.
<mgrwt>
<rscale>  0 0.15797679E+04</rscale>
<asrwt>0</asrwt>
<pdfrwt beam="1">  1        2 0.32847240E+00 0.15797679E+04</pdfrwt>
<pdfrwt beam="2">  1       -1 0.44957376E-01 0.15797679E+04</pdfrwt>
<totfact> 0.30158338E+01</totfact>
</mgrwt>
</event>
<event>
12    7  0.1698542E-007  0.3059278E+04  0.7818608E-02  0.8227003E-01
         -1   -1    0    0    0  501 -0.00000000000E+00  0.00000000000E+00  0.12062121520E+04  0.12062121520E+04  0.00000000000E+00 0.  1.
          2   -1    0    0  501    0  0.00000000000E+00 -0.00000000000E+00 -0.19397872075E+04  0.19397872075E+04  0.00000000000E+00 0. -1.
         24    2    1    2    0    0 -0.11137862981E+04 -0.83508708237E+03 -0.23424650457E+03  0.14139535147E+04  0.80639716948E+02 0.  0.
        254    2    1    2    0    0  0.11137862981E+04  0.83508708237E+03 -0.49932855088E+03  0.17320458448E+04  0.90153394482E+03 0.  0.
         23    2    4    4    0    0  0.98118222939E+03  0.69080660948E+03 -0.16843055701E+02  0.12033805290E+04  0.88930704395E+02 0.  0.
         23    2    4    4    0    0  0.13260406870E+03  0.14428047290E+03 -0.48248549517E+03  0.52866531571E+03  0.91071779885E+02 0.  0.
          4    1    3    3  502    0 -0.86870200929E+02 -0.57810741589E+02 -0.38641579725E+02  0.11127302160E+03  0.00000000000E+00 0. -1.
         -3    1    3    3    0  502 -0.10269160972E+04 -0.77727634078E+03 -0.19560492485E+03  0.13026804931E+04  0.00000000000E+00 0.  1.
         13    1    5    5    0    0  0.95421863452E+01  0.20094577465E+02  0.36953241005E+01  0.22549961950E+02  0.00000000000E+00 0.  1.
        -13    1    5    5    0    0  0.97164004304E+03  0.67071203201E+03 -0.20538379802E+02  0.11808305671E+04  0.00000000000E+00 0. -1.
          4    1    6    6  503    0  0.87884738610E+02  0.14395038555E+03 -0.34367583286E+03  0.38282962120E+03  0.00000000000E+00 0. -1.
         -4    1    6    6    0  503  0.44719330086E+02  0.33008734805E+00 -0.13880966232E+03  0.14583569451E+03  0.00000000000E+00 0.  1.
<mgrwt>
<rscale>  0 0.30592776E+04</rscale>
<asrwt>0</asrwt>
<pdfrwt beam="1">  1        2 0.29842880E+00 0.30592776E+04</pdfrwt>
<pdfrwt beam="2">  1       -1 0.18557110E+00 0.30592776E+04</pdfrwt>
<totfact> 0.13280860E+00</totfact>
</mgrwt>
</event>
<event>
12    7  0.1698542E-007  0.1986848E+04  0.7818608E-02  0.8612795E-01
          2   -1    0    0  501    0  0.00000000000E+00  0.00000000000E+00  0.97712704501E+03  0.97712704501E+03  0.00000000000E+00 0. -1.
         -1   -1    0    0    0  501 -0.00000000000E+00 -0.00000000000E+00 -0.10099923720E+04  0.10099923720E+04  0.00000000000E+00 0.  1.
         24    2    1    2    0    0 -0.40033238535E+03  0.65231868318E+03 -0.17949633729E+03  0.79064929742E+03  0.84390125179E+02 0.  0.
        254    2    1    2    0    0  0.40033238535E+03 -0.65231868318E+03  0.14663101026E+03  0.11964701196E+04  0.90788458011E+03 0.  0.
         23    2    4    4    0    0  0.66458891625E+03 -0.40407248927E+03  0.22560729681E+03  0.81487796396E+03  0.90412607404E+02 0.  0.
         23    2    4    4    0    0 -0.26425653090E+03 -0.24824619391E+03 -0.78976286556E+02  0.38159215566E+03  0.88981079521E+02 0.  0.
          2    1    3    3  502    0 -0.19560426772E+03  0.29480400989E+03 -0.12425079157E+03  0.37497825671E+03  0.00000000000E+00 0. -1.
         -1    1    3    3    0  502 -0.20472811763E+03  0.35751467329E+03 -0.55245545711E+02  0.41567104071E+03  0.00000000000E+00 0.  1.
         13    1    5    5    0    0  0.44258332423E+02 -0.15568264177E+02 -0.56787120398E+01  0.47259058484E+02  0.00000000000E+00 0. -1.
        -13    1    5    5    0    0  0.62033058383E+03 -0.38850422510E+03  0.23128600885E+03  0.76761890547E+03  0.00000000000E+00 0.  1.
          1    1    6    6  503    0 -0.96867599509E+02 -0.13947232167E+03 -0.89764469606E+01  0.17004833709E+03  0.00000000000E+00 0. -1.
         -1    1    6    6    0  503 -0.16738893139E+03 -0.10877387224E+03 -0.69999839595E+02  0.21154381858E+03  0.00000000000E+00 0.  1.
<mgrwt>
<rscale>  0 0.19868476E+04</rscale>
<asrwt>0</asrwt>
<pdfrwt beam="1">  1        2 0.15032724E+00 0.19868476E+04</pdfrwt>
<pdfrwt beam="2">  1       -1 0.15538344E+00 0.19868476E+04</pdfrwt>
<totfact> 0.87647238E+00</totfact>
</mgrwt>
</event>
<event>
12    7  0.1698542E-007  0.1847537E+04  0.7818608E-02  0.8681421E-01
          2   -1    0    0  501    0  0.00000000000E+00  0.00000000000E+00  0.31013507495E+04  0.31013507495E+04  0.00000000000E+00 0. -1.
         -1   -1    0    0    0  501 -0.00000000000E+00 -0.00000000000E+00 -0.27515364588E+03  0.27515364588E+03  0.00000000000E+00 0.  1.
         24    2    1    2    0    0  0.53167272711E+03  0.45298997408E+03  0.12108553646E+04  0.14001858705E+04  0.80460876228E+02 0.  0.
        254    2    1    2    0    0 -0.53167272711E+03 -0.45298997408E+03  0.16153417390E+04  0.19763185248E+04  0.89923866275E+03 0.  0.
         23    2    4    4    0    0 -0.70055312699E+03 -0.52829514657E+03  0.10361717043E+04  0.13608240373E+04  0.91213013690E+02 0.  0.
         23    2    4    4    0    0  0.16888039988E+03  0.75305172488E+02  0.57917003464E+03  0.61549448759E+03  0.95937879702E+02 0.  0.
          4    1    3    3  502    0  0.90405412325E+01  0.28174398666E+02  0.50135833717E+02  0.58216234406E+02  0.00000000000E+00 0. -1.
         -3    1    3    3    0  502  0.52263218587E+03  0.42481557542E+03  0.11607195309E+04  0.13419696361E+04  0.00000000000E+00 0.  1.
         13    1    5    5    0    0 -0.69007852520E+03 -0.50392032281E+03  0.99180258860E+03  0.13091281211E+04  0.00000000000E+00 0.  1.
        -13    1    5    5    0    0 -0.10474601790E+02 -0.24374823766E+02  0.44369115744E+02  0.51695916165E+02  0.00000000000E+00 0. -1.
          2    1    6    6  503    0  0.15086670509E+02  0.43604704868E+02  0.19681102620E+03  0.20214736691E+03  0.00000000000E+00 0. -1.
         -2    1    6    6    0  503  0.15379372937E+03  0.31700467620E+02  0.38235900844E+03  0.41334712068E+03  0.00000000000E+00 0.  1.
<mgrwt>
<rscale>  0 0.18475367E+04</rscale>
<asrwt>0</asrwt>
<pdfrwt beam="1">  1        2 0.47713086E+00 0.18475367E+04</pdfrwt>
<pdfrwt beam="2">  1       -1 0.42331332E-01 0.18475367E+04</pdfrwt>
<totfact> 0.88601706E+00</totfact>
</mgrwt>
</event>
<event>
12    7  0.1698542E-007  0.1244538E+04  0.7818608E-02  0.9074741E-01
         -1   -1    0    0    0  501 -0.00000000000E+00  0.00000000000E+00  0.48899107945E+03  0.48899107945E+03  0.00000000000E+00 0.  1.
          2   -1    0    0  501    0  0.00000000000E+00 -0.00000000000E+00 -0.79187286175E+03  0.79187286175E+03  0.00000000000E+00 0. -1.
         24    2    1    2    0    0 -0.18152965030E+03 -0.33567104177E+02 -0.29043237635E+03  0.35409784332E+03  0.83393962536E+02 0.  0.
        254    2    1    2    0    0  0.18152965030E+03  0.33567104177E+02 -0.12449405941E+02  0.92676609788E+03  0.90810827992E+03 0.  0.
         23    2    4    4    0    0  0.38205723050E+03 -0.30842388489E+03 -0.10395619752E+03  0.51006126482E+03  0.90898749830E+02 0.  0.
         23    2    4    4    0    0 -0.20052758019E+03  0.34199098907E+03  0.91506791579E+02  0.41670483306E+03  0.90001544253E+02 0.  0.
          4    1    3    3  502    0 -0.55846153138E+02  0.28041806569E+02 -0.84391129250E+02  0.10500951591E+03  0.00000000000E+00 0. -1.
         -3    1    3    3    0  502 -0.12568349717E+03 -0.61608910746E+02 -0.20604124710E+03  0.24908832741E+03  0.00000000000E+00 0.  1.
         13    1    5    5    0    0  0.20471931855E+03 -0.19054239225E+03 -0.10021607317E+03  0.29708528061E+03  0.00000000000E+00 0. -1.
        -13    1    5    5    0    0  0.17733791194E+03 -0.11788149264E+03 -0.37401243473E+01  0.21297598421E+03  0.00000000000E+00 0.  1.
          3    1    6    6  503    0 -0.16755151571E+03  0.23187591409E+03  0.95762613193E+02  0.30167934639E+03  0.00000000000E+00 0. -1.
         -3    1    6    6    0  503 -0.32976064485E+02  0.11011507498E+03 -0.42558216137E+01  0.11502548667E+03  0.00000000000E+00 0.  1.
<mgrwt>
<rscale>  0 0.12445381E+04</rscale>
<asrwt>0</asrwt>
<pdfrwt beam="1">  1        2 0.12182659E+00 0.12445381E+04</pdfrwt>
<pdfrwt beam="2">  1       -1 0.75229396E-01 0.12445381E+04</pdfrwt>
<totfact> 0.69703926E+01</totfact>
</mgrwt>
</event>
<event>
12    7  0.1698542E-007  0.1691448E+04  0.7818608E-02  0.8766257E-01
         -1   -1    0    0    0  501 -0.00000000000E+00  0.00000000000E+00  0.57017417290E+03  0.57017417290E+03  0.00000000000E+00 0.  1.
          2   -1    0    0  501    0  0.00000000000E+00 -0.00000000000E+00 -0.12544403676E+04  0.12544403676E+04  0.00000000000E+00 0. -1.
         24    2    1    2    0    0  0.24210708372E+03  0.42109384097E+03 -0.64336518488E+03  0.81005963868E+03  0.79636638614E+02 0.  0.
        254    2    1    2    0    0 -0.24210708372E+03 -0.42109384097E+03 -0.40901009825E+02  0.10145549018E+04  0.88978249777E+03 0.  0.
         23    2    4    4    0    0 -0.40843315711E+03 -0.46097089495E+03 -0.30044769984E+03  0.69082107631E+03  0.87482165698E+02 0.  0.
         23    2    4    4    0    0  0.16632607339E+03  0.39877053983E+02  0.25954669001E+03  0.32373382552E+03  0.90468576692E+02 0.  0.
          4    1    3    3  502    0  0.22435510965E+03  0.32953938803E+03 -0.51014695342E+03  0.64744214998E+03  0.00000000000E+00 0. -1.
         -1    1    3    3    0  502  0.17751974069E+02  0.91554452937E+02 -0.13321823147E+03  0.16261748870E+03  0.00000000000E+00 0.  1.
         13    1    5    5    0    0 -0.34228855022E+03 -0.35161538955E+03 -0.26730341929E+03  0.55878972051E+03  0.00000000000E+00 0. -1.
        -13    1    5    5    0    0 -0.66144606898E+02 -0.10935550540E+03 -0.33144280549E+02  0.13203135581E+03  0.00000000000E+00 0.  1.
          4    1    6    6  503    0  0.11249290175E+03  0.72386493205E+01  0.22563533158E+03  0.25222679050E+03  0.00000000000E+00 0. -1.
         -4    1    6    6    0  503  0.53833171637E+02  0.32638404663E+02  0.33911358435E+02  0.71507035027E+02  0.00000000000E+00 0.  1.
<mgrwt>
<rscale>  0 0.16914485E+04</rscale>
<asrwt>0</asrwt>
<pdfrwt beam="1">  1        2 0.19299082E+00 0.16914485E+04</pdfrwt>
<pdfrwt beam="2">  1       -1 0.87719104E-01 0.16914485E+04</pdfrwt>
<totfact> 0.24397862E+01</totfact>
</mgrwt>
</event>
<event>
12    7  0.1698542E-007  0.1504566E+04  0.7818608E-02  0.8881423E-01
         -1   -1    0    0    0  501 -0.00000000000E+00  0.00000000000E+00  0.65636333154E+03  0.65636333154E+03  0.00000000000E+00 0.  1.
          2   -1    0    0  501    0  0.00000000000E+00 -0.00000000000E+00 -0.86221964936E+03  0.86221964936E+03  0.00000000000E+00 0. -1.
         24    2    1    2    0    0 -0.14300938186E+03  0.43677180034E+03 -0.18393419827E+03  0.50142124698E+03  0.79813462230E+02 0.  0.
        254    2    1    2    0    0  0.14300938186E+03 -0.43677180034E+03 -0.21922119549E+02  0.10171617339E+04  0.90714724535E+03 0.  0.
         23    2    4    4    0    0 -0.20126693255E+03 -0.35800584814E+03  0.31221672017E+03  0.52244251443E+03  0.82403489571E+02 0.  0.
         23    2    4    4    0    0  0.34427631441E+03 -0.78765952202E+02 -0.33413883972E+03  0.49471921949E+03  0.91477243232E+02 0.  0.
          4    1    3    3  502    0 -0.63093562981E+02  0.10498471116E+03 -0.72897193958E+02  0.14253626961E+03  0.00000000000E+00 0. -1.
         -3    1    3    3    0  502 -0.79915818881E+02  0.33178708918E+03 -0.11103700431E+03  0.35888497737E+03  0.00000000000E+00 0.  1.
         13    1    5    5    0    0 -0.47180500865E+02 -0.28726257787E+02  0.45125958532E+02  0.71327061357E+02  0.00000000000E+00 0. -1.
        -13    1    5    5    0    0 -0.15408643169E+03 -0.32927959035E+03  0.26709076164E+03  0.45111545308E+03  0.00000000000E+00 0.  1.
          4    1    6    6  503    0  0.12366266180E+03 -0.37824013780E+01 -0.16757946063E+03  0.20830179094E+03  0.00000000000E+00 0. -1.
         -4    1    6    6    0  503  0.22061365261E+03 -0.74983550824E+02 -0.16655937909E+03  0.28641742855E+03  0.00000000000E+00 0.  1.
<mgrwt>
<rscale>  0 0.15045655E+04</rscale>
<asrwt>0</asrwt>
<pdfrwt beam="1">  1        2 0.13264918E+00 0.15045655E+04</pdfrwt>
<pdfrwt beam="2">  1       -1 0.10097897E+00 0.15045655E+04</pdfrwt>
<totfact> 0.31990443E+01</totfact>
</mgrwt>
</event>
<event>
12    7  0.1698542E-007  0.1415582E+04  0.7818608E-02  0.8942616E-01
         -1   -1    0    0    0  501 -0.00000000000E+00  0.00000000000E+00  0.47788143017E+03  0.47788143017E+03  0.00000000000E+00 0.  1.
          2   -1    0    0  501    0  0.00000000000E+00 -0.00000000000E+00 -0.10483108722E+04  0.10483108722E+04  0.00000000000E+00 0. -1.
         24    2    1    2    0    0 -0.21067812714E+03  0.32606191292E+03 -0.33545466602E+03  0.51901887268E+03  0.78416279773E+02 0.  0.
        254    2    1    2    0    0  0.21067812714E+03 -0.32606191292E+03 -0.23497477599E+03  0.10071734297E+04  0.89915712073E+03 0.  0.
         23    2    4    4    0    0  0.33947616943E+03 -0.13111303500E+03 -0.51147235796E+03  0.63400294183E+03  0.89000335603E+02 0.  0.
         23    2    4    4    0    0 -0.12879804229E+03 -0.19494887793E+03  0.27649758197E+03  0.37317048784E+03  0.90616220707E+02 0.  0.
          2    1    3    3  502    0 -0.17734592446E+03  0.29519480659E+03 -0.32244115560E+03  0.47176249277E+03  0.00000000000E+00 0. -1.
         -1    1    3    3    0  502 -0.33332202681E+02  0.30867106337E+02 -0.13013510416E+02  0.47256379913E+02  0.00000000000E+00 0.  1.
         13    1    5    5    0    0  0.60247195691E+02 -0.36860104813E+02 -0.50306670623E+02  0.86713049910E+02  0.00000000000E+00 0.  1.
        -13    1    5    5    0    0  0.27922897374E+03 -0.94252930185E+02 -0.46116568733E+03  0.54728989192E+03  0.00000000000E+00 0. -1.
          4    1    6    6  503    0 -0.49750826344E+02 -0.15246272909E+03  0.18836844118E+03  0.24739179072E+03  0.00000000000E+00 0. -1.
         -4    1    6    6    0  503 -0.79047215949E+02 -0.42486148835E+02  0.88129140791E+02  0.12577869712E+03  0.00000000000E+00 0.  1.
<mgrwt>
<rscale>  0 0.14155823E+04</rscale>
<asrwt>0</asrwt>
<pdfrwt beam="1">  1        2 0.16127859E+00 0.14155823E+04</pdfrwt>
<pdfrwt beam="2">  1       -1 0.73520220E-01 0.14155823E+04</pdfrwt>
<totfact> 0.48515395E+01</totfact>
</mgrwt>
</event>
<event>
12    7  0.1698542E-007  0.1530259E+04  0.7818608E-02  0.8864577E-01
          2   -1    0    0  501    0  0.00000000000E+00  0.00000000000E+00  0.22269511591E+04  0.22269511591E+04  0.00000000000E+00 0. -1.
         -1   -1    0    0    0  501 -0.00000000000E+00 -0.00000000000E+00 -0.26288093978E+03  0.26288093978E+03  0.00000000000E+00 0.  1.
         24    2    1    2    0    0  0.31978909499E+03 -0.23824447729E+03  0.17552318987E+03  0.44375615588E+03  0.84176240463E+02 0.  0.
        254    2    1    2    0    0 -0.31978909499E+03  0.23824447729E+03  0.17885470295E+04  0.20460759430E+04  0.91022018862E+03 0.  0.
         23    2    4    4    0    0 -0.20648715855E+02  0.26835978891E+03  0.16942958718E+04  0.17181545941E+04  0.94727832591E+02 0.  0.
         23    2    4    4    0    0 -0.29914037914E+03 -0.30115311619E+02  0.94251157679E+02  0.32792134893E+03  0.90869312405E+02 0.  0.
          2    1    3    3  502    0  0.69041823797E+02 -0.30910021125E+02  0.66184817450E+02  0.10051185452E+03  0.00000000000E+00 0. -1.
         -1    1    3    3    0  502  0.25074727120E+03 -0.20733445617E+03  0.10933837242E+03  0.34324430135E+03  0.00000000000E+00 0.  1.
         13    1    5    5    0    0 -0.53006585395E+02  0.20823963881E+03  0.11881297205E+04  0.12074045213E+04  0.00000000000E+00 0. -1.
        -13    1    5    5    0    0  0.32357869540E+02  0.60120150105E+02  0.50616615126E+03  0.51075007279E+03  0.00000000000E+00 0.  1.
          4    1    6    6  503    0 -0.80768807983E+02 -0.79062595798E+01 -0.15330082571E+02  0.82590076372E+02  0.00000000000E+00 0. -1.
         -4    1    6    6    0  503 -0.21837157115E+03 -0.22209052039E+02  0.10958124025E+03  0.24533127256E+03  0.00000000000E+00 0.  1.
<mgrwt>
<rscale>  0 0.15302588E+04</rscale>
<asrwt>0</asrwt>
<pdfrwt beam="1">  1        2 0.34260786E+00 0.15302588E+04</pdfrwt>
<pdfrwt beam="2">  1       -1 0.40443223E-01 0.15302588E+04</pdfrwt>
<totfact> 0.32713982E+01</totfact>
</mgrwt>
</event>
<event>
12    7  0.1698542E-007  0.1691148E+04  0.7818608E-02  0.8766429E-01
         -1   -1    0    0    0  501 -0.00000000000E+00  0.00000000000E+00  0.16014977776E+03  0.16014977776E+03  0.00000000000E+00 0.  1.
          2   -1    0    0  501    0  0.00000000000E+00 -0.00000000000E+00 -0.44645434567E+04  0.44645434567E+04  0.00000000000E+00 0. -1.
         24    2    1    2    0    0 -0.51378906833E+03  0.60654166465E+02 -0.69247644774E+03  0.86895963680E+03  0.88933036924E+02 0.  0.
        254    2    1    2    0    0  0.51378906833E+03 -0.60654166465E+02 -0.36119172312E+04  0.37557335976E+04  0.88990484714E+03 0.  0.
         23    2    4    4    0    0  0.20748257507E+03 -0.45976560824E+03 -0.16211759292E+04  0.17003514277E+04  0.92467025506E+02 0.  0.
         23    2    4    4    0    0  0.30630649326E+03  0.39911144178E+03 -0.19907413020E+04  0.20553821699E+04  0.91822232256E+02 0.  0.
          2    1    3    3  502    0 -0.38616672918E+03  0.56403402862E+02 -0.57829878089E+03  0.69766436526E+03  0.00000000000E+00 0. -1.
         -1    1    3    3    0  502 -0.12762233915E+03  0.42507636026E+01 -0.11417766685E+03  0.17129527153E+03  0.00000000000E+00 0.  1.
         13    1    5    5    0    0  0.15172670689E+03 -0.22557451601E+03 -0.88505583552E+03  0.92586645249E+03  0.00000000000E+00 0. -1.
        -13    1    5    5    0    0  0.55755868177E+02 -0.23419109223E+03 -0.73612009369E+03  0.77448497522E+03  0.00000000000E+00 0.  1.
          3    1    6    6  503    0  0.28257932880E+03  0.39384996183E+03 -0.18442918674E+04  0.19069298261E+04  0.00000000000E+00 0. -1.
         -3    1    6    6    0  503  0.23727164455E+02  0.52614799452E+01 -0.14644943455E+03  0.14845234382E+03  0.00000000000E+00 0.  1.
<mgrwt>
<rscale>  0 0.16911483E+04</rscale>
<asrwt>0</asrwt>
<pdfrwt beam="1">  1        2 0.68685281E+00 0.16911483E+04</pdfrwt>
<pdfrwt beam="2">  1       -1 0.24638428E-01 0.16911483E+04</pdfrwt>
<totfact> 0.21293125E+00</totfact>
</mgrwt>
</event>
<event>
12    7  0.1698542E-007  0.1596064E+04  0.7818608E-02  0.8822969E-01
         -1   -1    0    0    0  501 -0.00000000000E+00  0.00000000000E+00  0.26698965832E+03  0.26698965832E+03  0.00000000000E+00 0.  1.
          2   -1    0    0  501    0  0.00000000000E+00 -0.00000000000E+00 -0.23853185268E+04  0.23853185268E+04  0.00000000000E+00 0. -1.
         24    2    1    2    0    0 -0.37643624763E+03 -0.32502547754E+03 -0.37961949560E+03  0.63033271571E+03  0.76567365557E+02 0.  0.
        254    2    1    2    0    0  0.37643624763E+03  0.32502547754E+03 -0.17387093729E+04  0.20219754694E+04  0.90439410987E+03 0.  0.
         23    2    4    4    0    0 -0.25751823675E+03 -0.91984520225E+01 -0.75204843628E+03  0.79905662090E+03  0.80711703727E+02 0.  0.
         23    2    4    4    0    0  0.63395448438E+03  0.33422392957E+03 -0.98666093660E+03  0.12229188485E+04  0.91797510089E+02 0.  0.
          2    1    3    3  502    0  0.26102219114E+01 -0.99134531737E+01 -0.86422077316E+01  0.13408115704E+02  0.00000000000E+00 0. -1.
         -1    1    3    3    0  502 -0.37904646954E+03 -0.31511202437E+03 -0.37097728787E+03  0.61692460000E+03  0.00000000000E+00 0.  1.
         13    1    5    5    0    0 -0.45037397517E+02  0.18858845767E+02 -0.80643107485E+02  0.94272657879E+02  0.00000000000E+00 0. -1.
        -13    1    5    5    0    0 -0.21248083923E+03 -0.28057297790E+02 -0.67140532880E+03  0.70478396302E+03  0.00000000000E+00 0.  1.
          1    1    6    6  503    0  0.57132668052E+02  0.72968421161E+01 -0.10517128240E+03  0.11990990078E+03  0.00000000000E+00 0. -1.
         -1    1    6    6    0  503  0.57682181632E+03  0.32692708745E+03 -0.88148965420E+03  0.11030089477E+04  0.00000000000E+00 0.  1.
<mgrwt>
<rscale>  0 0.15960644E+04</rscale>
<asrwt>0</asrwt>
<pdfrwt beam="1">  1        2 0.36697208E+00 0.15960644E+04</pdfrwt>
<pdfrwt beam="2">  1       -1 0.41075332E-01 0.15960644E+04</pdfrwt>
<totfact> 0.25726155E+01</totfact>
</mgrwt>
</event>
<event>
12    7  0.1698542E-007  0.1098259E+04  0.7818608E-02  0.9206890E-01
          2   -1    0    0  501    0  0.00000000000E+00  0.00000000000E+00  0.19000085643E+04  0.19000085643E+04  0.00000000000E+00 0. -1.
         -1   -1    0    0    0  501 -0.00000000000E+00 -0.00000000000E+00 -0.15870623034E+03  0.15870623034E+03  0.00000000000E+00 0.  1.
         24    2    1    2    0    0  0.12239544652E+03 -0.20617485613E+02  0.79895211759E+02  0.16709774893E+03  0.78311472927E+02 0.  0.
        254    2    1    2    0    0 -0.12239544652E+03  0.20617485613E+02  0.16614071222E+04  0.18916170457E+04  0.89584356666E+03 0.  0.
         23    2    4    4    0    0  0.15191797101E+03  0.41503416832E+02  0.15767368027E+04  0.15872161142E+04  0.91402652827E+02 0.  0.
         23    2    4    4    0    0 -0.27431341753E+03 -0.20885931220E+02  0.84670319566E+02  0.30440093150E+03  0.99029242771E+02 0.  0.
          4    1    3    3  502    0  0.13222536415E+03 -0.19513808800E+02  0.82239512335E+02  0.15693206507E+03  0.00000000000E+00 0. -1.
         -3    1    3    3    0  502 -0.98299176273E+01 -0.11036768131E+01 -0.23443005758E+01  0.10165683856E+02  0.00000000000E+00 0.  1.
         13    1    5    5    0    0  0.49619924298E+02  0.59214981847E+02  0.59135240293E+03  0.59637757789E+03  0.00000000000E+00 0.  1.
        -13    1    5    5    0    0  0.10229804671E+03 -0.17711565015E+02  0.98538439972E+03  0.99083853635E+03  0.00000000000E+00 0. -1.
          2    1    6    6  503    0 -0.23100917672E+03  0.20748181924E+02  0.60936649830E+02  0.23981034605E+03  0.00000000000E+00 0. -1.
         -2    1    6    6    0  503 -0.43304240809E+02 -0.41634113143E+02  0.23733669736E+02  0.64590585447E+02  0.00000000000E+00 0.  1.
<mgrwt>
<rscale>  0 0.10982590E+04</rscale>
<asrwt>0</asrwt>
<pdfrwt beam="1">  1        2 0.29230899E+00 0.10982590E+04</pdfrwt>
<pdfrwt beam="2">  1       -1 0.24416344E-01 0.10982590E+04</pdfrwt>
<totfact> 0.12545628E+02</totfact>
</mgrwt>
</event>
<event>
12    7  0.1698542E-007  0.1100098E+04  0.7818608E-02  0.9205097E-01
         -1   -1    0    0    0  501 -0.00000000000E+00  0.00000000000E+00  0.33136717312E+03  0.33136717312E+03  0.00000000000E+00 0.  1.
          2   -1    0    0  501    0  0.00000000000E+00 -0.00000000000E+00 -0.91304700235E+03  0.91304700235E+03  0.00000000000E+00 0. -1.
         24    2    1    2    0    0 -0.83586130193E+02  0.10326510199E+03 -0.20287082093E+03  0.25531814216E+03  0.79877789657E+02 0.  0.
        254    2    1    2    0    0  0.83586130193E+02 -0.10326510199E+03 -0.37880900831E+03  0.98909603331E+03  0.90397144639E+03 0.  0.
         23    2    4    4    0    0  0.11245654796E+02  0.37503543500E+03 -0.30275398730E+03  0.49081119373E+03  0.91965258735E+02 0.  0.
         23    2    4    4    0    0  0.72340475397E+02 -0.47830053699E+03 -0.76055021012E+02  0.49828483958E+03  0.92189300149E+02 0.  0.
          4    1    3    3  502    0 -0.20394154915E+02  0.46446474934E+01 -0.90912609439E+02  0.93287710124E+02  0.00000000000E+00 0. -1.
         -3    1    3    3    0  502 -0.63191975278E+02  0.98620454500E+02 -0.11195821149E+03  0.16203043203E+03  0.00000000000E+00 0.  1.
         13    1    5    5    0    0 -0.40391544070E+02  0.18180785765E+03 -0.14160956818E+03  0.23396333845E+03  0.00000000000E+00 0. -1.
        -13    1    5    5    0    0  0.51637198866E+02  0.19322757734E+03 -0.16114441912E+03  0.25684785529E+03  0.00000000000E+00 0.  1.
          4    1    6    6  503    0  0.11122110915E+02 -0.32184968402E+03 -0.73213279988E+02  0.33025914798E+03  0.00000000000E+00 0. -1.
         -4    1    6    6    0  503  0.61218364481E+02 -0.15645085297E+03 -0.28417410237E+01  0.16802569160E+03  0.00000000000E+00 0.  1.
<mgrwt>
<rscale>  0 0.11000978E+04</rscale>
<asrwt>0</asrwt>
<pdfrwt beam="1">  1        2 0.14046877E+00 0.11000978E+04</pdfrwt>
<pdfrwt beam="2">  1       -1 0.50979565E-01 0.11000978E+04</pdfrwt>
<totfact> 0.12584865E+02</totfact>
</mgrwt>
</event>
<event>
12    7  0.1698542E-007  0.1899285E+04  0.7818608E-02  0.8655213E-01
         -1   -1    0    0    0  501 -0.00000000000E+00  0.00000000000E+00  0.15357726305E+04  0.15357726305E+04  0.00000000000E+00 0.  1.
          2   -1    0    0  501    0  0.00000000000E+00 -0.00000000000E+00 -0.58720967089E+03  0.58720967089E+03  0.00000000000E+00 0. -1.
         24    2    1    2    0    0  0.25990308365E+02 -0.23619068701E+02  0.11961524505E+04  0.11992564508E+04  0.78752735924E+02 0.  0.
        254    2    1    2    0    0 -0.25990308365E+02  0.23619068701E+02 -0.24758949090E+03  0.92372585058E+03  0.88923311594E+03 0.  0.
         23    2    4    4    0    0 -0.38707802380E+03 -0.15001364145E+03 -0.28562972789E+03  0.51107445793E+03  0.85318643697E+02 0.  0.
         23    2    4    4    0    0  0.36108771544E+03  0.17363271015E+03  0.38040236995E+02  0.41265139265E+03  0.91112326017E+02 0.  0.
          2    1    3    3  502    0  0.36959619665E+01 -0.34084571828E+02  0.20873010029E+03  0.21152700285E+03  0.00000000000E+00 0. -1.
         -1    1    3    3    0  502  0.22294346398E+02  0.10465503127E+02  0.98742235020E+03  0.98772944793E+03  0.00000000000E+00 0.  1.
         13    1    5    5    0    0 -0.34219293291E+03 -0.14348577931E+03 -0.28105948210E+03  0.46548749143E+03  0.00000000000E+00 0.  1.
        -13    1    5    5    0    0 -0.44885090889E+02 -0.65278621396E+01 -0.45702457946E+01  0.45586966502E+02  0.00000000000E+00 0. -1.
          3    1    6    6  503    0  0.88928051559E+02  0.38276402761E+01 -0.41173141194E+01  0.89105563573E+02  0.00000000000E+00 0. -1.
         -3    1    6    6    0  503  0.27215966388E+03  0.16980506988E+03  0.42157551115E+02  0.32354582908E+03  0.00000000000E+00 0.  1.
<mgrwt>
<rscale>  0 0.18992846E+04</rscale>
<asrwt>0</asrwt>
<pdfrwt beam="1">  1        2 0.90339950E-01 0.18992846E+04</pdfrwt>
<pdfrwt beam="2">  1       -1 0.23627271E+00 0.18992846E+04</pdfrwt>
<totfact> 0.46714399E+00</totfact>
</mgrwt>
</event>
<event>
12    7  0.1698542E-007  0.1559618E+04  0.7818608E-02  0.8845747E-01
         -1   -1    0    0    0  501 -0.00000000000E+00  0.00000000000E+00  0.56475153066E+03  0.56475153066E+03  0.00000000000E+00 0.  1.
          2   -1    0    0  501    0  0.00000000000E+00 -0.00000000000E+00 -0.10767607046E+04  0.10767607046E+04  0.00000000000E+00 0. -1.
         24    2    1    2    0    0  0.12963690435E+03  0.27249771119E+03  0.27526256947E+03  0.41625542902E+03  0.80239457031E+02 0.  0.
        254    2    1    2    0    0 -0.12963690435E+03 -0.27249771119E+03 -0.78727174339E+03  0.12252568062E+04  0.88904258261E+03 0.  0.
         23    2    4    4    0    0 -0.38830230866E+03  0.15819870132E+03 -0.36194230798E+03  0.56121688823E+03  0.90314170095E+02 0.  0.
         23    2    4    4    0    0  0.25866540431E+03 -0.43069641251E+03 -0.42532943542E+03  0.66403991800E+03  0.87388173864E+02 0.  0.
          2    1    3    3  502    0  0.28097617367E+02  0.60835962484E+02  0.11127290383E+03  0.12989283876E+03  0.00000000000E+00 0. -1.
         -1    1    3    3    0  502  0.10153928698E+03  0.21166174870E+03  0.16398966564E+03  0.28636259026E+03  0.00000000000E+00 0.  1.
         13    1    5    5    0    0 -0.20356763155E+03  0.42020286049E+02 -0.20873312554E+03  0.29457597110E+03  0.00000000000E+00 0.  1.
        -13    1    5    5    0    0 -0.18473467711E+03  0.11617841527E+03 -0.15320918244E+03  0.26664091712E+03  0.00000000000E+00 0. -1.
          3    1    6    6  503    0  0.47970334761E+02 -0.12755970596E+03 -0.77261172874E+02  0.15665861112E+03  0.00000000000E+00 0. -1.
         -3    1    6    6    0  503  0.21069506955E+03 -0.30313670655E+03 -0.34806826254E+03  0.50738130689E+03  0.00000000000E+00 0.  1.
<mgrwt>
<rscale>  0 0.15596182E+04</rscale>
<asrwt>0</asrwt>
<pdfrwt beam="1">  1        2 0.16565549E+00 0.15596182E+04</pdfrwt>
<pdfrwt beam="2">  1       -1 0.86884852E-01 0.15596182E+04</pdfrwt>
<totfact> 0.32258101E+01</totfact>
</mgrwt>
</event>
<event>
12    7  0.1698542E-007  0.3630094E+04  0.7818608E-02  0.8083633E-01
         -1   -1    0    0    0  501 -0.00000000000E+00  0.00000000000E+00  0.11628388288E+04  0.11628388288E+04  0.00000000000E+00 0.  1.
          2   -1    0    0  501    0  0.00000000000E+00 -0.00000000000E+00 -0.28330625271E+04  0.28330625271E+04  0.00000000000E+00 0. -1.
         24    2    1    2    0    0 -0.28731630151E+03  0.13956207186E+03  0.10561737833E+04  0.11063639657E+04  0.80684168156E+02 0.  0.
        254    2    1    2    0    0  0.28731630151E+03 -0.13956207186E+03 -0.27263974817E+04  0.28895373902E+04  0.90230530983E+03 0.  0.
         23    2    4    4    0    0 -0.10095314165E+03 -0.90414511219E+02 -0.22912196162E+04  0.22971281468E+04  0.93509744941E+02 0.  0.
         23    2    4    4    0    0  0.38826944316E+03 -0.49147560643E+02 -0.43517786550E+03  0.59240924343E+03  0.91653117098E+02 0.  0.
          4    1    3    3  502    0 -0.12079841914E+03  0.52697015914E+02  0.57324721892E+03  0.58820201253E+03  0.00000000000E+00 0. -1.
         -3    1    3    3    0  502 -0.16651788237E+03  0.86865055948E+02  0.48292656442E+03  0.51816195317E+03  0.00000000000E+00 0.  1.
         13    1    5    5    0    0 -0.41309124042E+02  0.55994698965E+01 -0.10332755515E+04  0.10341161265E+04  0.00000000000E+00 0. -1.
        -13    1    5    5    0    0 -0.59644017607E+02 -0.96013981116E+02 -0.12579440647E+04  0.12630120203E+04  0.00000000000E+00 0.  1.
          1    1    6    6  503    0  0.26286587003E+03 -0.64326627284E+02 -0.33826487432E+03  0.43319684417E+03  0.00000000000E+00 0. -1.
         -1    1    6    6    0  503  0.12540357313E+03  0.15179066641E+02 -0.96912991182E+02  0.15921239926E+03  0.00000000000E+00 0.  1.
<mgrwt>
<rscale>  0 0.36300937E+04</rscale>
<asrwt>0</asrwt>
<pdfrwt beam="1">  1        2 0.43585577E+00 0.36300937E+04</pdfrwt>
<pdfrwt beam="2">  1       -1 0.17889828E+00 0.36300937E+04</pdfrwt>
<totfact> 0.43196624E-01</totfact>
</mgrwt>
</event>
<event>
12    7  0.1698542E-007  0.1460598E+04  0.7818608E-02  0.8911086E-01
          2   -1    0    0  501    0  0.00000000000E+00  0.00000000000E+00  0.74593352705E+03  0.74593352705E+03  0.00000000000E+00 0. -1.
         -1   -1    0    0    0  501 -0.00000000000E+00 -0.00000000000E+00 -0.71499234655E+03  0.71499234655E+03  0.00000000000E+00 0.  1.
         24    2    1    2    0    0 -0.18024723338E+03  0.39575005360E+03 -0.10249426884E+03  0.45379589932E+03  0.79488823293E+02 0.  0.
        254    2    1    2    0    0  0.18024723338E+03 -0.39575005360E+03  0.13343544934E+03  0.10071299743E+04  0.89855361324E+03 0.  0.
         23    2    4    4    0    0  0.24305512606E+03  0.17480040942E+03  0.26546278847E+03  0.41062200335E+03  0.92244024907E+02 0.  0.
         23    2    4    4    0    0 -0.62807892681E+02 -0.57055046303E+03 -0.13202733913E+03  0.59650797092E+03  0.94434521517E+02 0.  0.
          4    1    3    3  502    0  0.13298587131E+01  0.26172034168E+02 -0.22025605400E+02  0.34232604194E+02  0.00000000000E+00 0. -1.
         -3    1    3    3    0  502 -0.18157709209E+03  0.36957801944E+03 -0.80468663443E+02  0.41956329513E+03  0.00000000000E+00 0.  1.
         13    1    5    5    0    0  0.10109040475E+03  0.11238383488E+03  0.17436358952E+03  0.23076407351E+03  0.00000000000E+00 0. -1.
        -13    1    5    5    0    0  0.14196472131E+03  0.62416574541E+02  0.91099198955E+02  0.17985792983E+03  0.00000000000E+00 0.  1.
          4    1    6    6  503    0 -0.15988913958E+02 -0.31964230033E+03 -0.11724276742E+03  0.34084118302E+03  0.00000000000E+00 0. -1.
         -4    1    6    6    0  503 -0.46818978723E+02 -0.25090816269E+03 -0.14784571710E+02  0.25566678790E+03  0.00000000000E+00 0.  1.
<mgrwt>
<rscale>  0 0.14605982E+04</rscale>
<asrwt>0</asrwt>
<pdfrwt beam="1">  1        2 0.11475900E+00 0.14605982E+04</pdfrwt>
<pdfrwt beam="2">  1       -1 0.10999882E+00 0.14605982E+04</pdfrwt>
<totfact> 0.31906856E+01</totfact>
</mgrwt>
</event>
<event>
12    7  0.1698542E-007  0.1494782E+04  0.7818608E-02  0.8887930E-01
          2   -1    0    0  501    0  0.00000000000E+00  0.00000000000E+00  0.17304949686E+04  0.17304949686E+04  0.00000000000E+00 0. -1.
         -1   -1    0    0    0  501 -0.00000000000E+00 -0.00000000000E+00 -0.32279391012E+03  0.32279391012E+03  0.00000000000E+00 0.  1.
         24    2    1    2    0    0 -0.23802022179E+03  0.21242595427E+03  0.98482953905E+03  0.10382686071E+04  0.79586855312E+02 0.  0.
        254    2    1    2    0    0  0.23802022179E+03 -0.21242595427E+03  0.42287151946E+03  0.10150202716E+04  0.86583336606E+03 0.  0.
         23    2    4    4    0    0  0.37105305245E+03 -0.42268087567E+03  0.70462828393E+02  0.57405480405E+03  0.90743691114E+02 0.  0.
         23    2    4    4    0    0 -0.13303283066E+03  0.21025492141E+03  0.35240869106E+03  0.44096546756E+03  0.91399081140E+02 0.  0.
          4    1    3    3  502    0 -0.21557876553E+03  0.19471881059E+03  0.94880365981E+03  0.99227919670E+03  0.00000000000E+00 0. -1.
         -3    1    3    3    0  502 -0.22441456261E+02  0.17707143676E+02  0.36025879246E+02  0.45989410430E+02  0.00000000000E+00 0.  1.
         13    1    5    5    0    0  0.16062341599E+03 -0.20220404827E+03  0.76121233370E+02  0.26922258648E+03  0.00000000000E+00 0.  1.
        -13    1    5    5    0    0  0.21042963646E+03 -0.22047682740E+03 -0.56584049772E+01  0.30483221757E+03  0.00000000000E+00 0. -1.
          4    1    6    6  503    0 -0.10609640752E+03  0.18005196884E+03  0.33916900653E+03  0.39838520826E+03  0.00000000000E+00 0. -1.
         -4    1    6    6    0  503 -0.26936423137E+02  0.30202952567E+02  0.13239684534E+02  0.42580259296E+02  0.00000000000E+00 0.  1.
<mgrwt>
<rscale>  0 0.14947819E+04</rscale>
<asrwt>0</asrwt>
<pdfrwt beam="1">  1        2 0.26622999E+00 0.14947819E+04</pdfrwt>
<pdfrwt beam="2">  1       -1 0.49660602E-01 0.14947819E+04</pdfrwt>
<totfact> 0.42227746E+01</totfact>
</mgrwt>
</event>
<event>
12    7  0.1698542E-007  0.2466722E+04  0.7818608E-02  0.8414938E-01
         -1   -1    0    0    0  501 -0.00000000000E+00  0.00000000000E+00  0.39916433050E+03  0.39916433050E+03  0.00000000000E+00 0.  1.
          2   -1    0    0  501    0  0.00000000000E+00 -0.00000000000E+00 -0.38109110305E+04  0.38109110305E+04  0.00000000000E+00 0. -1.
         24    2    1    2    0    0  0.29434611138E+03 -0.93283947146E+03 -0.74729104002E+03  0.12336778099E+04  0.81779748805E+02 0.  0.
        254    2    1    2    0    0 -0.29434611138E+03  0.93283947146E+03 -0.26644556600E+04  0.29763975511E+04  0.89598510339E+03 0.  0.
         23    2    4    4    0    0  0.28257771582E+03  0.51804387178E+03 -0.10011930462E+04  0.11655318682E+04  0.88641984334E+02 0.  0.
         23    2    4    4    0    0 -0.57692382720E+03  0.41479559968E+03 -0.16632626138E+04  0.18108656829E+04  0.88856667657E+02 0.  0.
          4    1    3    3  502    0  0.23539478858E+03 -0.78568816250E+03 -0.65962551070E+03  0.10525314292E+04  0.00000000000E+00 0. -1.
         -3    1    3    3    0  502  0.58951322801E+02 -0.14715130896E+03 -0.87665529319E+02  0.18114638064E+03  0.00000000000E+00 0.  1.
         13    1    5    5    0    0  0.54670750951E+02  0.70307698012E+02 -0.21255942040E+03  0.23046381627E+03  0.00000000000E+00 0.  1.
        -13    1    5    5    0    0  0.22790696487E+03  0.44773617376E+03 -0.78863362583E+03  0.93506805192E+03  0.00000000000E+00 0. -1.
          1    1    6    6  503    0 -0.47715718195E+03  0.37803720260E+03 -0.14485666600E+04  0.15712849746E+04  0.00000000000E+00 0. -1.
         -1    1    6    6    0  503 -0.99766645250E+02  0.36758397084E+02 -0.21469595376E+03  0.23958070837E+03  0.00000000000E+00 0.  1.
<mgrwt>
<rscale>  0 0.24667223E+04</rscale>
<asrwt>0</asrwt>
<pdfrwt beam="1">  1        2 0.58629401E+00 0.24667223E+04</pdfrwt>
<pdfrwt beam="2">  1       -1 0.61409897E-01 0.24667223E+04</pdfrwt>
<totfact> 0.13217319E+00</totfact>
</mgrwt>
</event>
<event>
12    7  0.1698542E-007  0.2700606E+04  0.7818608E-02  0.8334808E-01
          2   -1    0    0  501    0  0.00000000000E+00  0.00000000000E+00  0.20263425678E+04  0.20263425678E+04  0.00000000000E+00 0. -1.
         -1   -1    0    0    0  501 -0.00000000000E+00 -0.00000000000E+00 -0.89980767067E+03  0.89980767067E+03  0.00000000000E+00 0.  1.
         24    2    1    2    0    0 -0.29908621742E+02  0.10786129109E+03  0.18176582326E+04  0.18229356632E+04  0.81758166982E+02 0.  0.
        254    2    1    2    0    0  0.29908621742E+02 -0.10786129109E+03 -0.69112333551E+03  0.11032145752E+04  0.85258568504E+03 0.  0.
         23    2    4    4    0    0 -0.23711230321E+03  0.26194921152E+03 -0.16332200401E+03  0.39957808225E+03  0.90271441076E+02 0.  0.
         23    2    4    4    0    0  0.26702092495E+03 -0.36981050261E+03 -0.52780133150E+03  0.70363649298E+03  0.92033072961E+02 0.  0.
          4    1    3    3  502    0 -0.55207540647E+01  0.11099858250E+03  0.13199412243E+04  0.13246116411E+04  0.00000000000E+00 0. -1.
         -3    1    3    3    0  502 -0.24387867677E+02 -0.31372914074E+01  0.49771700834E+03  0.49832402218E+03  0.00000000000E+00 0.  1.
         13    1    5    5    0    0 -0.26895738452E+02  0.56718370048E+02  0.13524023932E+01  0.62786807850E+02  0.00000000000E+00 0. -1.
        -13    1    5    5    0    0 -0.21021656475E+03  0.20523084147E+03 -0.16467440640E+03  0.33679127440E+03  0.00000000000E+00 0.  1.
          3    1    6    6  503    0  0.15336991292E+02 -0.22528394752E+02 -0.75730075115E+02  0.80484757246E+02  0.00000000000E+00 0. -1.
         -3    1    6    6    0  503  0.25168393366E+03 -0.34728210785E+03 -0.45207125639E+03  0.62315173574E+03  0.00000000000E+00 0.  1.
<mgrwt>
<rscale>  0 0.27006063E+04</rscale>
<asrwt>0</asrwt>
<pdfrwt beam="1">  1        2 0.31174501E+00 0.27006063E+04</pdfrwt>
<pdfrwt beam="2">  1       -1 0.13843195E+00 0.27006063E+04</pdfrwt>
<totfact> 0.27826822E+00</totfact>
</mgrwt>
</event>
<event>
12    7  0.1698542E-007  0.1815268E+04  0.7818608E-02  0.8698222E-01
         -1   -1    0    0    0  501 -0.00000000000E+00  0.00000000000E+00  0.27889152447E+03  0.27889152447E+03  0.00000000000E+00 0.  1.
          2   -1    0    0  501    0  0.00000000000E+00 -0.00000000000E+00 -0.29538363408E+04  0.29538363408E+04  0.00000000000E+00 0. -1.
         24    2    1    2    0    0 -0.28901288354E+03  0.44688652278E+03 -0.23870616543E+03  0.58869510626E+03  0.79657288545E+02 0.  0.
        254    2    1    2    0    0  0.28901288354E+03 -0.44688652278E+03 -0.24362386509E+04  0.26440327591E+04  0.87887112565E+03 0.  0.
         23    2    4    4    0    0  0.20576566813E+03  0.17803306080E+03 -0.13900735703E+04  0.14193863475E+04  0.91201928966E+02 0.  0.
         23    2    4    4    0    0  0.83247215420E+02 -0.62491958358E+03 -0.10461650806E+04  0.12246464115E+04  0.88559993452E+02 0.  0.
          4    1    3    3  502    0 -0.47973757525E+02  0.40431959083E+02 -0.48499647272E+02  0.79299687968E+02  0.00000000000E+00 0. -1.
         -3    1    3    3    0  502 -0.24103912602E+03  0.40645456370E+03 -0.19020651816E+03  0.50939541829E+03  0.00000000000E+00 0.  1.
         13    1    5    5    0    0  0.80364510919E+02  0.44289857468E+02 -0.29094856594E+03  0.30507558754E+03  0.00000000000E+00 0. -1.
        -13    1    5    5    0    0  0.12540115721E+03  0.13374320333E+03 -0.10991250044E+04  0.11143107600E+04  0.00000000000E+00 0.  1.
          4    1    6    6  503    0  0.97070115746E+01 -0.85019172359E+02 -0.20824736049E+03  0.22514317421E+03  0.00000000000E+00 0. -1.
         -4    1    6    6    0  503  0.73540203845E+02 -0.53990041122E+03 -0.83791772016E+03  0.99950323730E+03  0.00000000000E+00 0.  1.
<mgrwt>
<rscale>  0 0.18152685E+04</rscale>
<asrwt>0</asrwt>
<pdfrwt beam="1">  1        2 0.45443636E+00 0.18152685E+04</pdfrwt>
<pdfrwt beam="2">  1       -1 0.42906388E-01 0.18152685E+04</pdfrwt>
<totfact> 0.10726548E+01</totfact>
</mgrwt>
</event>
<event>
12    7  0.1698542E-007  0.1574801E+04  0.7818608E-02  0.8836180E-01
          2   -1    0    0  501    0  0.00000000000E+00  0.00000000000E+00  0.13799111602E+04  0.13799111602E+04  0.00000000000E+00 0. -1.
         -1   -1    0    0    0  501 -0.00000000000E+00 -0.00000000000E+00 -0.44930373847E+03  0.44930373847E+03  0.00000000000E+00 0.  1.
         24    2    1    2    0    0 -0.38757428460E+03  0.32242990100E+03  0.43130112274E+03  0.66820289476E+03  0.79369912072E+02 0.  0.
        254    2    1    2    0    0  0.38757428460E+03 -0.32242990100E+03  0.49930629904E+03  0.11610120040E+04  0.91894897897E+03 0.  0.
         23    2    4    4    0    0  0.20059476268E+03  0.21117056742E+03 -0.11006419893E+03  0.32437450287E+03  0.90958357877E+02 0.  0.
         23    2    4    4    0    0  0.18697952192E+03 -0.53360046843E+03  0.60937049798E+03  0.83663750109E+03  0.94546829186E+02 0.  0.
          2    1    3    3  502    0 -0.22308705363E+03  0.18971402427E+03  0.30079221054E+03  0.41980376180E+03  0.00000000000E+00 0. -1.
         -1    1    3    3    0  502 -0.16448723097E+03  0.13271587674E+03  0.13050891220E+03  0.24839913295E+03  0.00000000000E+00 0.  1.
         13    1    5    5    0    0  0.12258907349E+03  0.18634017348E+03 -0.85931165357E+02  0.23902909106E+03  0.00000000000E+00 0.  1.
        -13    1    5    5    0    0  0.78005689186E+02  0.24830393947E+02 -0.24133033574E+02  0.85345411818E+02  0.00000000000E+00 0. -1.
          2    1    6    6  503    0  0.13611776659E+02 -0.34191444482E+01  0.25709367427E+02  0.29290656976E+02  0.00000000000E+00 0. -1.
         -2    1    6    6    0  503  0.17336774526E+03 -0.53018132398E+03  0.58366113055E+03  0.80734684412E+03  0.00000000000E+00 0.  1.
<mgrwt>
<rscale>  0 0.15748006E+04</rscale>
<asrwt>0</asrwt>
<pdfrwt beam="1">  1        2 0.21229402E+00 0.15748006E+04</pdfrwt>
<pdfrwt beam="2">  1       -1 0.69123653E-01 0.15748006E+04</pdfrwt>
<totfact> 0.34454690E+01</totfact>
</mgrwt>
</event>
<event>
12    7  0.1698542E-007  0.1693338E+04  0.7818608E-02  0.8765173E-01
         -1   -1    0    0    0  501 -0.00000000000E+00  0.00000000000E+00  0.11203949127E+04  0.11203949127E+04  0.00000000000E+00 0.  1.
          2   -1    0    0  501    0  0.00000000000E+00 -0.00000000000E+00 -0.63981776031E+03  0.63981776031E+03  0.00000000000E+00 0. -1.
         24    2    1    2    0    0  0.13345686361E+03  0.19112404695E+03  0.74481627688E+03  0.78455524176E+03  0.80227833790E+02 0.  0.
        254    2    1    2    0    0 -0.13345686361E+03 -0.19112404695E+03 -0.26423912446E+03  0.97565743127E+03  0.90980545861E+03 0.  0.
         23    2    4    4    0    0 -0.48004151815E+03 -0.92073098520E+02 -0.33151050950E+03  0.59764714318E+03  0.91463518538E+02 0.  0.
         23    2    4    4    0    0  0.34658465453E+03 -0.99050948426E+02  0.67271385037E+02  0.37801028809E+03  0.91838584026E+02 0.  0.
          4    1    3    3  502    0  0.53096144845E+01  0.30137485899E+02  0.19715311194E+03  0.19951393337E+03  0.00000000000E+00 0. -1.
         -3    1    3    3    0  502  0.12814724913E+03  0.16098656105E+03  0.54766316493E+03  0.58504130839E+03  0.00000000000E+00 0.  1.
         13    1    5    5    0    0 -0.11014736616E+03  0.13345839049E+02 -0.95455707917E+02  0.14636374505E+03  0.00000000000E+00 0. -1.
        -13    1    5    5    0    0 -0.36989415199E+03 -0.10541893757E+03 -0.23605480158E+03  0.45128339813E+03  0.00000000000E+00 0.  1.
          4    1    6    6  503    0  0.99548108348E+02 -0.72356196881E+02  0.13700442957E+02  0.12382627847E+03  0.00000000000E+00 0. -1.
         -4    1    6    6    0  503  0.24703654618E+03 -0.26694751545E+02  0.53570942081E+02  0.25418400962E+03  0.00000000000E+00 0.  1.
<mgrwt>
<rscale>  0 0.16933382E+04</rscale>
<asrwt>0</asrwt>
<pdfrwt beam="1">  1        2 0.98433501E-01 0.16933382E+04</pdfrwt>
<pdfrwt beam="2">  1       -1 0.17236845E+00 0.16933382E+04</pdfrwt>
<totfact> 0.11786475E+01</totfact>
</mgrwt>
</event>
<event>
12    7  0.1698542E-007  0.1123738E+04  0.7818608E-02  0.9182359E-01
          2   -1    0    0  501    0  0.00000000000E+00  0.00000000000E+00  0.62550818731E+03  0.62550818731E+03  0.00000000000E+00 0. -1.
         -1   -1    0    0    0  501 -0.00000000000E+00 -0.00000000000E+00 -0.50470462298E+03  0.50470462298E+03  0.00000000000E+00 0.  1.
         24    2    1    2    0    0 -0.17727389041E+03  0.37177504771E+02 -0.13275470731E+02  0.19863878093E+03  0.80454509393E+02 0.  0.
        254    2    1    2    0    0  0.17727389041E+03 -0.37177504771E+02  0.13407903506E+03  0.93157402936E+03  0.90390529672E+03 0.  0.
         23    2    4    4    0    0 -0.10322802962E+03 -0.40917546661E+03  0.14873783075E+03  0.45664704795E+03  0.91230452862E+02 0.  0.
         23    2    4    4    0    0  0.28050192004E+03  0.37199796184E+03 -0.14658795697E+02  0.47492698140E+03  0.90977725907E+02 0.  0.
          2    1    3    3  502    0 -0.91467054518E+02  0.56860813255E+02  0.82308872451E+01  0.10801445112E+03  0.00000000000E+00 0. -1.
         -1    1    3    3    0  502 -0.85806835897E+02 -0.19683308484E+02 -0.21506357976E+02  0.90624329807E+02  0.00000000000E+00 0.  1.
         13    1    5    5    0    0 -0.52051500535E+02 -0.34836378028E+03  0.12355624658E+03  0.37327312814E+03  0.00000000000E+00 0. -1.
        -13    1    5    5    0    0 -0.51176529090E+02 -0.60811686331E+02  0.25181584174E+02  0.83373919817E+02  0.00000000000E+00 0.  1.
          2    1    6    6  503    0  0.21166552894E+03  0.30465392632E+03 -0.45645791579E+02  0.37376443016E+03  0.00000000000E+00 0. -1.
         -2    1    6    6    0  503  0.68836391101E+02  0.67344035524E+02  0.30986995882E+02  0.10116255124E+03  0.00000000000E+00 0.  1.
<mgrwt>
<rscale>  0 0.11237382E+04</rscale>
<asrwt>0</asrwt>
<pdfrwt beam="1">  1        2 0.96232029E-01 0.11237382E+04</pdfrwt>
<pdfrwt beam="2">  1       -1 0.77646865E-01 0.11237382E+04</pdfrwt>
<totfact> 0.88807199E+01</totfact>
</mgrwt>
</event>
<event>
12    7  0.1698542E-007  0.1445734E+04  0.7818608E-02  0.8921364E-01
          2   -1    0    0  501    0  0.00000000000E+00  0.00000000000E+00  0.10055834660E+04  0.10055834660E+04  0.00000000000E+00 0. -1.
         -1   -1    0    0    0  501 -0.00000000000E+00 -0.00000000000E+00 -0.51963506734E+03  0.51963506734E+03  0.00000000000E+00 0.  1.
         24    2    1    2    0    0  0.66390026784E+02  0.15699298201E+03 -0.27558413525E+03  0.33362352728E+03  0.79395278770E+02 0.  0.
        254    2    1    2    0    0 -0.66390026784E+02 -0.15699298201E+03  0.76153253394E+03  0.11915950061E+04  0.90050676079E+03 0.  0.
         23    2    4    4    0    0 -0.36148496143E+02  0.36443317304E+03  0.23731196889E+03  0.44606619738E+03  0.92411203231E+02 0.  0.
         23    2    4    4    0    0 -0.30241530642E+02 -0.52142615505E+03  0.52422056505E+03  0.74552880871E+03  0.90588180549E+02 0.  0.
          2    1    3    3  502    0  0.22467469214E+02  0.15308952125E+02 -0.91608540378E+01  0.28689239006E+02  0.00000000000E+00 0. -1.
         -1    1    3    3    0  502  0.43922557570E+02  0.14168402988E+03 -0.26642328122E+03  0.30493428827E+03  0.00000000000E+00 0.  1.
         13    1    5    5    0    0 -0.48342778655E+02  0.18478373293E+03  0.16363764105E+03  0.25151407470E+03  0.00000000000E+00 0. -1.
        -13    1    5    5    0    0  0.12194282513E+02  0.17964944010E+03  0.73674327842E+02  0.19455212268E+03  0.00000000000E+00 0.  1.
          3    1    6    6  503    0  0.31725149343E+02 -0.21317913575E+03  0.22220564410E+03  0.30955965061E+03  0.00000000000E+00 0. -1.
         -3    1    6    6    0  503 -0.61966679985E+02 -0.30824701930E+03  0.30201492095E+03  0.43596915810E+03  0.00000000000E+00 0.  1.
<mgrwt>
<rscale>  0 0.14457336E+04</rscale>
<asrwt>0</asrwt>
<pdfrwt beam="1">  1        2 0.15470515E+00 0.14457336E+04</pdfrwt>
<pdfrwt beam="2">  1       -1 0.79943856E-01 0.14457336E+04</pdfrwt>
<totfact> 0.43202720E+01</totfact>
</mgrwt>
</event>
<event>
12    7  0.1698542E-007  0.2090810E+04  0.7818608E-02  0.8565303E-01
          2   -1    0    0  501    0  0.00000000000E+00  0.00000000000E+00  0.67965460263E+03  0.67965460263E+03  0.00000000000E+00 0. -1.
         -1   -1    0    0    0  501 -0.00000000000E+00 -0.00000000000E+00 -0.16079803389E+04  0.16079803389E+04  0.00000000000E+00 0.  1.
         24    2    1    2    0    0 -0.35531543248E+03  0.69817806022E+03 -0.74800278851E+03  0.10861055740E+04  0.80096728781E+02 0.  0.
        254    2    1    2    0    0  0.35531543248E+03 -0.69817806022E+03 -0.18032294777E+03  0.12015293675E+04  0.89300324481E+03 0.  0.
         23    2    4    4    0    0  0.49438788158E+03 -0.67169666171E+03  0.12967610088E+03  0.84854567513E+03  0.87281663768E+02 0.  0.
         23    2    4    4    0    0 -0.13907244911E+03 -0.26481398502E+02 -0.30999904866E+03  0.35298369241E+03  0.91954697373E+02 0.  0.
          2    1    3    3  502    0 -0.64142620053E+02  0.12098164570E+03 -0.17524025054E+03  0.22239599752E+03  0.00000000000E+00 0. -1.
         -1    1    3    3    0  502 -0.29117281242E+03  0.57719641451E+03 -0.57276253797E+03  0.86370957649E+03  0.00000000000E+00 0.  1.
         13    1    5    5    0    0  0.31030160127E+03 -0.48881735543E+03  0.95691685409E+02  0.58684443371E+03  0.00000000000E+00 0.  1.
        -13    1    5    5    0    0  0.18408628031E+03 -0.18287930628E+03  0.33984415475E+02  0.26170124142E+03  0.00000000000E+00 0. -1.
          3    1    6    6  503    0 -0.89416845259E+02 -0.59414219798E+02 -0.17322830387E+03  0.20379761282E+03  0.00000000000E+00 0. -1.
         -3    1    6    6    0  503 -0.49655603848E+02  0.32932821295E+02 -0.13677074479E+03  0.14918607959E+03  0.00000000000E+00 0.  1.
<mgrwt>
<rscale>  0 0.20908096E+04</rscale>
<asrwt>0</asrwt>
<pdfrwt beam="1">  1        2 0.10456225E+00 0.20908096E+04</pdfrwt>
<pdfrwt beam="2">  1       -1 0.24738159E+00 0.20908096E+04</pdfrwt>
<totfact> 0.32468195E+00</totfact>
</mgrwt>
</event>
<event>
12    7  0.1698542E-007  0.1980873E+04  0.7818608E-02  0.8615616E-01
          2   -1    0    0  501    0  0.00000000000E+00  0.00000000000E+00  0.25118797190E+04  0.25118797190E+04  0.00000000000E+00 0. -1.
         -1   -1    0    0    0  501 -0.00000000000E+00 -0.00000000000E+00 -0.39053016639E+03  0.39053016639E+03  0.00000000000E+00 0.  1.
         24    2    1    2    0    0  0.51226963746E+03  0.16406411607E+03  0.13661632419E+02  0.54413486377E+03  0.80986999712E+02 0.  0.
        254    2    1    2    0    0 -0.51226963746E+03 -0.16406411607E+03  0.21076879202E+04  0.23582750217E+04  0.91092013540E+03 0.  0.
         23    2    4    4    0    0 -0.76651317967E+03 -0.15686110395E+03  0.15700301655E+04  0.17565535029E+04  0.91310608655E+02 0.  0.
         23    2    4    4    0    0  0.25424354221E+03 -0.72030121197E+01  0.53765775472E+03  0.60172151880E+03  0.91111266261E+02 0.  0.
          4    1    3    3  502    0  0.18150841227E+03  0.64736202053E+02  0.43299954315E+02  0.19751193793E+03  0.00000000000E+00 0. -1.
         -3    1    3    3    0  502  0.33076122519E+03  0.99327914018E+02 -0.29638321895E+02  0.34662292584E+03  0.00000000000E+00 0.  1.
         13    1    5    5    0    0 -0.27421429719E+03 -0.47004837779E+02  0.65651730271E+03  0.71303429392E+03  0.00000000000E+00 0.  1.
        -13    1    5    5    0    0 -0.49229888249E+03 -0.10985626617E+03  0.91351286281E+03  0.10435192089E+04  0.00000000000E+00 0. -1.
          4    1    6    6  503    0  0.20565069391E+03 -0.22890470928E+02  0.48989821107E+03  0.53180488788E+03  0.00000000000E+00 0. -1.
         -4    1    6    6    0  503  0.48592848297E+02  0.15687458808E+02  0.47759543651E+02  0.69916630920E+02  0.00000000000E+00 0.  1.
<mgrwt>
<rscale>  0 0.19808733E+04</rscale>
<asrwt>0</asrwt>
<pdfrwt beam="1">  1        2 0.38644302E+00 0.19808733E+04</pdfrwt>
<pdfrwt beam="2">  1       -1 0.60081566E-01 0.19808733E+04</pdfrwt>
<totfact> 0.10200763E+01</totfact>
</mgrwt>
</event>
<event>
12    7  0.1698542E-007  0.1597211E+04  0.7818608E-02  0.8822263E-01
         -1   -1    0    0    0  501 -0.00000000000E+00  0.00000000000E+00  0.55119257926E+03  0.55119257926E+03  0.00000000000E+00 0.  1.
          2   -1    0    0  501    0  0.00000000000E+00 -0.00000000000E+00 -0.11570748023E+04  0.11570748023E+04  0.00000000000E+00 0. -1.
         24    2    1    2    0    0  0.30610429028E+03  0.16713099437E+03 -0.64546819770E+03  0.73822868744E+03  0.81974355136E+02 0.  0.
        254    2    1    2    0    0 -0.30610429028E+03 -0.16713099437E+03  0.39585974700E+02  0.97003869408E+03  0.90430935681E+03 0.  0.
         23    2    4    4    0    0  0.26208058153E+03  0.13497814384E+03 -0.56530579713E+02  0.31342623303E+03  0.90194049569E+02 0.  0.
         23    2    4    4    0    0 -0.56818487181E+03 -0.30210913822E+03  0.96116554413E+02  0.65661246106E+03  0.88303748716E+02 0.  0.
          2    1    3    3  502    0  0.33137015133E+02  0.23163911348E+02 -0.14256368321E+03  0.14818580341E+03  0.00000000000E+00 0. -1.
         -1    1    3    3    0  502  0.27296727515E+03  0.14396708303E+03 -0.50290451449E+03  0.59004288403E+03  0.00000000000E+00 0.  1.
         13    1    5    5    0    0  0.76197349891E+02  0.84806563284E+02 -0.37190835631E+02  0.11992225632E+03  0.00000000000E+00 0. -1.
        -13    1    5    5    0    0  0.18588323164E+03  0.50171580558E+02 -0.19339744083E+02  0.19350397670E+03  0.00000000000E+00 0.  1.
          4    1    6    6  503    0 -0.56452890148E+03 -0.28568602666E+03  0.94316505907E+02  0.63969132378E+03  0.00000000000E+00 0.  1.
         -4    1    6    6    0  503 -0.36559703354E+01 -0.16423111556E+02  0.18000485061E+01  0.16921137281E+02  0.00000000000E+00 0. -1.
<mgrwt>
<rscale>  0 0.15972114E+04</rscale>
<asrwt>0</asrwt>
<pdfrwt beam="1">  1        2 0.17801150E+00 0.15972114E+04</pdfrwt>
<pdfrwt beam="2">  1       -1 0.84798860E-01 0.15972114E+04</pdfrwt>
<totfact> 0.30263640E+01</totfact>
</mgrwt>
</event>
<event>
12    7  0.1698542E-007  0.2365094E+04  0.7818608E-02  0.8452689E-01
         -1   -1    0    0    0  501 -0.00000000000E+00  0.00000000000E+00  0.42172916106E+03  0.42172916106E+03  0.00000000000E+00 0.  1.
          2   -1    0    0  501    0  0.00000000000E+00 -0.00000000000E+00 -0.33159139229E+04  0.33159139229E+04  0.00000000000E+00 0. -1.
         24    2    1    2    0    0  0.77482874219E+03  0.52795899385E+03 -0.64795441644E+03  0.11426412076E+04  0.81754048853E+02 0.  0.
        254    2    1    2    0    0 -0.77482874219E+03 -0.52795899385E+03 -0.22462303454E+04  0.25950018764E+04  0.89965754320E+03 0.  0.
         23    2    4    4    0    0 -0.37071535692E+03 -0.14956384712E+03 -0.16892118746E+03  0.44323716872E+03  0.90142109698E+02 0.  0.
         23    2    4    4    0    0 -0.40411338528E+03 -0.37839514673E+03 -0.20773091580E+04  0.21517647077E+04  0.91583319131E+02 0.  0.
          4    1    3    3  502    0  0.58877458813E+03  0.39957559413E+03 -0.53295799953E+03  0.88902215963E+03  0.00000000000E+00 0. -1.
         -3    1    3    3    0  502  0.18605415407E+03  0.12838339972E+03 -0.11499641691E+03  0.25361904793E+03  0.00000000000E+00 0.  1.
         13    1    5    5    0    0 -0.12681826179E+03 -0.45894901158E+02 -0.10420551456E+03  0.17043474628E+03  0.00000000000E+00 0. -1.
        -13    1    5    5    0    0 -0.24389709512E+03 -0.10366894596E+03 -0.64715672900E+02  0.27280242243E+03  0.00000000000E+00 0.  1.
          1    1    6    6  503    0 -0.20093986963E+03 -0.23692611331E+03 -0.10462043882E+04  0.10913544045E+04  0.00000000000E+00 0. -1.
         -1    1    6    6    0  503 -0.20317351565E+03 -0.14146903343E+03 -0.10311047698E+04  0.10604103032E+04  0.00000000000E+00 0.  1.
<mgrwt>
<rscale>  0 0.23650942E+04</rscale>
<asrwt>0</asrwt>
<pdfrwt beam="1">  1        2 0.51014061E+00 0.23650942E+04</pdfrwt>
<pdfrwt beam="2">  1       -1 0.64881409E-01 0.23650942E+04</pdfrwt>
<totfact> 0.26894016E+00</totfact>
</mgrwt>
</event>
<event>
12    7  0.1698542E-007  0.1677232E+04  0.7818608E-02  0.8774458E-01
          2   -1    0    0  501    0  0.00000000000E+00  0.00000000000E+00  0.96521902915E+03  0.96521902915E+03  0.00000000000E+00 0. -1.
         -1   -1    0    0    0  501 -0.00000000000E+00 -0.00000000000E+00 -0.72861860949E+03  0.72861860949E+03  0.00000000000E+00 0.  1.
         24    2    1    2    0    0 -0.13189627279E+03 -0.43211768681E+03  0.46970338995E+03  0.65707539609E+03  0.83692769041E+02 0.  0.
        254    2    1    2    0    0  0.13189627279E+03  0.43211768681E+03 -0.23310297030E+03  0.10367622425E+04  0.90355776284E+03 0.  0.
         23    2    4    4    0    0  0.23761484233E+03  0.22610473115E+03  0.29651949234E+03  0.45180381021E+03  0.92837012264E+02 0.  0.
         23    2    4    4    0    0 -0.10571856954E+03  0.20601295566E+03 -0.52962246264E+03  0.58495843234E+03  0.89770043921E+02 0.  0.
          4    1    3    3  502    0 -0.52680967348E+02 -0.98478226277E+02  0.76624808805E+02  0.13544226333E+03  0.00000000000E+00 0. -1.
         -1    1    3    3    0  502 -0.79215305441E+02 -0.33363946053E+03  0.39307858115E+03  0.52163313276E+03  0.00000000000E+00 0.  1.
         13    1    5    5    0    0  0.22315099962E+03  0.16674995491E+03  0.22778840509E+03  0.35984645835E+03  0.00000000000E+00 0.  1.
        -13    1    5    5    0    0  0.14463842715E+02  0.59354776239E+02  0.68731087245E+02  0.91957351866E+02  0.00000000000E+00 0. -1.
          1    1    6    6  503    0  0.17937809484E+01  0.41397016309E+02 -0.17127771001E+03  0.17621857040E+03  0.00000000000E+00 0. -1.
         -1    1    6    6    0  503 -0.10751235049E+03  0.16461593935E+03 -0.35834475263E+03  0.40873986193E+03  0.00000000000E+00 0.  1.
<mgrwt>
<rscale>  0 0.16772317E+04</rscale>
<asrwt>0</asrwt>
<pdfrwt beam="1">  1        2 0.14849524E+00 0.16772317E+04</pdfrwt>
<pdfrwt beam="2">  1       -1 0.11209517E+00 0.16772317E+04</pdfrwt>
<totfact> 0.21063071E+01</totfact>
</mgrwt>
</event>
<event>
12    7  0.1698542E-007  0.2641375E+04  0.7818608E-02  0.8354281E-01
          2   -1    0    0  501    0  0.00000000000E+00  0.00000000000E+00  0.35162936283E+04  0.35162936283E+04  0.00000000000E+00 0. -1.
         -1   -1    0    0    0  501 -0.00000000000E+00 -0.00000000000E+00 -0.49603793486E+03  0.49603793486E+03  0.00000000000E+00 0.  1.
         24    2    1    2    0    0  0.10962509760E+03  0.25623300784E+03 -0.37672305521E+03  0.47541468345E+03  0.80161365906E+02 0.  0.
        254    2    1    2    0    0 -0.10962509760E+03 -0.25623300784E+03  0.33969787486E+04  0.35369168797E+04  0.94479806252E+03 0.  0.
         23    2    4    4    0    0 -0.50465752122E+03 -0.24983171681E+02  0.16023694295E+04  0.16825677408E+04  0.90238801043E+02 0.  0.
         23    2    4    4    0    0  0.39503242362E+03 -0.23124983616E+03  0.17946093191E+04  0.18543491389E+04  0.91983793055E+02 0.  0.
          2    1    3    3  502    0 -0.46683373404E+01  0.72704156042E+02 -0.11214115490E+03  0.13372855455E+03  0.00000000000E+00 0. -1.
         -1    1    3    3    0  502  0.11429343494E+03  0.18352885180E+03 -0.26458190031E+03  0.34168612890E+03  0.00000000000E+00 0.  1.
         13    1    5    5    0    0 -0.27019773972E+03  0.33538491542E+00  0.71350428673E+03  0.76295170110E+03  0.00000000000E+00 0. -1.
        -13    1    5    5    0    0 -0.23445978150E+03 -0.25318556596E+02  0.88886514276E+03  0.91961603970E+03  0.00000000000E+00 0.  1.
          4    1    6    6  503    0  0.37429690858E+03 -0.20584369176E+03  0.15587657536E+04  0.16162365160E+04  0.00000000000E+00 0. -1.
         -4    1    6    6    0  503  0.20735515034E+02 -0.25406144401E+02  0.23584356558E+03  0.23811262290E+03  0.00000000000E+00 0.  1.
<mgrwt>
<rscale>  0 0.26413747E+04</rscale>
<asrwt>0</asrwt>
<pdfrwt beam="1">  1        2 0.54096824E+00 0.26413747E+04</pdfrwt>
<pdfrwt beam="2">  1       -1 0.76313531E-01 0.26413747E+04</pdfrwt>
<totfact> 0.13688031E+00</totfact>
</mgrwt>
</event>
<event>
12    7  0.1698542E-007  0.1410253E+04  0.7818608E-02  0.8946430E-01
          2   -1    0    0  501    0  0.00000000000E+00  0.00000000000E+00  0.15670232650E+04  0.15670232650E+04  0.00000000000E+00 0. -1.
         -1   -1    0    0    0  501 -0.00000000000E+00 -0.00000000000E+00 -0.31729149728E+03  0.31729149728E+03  0.00000000000E+00 0.  1.
         24    2    1    2    0    0 -0.17941583973E+03  0.36544396267E+03  0.27993305129E+03  0.50042586382E+03  0.79524829942E+02 0.  0.
        254    2    1    2    0    0  0.17941583973E+03 -0.36544396267E+03  0.96979871644E+03  0.13838888985E+04  0.89938845862E+03 0.  0.
         23    2    4    4    0    0  0.27162094687E+03 -0.60777294317E+03  0.85056122217E+03  0.10838721046E+04  0.90324178214E+02 0.  0.
         23    2    4    4    0    0 -0.92205107136E+02  0.24232898050E+03  0.11923749428E+03  0.30001679391E+03  0.92560142689E+02 0.  0.
          2    1    3    3  502    0 -0.84863651717E+02  0.21056253364E+03  0.19836277362E+03  0.30147339835E+03  0.00000000000E+00 0. -1.
         -1    1    3    3    0  502 -0.94552188014E+02  0.15488142904E+03  0.81570277669E+02  0.19895246547E+03  0.00000000000E+00 0.  1.
         13    1    5    5    0    0  0.19577001651E+03 -0.44000082786E+03  0.67719771229E+03  0.83097735794E+03  0.00000000000E+00 0.  1.
        -13    1    5    5    0    0  0.75850930355E+02 -0.16777211531E+03  0.17336350987E+03  0.25289474662E+03  0.00000000000E+00 0. -1.
          3    1    6    6  503    0 -0.42677054130E+02  0.17485478242E+03  0.11998218108E+03  0.21631285135E+03  0.00000000000E+00 0. -1.
         -3    1    6    6    0  503 -0.49528053006E+02  0.67474198083E+02 -0.74468680180E+00  0.83703942559E+02  0.00000000000E+00 0.  1.
<mgrwt>
<rscale>  0 0.14102527E+04</rscale>
<asrwt>0</asrwt>
<pdfrwt beam="1">  1        2 0.24108050E+00 0.14102527E+04</pdfrwt>
<pdfrwt beam="2">  1       -1 0.48814078E-01 0.14102527E+04</pdfrwt>
<totfact> 0.54173952E+01</totfact>
</mgrwt>
</event>
<event>
12    7  0.1698542E-007  0.1176505E+04  0.7818608E-02  0.9133674E-01
         -1   -1    0    0    0  501 -0.00000000000E+00  0.00000000000E+00  0.94736838470E+03  0.94736838470E+03  0.00000000000E+00 0.  1.
          2   -1    0    0  501    0  0.00000000000E+00 -0.00000000000E+00 -0.36526543774E+03  0.36526543774E+03  0.00000000000E+00 0. -1.
         24    2    1    2    0    0 -0.10764165097E+03 -0.31884519556E+02  0.35257580828E+03  0.37854554912E+03  0.79897963425E+02 0.  0.
        254    2    1    2    0    0  0.10764165097E+03  0.31884519556E+02  0.22952713868E+03  0.93408827332E+03  0.89846249078E+03 0.  0.
         23    2    4    4    0    0 -0.15624267314E+03  0.35454036567E+03 -0.78849870159E+02  0.40772947296E+03  0.99575987549E+02 0.  0.
         23    2    4    4    0    0  0.26388432411E+03 -0.32265584612E+03  0.30837700884E+03  0.52635880035E+03  0.90639260721E+02 0.  0.
          4    1    3    3  502    0  0.26600241948E+01 -0.25726497004E+02  0.47523098477E+02  0.54105205532E+02  0.00000000000E+00 0. -1.
         -3    1    3    3    0  502 -0.11030167517E+03 -0.61580225519E+01  0.30505270980E+03  0.32444034358E+03  0.00000000000E+00 0.  1.
         13    1    5    5    0    0 -0.39265840813E+01  0.95344982669E+01 -0.24652543662E+02  0.26722137429E+02  0.00000000000E+00 0. -1.
        -13    1    5    5    0    0 -0.15231608906E+03  0.34500586741E+03 -0.54197326497E+02  0.38100733553E+03  0.00000000000E+00 0.  1.
          4    1    6    6  503    0  0.11700490716E+03 -0.14516190134E+03  0.19426859759E+03  0.26926272284E+03  0.00000000000E+00 0. -1.
         -4    1    6    6    0  503  0.14687941695E+03 -0.17749394478E+03  0.11410841125E+03  0.25709607751E+03  0.00000000000E+00 0.  1.
<mgrwt>
<rscale>  0 0.11765049E+04</rscale>
<asrwt>0</asrwt>
<pdfrwt beam="1">  1        2 0.56194683E-01 0.11765049E+04</pdfrwt>
<pdfrwt beam="2">  1       -1 0.14574898E+00 0.11765049E+04</pdfrwt>
<totfact> 0.37567049E+01</totfact>
</mgrwt>
</event>
<event>
12    7  0.1698542E-007  0.1852434E+04  0.7818608E-02  0.8678902E-01
         -1   -1    0    0    0  501 -0.00000000000E+00  0.00000000000E+00  0.10430405485E+04  0.10430405485E+04  0.00000000000E+00 0.  1.
          2   -1    0    0  501    0  0.00000000000E+00 -0.00000000000E+00 -0.82247822192E+03  0.82247822192E+03  0.00000000000E+00 0. -1.
         24    2    1    2    0    0  0.20694000009E+02  0.65015158183E+03 -0.18344094738E+03  0.67999795637E+03  0.74975452625E+02 0.  0.
        254    2    1    2    0    0 -0.20694000009E+02 -0.65015158183E+03  0.40400327393E+03  0.11855208140E+04  0.90505007271E+03 0.  0.
         23    2    4    4    0    0 -0.91646776900E+02 -0.85501225901E+03  0.23527491765E+03  0.89600091452E+03  0.89544721593E+02 0.  0.
         23    2    4    4    0    0  0.70952776891E+02  0.20486067718E+03  0.16872835629E+03  0.28951989950E+03  0.91380087474E+02 0.  0.
          2    1    3    3  502    0  0.41560836661E+02  0.50272896414E+03 -0.16041396887E+03  0.52933576862E+03  0.00000000000E+00 0. -1.
         -1    1    3    3    0  502 -0.20866836652E+02  0.14742261769E+03 -0.23026978510E+02  0.15066218775E+03  0.00000000000E+00 0.  1.
         13    1    5    5    0    0 -0.31580028383E+02 -0.24673332174E+03  0.26784722602E+02  0.25018403549E+03  0.00000000000E+00 0. -1.
        -13    1    5    5    0    0 -0.60066748518E+02 -0.60827893728E+03  0.20849019504E+03  0.64581687903E+03  0.00000000000E+00 0.  1.
          2    1    6    6  503    0  0.31386292692E+02  0.18481026050E+03  0.15455081811E+03  0.24295243801E+03  0.00000000000E+00 0.  1.
         -2    1    6    6    0  503  0.39566484199E+02  0.20050416676E+02  0.14177538178E+02  0.46567461489E+02  0.00000000000E+00 0. -1.
<mgrwt>
<rscale>  0 0.18524342E+04</rscale>
<asrwt>0</asrwt>
<pdfrwt beam="1">  1        2 0.12653511E+00 0.18524342E+04</pdfrwt>
<pdfrwt beam="2">  1       -1 0.16046778E+00 0.18524342E+04</pdfrwt>
<totfact> 0.10323203E+01</totfact>
</mgrwt>
</event>
<event>
12    7  0.1698542E-007  0.1081352E+04  0.7818608E-02  0.9223560E-01
          2   -1    0    0  501    0  0.00000000000E+00  0.00000000000E+00  0.90141817153E+03  0.90141817153E+03  0.00000000000E+00 0. -1.
         -1   -1    0    0    0  501 -0.00000000000E+00 -0.00000000000E+00 -0.32430080694E+03  0.32430080694E+03  0.00000000000E+00 0.  1.
         24    2    1    2    0    0 -0.70202953354E+02  0.90548766488E+02  0.57521320250E+02  0.15651371911E+03  0.89779219280E+02 0.  0.
        254    2    1    2    0    0  0.70202953354E+02 -0.90548766488E+02  0.51959604434E+03  0.10692052594E+04  0.92741161496E+03 0.  0.
         23    2    4    4    0    0 -0.38182389441E+03 -0.16692816770E+02  0.33070841393E+02  0.39495319502E+03  0.93947906991E+02 0.  0.
         23    2    4    4    0    0  0.45202684776E+03 -0.73855949718E+02  0.48652520295E+03  0.67425206434E+03  0.90144887542E+02 0.  0.
          4    1    3    3  502    0 -0.62127417543E+02  0.10303040212E+03  0.68117839121E+02  0.13825744022E+03  0.00000000000E+00 0. -1.
         -3    1    3    3    0  502 -0.80755358115E+01 -0.12481635629E+02 -0.10596518871E+02  0.18256278887E+02  0.00000000000E+00 0.  1.
         13    1    5    5    0    0 -0.17450841468E+02 -0.12618344154E+02 -0.16596359155E+02  0.27188115314E+02  0.00000000000E+00 0. -1.
        -13    1    5    5    0    0 -0.36437305294E+03 -0.40744726161E+01  0.49667200548E+02  0.36776507970E+03  0.00000000000E+00 0.  1.
          3    1    6    6  503    0  0.13476498319E+03  0.94268222077E+01  0.10494056715E+03  0.17106428121E+03  0.00000000000E+00 0. -1.
         -3    1    6    6    0  503  0.31726186457E+03 -0.83282771926E+02  0.38158463580E+03  0.50318778313E+03  0.00000000000E+00 0.  1.
<mgrwt>
<rscale>  0 0.10813522E+04</rscale>
<asrwt>0</asrwt>
<pdfrwt beam="1">  1        2 0.13867972E+00 0.10813522E+04</pdfrwt>
<pdfrwt beam="2">  1       -1 0.49892432E-01 0.10813522E+04</pdfrwt>
<totfact> 0.13366991E+02</totfact>
</mgrwt>
</event>
<event>
12    7  0.1698542E-007  0.2842961E+04  0.7818608E-02  0.8290054E-01
          2   -1    0    0  501    0  0.00000000000E+00  0.00000000000E+00  0.24702008925E+04  0.24702008925E+04  0.00000000000E+00 0. -1.
         -1   -1    0    0    0  501 -0.00000000000E+00 -0.00000000000E+00 -0.81799277209E+03  0.81799277209E+03  0.00000000000E+00 0.  1.
         24    2    1    2    0    0 -0.94925706576E+03  0.51042274495E+03 -0.49452400635E+02  0.10818225818E+04  0.79209867188E+02 0.  0.
        254    2    1    2    0    0  0.94925706576E+03 -0.51042274495E+03  0.17016605211E+04  0.22063710829E+04  0.90044681728E+03 0.  0.
         23    2    4    4    0    0  0.20438801769E+03 -0.60250983179E+03  0.69039285197E+03  0.94362252136E+03  0.94808299122E+02 0.  0.
         23    2    4    4    0    0  0.74486904807E+03  0.92087086845E+02  0.10112676691E+04  0.12627485615E+04  0.92529458041E+02 0.  0.
          2    1    3    3  502    0 -0.26659270964E+03  0.12960208148E+03  0.19634061204E+02  0.29707552696E+03  0.00000000000E+00 0. -1.
         -1    1    3    3    0  502 -0.68266435612E+03  0.38082066346E+03 -0.69086461839E+02  0.78474705482E+03  0.00000000000E+00 0.  1.
         13    1    5    5    0    0  0.34245930310E+02 -0.16595528699E+03  0.13266046742E+03  0.21520395127E+03  0.00000000000E+00 0. -1.
        -13    1    5    5    0    0  0.17014208738E+03 -0.43655454480E+03  0.55773238455E+03  0.72841857009E+03  0.00000000000E+00 0.  1.
          2    1    6    6  503    0  0.21145681313E+03 -0.51775601992E+01  0.23917643341E+03  0.31929008323E+03  0.00000000000E+00 0. -1.
         -2    1    6    6    0  503  0.53341223494E+03  0.97264647045E+02  0.77209123571E+03  0.94345847827E+03  0.00000000000E+00 0.  1.
<mgrwt>
<rscale>  0 0.28429608E+04</rscale>
<asrwt>0</asrwt>
<pdfrwt beam="1">  1        2 0.38003090E+00 0.28429608E+04</pdfrwt>
<pdfrwt beam="2">  1       -1 0.12584504E+00 0.28429608E+04</pdfrwt>
<totfact> 0.19644538E+00</totfact>
</mgrwt>
</event>
<event>
12    7  0.1698542E-007  0.1409201E+04  0.7818608E-02  0.8947185E-01
          2   -1    0    0  501    0  0.00000000000E+00  0.00000000000E+00  0.12986274835E+04  0.12986274835E+04  0.00000000000E+00 0. -1.
         -1   -1    0    0    0  501 -0.00000000000E+00 -0.00000000000E+00 -0.38229760026E+03  0.38229760026E+03  0.00000000000E+00 0.  1.
         24    2    1    2    0    0 -0.38719012800E+03 -0.13615540788E+03  0.30988194453E+03  0.52011664053E+03  0.77717500593E+02 0.  0.
        254    2    1    2    0    0  0.38719012800E+03  0.13615540788E+03  0.60644793870E+03  0.11608084432E+04  0.90069009609E+03 0.  0.
         23    2    4    4    0    0 -0.18138032321E+03  0.23102018666E+03 -0.14945399876E+02  0.30796238333E+03  0.91369121029E+02 0.  0.
         23    2    4    4    0    0  0.56857045122E+03 -0.94864778779E+02  0.62139333858E+03  0.85284605989E+03  0.94578202556E+02 0.  0.
          4    1    3    3  502    0 -0.16703891584E+03 -0.89078058443E+02  0.17421608932E+03  0.25727056901E+03  0.00000000000E+00 0. -1.
         -3    1    3    3    0  502 -0.22015121216E+03 -0.47077349436E+02  0.13566585521E+03  0.26284607152E+03  0.00000000000E+00 0.  1.
         13    1    5    5    0    0 -0.72788116192E+02  0.45034019497E+02  0.24460482402E+02  0.89019593181E+02  0.00000000000E+00 0.  1.
        -13    1    5    5    0    0 -0.10859220702E+03  0.18598616716E+03 -0.39405882278E+02  0.21894279015E+03  0.00000000000E+00 0. -1.
          2    1    6    6  503    0  0.56915710643E+03 -0.96300645917E+02  0.62384879329E+03  0.84994172923E+03  0.00000000000E+00 0. -1.
         -2    1    6    6    0  503 -0.58665520963E+00  0.14358671381E+01 -0.24554547102E+01  0.29043306642E+01  0.00000000000E+00 0.  1.
<mgrwt>
<rscale>  0 0.14092014E+04</rscale>
<asrwt>0</asrwt>
<pdfrwt beam="1">  1        2 0.19978884E+00 0.14092014E+04</pdfrwt>
<pdfrwt beam="2">  1       -1 0.58815016E-01 0.14092014E+04</pdfrwt>
<totfact> 0.53799506E+01</totfact>
</mgrwt>
</event>
<event>
12    7  0.1698542E-007  0.4260408E+04  0.7818608E-02  0.7953980E-01
          2   -1    0    0  501    0  0.00000000000E+00  0.00000000000E+00  0.38011754261E+04  0.38011754261E+04  0.00000000000E+00 0. -1.
         -1   -1    0    0    0  501 -0.00000000000E+00 -0.00000000000E+00 -0.11937803660E+04  0.11937803660E+04  0.00000000000E+00 0.  1.
         24    2    1    2    0    0 -0.23205631802E+03  0.10242028707E+04  0.32835122116E+04  0.34482877151E+04  0.79962912032E+02 0.  0.
        254    2    1    2    0    0  0.23205631802E+03 -0.10242028707E+04 -0.67611715144E+03  0.15466680770E+04  0.91225329973E+03 0.  0.
         23    2    4    4    0    0 -0.26809877660E+03 -0.39643353487E+03  0.87645649237E+01  0.48741647368E+03  0.91986410048E+02 0.  0.
         23    2    4    4    0    0  0.50015509463E+03 -0.62776933585E+03 -0.68488171637E+03  0.10592516033E+04  0.93282024249E+02 0.  0.
          4    1    3    3  502    0 -0.16448422747E+03  0.64596010539E+03  0.19688382721E+04  0.20786158040E+04  0.00000000000E+00 0. -1.
         -3    1    3    3    0  502 -0.67572090556E+02  0.37824276532E+03  0.13146739395E+04  0.13696719111E+04  0.00000000000E+00 0.  1.
         13    1    5    5    0    0 -0.81231163475E+02 -0.59577521835E+02  0.16735482576E+02  0.10211787015E+03  0.00000000000E+00 0. -1.
        -13    1    5    5    0    0 -0.18686761313E+03 -0.33685601303E+03 -0.79709176523E+01  0.38529860353E+03  0.00000000000E+00 0.  1.
          3    1    6    6  503    0  0.14559091001E+03 -0.25306802601E+03 -0.23545059078E+03  0.37506948632E+03  0.00000000000E+00 0. -1.
         -3    1    6    6    0  503  0.35456418461E+03 -0.37470130984E+03 -0.44943112559E+03  0.68418211702E+03  0.00000000000E+00 0.  1.
<mgrwt>
<rscale>  0 0.42604078E+04</rscale>
<asrwt>0</asrwt>
<pdfrwt beam="1">  1        2 0.58479621E+00 0.42604078E+04</pdfrwt>
<pdfrwt beam="2">  1       -1 0.18365852E+00 0.42604078E+04</pdfrwt>
<totfact> 0.83908655E-02</totfact>
</mgrwt>
</event>
<event>
12    7  0.1698542E-007  0.1434198E+04  0.7818608E-02  0.8929430E-01
          2   -1    0    0  501    0  0.00000000000E+00  0.00000000000E+00  0.43391306717E+04  0.43391306717E+04  0.00000000000E+00 0. -1.
         -1   -1    0    0    0  501 -0.00000000000E+00 -0.00000000000E+00 -0.11851008737E+03  0.11851008737E+03  0.00000000000E+00 0.  1.
         24    2    1    2    0    0  0.19158006068E+03  0.23607034189E+03  0.32909991622E+03  0.45101389281E+03  0.51717025038E+02 0.  0.
        254    2    1    2    0    0 -0.19158006068E+03 -0.23607034189E+03  0.38915206681E+04  0.40066268662E+04  0.90371102082E+03 0.  0.
         23    2    4    4    0    0  0.26561154799E+03  0.10477750175E+03  0.21685661005E+04  0.21891950642E+04  0.91478289116E+02 0.  0.
         23    2    4    4    0    0 -0.45719160866E+03 -0.34084784365E+03  0.17229545675E+04  0.18174318020E+04  0.96356077644E+02 0.  0.
          4    1    3    3  502    0  0.16221106166E+02  0.35018465851E+01  0.12244870219E+02  0.20623386275E+02  0.00000000000E+00 0. -1.
         -3    1    3    3    0  502  0.17535895451E+03  0.23256849531E+03  0.31685504601E+03  0.43039050654E+03  0.00000000000E+00 0.  1.
         13    1    5    5    0    0  0.21447206017E+03  0.47418648191E+02  0.17380194283E+04  0.17518442641E+04  0.00000000000E+00 0. -1.
        -13    1    5    5    0    0  0.51139487822E+02  0.57358853564E+02  0.43054667228E+03  0.43735080006E+03  0.00000000000E+00 0.  1.
          3    1    6    6  503    0 -0.32956241082E+03 -0.29598301977E+03  0.13055243963E+04  0.13786265919E+04  0.00000000000E+00 0. -1.
         -3    1    6    6    0  503 -0.12762919785E+03 -0.44864823880E+02  0.41743017124E+03  0.43880521012E+03  0.00000000000E+00 0.  1.
<mgrwt>
<rscale>  0 0.14341977E+04</rscale>
<asrwt>0</asrwt>
<pdfrwt beam="1">  1        2 0.66755844E+00 0.14341977E+04</pdfrwt>
<pdfrwt beam="2">  1       -1 0.18232324E-01 0.14341977E+04</pdfrwt>
<totfact> 0.47772290E+00</totfact>
</mgrwt>
</event>
<event>
12    7  0.1698542E-007  0.2614975E+04  0.7818608E-02  0.8363132E-01
          2   -1    0    0  501    0  0.00000000000E+00  0.00000000000E+00  0.22773508458E+04  0.22773508458E+04  0.00000000000E+00 0. -1.
         -1   -1    0    0    0  501 -0.00000000000E+00 -0.00000000000E+00 -0.75066340038E+03  0.75066340038E+03  0.00000000000E+00 0.  1.
         24    2    1    2    0    0  0.14811261190E+03  0.89903365150E+03  0.14845775771E+04  0.17437518532E+04  0.80629342160E+02 0.  0.
        254    2    1    2    0    0 -0.14811261190E+03 -0.89903365150E+03  0.42109868342E+02  0.12842623930E+04  0.90407842620E+03 0.  0.
         23    2    4    4    0    0 -0.12284100285E+03 -0.21271308270E+03  0.42060818277E+03  0.49561542997E+03  0.91578619137E+02 0.  0.
         23    2    4    4    0    0 -0.25271609050E+02 -0.68632056880E+03 -0.37849831443E+03  0.78864696302E+03  0.83836035613E+02 0.  0.
          2    1    3    3  502    0  0.36297409177E+02  0.37513585463E+03  0.67224961266E+03  0.77069056895E+03  0.00000000000E+00 0. -1.
         -1    1    3    3    0  502  0.11181520272E+03  0.52389779687E+03  0.81232796447E+03  0.97306128429E+03  0.00000000000E+00 0.  1.
         13    1    5    5    0    0 -0.11667506009E+03 -0.14828240317E+03  0.25050017275E+03  0.31360975317E+03  0.00000000000E+00 0.  1.
        -13    1    5    5    0    0 -0.61659427557E+01 -0.64430679527E+02  0.17010801002E+03  0.18200567680E+03  0.00000000000E+00 0. -1.
          1    1    6    6  503    0  0.30067797225E+02 -0.23151060684E+03 -0.11749938557E+03  0.26135672771E+03  0.00000000000E+00 0. -1.
         -1    1    6    6    0  503 -0.55339406275E+02 -0.45480996197E+03 -0.26099892886E+03  0.52729023531E+03  0.00000000000E+00 0.  1.
<mgrwt>
<rscale>  0 0.26149753E+04</rscale>
<asrwt>0</asrwt>
<pdfrwt beam="1">  1        2 0.35036167E+00 0.26149753E+04</pdfrwt>
<pdfrwt beam="2">  1       -1 0.11548668E+00 0.26149753E+04</pdfrwt>
<totfact> 0.31876811E+00</totfact>
</mgrwt>
</event>
<event>
12    7  0.1698542E-007  0.1362844E+04  0.7818608E-02  0.8981162E-01
          2   -1    0    0  501    0  0.00000000000E+00  0.00000000000E+00  0.34577400813E+03  0.34577400813E+03  0.00000000000E+00 0. -1.
         -1   -1    0    0    0  501 -0.00000000000E+00 -0.00000000000E+00 -0.13428883349E+04  0.13428883349E+04  0.00000000000E+00 0.  1.
         24    2    1    2    0    0  0.32463781325E+03 -0.62009219347E+01 -0.37511956792E+03  0.50438993368E+03  0.90919490453E+02 0.  0.
        254    2    1    2    0    0 -0.32463781325E+03  0.62009219347E+01 -0.62199475883E+03  0.11842724093E+04  0.95404166483E+03 0.  0.
         23    2    4    4    0    0 -0.30967933099E+03  0.39717145057E+03 -0.94020036570E+02  0.52061461364E+03  0.92484374179E+02 0.  0.
         23    2    4    4    0    0 -0.14958482255E+02 -0.39097052864E+03 -0.52797472226E+03  0.66365779568E+03  0.92750482278E+02 0.  0.
          4    1    3    3  502    0  0.61609555098E+02 -0.34798644675E+01 -0.13413321536E+03  0.14764676156E+03  0.00000000000E+00 0. -1.
         -3    1    3    3    0  502  0.26302825815E+03 -0.27210574673E+01 -0.24098635256E+03  0.35674317213E+03  0.00000000000E+00 0.  1.
         13    1    5    5    0    0 -0.36074150628E+02  0.90327455690E+02  0.62042503438E+01  0.97462230209E+02  0.00000000000E+00 0. -1.
        -13    1    5    5    0    0 -0.27360518037E+03  0.30684399488E+03 -0.10022428691E+03  0.42315238343E+03  0.00000000000E+00 0.  1.
          1    1    6    6  503    0 -0.40044354576E+02 -0.85851661217E+02 -0.10363725204E+03  0.14040918089E+03  0.00000000000E+00 0. -1.
         -1    1    6    6    0  503  0.25085872322E+02 -0.30511886742E+03 -0.42433747022E+03  0.52324861479E+03  0.00000000000E+00 0.  1.
<mgrwt>
<rscale>  0 0.13628439E+04</rscale>
<asrwt>0</asrwt>
<pdfrwt beam="1">  1        2 0.53196002E-01 0.13628439E+04</pdfrwt>
<pdfrwt beam="2">  1       -1 0.20659820E+00 0.13628439E+04</pdfrwt>
<totfact> 0.14192763E+01</totfact>
</mgrwt>
</event>
<event>
12    7  0.1698542E-007  0.2464491E+04  0.7818608E-02  0.8415746E-01
         -1   -1    0    0    0  501 -0.00000000000E+00  0.00000000000E+00  0.74729917263E+03  0.74729917263E+03  0.00000000000E+00 0.  1.
          2   -1    0    0  501    0  0.00000000000E+00 -0.00000000000E+00 -0.20318891184E+04  0.20318891184E+04  0.00000000000E+00 0. -1.
         24    2    1    2    0    0 -0.69035397367E+03 -0.49952949859E+03  0.16505635384E+03  0.87165815503E+03  0.80162400001E+02 0.  0.
        254    2    1    2    0    0  0.69035397367E+03  0.49952949859E+03 -0.14496462996E+04  0.19075301360E+04  0.90059896559E+03 0.  0.
         23    2    4    4    0    0  0.25297005024E+03  0.69748667749E+03 -0.95427311112E+03  0.12118865732E+04  0.86892945735E+02 0.  0.
         23    2    4    4    0    0  0.43738392342E+03 -0.19795717890E+03 -0.49537318848E+03  0.69564356282E+03  0.89630516477E+02 0.  0.
          2    1    3    3  502    0 -0.25450473747E+03 -0.13870249423E+03  0.65149057900E+02  0.29707817666E+03  0.00000000000E+00 0. -1.
         -1    1    3    3    0  502 -0.43584923619E+03 -0.36082700436E+03  0.99907295936E+02  0.57457997837E+03  0.00000000000E+00 0.  1.
         13    1    5    5    0    0  0.22260451904E+03  0.65740659846E+03 -0.91278573934E+03  0.11466970016E+04  0.00000000000E+00 0.  1.
        -13    1    5    5    0    0  0.30365531206E+02  0.40080079024E+02 -0.41487371779E+02  0.65189571537E+02  0.00000000000E+00 0. -1.
          1    1    6    6  503    0  0.14030388942E+03 -0.11065477924E+03 -0.18652203397E+03  0.25830240168E+03  0.00000000000E+00 0. -1.
         -1    1    6    6    0  503  0.29708003400E+03 -0.87302399653E+02 -0.30885115451E+03  0.43734116114E+03  0.00000000000E+00 0.  1.
<mgrwt>
<rscale>  0 0.24644911E+04</rscale>
<asrwt>0</asrwt>
<pdfrwt beam="1">  1        2 0.31259832E+00 0.24644911E+04</pdfrwt>
<pdfrwt beam="2">  1       -1 0.11496911E+00 0.24644911E+04</pdfrwt>
<totfact> 0.44832228E+00</totfact>
</mgrwt>
</event>
<event>
12    7  0.1698542E-007  0.1365149E+04  0.7818608E-02  0.8979439E-01
         -1   -1    0    0    0  501 -0.00000000000E+00  0.00000000000E+00  0.56743808195E+03  0.56743808195E+03  0.00000000000E+00 0.  1.
          2   -1    0    0  501    0  0.00000000000E+00 -0.00000000000E+00 -0.82107247770E+03  0.82107247770E+03  0.00000000000E+00 0. -1.
         24    2    1    2    0    0  0.27334212208E+03 -0.10690738583E+03  0.17000461906E+03  0.34837086467E+03  0.79470648666E+02 0.  0.
        254    2    1    2    0    0 -0.27334212208E+03  0.10690738583E+03 -0.42363901482E+03  0.10401396950E+04  0.90347964301E+03 0.  0.
         23    2    4    4    0    0  0.17103346887E+03 -0.28857824645E+03 -0.17852147111E+03  0.39042354163E+03  0.89614588160E+02 0.  0.
         23    2    4    4    0    0 -0.44437559095E+03  0.39548563229E+03 -0.24511754371E+03  0.64971615335E+03  0.90387601536E+02 0.  0.
          4    1    3    3  502    0 -0.14293826430E+01 -0.94505072921E+01 -0.21458327178E+01  0.97959083740E+01  0.00000000000E+00 0. -1.
         -3    1    3    3    0  502  0.27477150472E+03 -0.97456878542E+02  0.17215045178E+03  0.33857495630E+03  0.00000000000E+00 0.  1.
         13    1    5    5    0    0  0.31882653530E+02 -0.32238225784E+02 -0.60904903043E+02  0.75929006398E+02  0.00000000000E+00 0. -1.
        -13    1    5    5    0    0  0.13915081534E+03 -0.25634002067E+03 -0.11761656806E+03  0.31449453523E+03  0.00000000000E+00 0.  1.
          2    1    6    6  503    0 -0.18397336558E+03  0.12135506372E+03 -0.58244527535E+02  0.22795981163E+03  0.00000000000E+00 0. -1.
         -2    1    6    6    0  503 -0.26040222537E+03  0.27413056857E+03 -0.18687301618E+03  0.42175634172E+03  0.00000000000E+00 0.  1.
<mgrwt>
<rscale>  0 0.13651488E+04</rscale>
<asrwt>0</asrwt>
<pdfrwt beam="1">  1        2 0.12631884E+00 0.13651488E+04</pdfrwt>
<pdfrwt beam="2">  1       -1 0.87298166E-01 0.13651488E+04</pdfrwt>
<totfact> 0.47885272E+01</totfact>
</mgrwt>
</event>
