<event>
12    7  0.2050741E-007  0.2498668E+04  0.7818608E-02  0.8403460E-01
          2   -1    0    0  501    0  0.00000000000E+00  0.00000000000E+00  0.14865427389E+04  0.14865427389E+04  0.00000000000E+00 0. -1.
         -1   -1    0    0    0  501 -0.00000000000E+00 -0.00000000000E+00 -0.10499766231E+04  0.10499766231E+04  0.00000000000E+00 0.  1.
         24    2    1    2    0    0 -0.32901141091E+03  0.74049038512E+03 -0.54176785712E+03  0.97822878083E+03  0.82732204502E+02 0.  0.
        254    2    1    2    0    0  0.32901141091E+03 -0.74049038512E+03  0.97833397297E+03  0.15582905811E+04  0.90252847800E+03 0.  0.
         23    2    4    4    0    0  0.56118279445E+03 -0.75073267450E+03  0.64352143596E+03  0.11405953100E+04  0.91170968015E+02 0.  0.
         23    2    4    4    0    0 -0.23217138354E+03  0.10242289380E+02  0.33481253701E+03  0.41769527108E+03  0.91440957550E+02 0.  0.
          4    1    3    3  502    0 -0.14787116957E+02  0.63633662128E+02 -0.22471435629E+02  0.69085940704E+02  0.00000000000E+00 0. -1.
         -3    1    3    3    0  502 -0.31422429395E+03  0.67685672300E+03 -0.51929642150E+03  0.90914284013E+03  0.00000000000E+00 0.  1.
         13    1    5    5    0    0  0.47406748045E+03 -0.63628196423E+03  0.50274037541E+03  0.93933093161E+03  0.00000000000E+00 0.  1.
        -13    1    5    5    0    0  0.87115314005E+02 -0.11445071028E+03  0.14078106056E+03  0.20126437844E+03  0.00000000000E+00 0. -1.
          3    1    6    6  503    0 -0.25409448520E+02  0.22800952045E+02  0.16500983324E+02  0.37918411609E+02  0.00000000000E+00 0. -1.
         -3    1    6    6    0  503 -0.20676193502E+03 -0.12558662665E+02  0.31831155368E+03  0.37977685947E+03  0.00000000000E+00 0.  1.
<mgrwt>
<rscale>  0 0.24986677E+04</rscale>
<asrwt>0</asrwt>
<pdfrwt beam="1">  1        2 0.22869888E+00 0.24986677E+04</pdfrwt>
<pdfrwt beam="2">  1       -1 0.16153487E+00 0.24986677E+04</pdfrwt>
<totfact> 0.37345592E+00</totfact>
</mgrwt>
</event>
<event>
12    7  0.1605494E-007  0.3041670E+04  0.7818608E-02  0.8231931E-01
          2   -1    0    0  501    0  0.00000000000E+00  0.00000000000E+00  0.24001856643E+04  0.24001856643E+04  0.00000000000E+00 0. -1.
         -1   -1    0    0    0  501 -0.00000000000E+00 -0.00000000000E+00 -0.96365038368E+03  0.96365038368E+03  0.00000000000E+00 0.  1.
         24    2    1    2    0    0  0.58903445899E+03  0.12253379297E+04  0.38775764045E+03  0.14160246187E+04  0.79718862472E+02 0.  0.
        254    2    1    2    0    0 -0.58903445899E+03 -0.12253379297E+04  0.10487776402E+04  0.19478114293E+04  0.91957609244E+03 0.  0.
         23    2    4    4    0    0 -0.33491174346E+03 -0.42895347572E+03  0.95357695868E+03  0.11016071300E+04  0.89790269357E+02 0.  0.
         23    2    4    4    0    0 -0.25412271552E+03 -0.79638445400E+03  0.95200681493E+02  0.84620429934E+03  0.90509631199E+02 0.  0.
          2    1    3    3  502    0  0.12292723487E+03  0.25641752497E+03  0.11522685850E+03  0.30681962308E+03  0.00000000000E+00 0. -1.
         -1    1    3    3    0  502  0.46610722411E+03  0.96892040475E+03  0.27253078195E+03  0.11092049956E+04  0.00000000000E+00 0.  1.
         13    1    5    5    0    0 -0.11778388361E+03 -0.19540491398E+03  0.46844444915E+03  0.52105309287E+03  0.00000000000E+00 0.  1.
        -13    1    5    5    0    0 -0.21712785985E+03 -0.23354856174E+03  0.48513250953E+03  0.58055403712E+03  0.00000000000E+00 0. -1.
          4    1    6    6  503    0 -0.84389646415E+02 -0.40691941394E+03  0.33861912730E+02  0.41695521462E+03  0.00000000000E+00 0. -1.
         -4    1    6    6    0  503 -0.16973306911E+03 -0.38946504006E+03  0.61338768763E+02  0.42924908472E+03  0.00000000000E+00 0.  1.
<mgrwt>
<rscale>  0 0.30416705E+04</rscale>
<asrwt>0</asrwt>
<pdfrwt beam="1">  1        2 0.36925933E+00 0.30416705E+04</pdfrwt>
<pdfrwt beam="2">  1       -1 0.14825391E+00 0.30416705E+04</pdfrwt>
<totfact> 0.13876000E+00</totfact>
</mgrwt>
</event>
<event>
12    7  0.1605494E-007  0.1726534E+04  0.7818608E-02  0.8746374E-01
          2   -1    0    0  501    0  0.00000000000E+00  0.00000000000E+00  0.23270966162E+04  0.23270966162E+04  0.00000000000E+00 0. -1.
         -1   -1    0    0    0  501 -0.00000000000E+00 -0.00000000000E+00 -0.32024009192E+03  0.32024009192E+03  0.00000000000E+00 0.  1.
         24    2    1    2    0    0  0.29831853445E+02 -0.20802064136E+03 -0.16251750304E+03  0.27730835358E+03  0.79532744584E+02 0.  0.
        254    2    1    2    0    0 -0.29831853445E+02  0.20802064136E+03  0.21693740273E+04  0.23700283546E+04  0.93096090368E+03 0.  0.
         23    2    4    4    0    0 -0.14676224307E+03  0.55289683707E+03  0.13154972866E+04  0.14373709323E+04  0.90928640165E+02 0.  0.
         23    2    4    4    0    0  0.11693038962E+03 -0.34487619571E+03  0.85387674072E+03  0.93265742221E+03  0.90178004411E+02 0.  0.
          2    1    3    3  502    0 -0.83500524694E+01 -0.73582751833E+02 -0.17879877862E+02  0.76182903436E+02  0.00000000000E+00 0. -1.
         -1    1    3    3    0  502  0.38181905915E+02 -0.13443788952E+03 -0.14463762518E+03  0.20112545015E+03  0.00000000000E+00 0.  1.
         13    1    5    5    0    0 -0.37808234334E+02  0.30686728995E+03  0.74453768778E+03  0.80618444834E+03  0.00000000000E+00 0. -1.
        -13    1    5    5    0    0 -0.10895400873E+03  0.24602954712E+03  0.57095959885E+03  0.63118648401E+03  0.00000000000E+00 0.  1.
          4    1    6    6  503    0  0.70674657327E+02 -0.30663574741E+03  0.69928373814E+03  0.76682340549E+03  0.00000000000E+00 0. -1.
         -4    1    6    6    0  503  0.46255732293E+02 -0.38240448306E+02  0.15459300258E+03  0.16583401672E+03  0.00000000000E+00 0.  1.
<mgrwt>
<rscale>  0 0.17265337E+04</rscale>
<asrwt>0</asrwt>
<pdfrwt beam="1">  1        2 0.35801485E+00 0.17265337E+04</pdfrwt>
<pdfrwt beam="2">  1       -1 0.49267708E-01 0.17265337E+04</pdfrwt>
<totfact> 0.19548889E+01</totfact>
</mgrwt>
</event>
<event>
12    7  0.1605494E-007  0.1713321E+04  0.7818608E-02  0.8753803E-01
          2   -1    0    0  501    0  0.00000000000E+00  0.00000000000E+00  0.38913273827E+04  0.38913273827E+04  0.00000000000E+00 0. -1.
         -1   -1    0    0    0  501 -0.00000000000E+00 -0.00000000000E+00 -0.18859036142E+03  0.18859036142E+03  0.00000000000E+00 0.  1.
         24    2    1    2    0    0  0.99350700349E+02 -0.20057025050E+03  0.27235036194E+04  0.27338152981E+04  0.78582011525E+02 0.  0.
        254    2    1    2    0    0 -0.99350700349E+02  0.20057025050E+03  0.97923340190E+03  0.13461024460E+04  0.89609974479E+03 0.  0.
         23    2    4    4    0    0  0.31859778227E+03 -0.88843022653E+00  0.97467685725E+02  0.34558493107E+03  0.91780491633E+02 0.  0.
         23    2    4    4    0    0 -0.41794848262E+03  0.20145868073E+03  0.88176571617E+03  0.10005175149E+04  0.90873457324E+02 0.  0.
          2    1    3    3  502    0  0.91405267122E+02 -0.12929115701E+03  0.21543000089E+04  0.21601110282E+04  0.00000000000E+00 0. -1.
         -1    1    3    3    0  502  0.79454332274E+01 -0.71279093492E+02  0.56920361051E+03  0.57370426989E+03  0.00000000000E+00 0.  1.
         13    1    5    5    0    0  0.51771928340E+02 -0.16031943525E+02 -0.14061664253E+02  0.55991840288E+02  0.00000000000E+00 0. -1.
        -13    1    5    5    0    0  0.26682585393E+03  0.15143513299E+02  0.11152934998E+03  0.28959309078E+03  0.00000000000E+00 0.  1.
          1    1    6    6  503    0 -0.36745007355E+03  0.18838128617E+03  0.71372953998E+03  0.82457075001E+03  0.00000000000E+00 0.  1.
         -1    1    6    6    0  503 -0.50498409068E+02  0.13077394558E+02  0.16803617620E+03  0.17594676490E+03  0.00000000000E+00 0. -1.
<mgrwt>
<rscale>  0 0.17133206E+04</rscale>
<asrwt>0</asrwt>
<pdfrwt beam="1">  1        2 0.59866569E+00 0.17133206E+04</pdfrwt>
<pdfrwt beam="2">  1       -1 0.29013905E-01 0.17133206E+04</pdfrwt>
<totfact> 0.49640571E+00</totfact>
</mgrwt>
</event>
<event>
12    7  0.1605494E-007  0.1534323E+04  0.7818608E-02  0.8861944E-01
          2   -1    0    0  501    0  0.00000000000E+00  0.00000000000E+00  0.20202972086E+04  0.20202972086E+04  0.00000000000E+00 0. -1.
         -1   -1    0    0    0  501 -0.00000000000E+00 -0.00000000000E+00 -0.29131183783E+03  0.29131183783E+03  0.00000000000E+00 0.  1.
         24    2    1    2    0    0  0.12168937378E+03 -0.53831918083E+02  0.13116181533E+04  0.13204677149E+04  0.74743742725E+02 0.  0.
        254    2    1    2    0    0 -0.12168937378E+03  0.53831918083E+02  0.41736721754E+03  0.99114133155E+03  0.88907793007E+03 0.  0.
         23    2    4    4    0    0  0.23976780127E+02 -0.24624705338E+03 -0.16649262239E+03  0.31201554663E+03  0.91768244761E+02 0.  0.
         23    2    4    4    0    0 -0.14566615390E+03  0.30007897146E+03  0.58385983993E+03  0.67912578492E+03  0.95149889883E+02 0.  0.
          4    1    3    3  502    0  0.12753667533E+03 -0.42537277021E+02  0.12657135338E+04  0.12728337571E+04  0.00000000000E+00 0. -1.
         -3    1    3    3    0  502 -0.58473015535E+01 -0.11294641062E+02  0.45904619430E+02  0.47633957815E+02  0.00000000000E+00 0.  1.
         13    1    5    5    0    0 -0.22504787308E+02 -0.12576189455E+03 -0.47171991890E+02  0.13619000107E+03  0.00000000000E+00 0.  1.
        -13    1    5    5    0    0  0.46481567435E+02 -0.12048515883E+03 -0.11932063050E+03  0.17582554556E+03  0.00000000000E+00 0. -1.
          3    1    6    6  503    0 -0.95132689268E+02  0.12190313929E+03  0.33450825252E+03  0.36851916496E+03  0.00000000000E+00 0. -1.
         -3    1    6    6    0  503 -0.50533464635E+02  0.17817583217E+03  0.24935158741E+03  0.31060661996E+03  0.00000000000E+00 0.  1.
<mgrwt>
<rscale>  0 0.15343226E+04</rscale>
<asrwt>0</asrwt>
<pdfrwt beam="1">  1        2 0.31081495E+00 0.15343226E+04</pdfrwt>
<pdfrwt beam="2">  1       -1 0.44817207E-01 0.15343226E+04</pdfrwt>
<totfact> 0.35275708E+01</totfact>
</mgrwt>
</event>
<event>
12    7  0.1605494E-007  0.3253575E+04  0.7818608E-02  0.8174810E-01
          2   -1    0    0  501    0  0.00000000000E+00  0.00000000000E+00  0.13936550092E+04  0.13936550092E+04  0.00000000000E+00 0. -1.
         -1   -1    0    0    0  501 -0.00000000000E+00 -0.00000000000E+00 -0.18989183572E+04  0.18989183572E+04  0.00000000000E+00 0.  1.
         24    2    1    2    0    0 -0.14568758020E+04  0.71928512826E+02 -0.62039495123E+03  0.15872113277E+04  0.81786856665E+02 0.  0.
        254    2    1    2    0    0  0.14568758020E+04 -0.71928512826E+02  0.11513160321E+03  0.17053620387E+04  0.87598149725E+03 0.  0.
         23    2    4    4    0    0  0.39355387915E+03  0.86160613242E+02 -0.33951627694E+03  0.53453103544E+03  0.90243107624E+02 0.  0.
         23    2    4    4    0    0  0.10633219229E+04 -0.15808912607E+03  0.45464788015E+03  0.11708310032E+04  0.92167563920E+02 0.  0.
          2    1    3    3  502    0 -0.13964462787E+04  0.65694426457E+02 -0.57616767938E+03  0.15120671816E+04  0.00000000000E+00 0. -1.
         -1    1    3    3    0  502 -0.60429523346E+02  0.62340863692E+01 -0.44227271850E+02  0.75144146146E+02  0.00000000000E+00 0.  1.
         13    1    5    5    0    0  0.17769037131E+03  0.66766017958E+02 -0.20529460990E+03  0.27960229982E+03  0.00000000000E+00 0.  1.
        -13    1    5    5    0    0  0.21586350783E+03  0.19394595284E+02 -0.13422166704E+03  0.25492873562E+03  0.00000000000E+00 0. -1.
          3    1    6    6  503    0  0.15367320659E+03 -0.90987818375E+01  0.34179720241E+02  0.15769113967E+03  0.00000000000E+00 0. -1.
         -3    1    6    6    0  503  0.90964871627E+03 -0.14899034423E+03  0.42046815991E+03  0.10131398636E+04  0.00000000000E+00 0.  1.
<mgrwt>
<rscale>  0 0.32535747E+04</rscale>
<asrwt>0</asrwt>
<pdfrwt beam="1">  1        2 0.21440846E+00 0.32535747E+04</pdfrwt>
<pdfrwt beam="2">  1       -1 0.29214128E+00 0.32535747E+04</pdfrwt>
<totfact> 0.51727880E-01</totfact>
</mgrwt>
</event>
<event>
12    7  0.1605494E-007  0.2452274E+04  0.7818608E-02  0.8420188E-01
          2   -1    0    0  501    0  0.00000000000E+00  0.00000000000E+00  0.24316119243E+04  0.24316119243E+04  0.00000000000E+00 0. -1.
         -1   -1    0    0    0  501 -0.00000000000E+00 -0.00000000000E+00 -0.61827790794E+03  0.61827790794E+03  0.00000000000E+00 0.  1.
         24    2    1    2    0    0  0.47771268168E+03  0.51180730126E+03 -0.20340615701E+03  0.73344732143E+03  0.80092376241E+02 0.  0.
        254    2    1    2    0    0 -0.47771268168E+03 -0.51180730126E+03  0.20167401733E+04  0.23164425108E+04  0.89917120680E+03 0.  0.
         23    2    4    4    0    0 -0.17393662496E+03 -0.72448976872E+03  0.12118612291E+04  0.14256456939E+04  0.93373612107E+02 0.  0.
         23    2    4    4    0    0 -0.30377605672E+03  0.21268246746E+03  0.80487894419E+03  0.89079681685E+03  0.90416422779E+02 0.  0.
          4    1    3    3  502    0  0.31433248712E+02  0.10345205966E+02 -0.51231967224E+01  0.33486109892E+02  0.00000000000E+00 0. -1.
         -3    1    3    3    0  502  0.44627943297E+03  0.50146209530E+03 -0.19828296029E+03  0.69996121153E+03  0.00000000000E+00 0.  1.
         13    1    5    5    0    0 -0.98369830227E+02 -0.57535888975E+03  0.94560873408E+03  0.11112562051E+04  0.00000000000E+00 0.  1.
        -13    1    5    5    0    0 -0.75566794734E+02 -0.14913087897E+03  0.26625249506E+03  0.31438948877E+03  0.00000000000E+00 0. -1.
          2    1    6    6  503    0 -0.69922212563E+01  0.96038029085E+01  0.87773635257E+02  0.88573897027E+02  0.00000000000E+00 0. -1.
         -2    1    6    6    0  503 -0.29678383546E+03  0.20307866455E+03  0.71710530893E+03  0.80222291982E+03  0.00000000000E+00 0.  1.
<mgrwt>
<rscale>  0 0.24522740E+04</rscale>
<asrwt>0</asrwt>
<pdfrwt beam="1">  1        2 0.37409414E+00 0.24522740E+04</pdfrwt>
<pdfrwt beam="2">  1       -1 0.95119680E-01 0.24522740E+04</pdfrwt>
<totfact> 0.41455678E+00</totfact>
</mgrwt>
</event>
<event>
12    7  0.1605494E-007  0.1283198E+04  0.7818608E-02  0.9042997E-01
         -1   -1    0    0    0  501 -0.00000000000E+00  0.00000000000E+00  0.96925431531E+03  0.96925431531E+03  0.00000000000E+00 0.  1.
          4   -1    0    0  501    0  0.00000000000E+00 -0.00000000000E+00 -0.42470707643E+03  0.42470707643E+03  0.00000000000E+00 0. -1.
         24    2    1    2    0    0  0.93065803054E+02  0.28926916760E+03  0.24207216571E+03  0.39636717734E+03  0.78550053101E+02 0.  0.
        254    2    1    2    0    0 -0.93065803054E+02 -0.28926916760E+03  0.30247507317E+03  0.99759421440E+03  0.90075809832E+03 0.  0.
         23    2    4    4    0    0  0.65257224885E+02  0.27281456948E+03 -0.64728539540E+02  0.30182359121E+03  0.90671945279E+02 0.  0.
         23    2    4    4    0    0 -0.15832302794E+03 -0.56208373708E+03  0.36720361271E+03  0.69577062318E+03  0.90851297379E+02 0.  0.
          4    1    3    3  502    0  0.71596542401E+02  0.15532089726E+03  0.17622606527E+03  0.24557335379E+03  0.00000000000E+00 0. -1.
         -3    1    3    3    0  502  0.21469260653E+02  0.13394827034E+03  0.65846100439E+02  0.15079382356E+03  0.00000000000E+00 0.  1.
         13    1    5    5    0    0  0.23591600642E+02  0.13203317133E+02 -0.23211808902E+02  0.35632559222E+02  0.00000000000E+00 0.  1.
        -13    1    5    5    0    0  0.41665624242E+02  0.25961125235E+03 -0.41516730638E+02  0.26619103199E+03  0.00000000000E+00 0. -1.
          4    1    6    6  503    0  0.13908055651E+01 -0.81173761044E+02  0.27554763995E+02  0.85734350415E+02  0.00000000000E+00 0. -1.
         -4    1    6    6    0  503 -0.15971383350E+03 -0.48090997604E+03  0.33964884871E+03  0.61003627277E+03  0.00000000000E+00 0.  1.
<mgrwt>
<rscale>  0 0.12831978E+04</rscale>
<asrwt>0</asrwt>
<pdfrwt beam="1">  1        4 0.65339551E-01 0.12831978E+04</pdfrwt>
<pdfrwt beam="2">  1       -1 0.14911605E+00 0.12831978E+04</pdfrwt>
<totfact> 0.31676695E+00</totfact>
</mgrwt>
</event>
<event>
12    7  0.1605494E-007  0.1233944E+04  0.7818608E-02  0.9083653E-01
         -1   -1    0    0    0  501 -0.00000000000E+00  0.00000000000E+00  0.32992370217E+03  0.32992370217E+03  0.00000000000E+00 0.  1.
          2   -1    0    0  501    0  0.00000000000E+00 -0.00000000000E+00 -0.11537657237E+04  0.11537657237E+04  0.00000000000E+00 0. -1.
         24    2    1    2    0    0  0.22853113867E+03  0.15845433187E+03 -0.23447884475E+03  0.37272729725E+03  0.81308381211E+02 0.  0.
        254    2    1    2    0    0 -0.22853113867E+03 -0.15845433187E+03 -0.58936317679E+03  0.11109621286E+04  0.89975198829E+03 0.  0.
         23    2    4    4    0    0 -0.21819916695E+03  0.35096464499E+03 -0.23865205188E+03  0.48583864960E+03  0.91089698019E+02 0.  0.
         23    2    4    4    0    0 -0.10331971716E+02 -0.50941897686E+03 -0.35071112490E+03  0.62512347902E+03  0.90369393416E+02 0.  0.
          4    1    3    3  502    0  0.64461910425E+02  0.12861970212E+02 -0.27886876067E+02  0.71403403491E+02  0.00000000000E+00 0. -1.
         -3    1    3    3    0  502  0.16406922824E+03  0.14559236166E+03 -0.20659196868E+03  0.30132389376E+03  0.00000000000E+00 0.  1.
         13    1    5    5    0    0 -0.15890152999E+03  0.17855446408E+03 -0.11282347106E+03  0.26431142332E+03  0.00000000000E+00 0.  1.
        -13    1    5    5    0    0 -0.59297636963E+02  0.17241018091E+03 -0.12582858083E+03  0.22152722628E+03  0.00000000000E+00 0. -1.
          2    1    6    6  503    0 -0.47788216710E+02 -0.32575890144E+03 -0.23993432342E+03  0.40739545295E+03  0.00000000000E+00 0. -1.
         -2    1    6    6    0  503  0.37456244994E+02 -0.18366007542E+03 -0.11077680148E+03  0.21772802607E+03  0.00000000000E+00 0.  1.
<mgrwt>
<rscale>  0 0.12339443E+04</rscale>
<asrwt>0</asrwt>
<pdfrwt beam="1">  1        2 0.17750242E+00 0.12339443E+04</pdfrwt>
<pdfrwt beam="2">  1       -1 0.50757492E-01 0.12339443E+04</pdfrwt>
<totfact> 0.88400564E+01</totfact>
</mgrwt>
</event>
<event>
12    7  0.1605494E-007  0.1377390E+04  0.7818608E-02  0.8970349E-01
         -1   -1    0    0    0  501 -0.00000000000E+00  0.00000000000E+00  0.78860383010E+03  0.78860383010E+03  0.00000000000E+00 0.  1.
          2   -1    0    0  501    0  0.00000000000E+00 -0.00000000000E+00 -0.60144391715E+03  0.60144391715E+03  0.00000000000E+00 0. -1.
         24    2    1    2    0    0 -0.38680941094E+03  0.93251647986E+02  0.10991368107E+03  0.41983547046E+03  0.76572937326E+02 0.  0.
        254    2    1    2    0    0  0.38680941094E+03 -0.93251647986E+02  0.77246231885E+02  0.97021227680E+03  0.88149162870E+03 0.  0.
         23    2    4    4    0    0  0.10219752742E+03  0.31369540163E+03  0.26394779845E+03  0.43217703307E+03  0.90881285176E+02 0.  0.
         23    2    4    4    0    0  0.28461188352E+03 -0.40694704962E+03 -0.18670156656E+03  0.53803524372E+03  0.89524427381E+02 0.  0.
          4    1    3    3  502    0 -0.67421149174E+02  0.32526531895E+02  0.47881083950E+02  0.88860479592E+02  0.00000000000E+00 0. -1.
         -3    1    3    3    0  502 -0.31938826176E+03  0.60725116091E+02  0.62032597116E+02  0.33097499087E+03  0.00000000000E+00 0.  1.
         13    1    5    5    0    0  0.17226569637E+02  0.81717691419E+02  0.12015401515E+03  0.14632676839E+03  0.00000000000E+00 0. -1.
        -13    1    5    5    0    0  0.84970957780E+02  0.23197771021E+03  0.14379378330E+03  0.28585026468E+03  0.00000000000E+00 0.  1.
          2    1    6    6  503    0  0.20206497307E+03 -0.32735685806E+03 -0.11012901753E+03  0.40015142929E+03  0.00000000000E+00 0. -1.
         -2    1    6    6    0  503  0.82546910452E+02 -0.79590191559E+02 -0.76572549036E+02  0.13788381444E+03  0.00000000000E+00 0.  1.
<mgrwt>
<rscale>  0 0.13773903E+04</rscale>
<asrwt>0</asrwt>
<pdfrwt beam="1">  1        2 0.92529833E-01 0.13773903E+04</pdfrwt>
<pdfrwt beam="2">  1       -1 0.12132367E+00 0.13773903E+04</pdfrwt>
<totfact> 0.33211087E+01</totfact>
</mgrwt>
</event>
<event>
12    7  0.1605494E-007  0.1698913E+04  0.7818608E-02  0.8761984E-01
         -1   -1    0    0    0  501 -0.00000000000E+00  0.00000000000E+00  0.16246662396E+04  0.16246662396E+04  0.00000000000E+00 0.  1.
          2   -1    0    0  501    0  0.00000000000E+00 -0.00000000000E+00 -0.44413836188E+03  0.44413836188E+03  0.00000000000E+00 0. -1.
         24    2    1    2    0    0 -0.22582139989E+03  0.23368919299E+02  0.11088329114E+04  0.11346941870E+04  0.80492617518E+02 0.  0.
        254    2    1    2    0    0  0.22582139989E+03 -0.23368919299E+02  0.71694966318E+02  0.93411041451E+03  0.90326114013E+03 0.  0.
         23    2    4    4    0    0 -0.78939798636E+02  0.37625810888E+03  0.13603126670E+03  0.41931570846E+03  0.97567932907E+02 0.  0.
         23    2    4    4    0    0  0.30476119852E+03 -0.39962702818E+03 -0.64336300387E+02  0.51479470605E+03  0.91067447846E+02 0.  0.
          4    1    3    3  502    0 -0.15096032174E+02  0.10986905170E+00  0.18197150614E+02  0.23643996047E+02  0.00000000000E+00 0. -1.
         -3    1    3    3    0  502 -0.21072536771E+03  0.23259050248E+02  0.10906357608E+04  0.11110501909E+04  0.00000000000E+00 0.  1.
         13    1    5    5    0    0 -0.56436505559E+02  0.95924685226E+02  0.11985306008E+02  0.11193869731E+03  0.00000000000E+00 0. -1.
        -13    1    5    5    0    0 -0.22503293077E+02  0.28033342366E+03  0.12404596070E+03  0.30737701115E+03  0.00000000000E+00 0.  1.
          2    1    6    6  503    0  0.27283373202E+02 -0.93323835807E+02 -0.62034570088E+01  0.97427940869E+02  0.00000000000E+00 0. -1.
         -2    1    6    6    0  503  0.27747782532E+03 -0.30630319237E+03 -0.58132843378E+02  0.41736676519E+03  0.00000000000E+00 0.  1.
<mgrwt>
<rscale>  0 0.16989133E+04</rscale>
<asrwt>0</asrwt>
<pdfrwt beam="1">  1        2 0.68328979E-01 0.16989133E+04</pdfrwt>
<pdfrwt beam="2">  1       -1 0.24994865E+00 0.16989133E+04</pdfrwt>
<totfact> 0.53607333E+00</totfact>
</mgrwt>
</event>
<event>
12    7  0.1605494E-007  0.1850162E+04  0.7818608E-02  0.8680070E-01
          2   -1    0    0  501    0  0.00000000000E+00  0.00000000000E+00  0.24781767471E+04  0.24781767471E+04  0.00000000000E+00 0. -1.
         -1   -1    0    0    0  501 -0.00000000000E+00 -0.00000000000E+00 -0.34532433828E+03  0.34532433828E+03  0.00000000000E+00 0.  1.
         24    2    1    2    0    0 -0.62144619943E+03  0.15777176073E+03  0.96739109043E+03  0.11651177199E+04  0.10279334654E+03 0.  0.
        254    2    1    2    0    0  0.62144619943E+03 -0.15777176073E+03  0.11654613184E+04  0.16583833655E+04  0.99037770320E+03 0.  0.
         23    2    4    4    0    0  0.14074062657E+03  0.36977999983E+03  0.19768693526E+03  0.45243905596E+03  0.95267007634E+02 0.  0.
         23    2    4    4    0    0  0.48070557286E+03 -0.52755176056E+03  0.96777438314E+03  0.12059443095E+04  0.91245346220E+02 0.  0.
          2    1    3    3  502    0 -0.41184721122E+03  0.85764983551E+02  0.71181599522E+03  0.82683478933E+03  0.00000000000E+00 0. -1.
         -1    1    3    3    0  502 -0.20959898821E+03  0.72006777177E+02  0.25557509521E+03  0.33828293056E+03  0.00000000000E+00 0.  1.
         13    1    5    5    0    0  0.12045229499E+03  0.19176106144E+03  0.92063977055E+02  0.24445211377E+03  0.00000000000E+00 0. -1.
        -13    1    5    5    0    0  0.20288331583E+02  0.17801893839E+03  0.10562295821E+03  0.20798694220E+03  0.00000000000E+00 0.  1.
          4    1    6    6  503    0  0.43187335836E+03 -0.45115590925E+03  0.79659566071E+03  0.10122355945E+04  0.00000000000E+00 0.  1.
         -4    1    6    6    0  503  0.48832214500E+02 -0.76395851304E+02  0.17117872242E+03  0.19370871503E+03  0.00000000000E+00 0. -1.
<mgrwt>
<rscale>  0 0.18501619E+04</rscale>
<asrwt>0</asrwt>
<pdfrwt beam="1">  1        2 0.38125795E+00 0.18501619E+04</pdfrwt>
<pdfrwt beam="2">  1       -1 0.53126823E-01 0.18501619E+04</pdfrwt>
<totfact> 0.13721479E+01</totfact>
</mgrwt>
</event>
<event>
12    7  0.1605494E-007  0.2137795E+04  0.7818608E-02  0.8544775E-01
         -1   -1    0    0    0  501 -0.00000000000E+00  0.00000000000E+00  0.50216127797E+03  0.50216127797E+03  0.00000000000E+00 0.  1.
          2   -1    0    0  501    0  0.00000000000E+00 -0.00000000000E+00 -0.22752478460E+04  0.22752478460E+04  0.00000000000E+00 0. -1.
         24    2    1    2    0    0  0.52824637471E+03 -0.54256619619E+03 -0.12724973975E+04  0.14829089653E+04  0.79668456927E+02 0.  0.
        254    2    1    2    0    0 -0.52824637471E+03  0.54256619619E+03 -0.50058917053E+03  0.12945001587E+04  0.92288614335E+03 0.  0.
         23    2    4    4    0    0 -0.11502562818E+03  0.29175423292E+03 -0.69260708697E+03  0.76583990010E+03  0.91949704191E+02 0.  0.
         23    2    4    4    0    0 -0.41322074653E+03  0.25081196327E+03  0.19201791644E+03  0.52866025860E+03  0.94619038825E+02 0.  0.
          4    1    3    3  502    0  0.43496133235E+03 -0.39921207079E+03 -0.98558512724E+03  0.11488862786E+04  0.00000000000E+00 0. -1.
         -3    1    3    3    0  502  0.93285042361E+02 -0.14335412540E+03 -0.28691227030E+03  0.33402268672E+03  0.00000000000E+00 0.  1.
         13    1    5    5    0    0  0.28526019277E+01 -0.19987744706E+01  0.82885295184E+00  0.35804237680E+01  0.00000000000E+00 0.  1.
        -13    1    5    5    0    0 -0.11787823011E+03  0.29375300739E+03 -0.69343593992E+03  0.76225947633E+03  0.00000000000E+00 0. -1.
          4    1    6    6  503    0 -0.16080325048E+03  0.57357034583E+02  0.98809882356E+02  0.19725847924E+03  0.00000000000E+00 0. -1.
         -4    1    6    6    0  503 -0.25241749605E+03  0.19345492869E+03  0.93208034081E+02  0.33140177936E+03  0.00000000000E+00 0.  1.
<mgrwt>
<rscale>  0 0.21377945E+04</rscale>
<asrwt>0</asrwt>
<pdfrwt beam="1">  1        2 0.35003813E+00 0.21377945E+04</pdfrwt>
<pdfrwt beam="2">  1       -1 0.77255582E-01 0.21377945E+04</pdfrwt>
<totfact> 0.82248736E+00</totfact>
</mgrwt>
</event>
<event>
12    7  0.1605494E-007  0.1862848E+04  0.7818608E-02  0.8673574E-01
          2   -1    0    0  501    0  0.00000000000E+00  0.00000000000E+00  0.27340636306E+04  0.27340636306E+04  0.00000000000E+00 0. -1.
         -1   -1    0    0    0  501 -0.00000000000E+00 -0.00000000000E+00 -0.31731170953E+03  0.31731170953E+03  0.00000000000E+00 0.  1.
         24    2    1    2    0    0 -0.19232356685E+03  0.56898199110E+03  0.31989799835E+03  0.68535406243E+03  0.81526688742E+02 0.  0.
        254    2    1    2    0    0  0.19232356685E+03 -0.56898199110E+03  0.20968539227E+04  0.23660212777E+04  0.91680502437E+03 0.  0.
         23    2    4    4    0    0 -0.28920131159E+03 -0.49896618626E+03  0.13362492831E+04  0.14581573023E+04  0.89754765358E+02 0.  0.
         23    2    4    4    0    0  0.48152487843E+03 -0.70015804843E+02  0.76060463956E+03  0.90786397537E+03  0.94494225149E+02 0.  0.
          4    1    3    3  502    0  0.46562360221E+01  0.33460260972E+02  0.30712482098E+02  0.45656611293E+02  0.00000000000E+00 0. -1.
         -3    1    3    3    0  502 -0.19697980287E+03  0.53552173013E+03  0.28918551625E+03  0.63969745114E+03  0.00000000000E+00 0.  1.
         13    1    5    5    0    0 -0.28060343843E+02 -0.13581668549E+02  0.96410197704E+02  0.10132507507E+03  0.00000000000E+00 0.  1.
        -13    1    5    5    0    0 -0.26114096774E+03 -0.48538451771E+03  0.12398390854E+04  0.13568322272E+04  0.00000000000E+00 0. -1.
          2    1    6    6  503    0  0.72755357427E+02 -0.42349795582E+02  0.16052607614E+03  0.18126077441E+03  0.00000000000E+00 0.  1.
         -2    1    6    6    0  503  0.40876952101E+03 -0.27666009261E+02  0.60007856342E+03  0.72660320097E+03  0.00000000000E+00 0. -1.
<mgrwt>
<rscale>  0 0.18628477E+04</rscale>
<asrwt>0</asrwt>
<pdfrwt beam="1">  1        2 0.42062516E+00 0.18628477E+04</pdfrwt>
<pdfrwt beam="2">  1       -1 0.48817188E-01 0.18628477E+04</pdfrwt>
<totfact> 0.11404862E+01</totfact>
</mgrwt>
</event>
<event>
12    7  0.1605494E-007  0.1525436E+04  0.7818608E-02  0.8867712E-01
         -1   -1    0    0    0  501 -0.00000000000E+00  0.00000000000E+00  0.32851117104E+03  0.32851117104E+03  0.00000000000E+00 0.  1.
          2   -1    0    0  501    0  0.00000000000E+00 -0.00000000000E+00 -0.17708350785E+04  0.17708350785E+04  0.00000000000E+00 0. -1.
         24    2    1    2    0    0 -0.18836335719E+03 -0.37866681903E+03 -0.14624318290E+03  0.45570199432E+03  0.86069302982E+02 0.  0.
        254    2    1    2    0    0  0.18836335719E+03  0.37866681903E+03 -0.12960807246E+04  0.16436442553E+04  0.91808054060E+03 0.  0.
         23    2    4    4    0    0  0.13224495065E+03  0.22414093018E+03  0.53548040120E+02  0.28071179863E+03  0.90575039235E+02 0.  0.
         23    2    4    4    0    0  0.56118406547E+02  0.15452588885E+03 -0.13496287647E+04  0.13629324566E+04  0.95181683755E+02 0.  0.
          2    1    3    3  502    0 -0.10726950206E+03 -0.19036771107E+03 -0.11919726274E+03  0.24890680774E+03  0.00000000000E+00 0. -1.
         -1    1    3    3    0  502 -0.81093855132E+02 -0.18829910796E+03 -0.27045920157E+02  0.20679518659E+03  0.00000000000E+00 0.  1.
         13    1    5    5    0    0  0.13211272382E+03  0.14881090787E+03  0.50589724338E+02  0.20532359413E+03  0.00000000000E+00 0. -1.
        -13    1    5    5    0    0  0.13222682647E+00  0.75330022310E+02  0.29583157822E+01  0.75388204498E+02  0.00000000000E+00 0.  1.
          2    1    6    6  503    0  0.34773502867E+02  0.16266065689E+03 -0.12230507416E+04  0.12343098486E+04  0.00000000000E+00 0. -1.
         -2    1    6    6    0  503  0.21344903680E+02 -0.81347680387E+01 -0.12657802316E+03  0.12862260809E+03  0.00000000000E+00 0.  1.
<mgrwt>
<rscale>  0 0.15254365E+04</rscale>
<asrwt>0</asrwt>
<pdfrwt beam="1">  1        2 0.27243617E+00 0.15254365E+04</pdfrwt>
<pdfrwt beam="2">  1       -1 0.50540180E-01 0.15254365E+04</pdfrwt>
<totfact> 0.38692570E+01</totfact>
</mgrwt>
</event>
<event>
12    7  0.1605494E-007  0.1322405E+04  0.7818608E-02  0.9011984E-01
         -3   -1    0    0    0  501 -0.00000000000E+00  0.00000000000E+00  0.11889315048E+03  0.11889315048E+03  0.00000000000E+00 0.  1.
          2   -1    0    0  501    0  0.00000000000E+00 -0.00000000000E+00 -0.36771578022E+04  0.36771578022E+04  0.00000000000E+00 0. -1.
         24    2    1    2    0    0 -0.59547712538E+02 -0.70922611891E+02 -0.19770851517E+04  0.19817060324E+04  0.98575629222E+02 0.  0.
        254    2    1    2    0    0  0.59547712538E+02  0.70922611891E+02 -0.15811795000E+04  0.18143449203E+04  0.88495363250E+03 0.  0.
         23    2    4    4    0    0  0.69764788941E+02 -0.39391365949E+03 -0.63362194445E+03  0.75489490075E+03  0.91402657404E+02 0.  0.
         23    2    4    4    0    0 -0.10217076402E+02  0.46483627138E+03 -0.94755755558E+03  0.10594500196E+04  0.91607177824E+02 0.  0.
          2    1    3    3  502    0 -0.56967162573E+02 -0.27825483093E+02 -0.17082504938E+04  0.17094265894E+04  0.00000000000E+00 0. -1.
         -1    1    3    3    0  502 -0.25805499654E+01 -0.43097128797E+02 -0.26883465796E+03  0.27227944298E+03  0.00000000000E+00 0.  1.
         13    1    5    5    0    0  0.27317991085E+02 -0.15675800806E+03 -0.17285944364E+03  0.23494623424E+03  0.00000000000E+00 0. -1.
        -13    1    5    5    0    0  0.42446797855E+02 -0.23715565143E+03 -0.46076250080E+03  0.51994866650E+03  0.00000000000E+00 0.  1.
          4    1    6    6  503    0  0.17756937236E+02  0.10858706600E+03 -0.30456876572E+03  0.32383420569E+03  0.00000000000E+00 0. -1.
         -4    1    6    6    0  503 -0.27974013638E+02  0.35624920538E+03 -0.64298878986E+03  0.73561581390E+03  0.00000000000E+00 0.  1.
<mgrwt>
<rscale>  0 0.13224052E+04</rscale>
<asrwt>0</asrwt>
<pdfrwt beam="1">  1        2 0.56571661E+00 0.13224052E+04</pdfrwt>
<pdfrwt beam="2">  1       -3 0.18291253E-01 0.13224052E+04</pdfrwt>
<totfact> 0.10742029E+01</totfact>
</mgrwt>
</event>
<event>
12    7  0.1605494E-007  0.1553132E+04  0.7818608E-02  0.8849870E-01
          2   -1    0    0  501    0  0.00000000000E+00  0.00000000000E+00  0.27410739753E+04  0.27410739753E+04  0.00000000000E+00 0. -1.
         -1   -1    0    0    0  501 -0.00000000000E+00 -0.00000000000E+00 -0.22000665369E+03  0.22000665369E+03  0.00000000000E+00 0.  1.
         24    2    1    2    0    0 -0.18949210285E+03  0.32115406443E+03  0.14759893406E+04  0.15250857748E+04  0.91076324335E+02 0.  0.
        254    2    1    2    0    0  0.18949210285E+03 -0.32115406443E+03  0.10450779810E+04  0.14359948542E+04  0.91150756698E+03 0.  0.
         23    2    4    4    0    0  0.30687782911E+03  0.15346589995E+03  0.81290470063E+03  0.88717453992E+03  0.92405776483E+02 0.  0.
         23    2    4    4    0    0 -0.11738572627E+03 -0.47461996437E+03  0.23217328039E+03  0.54882031425E+03  0.90861355375E+02 0.  0.
          2    1    3    3  502    0 -0.98023162782E+02  0.18356054569E+03  0.99447271471E+03  0.10160113162E+04  0.00000000000E+00 0. -1.
         -1    1    3    3    0  502 -0.91468940064E+02  0.13759351873E+03  0.48151662588E+03  0.50907445859E+03  0.00000000000E+00 0.  1.
         13    1    5    5    0    0  0.28582936437E+03  0.13683773079E+03  0.66242492702E+03  0.73432266344E+03  0.00000000000E+00 0.  1.
        -13    1    5    5    0    0  0.21048464744E+02  0.16628169157E+02  0.15047977362E+03  0.15285187649E+03  0.00000000000E+00 0. -1.
          1    1    6    6  503    0 -0.82492983778E+02 -0.16055070951E+03  0.99350704312E+02  0.20603928059E+03  0.00000000000E+00 0. -1.
         -1    1    6    6    0  503 -0.34892742489E+02 -0.31406925486E+03  0.13282257607E+03  0.34278103367E+03  0.00000000000E+00 0.  1.
<mgrwt>
<rscale>  0 0.15531317E+04</rscale>
<asrwt>0</asrwt>
<pdfrwt beam="1">  1        2 0.42170366E+00 0.15531317E+04</pdfrwt>
<pdfrwt beam="2">  1       -1 0.33847179E-01 0.15531317E+04</pdfrwt>
<totfact> 0.22754038E+01</totfact>
</mgrwt>
</event>
<event>
12    7  0.1605494E-007  0.1617325E+04  0.7818608E-02  0.8809975E-01
         -1   -1    0    0    0  501 -0.00000000000E+00  0.00000000000E+00  0.19975545569E+03  0.19975545569E+03  0.00000000000E+00 0.  1.
          2   -1    0    0  501    0  0.00000000000E+00 -0.00000000000E+00 -0.32736763055E+04  0.32736763055E+04  0.00000000000E+00 0. -1.
         24    2    1    2    0    0  0.15627855524E+03 -0.53072193035E+03 -0.11396935169E+04  0.12694179295E+04  0.80198584960E+02 0.  0.
        254    2    1    2    0    0 -0.15627855524E+03  0.53072193035E+03 -0.19342273330E+04  0.22040138318E+04  0.90019600136E+03 0.  0.
         23    2    4    4    0    0 -0.26198800628E+03  0.39738982364E+03 -0.32599938742E+03  0.58374375650E+03  0.89021263131E+02 0.  0.
         23    2    4    4    0    0  0.10570945103E+03  0.13333210671E+03 -0.16082279455E+04  0.16202700753E+04  0.99629580288E+02 0.  0.
          4    1    3    3  502    0  0.14400264092E+03 -0.47128211552E+03 -0.10625313183E+04  0.11712456597E+04  0.00000000000E+00 0. -1.
         -3    1    3    3    0  502  0.12275914327E+02 -0.59439814831E+02 -0.77162198575E+02  0.98172269754E+02  0.00000000000E+00 0.  1.
         13    1    5    5    0    0 -0.26892744594E+03  0.39099281979E+03 -0.31690168358E+03  0.57063476355E+03  0.00000000000E+00 0.  1.
        -13    1    5    5    0    0  0.69394396680E+01  0.63970038485E+01 -0.90977038358E+01  0.13108992952E+02  0.00000000000E+00 0. -1.
          2    1    6    6  503    0  0.11128766551E+02  0.28815665837E+02 -0.83331472780E+02  0.88872528929E+02  0.00000000000E+00 0. -1.
         -2    1    6    6    0  503  0.94580684482E+02  0.10451644087E+03 -0.15248964728E+04  0.15313975463E+04  0.00000000000E+00 0.  1.
<mgrwt>
<rscale>  0 0.16173246E+04</rscale>
<asrwt>0</asrwt>
<pdfrwt beam="1">  1        2 0.50364252E+00 0.16173246E+04</pdfrwt>
<pdfrwt beam="2">  1       -1 0.30731608E-01 0.16173246E+04</pdfrwt>
<totfact> 0.12475139E+01</totfact>
</mgrwt>
</event>
<event>
12    7  0.1605494E-007  0.1111910E+04  0.7818608E-02  0.9193661E-01
          2   -1    0    0  501    0  0.00000000000E+00  0.00000000000E+00  0.95749775263E+03  0.95749775263E+03  0.00000000000E+00 0. -1.
         -1   -1    0    0    0  501 -0.00000000000E+00 -0.00000000000E+00 -0.32280593583E+03  0.32280593583E+03  0.00000000000E+00 0.  1.
         24    2    1    2    0    0  0.80876610749E+02  0.85835215214E+02 -0.49824690704E+02  0.15036983512E+03  0.78866197907E+02 0.  0.
        254    2    1    2    0    0 -0.80876610749E+02 -0.85835215214E+02  0.68451650750E+03  0.11299338533E+04  0.89122329051E+03 0.  0.
         23    2    4    4    0    0 -0.33160301587E+03 -0.15585847934E+03 -0.15517858273E+02  0.37765983526E+03  0.90187147271E+02 0.  0.
         23    2    4    4    0    0  0.25072640512E+03  0.70023264126E+02  0.70003436578E+03  0.75227401807E+03  0.90006095686E+02 0.  0.
          2    1    3    3  502    0  0.21611563444E+02  0.45734571152E+02  0.16089749048E+02  0.53080982446E+02  0.00000000000E+00 0. -1.
         -1    1    3    3    0  502  0.59265047305E+02  0.40100644062E+02 -0.65914439752E+02  0.97288852671E+02  0.00000000000E+00 0.  1.
         13    1    5    5    0    0 -0.27869238885E+03 -0.95728344806E+02 -0.30242525808E+02  0.29622284512E+03  0.00000000000E+00 0.  1.
        -13    1    5    5    0    0 -0.52910627018E+02 -0.60130134534E+02  0.14724667535E+02  0.81436990149E+02  0.00000000000E+00 0. -1.
          4    1    6    6  503    0 -0.49372014117E+01 -0.10924444778E+01  0.18940330942E+01  0.53996994434E+01  0.00000000000E+00 0. -1.
         -4    1    6    6    0  503  0.25566360653E+03  0.71115708604E+02  0.69814033268E+03  0.74687431863E+03  0.00000000000E+00 0.  1.
<mgrwt>
<rscale>  0 0.11119100E+04</rscale>
<asrwt>0</asrwt>
<pdfrwt beam="1">  1        2 0.14730735E+00 0.11119100E+04</pdfrwt>
<pdfrwt beam="2">  1       -1 0.49662452E-01 0.11119100E+04</pdfrwt>
<totfact> 0.12348383E+02</totfact>
</mgrwt>
</event>
<event>
12    7  0.1605494E-007  0.2922279E+04  0.7818608E-02  0.8266280E-01
          2   -1    0    0  501    0  0.00000000000E+00  0.00000000000E+00  0.23032108889E+04  0.23032108889E+04  0.00000000000E+00 0. -1.
         -1   -1    0    0    0  501 -0.00000000000E+00 -0.00000000000E+00 -0.92693553648E+03  0.92693553648E+03  0.00000000000E+00 0.  1.
         24    2    1    2    0    0 -0.13179728642E+03  0.27295851917E+03  0.20457335061E+04  0.20698104090E+04  0.84927457776E+02 0.  0.
        254    2    1    2    0    0  0.13179728642E+03 -0.27295851917E+03 -0.66945815370E+03  0.11603360164E+04  0.89795800210E+03 0.  0.
         23    2    4    4    0    0  0.30759897410E+03  0.17855098171E+03 -0.53768673737E+03  0.64994382465E+03  0.82597613255E+02 0.  0.
         23    2    4    4    0    0 -0.17580168768E+03 -0.45150950089E+03 -0.13177141633E+03  0.51039219176E+03  0.91484536781E+02 0.  0.
          2    1    3    3  502    0 -0.59819777433E+02  0.15260784046E+03  0.13632493847E+04  0.13730682589E+04  0.00000000000E+00 0. -1.
         -1    1    3    3    0  502 -0.71977508991E+02  0.12035067871E+03  0.68248412141E+03  0.69674215004E+03  0.00000000000E+00 0.  1.
         13    1    5    5    0    0  0.28503791354E+03  0.14267031883E+03 -0.43876807286E+03  0.54232725710E+03  0.00000000000E+00 0.  1.
        -13    1    5    5    0    0  0.22561060561E+02  0.35880662886E+02 -0.98918664513E+02  0.10761656755E+03  0.00000000000E+00 0. -1.
          2    1    6    6  503    0 -0.38315981497E+02 -0.35581497026E+02 -0.31350317954E+02  0.60967202696E+02  0.00000000000E+00 0. -1.
         -2    1    6    6    0  503 -0.13748570618E+03 -0.41592800386E+03 -0.10042109837E+03  0.44942498907E+03  0.00000000000E+00 0.  1.
<mgrwt>
<rscale>  0 0.29222786E+04</rscale>
<asrwt>0</asrwt>
<pdfrwt beam="1">  1        2 0.35434014E+00 0.29222786E+04</pdfrwt>
<pdfrwt beam="2">  1       -1 0.14260547E+00 0.29222786E+04</pdfrwt>
<totfact> 0.17655816E+00</totfact>
</mgrwt>
</event>
<event>
12    7  0.1605494E-007  0.3198825E+04  0.7818608E-02  0.8189128E-01
          2   -1    0    0  501    0  0.00000000000E+00  0.00000000000E+00  0.27770499215E+04  0.27770499215E+04  0.00000000000E+00 0. -1.
         -1   -1    0    0    0  501 -0.00000000000E+00 -0.00000000000E+00 -0.92116476972E+03  0.92116476972E+03  0.00000000000E+00 0.  1.
         24    2    1    2    0    0  0.92007534770E+03  0.90715302720E+03  0.16719562491E+04  0.21145397163E+04  0.79845178388E+02 0.  0.
        254    2    1    2    0    0 -0.92007534770E+03 -0.90715302720E+03  0.18392890270E+03  0.15836749750E+04  0.89706818298E+03 0.  0.
         23    2    4    4    0    0  0.77759857290E+02 -0.26130712725E+03 -0.17901267616E+03  0.33737531502E+03  0.86305010286E+02 0.  0.
         23    2    4    4    0    0 -0.99783520499E+03 -0.64584589995E+03  0.36294157886E+03  0.12462996600E+04  0.93510587383E+02 0.  0.
          2    1    3    3  502    0  0.87889472701E+03  0.88679675549E+03  0.16087672891E+04  0.20364175940E+04  0.00000000000E+00 0. -1.
         -1    1    3    3    0  502  0.41180620691E+02  0.20356271716E+02  0.63188960018E+02  0.78122122262E+02  0.00000000000E+00 0.  1.
         13    1    5    5    0    0  0.57403708103E+00  0.63299393317E+01 -0.16886624042E+00  0.63581574627E+01  0.00000000000E+00 0.  1.
        -13    1    5    5    0    0  0.77185820209E+02 -0.26763706658E+03 -0.17884380992E+03  0.33101715756E+03  0.00000000000E+00 0. -1.
          3    1    6    6  503    0 -0.98677412867E+03 -0.64655454989E+03  0.36525591507E+03  0.12349768623E+04  0.00000000000E+00 0. -1.
         -3    1    6    6    0  503 -0.11061076322E+02  0.70864993542E+00 -0.23143362150E+01  0.11322797633E+02  0.00000000000E+00 0.  1.
<mgrwt>
<rscale>  0 0.31988251E+04</rscale>
<asrwt>0</asrwt>
<pdfrwt beam="1">  1        2 0.42723845E+00 0.31988251E+04</pdfrwt>
<pdfrwt beam="2">  1       -1 0.14171766E+00 0.31988251E+04</pdfrwt>
<totfact> 0.92684772E-01</totfact>
</mgrwt>
</event>
<event>
12    7  0.1605494E-007  0.1497667E+04  0.7818608E-02  0.8886006E-01
          2   -1    0    0  501    0  0.00000000000E+00  0.00000000000E+00  0.16805773906E+04  0.16805773906E+04  0.00000000000E+00 0. -1.
         -1   -1    0    0    0  501 -0.00000000000E+00 -0.00000000000E+00 -0.33366624187E+03  0.33366624187E+03  0.00000000000E+00 0.  1.
         24    2    1    2    0    0 -0.12079730748E+03 -0.33689975108E+03  0.70368893165E+03  0.79350031249E+03  0.79819807226E+02 0.  0.
        254    2    1    2    0    0  0.12079730748E+03  0.33689975108E+03  0.64322221710E+03  0.12207433200E+04  0.97385111849E+03 0.  0.
         23    2    4    4    0    0  0.16949150489E+03 -0.65065543587E+02  0.76273755682E+03  0.78942436158E+03  0.91985579712E+02 0.  0.
         23    2    4    4    0    0 -0.48694197410E+02  0.40196529466E+03 -0.11951533973E+03  0.43131895842E+03  0.88345370489E+02 0.  0.
          2    1    3    3  502    0 -0.12645580033E+03 -0.26808898188E+03  0.59479687957E+03  0.66456459399E+03  0.00000000000E+00 0. -1.
         -1    1    3    3    0  502  0.56584928427E+01 -0.68810769193E+02  0.10889205208E+03  0.12893571850E+03  0.00000000000E+00 0.  1.
         13    1    5    5    0    0  0.33256698028E+02  0.22998212246E+02  0.18336621344E+03  0.18777138749E+03  0.00000000000E+00 0.  1.
        -13    1    5    5    0    0  0.13623480687E+03 -0.88063755833E+02  0.57937134339E+03  0.60165297409E+03  0.00000000000E+00 0. -1.
          2    1    6    6  503    0 -0.42319175905E+02  0.16019951890E+03 -0.10478248631E+02  0.16602587811E+03  0.00000000000E+00 0. -1.
         -2    1    6    6    0  503 -0.63750215048E+01  0.24176577576E+03 -0.10903709110E+03  0.26529308031E+03  0.00000000000E+00 0.  1.
<mgrwt>
<rscale>  0 0.14976674E+04</rscale>
<asrwt>0</asrwt>
<pdfrwt beam="1">  1        2 0.25855036E+00 0.14976674E+04</pdfrwt>
<pdfrwt beam="2">  1       -1 0.51333269E-01 0.14976674E+04</pdfrwt>
<totfact> 0.42248072E+01</totfact>
</mgrwt>
</event>
<event>
12    7  0.1605494E-007  0.2105594E+04  0.7818608E-02  0.8558783E-01
         -3   -1    0    0    0  501 -0.00000000000E+00  0.00000000000E+00  0.56651341161E+03  0.56651341161E+03  0.00000000000E+00 0.  1.
          2   -1    0    0  501    0  0.00000000000E+00 -0.00000000000E+00 -0.19564972625E+04  0.19564972625E+04  0.00000000000E+00 0. -1.
         24    2    1    2    0    0 -0.60851805082E+03  0.60764002791E+03 -0.54888343201E+03  0.10232572245E+04  0.79130929168E+02 0.  0.
        254    2    1    2    0    0  0.60851805082E+03 -0.60764002791E+03 -0.84110041890E+03  0.14997534496E+04  0.89570635434E+03 0.  0.
         23    2    4    4    0    0  0.56005882829E+03 -0.79857451822E+03 -0.82723912178E+03  0.12821327538E+04  0.90292200869E+02 0.  0.
         23    2    4    4    0    0  0.48459222528E+02  0.19093449030E+03 -0.13861297119E+02  0.21762069577E+03  0.91445917529E+02 0.  0.
          4    1    3    3  502    0 -0.34938767268E+03  0.33466375367E+03 -0.26348413596E+03  0.55090422375E+03  0.00000000000E+00 0. -1.
         -3    1    3    3    0  502 -0.25913037814E+03  0.27297627424E+03 -0.28539929605E+03  0.47235300080E+03  0.00000000000E+00 0.  1.
         13    1    5    5    0    0  0.40759009448E+03 -0.62551047668E+03 -0.59342052304E+03  0.95369856806E+03  0.00000000000E+00 0. -1.
        -13    1    5    5    0    0  0.15246873381E+03 -0.17306404153E+03 -0.23381859873E+03  0.32843418576E+03  0.00000000000E+00 0.  1.
          4    1    6    6  503    0  0.22608196834E+02  0.18790143564E+03 -0.26361947740E+01  0.18927501051E+03  0.00000000000E+00 0. -1.
         -4    1    6    6    0  503  0.25851025694E+02  0.30330546608E+01 -0.11225102345E+02  0.28345685257E+02  0.00000000000E+00 0.  1.
<mgrwt>
<rscale>  0 0.21055944E+04</rscale>
<asrwt>0</asrwt>
<pdfrwt beam="1">  1        2 0.30099958E+00 0.21055944E+04</pdfrwt>
<pdfrwt beam="2">  1       -3 0.87155908E-01 0.21055944E+04</pdfrwt>
<totfact> 0.49833307E+00</totfact>
</mgrwt>
</event>
<event>
12    7  0.1605494E-007  0.2001070E+04  0.7818608E-02  0.8606120E-01
         -1   -1    0    0    0  501 -0.00000000000E+00  0.00000000000E+00  0.81896352500E+03  0.81896352500E+03  0.00000000000E+00 0.  1.
          2   -1    0    0  501    0  0.00000000000E+00 -0.00000000000E+00 -0.12223629125E+04  0.12223629125E+04  0.00000000000E+00 0. -1.
         24    2    1    2    0    0 -0.23653558552E+03 -0.13430626726E+03 -0.92573870797E+03  0.96822631869E+03  0.80515788044E+02 0.  0.
        254    2    1    2    0    0  0.23653558552E+03  0.13430626726E+03  0.52233932049E+03  0.10731001188E+04  0.89706089124E+03 0.  0.
         23    2    4    4    0    0  0.14047092724E+03  0.38362184263E+03  0.64139608509E+03  0.76574556772E+03  0.89886244592E+02 0.  0.
         23    2    4    4    0    0  0.96064658286E+02 -0.24931557538E+03 -0.11905676460E+03  0.30735455108E+03  0.94369657061E+02 0.  0.
          2    1    3    3  502    0 -0.13687710999E+03 -0.53073191379E+02 -0.60772542652E+03  0.62520580685E+03  0.00000000000E+00 0. -1.
         -1    1    3    3    0  502 -0.99658475536E+02 -0.81233075876E+02 -0.31801328145E+03  0.34302051183E+03  0.00000000000E+00 0.  1.
         13    1    5    5    0    0 -0.30685811967E+01  0.70586882777E+02  0.14863935759E+03  0.16457698149E+03  0.00000000000E+00 0.  1.
        -13    1    5    5    0    0  0.14353950843E+03  0.31303495986E+03  0.49275672750E+03  0.60116858623E+03  0.00000000000E+00 0. -1.
          3    1    6    6  503    0  0.82326914344E+02 -0.25415912856E+03 -0.11975182868E+03  0.29277138509E+03  0.00000000000E+00 0. -1.
         -3    1    6    6    0  503  0.13737743942E+02  0.48435531850E+01  0.69506407933E+00  0.14583165985E+02  0.00000000000E+00 0.  1.
<mgrwt>
<rscale>  0 0.20010704E+04</rscale>
<asrwt>0</asrwt>
<pdfrwt beam="1">  1        2 0.18805583E+00 0.20010704E+04</pdfrwt>
<pdfrwt beam="2">  1       -1 0.12599439E+00 0.20010704E+04</pdfrwt>
<totfact> 0.10674560E+01</totfact>
</mgrwt>
</event>
<event>
12    7  0.1605494E-007  0.2438624E+04  0.7818608E-02  0.8425183E-01
          2   -1    0    0  501    0  0.00000000000E+00  0.00000000000E+00  0.13020136178E+04  0.13020136178E+04  0.00000000000E+00 0. -1.
         -1   -1    0    0    0  501 -0.00000000000E+00 -0.00000000000E+00 -0.11418638029E+04  0.11418638029E+04  0.00000000000E+00 0.  1.
         24    2    1    2    0    0  0.36315269537E+03 -0.45029884913E+03 -0.80796110522E+03  0.99706400758E+03  0.81771351831E+02 0.  0.
        254    2    1    2    0    0 -0.36315269537E+03  0.45029884913E+03  0.96811092016E+03  0.14468134132E+04  0.90630092412E+03 0.  0.
         23    2    4    4    0    0  0.24505666516E+03 -0.64857328210E+02  0.29971301873E+03  0.40270040035E+03  0.89891471721E+02 0.  0.
         23    2    4    4    0    0 -0.60820936053E+03  0.51515617734E+03  0.66839790143E+03  0.10441130128E+04  0.90065062970E+02 0.  0.
          4    1    3    3  502    0  0.12483660080E+03 -0.10170527868E+03 -0.24900797461E+03  0.29653517841E+03  0.00000000000E+00 0. -1.
         -3    1    3    3    0  502  0.23831609456E+03 -0.34859357045E+03 -0.55895313060E+03  0.70052882917E+03  0.00000000000E+00 0.  1.
         13    1    5    5    0    0  0.12998911792E+02 -0.40880666961E+01 -0.53324673847E+01  0.14632812631E+02  0.00000000000E+00 0.  1.
        -13    1    5    5    0    0  0.23205775337E+03 -0.60769261513E+02  0.30504548611E+03  0.38806758772E+03  0.00000000000E+00 0. -1.
          1    1    6    6  503    0 -0.55758025419E+03  0.46023437761E+03  0.63513204236E+03  0.96234304353E+03  0.00000000000E+00 0. -1.
         -1    1    6    6    0  503 -0.50629106338E+02  0.54921799733E+02  0.33265859072E+02  0.81769969269E+02  0.00000000000E+00 0.  1.
<mgrwt>
<rscale>  0 0.24386244E+04</rscale>
<asrwt>0</asrwt>
<pdfrwt beam="1">  1        2 0.20030979E+00 0.24386244E+04</pdfrwt>
<pdfrwt beam="2">  1       -1 0.17567135E+00 0.24386244E+04</pdfrwt>
<totfact> 0.37666455E+00</totfact>
</mgrwt>
</event>
<event>
12    7  0.1605494E-007  0.2539984E+04  0.7818608E-02  0.8388878E-01
         -1   -1    0    0    0  501 -0.00000000000E+00  0.00000000000E+00  0.18032493452E+04  0.18032493452E+04  0.00000000000E+00 0.  1.
          2   -1    0    0  501    0  0.00000000000E+00 -0.00000000000E+00 -0.89442950821E+03  0.89442950821E+03  0.00000000000E+00 0. -1.
         24    2    1    2    0    0 -0.57587189644E+03  0.87745111091E+03  0.78139163318E+03  0.13109580426E+04  0.80555645244E+02 0.  0.
        254    2    1    2    0    0  0.57587189644E+03 -0.87745111091E+03  0.12742820379E+03  0.13867208108E+04  0.89733369865E+03 0.  0.
         23    2    4    4    0    0  0.47871500721E+03 -0.70311373545E+03 -0.30045663154E+03  0.90585219569E+03  0.82201155034E+02 0.  0.
         23    2    4    4    0    0  0.97156889231E+02 -0.17433737546E+03  0.42788483534E+03  0.48086861508E+03  0.91193262069E+02 0.  0.
          2    1    3    3  502    0 -0.57265750895E+03  0.87843038105E+03  0.78116263090E+03  0.13075900018E+04  0.00000000000E+00 0. -1.
         -1    1    3    3    0  502 -0.32143874926E+01 -0.97927013986E+00  0.22900228481E+00  0.33680408261E+01  0.00000000000E+00 0.  1.
         13    1    5    5    0    0  0.44905685153E+02 -0.10537923478E+03 -0.22636965486E+02  0.11676358974E+03  0.00000000000E+00 0. -1.
        -13    1    5    5    0    0  0.43380932206E+03 -0.59773450067E+03 -0.27781966606E+03  0.78908860595E+03  0.00000000000E+00 0.  1.
          1    1    6    6  503    0  0.57868432463E+02 -0.13884979185E+03  0.22114006669E+03  0.26745270473E+03  0.00000000000E+00 0. -1.
         -1    1    6    6    0  503  0.39288456768E+02 -0.35487583612E+02  0.20674476865E+03  0.21341591035E+03  0.00000000000E+00 0.  1.
<mgrwt>
<rscale>  0 0.25399838E+04</rscale>
<asrwt>0</asrwt>
<pdfrwt beam="1">  1        2 0.13760454E+00 0.25399838E+04</pdfrwt>
<pdfrwt beam="2">  1       -1 0.27742298E+00 0.25399838E+04</pdfrwt>
<totfact> 0.13866728E+00</totfact>
</mgrwt>
</event>
<event>
12    7  0.1605494E-007  0.2312628E+04  0.7818608E-02  0.8472959E-01
         -1   -1    0    0    0  501 -0.00000000000E+00  0.00000000000E+00  0.42077958693E+03  0.42077958693E+03  0.00000000000E+00 0.  1.
          2   -1    0    0  501    0  0.00000000000E+00 -0.00000000000E+00 -0.31775821705E+04  0.31775821705E+04  0.00000000000E+00 0. -1.
         24    2    1    2    0    0 -0.58138132535E+03  0.12236781414E+03 -0.24060189938E+04  0.24795537073E+04  0.79253148638E+02 0.  0.
        254    2    1    2    0    0  0.58138132535E+03 -0.12236781414E+03 -0.35078358972E+03  0.11188080501E+04  0.88074071024E+03 0.  0.
         23    2    4    4    0    0  0.37958269237E+03  0.34164078635E+03 -0.30718848756E+03  0.60289573177E+03  0.91197857698E+02 0.  0.
         23    2    4    4    0    0  0.20179863297E+03 -0.46400860050E+03 -0.43595102163E+02  0.51591231829E+03  0.90765178503E+02 0.  0.
          2    1    3    3  502    0 -0.56462025068E+03  0.12445396606E+03 -0.23735523883E+04  0.24429563559E+04  0.00000000000E+00 0. -1.
         -1    1    3    3    0  502 -0.16761074674E+02 -0.20861519182E+01 -0.32466605543E+02  0.36597351401E+02  0.00000000000E+00 0.  1.
         13    1    5    5    0    0  0.30554579756E+03  0.31393184094E+03 -0.24228400659E+03  0.50061259973E+03  0.00000000000E+00 0. -1.
        -13    1    5    5    0    0  0.74036894818E+02  0.27708945417E+02 -0.64904480971E+02  0.10228313204E+03  0.00000000000E+00 0.  1.
          3    1    6    6  503    0  0.20356772343E+03 -0.42202074708E+03 -0.56509349117E+02  0.47194770423E+03  0.00000000000E+00 0. -1.
         -3    1    6    6    0  503 -0.17690904538E+01 -0.41987853413E+02  0.12914246954E+02  0.43964614063E+02  0.00000000000E+00 0.  1.
<mgrwt>
<rscale>  0 0.23126277E+04</rscale>
<asrwt>0</asrwt>
<pdfrwt beam="1">  1        2 0.48885880E+00 0.23126277E+04</pdfrwt>
<pdfrwt beam="2">  1       -1 0.64735321E-01 0.23126277E+04</pdfrwt>
<totfact> 0.33476168E+00</totfact>
</mgrwt>
</event>
<event>
12    7  0.2723561E-007  0.1580301E+04  0.7818608E-02  0.8832742E-01
         -1   -1    0    0    0  501 -0.00000000000E+00  0.00000000000E+00  0.22649893108E+03  0.22649893108E+03  0.00000000000E+00 0.  1.
          2   -1    0    0  501    0  0.00000000000E+00 -0.00000000000E+00 -0.27564725465E+04  0.27564725465E+04  0.00000000000E+00 0. -1.
         24    2    1    2    0    0  0.26658918168E+02 -0.29733378828E+03 -0.16971086394E+04  0.17248912001E+04  0.77161120014E+02 0.  0.
        254    2    1    2    0    0 -0.26658918168E+02  0.29733378828E+03 -0.83286497603E+03  0.12580802776E+04  0.89441815553E+03 0.  0.
         23    2    4    4    0    0 -0.14155204996E+02 -0.60309154281E+02 -0.87886194951E+03  0.88620684768E+03  0.95533693855E+02 0.  0.
         23    2    4    4    0    0 -0.12503713171E+02  0.35764294257E+03  0.45996973474E+02  0.37187342989E+03  0.90051702262E+02 0.  0.
          2    1    3    3  502    0  0.34189769658E+00 -0.26767315890E+03 -0.15209960556E+04  0.15443697866E+04  0.00000000000E+00 0. -1.
         -1    1    3    3    0  502  0.26317020471E+02 -0.29660629389E+02 -0.17611258388E+03  0.18052141342E+03  0.00000000000E+00 0.  1.
         13    1    5    5    0    0 -0.47449712234E+02 -0.41873743096E+02 -0.72305800481E+03  0.72582212963E+03  0.00000000000E+00 0. -1.
        -13    1    5    5    0    0  0.33294507238E+02 -0.18435411185E+02 -0.15580394470E+03  0.16038471804E+03  0.00000000000E+00 0.  1.
          2    1    6    6  503    0 -0.24041745681E+02  0.35470285367E+03  0.50616695296E+02  0.35910189331E+03  0.00000000000E+00 0. -1.
         -2    1    6    6    0  503  0.11538032509E+02  0.29400888950E+01 -0.46197218214E+01  0.12771536580E+02  0.00000000000E+00 0.  1.
<mgrwt>
<rscale>  0 0.15803013E+04</rscale>
<asrwt>0</asrwt>
<pdfrwt beam="1">  1        2 0.42407270E+00 0.15803013E+04</pdfrwt>
<pdfrwt beam="2">  1       -1 0.34845989E-01 0.15803013E+04</pdfrwt>
<totfact> 0.21097966E+01</totfact>
</mgrwt>
</event>
<event>
12    7  0.1605494E-007  0.1635912E+04  0.7818608E-02  0.8798784E-01
         -1   -1    0    0    0  501 -0.00000000000E+00  0.00000000000E+00  0.49185770226E+03  0.49185770226E+03  0.00000000000E+00 0.  1.
          2   -1    0    0  501    0  0.00000000000E+00 -0.00000000000E+00 -0.13602560652E+04  0.13602560652E+04  0.00000000000E+00 0. -1.
         24    2    1    2    0    0  0.28319794868E+03  0.45846278683E+03 -0.11561842251E+03  0.55691632041E+03  0.79993520191E+02 0.  0.
        254    2    1    2    0    0 -0.28319794868E+03 -0.45846278683E+03 -0.75277994047E+03  0.12951974471E+04  0.90579776061E+03 0.  0.
         23    2    4    4    0    0  0.33020456164E+02  0.24847634635E+03 -0.12614177140E+03  0.29484977408E+03  0.90519597667E+02 0.  0.
         23    2    4    4    0    0 -0.31621840484E+03 -0.70693913318E+03 -0.62663816908E+03  0.10003476730E+04  0.90901344264E+02 0.  0.
          2    1    3    3  502    0  0.77367782833E+02  0.18713542603E+03 -0.64589826330E+02  0.21254949344E+03  0.00000000000E+00 0. -1.
         -1    1    3    3    0  502  0.20583016585E+03  0.27132736080E+03 -0.51028596184E+02  0.34436682697E+03  0.00000000000E+00 0.  1.
         13    1    5    5    0    0 -0.10695463037E+01  0.22265647747E+03 -0.11525913281E+03  0.25072239346E+03  0.00000000000E+00 0. -1.
        -13    1    5    5    0    0  0.34090002468E+02  0.25819868879E+02 -0.10882638593E+02  0.44127380615E+02  0.00000000000E+00 0.  1.
          1    1    6    6  503    0 -0.26740431175E+03 -0.58376867697E+03 -0.47322208175E+03  0.79764031544E+03  0.00000000000E+00 0. -1.
         -1    1    6    6    0  503 -0.48814093094E+02 -0.12317045620E+03 -0.15341608733E+03  0.20270735758E+03  0.00000000000E+00 0.  1.
<mgrwt>
<rscale>  0 0.16359125E+04</rscale>
<asrwt>0</asrwt>
<pdfrwt beam="1">  1        2 0.20927016E+00 0.16359125E+04</pdfrwt>
<pdfrwt beam="2">  1       -1 0.75670417E-01 0.16359125E+04</pdfrwt>
<totfact> 0.29175880E+01</totfact>
</mgrwt>
</event>
<event>
12    7  0.1605494E-007  0.1959822E+04  0.7818608E-02  0.8625639E-01
         -1   -1    0    0    0  501 -0.00000000000E+00  0.00000000000E+00  0.26018274811E+03  0.26018274811E+03  0.00000000000E+00 0.  1.
          2   -1    0    0  501    0  0.00000000000E+00 -0.00000000000E+00 -0.36905801942E+04  0.36905801942E+04  0.00000000000E+00 0. -1.
         24    2    1    2    0    0 -0.65326993017E+02  0.48218308925E+03 -0.25774098044E+04  0.26241575306E+04  0.79958101587E+02 0.  0.
        254    2    1    2    0    0  0.65326993017E+02 -0.48218308925E+03 -0.85298764167E+03  0.13266054117E+04  0.89192256049E+03 0.  0.
         23    2    4    4    0    0  0.36861698389E+03  0.58483449411E+02 -0.39134958571E+03  0.54835303848E+03  0.90762117129E+02 0.  0.
         23    2    4    4    0    0 -0.30328999087E+03 -0.54066653866E+03 -0.46163805596E+03  0.77825237321E+03  0.90895198492E+02 0.  0.
          4    1    3    3  502    0 -0.39094534084E+02  0.40672555567E+03 -0.20060418311E+04  0.20472317622E+04  0.00000000000E+00 0. -1.
         -3    1    3    3    0  502 -0.26232458933E+02  0.75457533585E+02 -0.57136797337E+03  0.57692576842E+03  0.00000000000E+00 0.  1.
         13    1    5    5    0    0  0.49297373316E+02  0.21131122779E+02 -0.20179909610E+02  0.57306056553E+02  0.00000000000E+00 0.  1.
        -13    1    5    5    0    0  0.31931961058E+03  0.37352326631E+02 -0.37116967610E+03  0.49104698193E+03  0.00000000000E+00 0. -1.
          4    1    6    6  503    0 -0.91112242527E+02 -0.91511270060E+02 -0.11008041690E+03  0.16968633260E+03  0.00000000000E+00 0.  1.
         -4    1    6    6    0  503 -0.21217774835E+03 -0.44915526860E+03 -0.35155763906E+03  0.60856604061E+03  0.00000000000E+00 0. -1.
<mgrwt>
<rscale>  0 0.19598217E+04</rscale>
<asrwt>0</asrwt>
<pdfrwt beam="1">  1        2 0.56778154E+00 0.19598217E+04</pdfrwt>
<pdfrwt beam="2">  1       -1 0.40028117E-01 0.19598217E+04</pdfrwt>
<totfact> 0.38580936E+00</totfact>
</mgrwt>
</event>
<event>
12    7  0.1605494E-007  0.2283435E+04  0.7818608E-02  0.8484481E-01
         -1   -1    0    0    0  501 -0.00000000000E+00  0.00000000000E+00  0.76083862927E+03  0.76083862927E+03  0.00000000000E+00 0.  1.
          2   -1    0    0  501    0  0.00000000000E+00 -0.00000000000E+00 -0.17132652521E+04  0.17132652521E+04  0.00000000000E+00 0. -1.
         24    2    1    2    0    0 -0.76589914432E+03 -0.42756667402E+03  0.28247720198E+02  0.88217178159E+03  0.89522949731E+02 0.  0.
        254    2    1    2    0    0  0.76589914432E+03  0.42756667402E+03 -0.98067434305E+03  0.15919320998E+04  0.89616454028E+03 0.  0.
         23    2    4    4    0    0  0.71354433916E+03 -0.78933876579E+02 -0.45927030625E+03  0.85728984330E+03  0.92954722318E+02 0.  0.
         23    2    4    4    0    0  0.52354805157E+02  0.50650055060E+03 -0.52140403680E+03  0.73464225650E+03  0.92483739435E+02 0.  0.
          4    1    3    3  502    0 -0.39012367475E+03 -0.23247375230E+03  0.57492973308E+02  0.45776191310E+03  0.00000000000E+00 0. -1.
         -3    1    3    3    0  502 -0.37577546957E+03 -0.19509292172E+03 -0.29245253110E+02  0.42440986848E+03  0.00000000000E+00 0.  1.
         13    1    5    5    0    0  0.39726016748E+03 -0.83645505445E+02 -0.22974759664E+03  0.46647204569E+03  0.00000000000E+00 0.  1.
        -13    1    5    5    0    0  0.31628417169E+03  0.47116288664E+01 -0.22952270961E+03  0.39081779762E+03  0.00000000000E+00 0. -1.
          2    1    6    6  503    0 -0.79790116057E+01  0.34402241396E+03 -0.35341283904E+03  0.49327043367E+03  0.00000000000E+00 0. -1.
         -2    1    6    6    0  503  0.60333816763E+02  0.16247813664E+03 -0.16799119776E+03  0.24137182283E+03  0.00000000000E+00 0.  1.
<mgrwt>
<rscale>  0 0.22834346E+04</rscale>
<asrwt>0</asrwt>
<pdfrwt beam="1">  1        2 0.26357927E+00 0.22834346E+04</pdfrwt>
<pdfrwt beam="2">  1       -1 0.11705210E+00 0.22834346E+04</pdfrwt>
<totfact> 0.65556318E+00</totfact>
</mgrwt>
</event>
<event>
12    7  0.1605494E-007  0.2026546E+04  0.7818608E-02  0.8594309E-01
          2   -1    0    0  501    0  0.00000000000E+00  0.00000000000E+00  0.14810154083E+04  0.14810154083E+04  0.00000000000E+00 0. -1.
         -1   -1    0    0    0  501 -0.00000000000E+00 -0.00000000000E+00 -0.69325528755E+03  0.69325528755E+03  0.00000000000E+00 0.  1.
         24    2    1    2    0    0  0.84513394615E+02  0.78956387530E+03  0.14383338465E+03  0.81075262345E+03  0.77962470719E+02 0.  0.
        254    2    1    2    0    0 -0.84513394615E+02 -0.78956387530E+03  0.64392673606E+03  0.13635180724E+04  0.90221187377E+03 0.  0.
         23    2    4    4    0    0  0.35360020856E+03 -0.21680978925E+03  0.43331309676E+03  0.60655365622E+03  0.90041689456E+02 0.  0.
         23    2    4    4    0    0 -0.43811360318E+03 -0.57275408605E+03  0.21061363929E+03  0.75696441613E+03  0.92985213116E+02 0.  0.
          2    1    3    3  502    0  0.76549092534E+01  0.26711214687E+03  0.79356620464E+02  0.27875611178E+03  0.00000000000E+00 0. -1.
         -1    1    3    3    0  502  0.76858485362E+02  0.52245172843E+03  0.64476764188E+02  0.53199651168E+03  0.00000000000E+00 0.  1.
         13    1    5    5    0    0  0.38626592672E+02 -0.51541376407E+02  0.38058652488E+02  0.74813021411E+02  0.00000000000E+00 0.  1.
        -13    1    5    5    0    0  0.31497361589E+03 -0.16526841284E+03  0.39525444427E+03  0.53174063481E+03  0.00000000000E+00 0. -1.
          3    1    6    6  503    0 -0.35757082523E+03 -0.44829089704E+03  0.20376021230E+03  0.60855554187E+03  0.00000000000E+00 0. -1.
         -3    1    6    6    0  503 -0.80542777948E+02 -0.12446318901E+03  0.68534269924E+01  0.14840887426E+03  0.00000000000E+00 0.  1.
<mgrwt>
<rscale>  0 0.20265456E+04</rscale>
<asrwt>0</asrwt>
<pdfrwt beam="1">  1        2 0.22784852E+00 0.20265456E+04</pdfrwt>
<pdfrwt beam="2">  1       -1 0.10665466E+00 0.20265456E+04</pdfrwt>
<totfact> 0.11281482E+01</totfact>
</mgrwt>
</event>
<event>
12    7  0.1605494E-007  0.2823995E+04  0.7818608E-02  0.8295857E-01
          2   -1    0    0  501    0  0.00000000000E+00  0.00000000000E+00  0.11742716032E+04  0.11742716032E+04  0.00000000000E+00 0. -1.
         -1   -1    0    0    0  501 -0.00000000000E+00 -0.00000000000E+00 -0.16978497207E+04  0.16978497207E+04  0.00000000000E+00 0.  1.
         24    2    1    2    0    0  0.76236693276E+02 -0.10068410739E+04 -0.99260102653E+03  0.14180978858E+04  0.78764422936E+02 0.  0.
        254    2    1    2    0    0 -0.76236693276E+02  0.10068410739E+04  0.46902290896E+03  0.14540234381E+04  0.93523295914E+03 0.  0.
         23    2    4    4    0    0 -0.48748569193E+03  0.67179458334E+03  0.23393244596E+03  0.86684122121E+03  0.87971878892E+02 0.  0.
         23    2    4    4    0    0  0.41124899866E+03  0.33504649059E+03  0.23509046299E+03  0.58718221689E+03  0.90186142413E+02 0.  0.
          4    1    3    3  502    0  0.62218963974E+02 -0.73100680731E+03 -0.67156571672E+03  0.99460678848E+03  0.00000000000E+00 0. -1.
         -3    1    3    3    0  502  0.14017729302E+02 -0.27583426662E+03 -0.32103530981E+03  0.42349109734E+03  0.00000000000E+00 0.  1.
         13    1    5    5    0    0  0.57913474590E+00  0.21056643180E+02  0.30834101414E+01  0.21289082582E+02  0.00000000000E+00 0.  1.
        -13    1    5    5    0    0 -0.48806482668E+03  0.65073794016E+03  0.23084903582E+03  0.84555213863E+03  0.00000000000E+00 0. -1.
          4    1    6    6  503    0  0.41480126444E+03  0.33534408683E+03  0.22978377566E+03  0.58078940168E+03  0.00000000000E+00 0. -1.
         -4    1    6    6    0  503 -0.35522657816E+01 -0.29759624328E+00  0.53066873369E+01  0.63928152013E+01  0.00000000000E+00 0.  1.
<mgrwt>
<rscale>  0 0.28239948E+04</rscale>
<asrwt>0</asrwt>
<pdfrwt beam="1">  1        2 0.18065717E+00 0.28239948E+04</pdfrwt>
<pdfrwt beam="2">  1       -1 0.26120765E+00 0.28239948E+04</pdfrwt>
<totfact> 0.11444218E+00</totfact>
</mgrwt>
</event>
<event>
12    7  0.1605494E-007  0.1279301E+04  0.7818608E-02  0.9046142E-01
          2   -1    0    0  501    0  0.00000000000E+00  0.00000000000E+00  0.14209223207E+04  0.14209223207E+04  0.00000000000E+00 0. -1.
         -1   -1    0    0    0  501 -0.00000000000E+00 -0.00000000000E+00 -0.28794879071E+03  0.28794879071E+03  0.00000000000E+00 0.  1.
         24    2    1    2    0    0  0.23099359476E+03 -0.19424708669E+03  0.44224242815E+03  0.54090194325E+03  0.76854248059E+02 0.  0.
        254    2    1    2    0    0 -0.23099359476E+03  0.19424708669E+03  0.69073110180E+03  0.11679691681E+04  0.89216172928E+03 0.  0.
         23    2    4    4    0    0 -0.11880247976E+03 -0.33146928062E+03  0.43232541498E+03  0.56468937093E+03  0.89347120850E+02 0.  0.
         23    2    4    4    0    0 -0.11219111501E+03  0.52571636731E+03  0.25840568682E+03  0.60327979720E+03  0.90600604735E+02 0.  0.
          2    1    3    3  502    0  0.19932810707E+03 -0.17450228930E+03  0.42249235522E+03  0.49868079315E+03  0.00000000000E+00 0. -1.
         -1    1    3    3    0  502  0.31665487692E+02 -0.19744797389E+02  0.19750072931E+02  0.42221150096E+02  0.00000000000E+00 0.  1.
         13    1    5    5    0    0 -0.92499271231E+02 -0.15724602889E+03  0.26481599613E+03  0.32157416032E+03  0.00000000000E+00 0. -1.
        -13    1    5    5    0    0 -0.26303208524E+02 -0.17422325173E+03  0.16750941885E+03  0.24311521060E+03  0.00000000000E+00 0.  1.
          3    1    6    6  503    0 -0.11923112536E+03  0.51543457310E+03  0.23972491470E+03  0.58082432381E+03  0.00000000000E+00 0. -1.
         -3    1    6    6    0  503  0.70400103591E+01  0.10281794216E+02  0.18680772118E+02  0.22455473389E+02  0.00000000000E+00 0.  1.
<mgrwt>
<rscale>  0 0.12793012E+04</rscale>
<asrwt>0</asrwt>
<pdfrwt beam="1">  1        2 0.21860343E+00 0.12793012E+04</pdfrwt>
<pdfrwt beam="2">  1       -1 0.44299815E-01 0.12793012E+04</pdfrwt>
<totfact> 0.79381556E+01</totfact>
</mgrwt>
</event>
<event>
12    7  0.1605494E-007  0.1860236E+04  0.7818608E-02  0.8674907E-01
         -1   -1    0    0    0  501 -0.00000000000E+00  0.00000000000E+00  0.26744418924E+03  0.26744418924E+03  0.00000000000E+00 0.  1.
          2   -1    0    0  501    0  0.00000000000E+00 -0.00000000000E+00 -0.32347660702E+04  0.32347660702E+04  0.00000000000E+00 0. -1.
         24    2    1    2    0    0  0.29046619175E+03  0.29364010213E+02 -0.23165480274E+04  0.23362169367E+04  0.79258806944E+02 0.  0.
        254    2    1    2    0    0 -0.29046619175E+03 -0.29364010213E+02 -0.65077385362E+03  0.11659933228E+04  0.92238872857E+03 0.  0.
         23    2    4    4    0    0 -0.39214627373E+03 -0.10661195768E+02 -0.84132172688E+03  0.93279588121E+03  0.91616301964E+02 0.  0.
         23    2    4    4    0    0  0.10168008199E+03 -0.18702814445E+02  0.19054787326E+03  0.23319744158E+03  0.85929741152E+02 0.  0.
          2    1    3    3  502    0  0.78569372924E+02 -0.83812564510E+01 -0.89313214550E+03  0.89662055583E+03  0.00000000000E+00 0. -1.
         -1    1    3    3    0  502  0.21189681882E+03  0.37745266664E+02 -0.14234158819E+04  0.14395963808E+04  0.00000000000E+00 0.  1.
         13    1    5    5    0    0 -0.57652283035E+02 -0.32273929314E+02 -0.17149821681E+03  0.18378528402E+03  0.00000000000E+00 0. -1.
        -13    1    5    5    0    0 -0.33449399070E+03  0.21612733546E+02 -0.66982351007E+03  0.74901059719E+03  0.00000000000E+00 0.  1.
          3    1    6    6  503    0  0.39991837253E+02 -0.48674941577E+02  0.11527319723E+03  0.13136402469E+03  0.00000000000E+00 0. -1.
         -3    1    6    6    0  503  0.61688244735E+02  0.29972127131E+02  0.75274676032E+02  0.10183341689E+03  0.00000000000E+00 0.  1.
<mgrwt>
<rscale>  0 0.18602359E+04</rscale>
<asrwt>0</asrwt>
<pdfrwt beam="1">  1        2 0.49765630E+00 0.18602359E+04</pdfrwt>
<pdfrwt beam="2">  1       -1 0.41145261E-01 0.18602359E+04</pdfrwt>
<totfact> 0.76489882E+00</totfact>
</mgrwt>
</event>
<event>
12    7  0.1605494E-007  0.3379340E+04  0.7818608E-02  0.8142996E-01
         -1   -1    0    0    0  501 -0.00000000000E+00  0.00000000000E+00  0.15197580704E+04  0.15197580704E+04  0.00000000000E+00 0.  1.
          2   -1    0    0  501    0  0.00000000000E+00 -0.00000000000E+00 -0.18785789107E+04  0.18785789107E+04  0.00000000000E+00 0. -1.
         24    2    1    2    0    0  0.65746003276E+03  0.45694972603E+03 -0.15291682551E+04  0.17279168017E+04  0.79272783578E+02 0.  0.
        254    2    1    2    0    0 -0.65746003276E+03 -0.45694972603E+03  0.11703474148E+04  0.16704201795E+04  0.88291208948E+03 0.  0.
         23    2    4    4    0    0 -0.53525881161E+03  0.10887329853E+03  0.81435480493E+03  0.98473317878E+03  0.90389681585E+02 0.  0.
         23    2    4    4    0    0 -0.12220122115E+03 -0.56582302456E+03  0.35599260991E+03  0.68568700068E+03  0.91362415815E+02 0.  0.
          2    1    3    3  502    0  0.20277901975E+03  0.11362899149E+03 -0.38460173099E+03  0.44938777246E+03  0.00000000000E+00 0. -1.
         -1    1    3    3    0  502  0.45468101301E+03  0.34332073454E+03 -0.11445665241E+04  0.12785290292E+04  0.00000000000E+00 0.  1.
         13    1    5    5    0    0 -0.41157594216E+03  0.66055654857E+02  0.55374597845E+03  0.69310368225E+03  0.00000000000E+00 0. -1.
        -13    1    5    5    0    0 -0.12368286945E+03  0.42817643673E+02  0.26060882648E+03  0.29162949653E+03  0.00000000000E+00 0.  1.
          4    1    6    6  503    0 -0.32735232927E+02 -0.10446255325E+03  0.11021788978E+03  0.15534478986E+03  0.00000000000E+00 0. -1.
         -4    1    6    6    0  503 -0.89465988218E+02 -0.46136047131E+03  0.24577472012E+03  0.53034221083E+03  0.00000000000E+00 0.  1.
<mgrwt>
<rscale>  0 0.33793404E+04</rscale>
<asrwt>0</asrwt>
<pdfrwt beam="1">  1        2 0.28901214E+00 0.33793404E+04</pdfrwt>
<pdfrwt beam="2">  1       -1 0.23380894E+00 0.33793404E+04</pdfrwt>
<totfact> 0.65625274E-01</totfact>
</mgrwt>
</event>
<event>
12    7  0.1605494E-007  0.1381874E+04  0.7818608E-02  0.8967045E-01
          2   -1    0    0  501    0  0.00000000000E+00  0.00000000000E+00  0.20272510937E+04  0.20272510937E+04  0.00000000000E+00 0. -1.
         -1   -1    0    0    0  501 -0.00000000000E+00 -0.00000000000E+00 -0.23548825904E+03  0.23548825904E+03  0.00000000000E+00 0.  1.
         24    2    1    2    0    0  0.30902879314E+03  0.21019749388E+03  0.33449296302E+03  0.50793200649E+03  0.80172311222E+02 0.  0.
        254    2    1    2    0    0 -0.30902879314E+03 -0.21019749388E+03  0.14572698716E+04  0.17548073462E+04  0.90334465308E+03 0.  0.
         23    2    4    4    0    0 -0.42358367192E+03  0.11959878622E+03  0.12681971631E+04  0.13455468634E+04  0.91898423161E+02 0.  0.
         23    2    4    4    0    0  0.11455487878E+03 -0.32979628010E+03  0.18907270846E+03  0.40926048284E+03  0.99283669887E+02 0.  0.
          4    1    3    3  502    0  0.97489390584E+02  0.39075437460E+02  0.13241576933E+03  0.16901185478E+03  0.00000000000E+00 0. -1.
         -1    1    3    3    0  502  0.21153940255E+03  0.17112205642E+03  0.20207719369E+03  0.33892015171E+03  0.00000000000E+00 0.  1.
         13    1    5    5    0    0  0.68526771765E+00  0.14252729933E+01  0.52629672517E+02  0.52653427469E+02  0.00000000000E+00 0.  1.
        -13    1    5    5    0    0 -0.42426893963E+03  0.11817351323E+03  0.12155674906E+04  0.12928934359E+04  0.00000000000E+00 0. -1.
          4    1    6    6  503    0  0.11564845290E+03 -0.21059879402E+03  0.15249645657E+03  0.28457263742E+03  0.00000000000E+00 0. -1.
         -4    1    6    6    0  503 -0.10935741228E+01 -0.11919748608E+03  0.36576251892E+02  0.12468784542E+03  0.00000000000E+00 0.  1.
<mgrwt>
<rscale>  0 0.13818738E+04</rscale>
<asrwt>0</asrwt>
<pdfrwt beam="1">  1        2 0.31188477E+00 0.13818738E+04</pdfrwt>
<pdfrwt beam="2">  1       -1 0.36228964E-01 0.13818738E+04</pdfrwt>
<totfact> 0.52271626E+01</totfact>
</mgrwt>
</event>
<event>
12    7  0.1605494E-007  0.1736370E+04  0.7818608E-02  0.8740889E-01
          2   -1    0    0  501    0  0.00000000000E+00  0.00000000000E+00  0.20202375014E+04  0.20202375014E+04  0.00000000000E+00 0. -1.
         -1   -1    0    0    0  501 -0.00000000000E+00 -0.00000000000E+00 -0.37309722606E+03  0.37309722606E+03  0.00000000000E+00 0.  1.
         24    2    1    2    0    0 -0.50926568061E+03 -0.13142003172E+03  0.12134922156E+03  0.54556929701E+03  0.79356575523E+02 0.  0.
        254    2    1    2    0    0  0.50926568061E+03  0.13142003172E+03  0.15257910538E+04  0.18477654305E+04  0.89976440696E+03 0.  0.
         23    2    4    4    0    0  0.72345793807E+03  0.10486410177E+03  0.81241871997E+03  0.10967899719E+04  0.92391547085E+02 0.  0.
         23    2    4    4    0    0 -0.21419225747E+03  0.26555929953E+02  0.71337233381E+03  0.75097545853E+03  0.92089695909E+02 0.  0.
          4    1    3    3  502    0 -0.64209189266E+02 -0.30757632299E+02  0.41284634923E+02  0.82299896789E+02  0.00000000000E+00 0. -1.
         -3    1    3    3    0  502 -0.44505649134E+03 -0.10066239943E+03  0.80064586642E+02  0.46326940022E+03  0.00000000000E+00 0.  1.
         13    1    5    5    0    0  0.38702622677E+03  0.98055896970E+02  0.41120068612E+03  0.57314070122E+03  0.00000000000E+00 0. -1.
        -13    1    5    5    0    0  0.33643171131E+03  0.68082048002E+01  0.40121803385E+03  0.52364927071E+03  0.00000000000E+00 0.  1.
          3    1    6    6  503    0 -0.20305492805E+03  0.31503864346E+01  0.67322402815E+03  0.70318690319E+03  0.00000000000E+00 0. -1.
         -3    1    6    6    0  503 -0.11137329412E+02  0.23405543519E+02  0.40148305660E+02  0.47788555337E+02  0.00000000000E+00 0.  1.
<mgrwt>
<rscale>  0 0.17363698E+04</rscale>
<asrwt>0</asrwt>
<pdfrwt beam="1">  1        2 0.31080576E+00 0.17363698E+04</pdfrwt>
<pdfrwt beam="2">  1       -1 0.57399574E-01 0.17363698E+04</pdfrwt>
<totfact> 0.21626392E+01</totfact>
</mgrwt>
</event>
<event>
12    7  0.1605494E-007  0.1507187E+04  0.7818608E-02  0.8879688E-01
         -1   -1    0    0    0  501 -0.00000000000E+00  0.00000000000E+00  0.17677990537E+03  0.17677990537E+03  0.00000000000E+00 0.  1.
          2   -1    0    0  501    0  0.00000000000E+00 -0.00000000000E+00 -0.32124869790E+04  0.32124869790E+04  0.00000000000E+00 0. -1.
         24    2    1    2    0    0 -0.10354023915E+02  0.27028720374E+03 -0.19255804188E+04  0.19462085207E+04  0.81885764180E+02 0.  0.
        254    2    1    2    0    0  0.10354023915E+02 -0.27028720374E+03 -0.11101266548E+04  0.14430583637E+04  0.88140448884E+03 0.  0.
         23    2    4    4    0    0  0.31766739127E+03 -0.34853549307E+03 -0.97462528120E+03  0.10864905951E+04  0.90431261075E+02 0.  0.
         23    2    4    4    0    0 -0.30731336736E+03  0.78248289332E+02 -0.13550137361E+03  0.35656776862E+03  0.90640227435E+02 0.  0.
          4    1    3    3  502    0 -0.48920849296E+01  0.27482654360E+03 -0.18938421489E+04  0.19136853572E+04  0.00000000000E+00 0. -1.
         -3    1    3    3    0  502 -0.54619389855E+01 -0.45393398579E+01 -0.31738269922E+02  0.32523163460E+02  0.00000000000E+00 0.  1.
         13    1    5    5    0    0  0.25154536770E+03 -0.27474693756E+03 -0.67576002687E+03  0.77162981126E+03  0.00000000000E+00 0.  1.
        -13    1    5    5    0    0  0.66122023568E+02 -0.73788555515E+02 -0.29886525434E+03  0.31486078380E+03  0.00000000000E+00 0. -1.
          3    1    6    6  503    0 -0.14392635589E+03  0.18444578984E+01 -0.28135119305E+02  0.14666213854E+03  0.00000000000E+00 0. -1.
         -3    1    6    6    0  503 -0.16338701147E+03  0.76403831433E+02 -0.10736625431E+03  0.20990563008E+03  0.00000000000E+00 0.  1.
<mgrwt>
<rscale>  0 0.15071870E+04</rscale>
<asrwt>0</asrwt>
<pdfrwt beam="1">  1        2 0.49422875E+00 0.15071870E+04</pdfrwt>
<pdfrwt beam="2">  1       -1 0.27196909E-01 0.15071870E+04</pdfrwt>
<totfact> 0.17115895E+01</totfact>
</mgrwt>
</event>
<event>
12    7  0.1605494E-007  0.1479841E+04  0.7818608E-02  0.8897970E-01
         -1   -1    0    0    0  501 -0.00000000000E+00  0.00000000000E+00  0.50951259500E+03  0.50951259500E+03  0.00000000000E+00 0.  1.
          2   -1    0    0  501    0  0.00000000000E+00 -0.00000000000E+00 -0.10745218520E+04  0.10745218520E+04  0.00000000000E+00 0. -1.
         24    2    1    2    0    0  0.39002585334E+03 -0.18046582925E+03 -0.30797958257E+03  0.53497813078E+03  0.81621659675E+02 0.  0.
        254    2    1    2    0    0 -0.39002585334E+03  0.18046582925E+03 -0.25702967440E+03  0.10490563162E+04  0.92182797703E+03 0.  0.
         23    2    4    4    0    0 -0.41471748172E+03  0.14777209205E+03  0.26206805926E+03  0.52021261207E+03  0.90079482898E+02 0.  0.
         23    2    4    4    0    0  0.24691628376E+02  0.32693737198E+02 -0.51909773367E+03  0.52884370413E+03  0.92383165885E+02 0.  0.
          2    1    3    3  502    0  0.34602465336E+03 -0.18614630452E+03 -0.27237353744E+03  0.47809084003E+03  0.00000000000E+00 0. -1.
         -1    1    3    3    0  502  0.44001199980E+02  0.56804752721E+01 -0.35606045129E+02  0.56887290748E+02  0.00000000000E+00 0.  1.
         13    1    5    5    0    0 -0.33012728209E+03  0.83030991235E+02  0.22201381872E+03  0.40640903483E+03  0.00000000000E+00 0. -1.
        -13    1    5    5    0    0 -0.84590199624E+02  0.64741100813E+02  0.40054240539E+02  0.11380357724E+03  0.00000000000E+00 0.  1.
          1    1    6    6  503    0  0.10328834852E+02  0.53856036001E+02 -0.47264453159E+03  0.47581510137E+03  0.00000000000E+00 0. -1.
         -1    1    6    6    0  503  0.14362793525E+02 -0.21162298803E+02 -0.46453202072E+02  0.53028602764E+02  0.00000000000E+00 0.  1.
<mgrwt>
<rscale>  0 0.14798411E+04</rscale>
<asrwt>0</asrwt>
<pdfrwt beam="1">  1        2 0.16531105E+00 0.14798411E+04</pdfrwt>
<pdfrwt beam="2">  1       -1 0.78386554E-01 0.14798411E+04</pdfrwt>
<totfact> 0.40631515E+01</totfact>
</mgrwt>
</event>
<event>
12    7  0.1605494E-007  0.3543340E+04  0.7818608E-02  0.8103595E-01
         -1   -1    0    0    0  501 -0.00000000000E+00  0.00000000000E+00  0.16199591382E+04  0.16199591382E+04  0.00000000000E+00 0.  1.
          2   -1    0    0  501    0  0.00000000000E+00 -0.00000000000E+00 -0.19375886256E+04  0.19375886256E+04  0.00000000000E+00 0. -1.
         24    2    1    2    0    0 -0.12942355113E+04  0.83669508858E+03 -0.75498872909E+03  0.17180829729E+04  0.81834533826E+02 0.  0.
        254    2    1    2    0    0  0.12942355113E+04 -0.83669508858E+03  0.43735924169E+03  0.18394647910E+04  0.90401514424E+03 0.  0.
         23    2    4    4    0    0  0.41137261213E+03 -0.51616938846E+02 -0.22693867678E+03  0.48114638647E+03  0.90049696339E+02 0.  0.
         23    2    4    4    0    0  0.88286289912E+03 -0.78507814973E+03  0.66429791848E+03  0.13583184045E+04  0.89121061585E+02 0.  0.
          2    1    3    3  502    0 -0.26836274957E+03  0.16253799419E+03 -0.11901691350E+03  0.33556249882E+03  0.00000000000E+00 0. -1.
         -1    1    3    3    0  502 -0.10258727617E+04  0.67415709439E+03 -0.63597181559E+03  0.13825204741E+04  0.00000000000E+00 0.  1.
         13    1    5    5    0    0  0.38775010503E+03 -0.70337043913E+02 -0.21261721901E+03  0.44777620026E+03  0.00000000000E+00 0.  1.
        -13    1    5    5    0    0  0.23622507097E+02  0.18720105067E+02 -0.14321457769E+02  0.33370186213E+02  0.00000000000E+00 0. -1.
          3    1    6    6  503    0  0.12082787987E+03 -0.87862437098E+02  0.11458888661E+03  0.18828116566E+03  0.00000000000E+00 0. -1.
         -3    1    6    6    0  503  0.76203501925E+03 -0.69721571263E+03  0.54970903186E+03  0.11700372388E+04  0.00000000000E+00 0.  1.
<mgrwt>
<rscale>  0 0.35433399E+04</rscale>
<asrwt>0</asrwt>
<pdfrwt beam="1">  1        2 0.29809056E+00 0.35433399E+04</pdfrwt>
<pdfrwt beam="2">  1       -1 0.24922448E+00 0.35433399E+04</pdfrwt>
<totfact> 0.47552605E-01</totfact>
</mgrwt>
</event>
<event>
12    7  0.1605494E-007  0.1855143E+04  0.7818608E-02  0.8677513E-01
          2   -1    0    0  501    0  0.00000000000E+00  0.00000000000E+00  0.11383914493E+04  0.11383914493E+04  0.00000000000E+00 0. -1.
         -1   -1    0    0    0  501 -0.00000000000E+00 -0.00000000000E+00 -0.75579316537E+03  0.75579316537E+03  0.00000000000E+00 0.  1.
         24    2    1    2    0    0  0.64570248466E+03 -0.92575779913E+02 -0.11864214221E+03  0.66831947868E+03  0.84101093599E+02 0.  0.
        254    2    1    2    0    0 -0.64570248466E+03  0.92575779913E+02  0.50124042610E+03  0.12258651360E+04  0.90884618780E+03 0.  0.
         23    2    4    4    0    0 -0.20555041586E+03  0.47651954703E+03  0.22579741088E+03  0.57356267637E+03  0.93101132069E+02 0.  0.
         23    2    4    4    0    0 -0.44015206880E+03 -0.38394376712E+03  0.27544301522E+03  0.65230245959E+03  0.92103117102E+02 0.  0.
          4    1    3    3  502    0  0.13118181624E+02 -0.39194506846E+01  0.97101870946E+01  0.16785008675E+02  0.00000000000E+00 0. -1.
         -3    1    3    3    0  502  0.63258430304E+03 -0.88656329228E+02 -0.12835232931E+03  0.65153447000E+03  0.00000000000E+00 0.  1.
         13    1    5    5    0    0 -0.14701031599E+03  0.39768512316E+03  0.15080550046E+03  0.45000865454E+03  0.00000000000E+00 0. -1.
        -13    1    5    5    0    0 -0.58540099872E+02  0.78834423870E+02  0.74991910427E+02  0.12355402183E+03  0.00000000000E+00 0.  1.
          1    1    6    6  503    0 -0.38563581378E+03 -0.32482635255E+03  0.26937840803E+03  0.57165712354E+03  0.00000000000E+00 0. -1.
         -1    1    6    6    0  503 -0.54516255018E+02 -0.59117414566E+02  0.60646071853E+01  0.80645336049E+02  0.00000000000E+00 0.  1.
<mgrwt>
<rscale>  0 0.18551426E+04</rscale>
<asrwt>0</asrwt>
<pdfrwt beam="1">  1        2 0.17513715E+00 0.18551426E+04</pdfrwt>
<pdfrwt beam="2">  1       -1 0.11627587E+00 0.18551426E+04</pdfrwt>
<totfact> 0.14786341E+01</totfact>
</mgrwt>
</event>
<event>
12    7  0.1605494E-007  0.1912215E+04  0.7818608E-02  0.8648800E-01
         -1   -1    0    0    0  501 -0.00000000000E+00  0.00000000000E+00  0.47489002246E+03  0.47489002246E+03  0.00000000000E+00 0.  1.
          2   -1    0    0  501    0  0.00000000000E+00 -0.00000000000E+00 -0.19249539459E+04  0.19249539459E+04  0.00000000000E+00 0. -1.
         24    2    1    2    0    0  0.46370323082E+03 -0.35202972224E+03 -0.11199326456E+04  0.12651441823E+04  0.85994532695E+02 0.  0.
        254    2    1    2    0    0 -0.46370323082E+03  0.35202972224E+03 -0.33013127778E+03  0.11346997860E+04  0.91630307880E+03 0.  0.
         23    2    4    4    0    0 -0.73215101776E+03  0.30353568854E+03 -0.24667066748E+03  0.83507831864E+03  0.91270767681E+02 0.  0.
         23    2    4    4    0    0  0.26844778694E+03  0.48494033700E+02 -0.83460610302E+02  0.29962146739E+03  0.91604937789E+02 0.  0.
          4    1    3    3  502    0  0.44436491970E+03 -0.32038291319E+03 -0.10776687643E+04  0.12089149509E+04  0.00000000000E+00 0. -1.
         -3    1    3    3    0  502  0.19338311120E+02 -0.31646809058E+02 -0.42263881296E+02  0.56229231390E+02  0.00000000000E+00 0.  1.
         13    1    5    5    0    0 -0.30178405290E+03  0.81473586050E+02 -0.76966433495E+02  0.32192451241E+03  0.00000000000E+00 0. -1.
        -13    1    5    5    0    0 -0.43036696487E+03  0.22206210249E+03 -0.16970423399E+03  0.51315380623E+03  0.00000000000E+00 0.  1.
          2    1    6    6  503    0  0.26809360965E+03  0.54724921141E+02 -0.92326925455E+02  0.28877891491E+03  0.00000000000E+00 0. -1.
         -2    1    6    6    0  503  0.35417728933E+00 -0.62308874406E+01  0.88663151535E+01  0.10842552479E+02  0.00000000000E+00 0.  1.
<mgrwt>
<rscale>  0 0.19122149E+04</rscale>
<asrwt>0</asrwt>
<pdfrwt beam="1">  1        2 0.29614677E+00 0.19122149E+04</pdfrwt>
<pdfrwt beam="2">  1       -1 0.73060001E-01 0.19122149E+04</pdfrwt>
<totfact> 0.14797980E+01</totfact>
</mgrwt>
</event>
<event>
12    7  0.1605494E-007  0.1929304E+04  0.7818608E-02  0.8640406E-01
         -1   -1    0    0    0  501 -0.00000000000E+00  0.00000000000E+00  0.14907332060E+04  0.14907332060E+04  0.00000000000E+00 0.  1.
          2   -1    0    0  501    0  0.00000000000E+00 -0.00000000000E+00 -0.62422541403E+03  0.62422541403E+03  0.00000000000E+00 0. -1.
         24    2    1    2    0    0 -0.55987098160E+02  0.53127784848E+03 -0.23115024776E+03  0.58747139850E+03  0.79381985189E+02 0.  0.
        254    2    1    2    0    0  0.55987098160E+02 -0.53127784848E+03  0.10976580398E+04  0.15274872216E+04  0.91813579187E+03 0.  0.
         23    2    4    4    0    0  0.90768526518E+02 -0.78022764915E+03  0.87672837291E+03  0.11805411912E+04  0.89614476581E+02 0.  0.
         23    2    4    4    0    0 -0.34781428358E+02  0.24894980067E+03  0.22092966686E+03  0.34694603033E+03  0.91519829832E+02 0.  0.
          4    1    3    3  502    0 -0.44713531742E+02  0.52402681228E+03 -0.22998134793E+03  0.57401639376E+03  0.00000000000E+00 0. -1.
         -3    1    3    3    0  502 -0.11273566418E+02  0.72510361985E+01 -0.11688998270E+01  0.13455004740E+02  0.00000000000E+00 0.  1.
         13    1    5    5    0    0  0.30541834134E+02 -0.57227397796E+03  0.60938257607E+03  0.83652700704E+03  0.00000000000E+00 0. -1.
        -13    1    5    5    0    0  0.60226692384E+02 -0.20795367120E+03  0.26734579684E+03  0.34401418419E+03  0.00000000000E+00 0.  1.
          1    1    6    6  503    0 -0.55158121036E+02  0.23798428782E+03  0.20410960022E+03  0.31833892076E+03  0.00000000000E+00 0. -1.
         -1    1    6    6    0  503  0.20376692678E+02  0.10965512847E+02  0.16820066646E+02  0.28607109579E+02  0.00000000000E+00 0.  1.
<mgrwt>
<rscale>  0 0.19293041E+04</rscale>
<asrwt>0</asrwt>
<pdfrwt beam="1">  1        2 0.96034679E-01 0.19293041E+04</pdfrwt>
<pdfrwt beam="2">  1       -1 0.22934357E+00 0.19293041E+04</pdfrwt>
<totfact> 0.48074745E+00</totfact>
</mgrwt>
</event>
<event>
12    7  0.1605494E-007  0.2255570E+04  0.7818608E-02  0.8495648E-01
          2   -1    0    0  501    0  0.00000000000E+00  0.00000000000E+00  0.12028825533E+04  0.12028825533E+04  0.00000000000E+00 0. -1.
         -1   -1    0    0    0  501 -0.00000000000E+00 -0.00000000000E+00 -0.10573760759E+04  0.10573760759E+04  0.00000000000E+00 0.  1.
         24    2    1    2    0    0 -0.79200278454E+03 -0.32253242704E+02 -0.45903315750E+03  0.91951150395E+03  0.80506421024E+02 0.  0.
        254    2    1    2    0    0  0.79200278454E+03  0.32253242704E+02  0.60453963487E+03  0.13407471252E+04  0.89656343960E+03 0.  0.
         23    2    4    4    0    0  0.14393203310E+03  0.39746487855E+03  0.32499938084E+03  0.54097179748E+03  0.91275014634E+02 0.  0.
         23    2    4    4    0    0  0.64807075144E+03 -0.36521163584E+03  0.27954025403E+03  0.79977532772E+03  0.90125375852E+02 0.  0.
          2    1    3    3  502    0 -0.45693300200E+02  0.17120575903E+02 -0.27811594570E+02  0.56164727320E+02  0.00000000000E+00 0. -1.
         -1    1    3    3    0  502 -0.74630948434E+03 -0.49373818606E+02 -0.43122156293E+03  0.86334677663E+03  0.00000000000E+00 0.  1.
         13    1    5    5    0    0  0.56931080312E+02  0.26402381722E+03  0.23496054775E+03  0.35798908218E+03  0.00000000000E+00 0. -1.
        -13    1    5    5    0    0  0.87000952788E+02  0.13344106133E+03  0.90038833091E+02  0.18298271530E+03  0.00000000000E+00 0.  1.
          4    1    6    6  503    0  0.36945733311E+03 -0.16820696950E+03  0.12159488010E+03  0.42376599727E+03  0.00000000000E+00 0. -1.
         -4    1    6    6    0  503  0.27861341833E+03 -0.19700466635E+03  0.15794537394E+03  0.37600933045E+03  0.00000000000E+00 0.  1.
<mgrwt>
<rscale>  0 0.22555702E+04</rscale>
<asrwt>0</asrwt>
<pdfrwt beam="1">  1        2 0.18505885E+00 0.22555702E+04</pdfrwt>
<pdfrwt beam="2">  1       -1 0.16267324E+00 0.22555702E+04</pdfrwt>
<totfact> 0.54590361E+00</totfact>
</mgrwt>
</event>
<event>
12    7  0.1605494E-007  0.4297606E+04  0.7818608E-02  0.7947061E-01
         -1   -1    0    0    0  501 -0.00000000000E+00  0.00000000000E+00  0.17677392827E+04  0.17677392827E+04  0.00000000000E+00 0.  1.
          2   -1    0    0  501    0  0.00000000000E+00 -0.00000000000E+00 -0.26120105444E+04  0.26120105444E+04  0.00000000000E+00 0. -1.
         24    2    1    2    0    0  0.11342794489E+04 -0.15108582431E+04 -0.12166514630E+04  0.22485657185E+04  0.80774434021E+02 0.  0.
        254    2    1    2    0    0 -0.11342794489E+04  0.15108582431E+04  0.37238020137E+03  0.21311841086E+04  0.91323391933E+03 0.  0.
         23    2    4    4    0    0 -0.25114598193E+03  0.66808535016E+03 -0.24503149247E+03  0.76014858705E+03  0.91504659774E+02 0.  0.
         23    2    4    4    0    0 -0.88313346699E+03  0.84277289292E+03  0.61741169383E+03  0.13710355215E+04  0.91380151426E+02 0.  0.
          2    1    3    3  502    0  0.92441585513E+03 -0.12689075987E+04 -0.10342128218E+04  0.18799647146E+04  0.00000000000E+00 0. -1.
         -1    1    3    3    0  502  0.20986359380E+03 -0.24195064434E+03 -0.18243864121E+03  0.36860100394E+03  0.00000000000E+00 0.  1.
         13    1    5    5    0    0 -0.43962937887E+02  0.48525069811E+02 -0.12143121522E+02  0.66594877492E+02  0.00000000000E+00 0. -1.
        -13    1    5    5    0    0 -0.20718304405E+03  0.61956028035E+03 -0.23288837094E+03  0.69355370956E+03  0.00000000000E+00 0.  1.
          1    1    6    6  503    0 -0.10007178932E+03  0.86413431490E+02  0.99206656582E+02  0.16529853257E+03  0.00000000000E+00 0. -1.
         -1    1    6    6    0  503 -0.78306167767E+03  0.75635946143E+03  0.51820503725E+03  0.12057369890E+04  0.00000000000E+00 0.  1.
<mgrwt>
<rscale>  0 0.42976057E+04</rscale>
<asrwt>0</asrwt>
<pdfrwt beam="1">  1        2 0.40184778E+00 0.42976057E+04</pdfrwt>
<pdfrwt beam="2">  1       -1 0.27195989E+00 0.42976057E+04</pdfrwt>
<totfact> 0.13151646E-01</totfact>
</mgrwt>
</event>
<event>
12    7  0.1605494E-007  0.1457540E+04  0.7818608E-02  0.8913190E-01
          2   -1    0    0  501    0  0.00000000000E+00  0.00000000000E+00  0.18541847912E+04  0.18541847912E+04  0.00000000000E+00 0. -1.
         -1   -1    0    0    0  501 -0.00000000000E+00 -0.00000000000E+00 -0.28643618013E+03  0.28643618013E+03  0.00000000000E+00 0.  1.
         24    2    1    2    0    0 -0.21187358915E+03  0.15204845792E+03  0.10205039383E+04  0.10560684225E+04  0.76439999337E+02 0.  0.
        254    2    1    2    0    0  0.21187358915E+03 -0.15204845792E+03  0.54724467272E+03  0.10845525488E+04  0.89931548859E+03 0.  0.
         23    2    4    4    0    0 -0.21535623780E+03 -0.37620650538E+03  0.21806433862E+03  0.49355411183E+03  0.90188478637E+02 0.  0.
         23    2    4    4    0    0  0.42722982695E+03  0.22415804746E+03  0.32918033411E+03  0.59099843700E+03  0.90262422409E+02 0.  0.
          4    1    3    3  502    0 -0.21190754936E+03  0.13185516150E+03  0.90366034359E+03  0.93749272512E+03  0.00000000000E+00 0. -1.
         -3    1    3    3    0  502  0.33960206054E-01  0.20193296420E+02  0.11684359471E+03  0.11857569733E+03  0.00000000000E+00 0.  1.
         13    1    5    5    0    0 -0.70010005041E+02 -0.20670412691E+03  0.89309346328E+02  0.23580533545E+03  0.00000000000E+00 0. -1.
        -13    1    5    5    0    0 -0.14534623276E+03 -0.16950237847E+03  0.12875499229E+03  0.25774877638E+03  0.00000000000E+00 0.  1.
          4    1    6    6  503    0  0.31488719941E+03  0.19829938758E+03  0.27983571876E+03  0.46560135842E+03  0.00000000000E+00 0. -1.
         -4    1    6    6    0  503  0.11234262754E+03  0.25858659877E+02  0.49344615345E+02  0.12539707858E+03  0.00000000000E+00 0.  1.
<mgrwt>
<rscale>  0 0.14575399E+04</rscale>
<asrwt>0</asrwt>
<pdfrwt beam="1">  1        2 0.28525919E+00 0.14575399E+04</pdfrwt>
<pdfrwt beam="2">  1       -1 0.44067106E-01 0.14575399E+04</pdfrwt>
<totfact> 0.45279601E+01</totfact>
</mgrwt>
</event>
<event>
12    7  0.1605494E-007  0.3228799E+04  0.7818608E-02  0.8181253E-01
         -1   -1    0    0    0  501 -0.00000000000E+00  0.00000000000E+00  0.14418896907E+04  0.14418896907E+04  0.00000000000E+00 0.  1.
          2   -1    0    0  501    0  0.00000000000E+00 -0.00000000000E+00 -0.18075487410E+04  0.18075487410E+04  0.00000000000E+00 0. -1.
         24    2    1    2    0    0 -0.10280795589E+04  0.49133024803E+03  0.78422217317E+03  0.13855218371E+04  0.79456605339E+02 0.  0.
        254    2    1    2    0    0  0.10280795589E+04 -0.49133024803E+03 -0.11498812235E+04  0.18639165947E+04  0.92390759916E+03 0.  0.
         23    2    4    4    0    0  0.11445094749E+04 -0.24846235138E+03 -0.10033468479E+04  0.15449330898E+04  0.92075385271E+02 0.  0.
         23    2    4    4    0    0 -0.11642991601E+03 -0.24286789665E+03 -0.14653437555E+03  0.31898350487E+03  0.87962563583E+02 0.  0.
          2    1    3    3  502    0 -0.36586761230E+03  0.21189487696E+03  0.31342484648E+03  0.52630189341E+03  0.00000000000E+00 0. -1.
         -1    1    3    3    0  502 -0.66221194657E+03  0.27943537107E+03  0.47079732669E+03  0.85921994368E+03  0.00000000000E+00 0.  1.
         13    1    5    5    0    0  0.10914626053E+04 -0.21616219778E+03 -0.94864496657E+03  0.14621709843E+04  0.00000000000E+00 0. -1.
        -13    1    5    5    0    0  0.53046869552E+02 -0.32300153591E+02 -0.54701881357E+02  0.82762105552E+02  0.00000000000E+00 0.  1.
          1    1    6    6  503    0 -0.39666834047E+02 -0.12550592072E+03 -0.11603377286E+03  0.17546803214E+03  0.00000000000E+00 0. -1.
         -1    1    6    6    0  503 -0.76763081964E+02 -0.11736197593E+03 -0.30500602691E+02  0.14351547273E+03  0.00000000000E+00 0.  1.
<mgrwt>
<rscale>  0 0.32287991E+04</rscale>
<asrwt>0</asrwt>
<pdfrwt beam="1">  1        2 0.27808442E+00 0.32287991E+04</pdfrwt>
<pdfrwt beam="2">  1       -1 0.22182918E+00 0.32287991E+04</pdfrwt>
<totfact> 0.87402584E-01</totfact>
</mgrwt>
</event>
<event>
12    7  0.1605494E-007  0.2057547E+04  0.7818608E-02  0.8580179E-01
         -1   -1    0    0    0  501 -0.00000000000E+00  0.00000000000E+00  0.33794365394E+03  0.33794365394E+03  0.00000000000E+00 0.  1.
          2   -1    0    0  501    0  0.00000000000E+00 -0.00000000000E+00 -0.31318074695E+04  0.31318074695E+04  0.00000000000E+00 0. -1.
         24    2    1    2    0    0  0.44895125110E+03 -0.69058186315E+03 -0.98665165271E+03  0.12877578722E+04  0.79864372843E+02 0.  0.
        254    2    1    2    0    0 -0.44895125110E+03  0.69058186315E+03 -0.18072121628E+04  0.21819932512E+04  0.90366930418E+03 0.  0.
         23    2    4    4    0    0  0.21254798451E+03  0.27444756337E+03 -0.25414772593E+03  0.44071109418E+03  0.95588133033E+02 0.  0.
         23    2    4    4    0    0 -0.66149923561E+03  0.41613429979E+03 -0.15530644369E+04  0.17412821571E+04  0.96464558822E+02 0.  0.
          2    1    3    3  502    0 -0.14692612486E+01 -0.84238567285E+01 -0.37016475608E+01  0.93178476841E+01  0.00000000000E+00 0. -1.
         -1    1    3    3    0  502  0.45042051235E+03 -0.68215800642E+03 -0.98295000515E+03  0.12784400245E+04  0.00000000000E+00 0.  1.
         13    1    5    5    0    0  0.17519892425E+02  0.31726253823E+02 -0.70367493265E+02  0.79152295739E+02  0.00000000000E+00 0.  1.
        -13    1    5    5    0    0  0.19502809209E+03  0.24272130954E+03 -0.18378023267E+03  0.36155879844E+03  0.00000000000E+00 0. -1.
          4    1    6    6  503    0 -0.12575121851E+03  0.58464848784E+02 -0.20898065503E+03  0.25080753911E+03  0.00000000000E+00 0. -1.
         -4    1    6    6    0  503 -0.53574801710E+03  0.35766945100E+03 -0.13440837819E+04  0.14904746179E+04  0.00000000000E+00 0.  1.
<mgrwt>
<rscale>  0 0.20575466E+04</rscale>
<asrwt>0</asrwt>
<pdfrwt beam="1">  1        2 0.48181653E+00 0.20575466E+04</pdfrwt>
<pdfrwt beam="2">  1       -1 0.51991332E-01 0.20575466E+04</pdfrwt>
<totfact> 0.56434921E+00</totfact>
</mgrwt>
</event>
<event>
12    7  0.1605494E-007  0.1919935E+04  0.7818608E-02  0.8644996E-01
         -1   -1    0    0    0  501 -0.00000000000E+00  0.00000000000E+00  0.36387976563E+03  0.36387976563E+03  0.00000000000E+00 0.  1.
          2   -1    0    0  501    0  0.00000000000E+00 -0.00000000000E+00 -0.25325345457E+04  0.25325345457E+04  0.00000000000E+00 0. -1.
         24    2    1    2    0    0 -0.54072015190E+03  0.17844298154E+03 -0.15870222610E+04  0.16879643781E+04  0.79774085098E+02 0.  0.
        254    2    1    2    0    0  0.54072015190E+03 -0.17844298154E+03 -0.58163251912E+03  0.12084499332E+04  0.89321591650E+03 0.  0.
         23    2    4    4    0    0  0.72224557499E+02 -0.38462034515E+03  0.33458194852E+02  0.40332458744E+03  0.91662835534E+02 0.  0.
         23    2    4    4    0    0  0.46849559440E+03  0.20617736361E+03 -0.61509071397E+03  0.80512534579E+03  0.88842606798E+02 0.  0.
          2    1    3    3  502    0 -0.38268170784E+03  0.13225993903E+03 -0.12270168541E+04  0.12920945558E+04  0.00000000000E+00 0. -1.
         -1    1    3    3    0  502 -0.15803844406E+03  0.46183042514E+02 -0.36000540691E+03  0.39586982231E+03  0.00000000000E+00 0.  1.
         13    1    5    5    0    0 -0.18629293859E+02 -0.80851660237E+02 -0.88881879572E+01  0.83444840691E+02  0.00000000000E+00 0. -1.
        -13    1    5    5    0    0  0.90853851358E+02 -0.30376868492E+03  0.42346382809E+02  0.31987974675E+03  0.00000000000E+00 0.  1.
          4    1    6    6  503    0  0.17416768720E+03  0.62706704126E+02 -0.16124222433E+03  0.24549046603E+03  0.00000000000E+00 0. -1.
         -4    1    6    6    0  503  0.29432790720E+03  0.14347065948E+03 -0.45384848965E+03  0.55963487976E+03  0.00000000000E+00 0.  1.
<mgrwt>
<rscale>  0 0.19199355E+04</rscale>
<asrwt>0</asrwt>
<pdfrwt beam="1">  1        2 0.38962071E+00 0.19199355E+04</pdfrwt>
<pdfrwt beam="2">  1       -1 0.55981501E-01 0.19199355E+04</pdfrwt>
<totfact> 0.11462136E+01</totfact>
</mgrwt>
</event>
<event>
12    7  0.1605494E-007  0.1637129E+04  0.7818608E-02  0.8798058E-01
         -1   -1    0    0    0  501 -0.00000000000E+00  0.00000000000E+00  0.18786722961E+04  0.18786722961E+04  0.00000000000E+00 0.  1.
          2   -1    0    0  501    0  0.00000000000E+00 -0.00000000000E+00 -0.35666018130E+03  0.35666018130E+03  0.00000000000E+00 0. -1.
         24    2    1    2    0    0  0.25424033176E+03  0.37409772302E+03  0.99456183342E+03  0.10954389833E+04  0.79032101064E+02 0.  0.
        254    2    1    2    0    0 -0.25424033176E+03 -0.37409772302E+03  0.52745028142E+03  0.11398934941E+04  0.90364048488E+03 0.  0.
         23    2    4    4    0    0 -0.81136102280E+02  0.29275928879E+03  0.16598047380E+03  0.35629902168E+03  0.84311368784E+02 0.  0.
         23    2    4    4    0    0 -0.17310422948E+03 -0.66685701181E+03  0.36146980762E+03  0.78359447244E+03  0.93255171203E+02 0.  0.
          4    1    3    3  502    0  0.20366745251E+02  0.32009062696E+02  0.41742594597E+02  0.56407699922E+02  0.00000000000E+00 0. -1.
         -3    1    3    3    0  502  0.23387358651E+03  0.34208866033E+03  0.95281923882E+03  0.10390312834E+04  0.00000000000E+00 0.  1.
         13    1    5    5    0    0 -0.25772744916E+02  0.12998776215E+02  0.66439089534E+01  0.29619994764E+02  0.00000000000E+00 0.  1.
        -13    1    5    5    0    0 -0.55363357364E+02  0.27976051257E+03  0.15933656485E+03  0.32667902692E+03  0.00000000000E+00 0. -1.
          1    1    6    6  503    0 -0.17480526011E+03 -0.52446698789E+03  0.28906867201E+03  0.62384549167E+03  0.00000000000E+00 0. -1.
         -1    1    6    6    0  503  0.17010306345E+01 -0.14239002392E+03  0.72401135609E+02  0.15974898076E+03  0.00000000000E+00 0.  1.
<mgrwt>
<rscale>  0 0.16371287E+04</rscale>
<asrwt>0</asrwt>
<pdfrwt beam="1">  1        2 0.54870798E-01 0.16371287E+04</pdfrwt>
<pdfrwt beam="2">  1       -1 0.28902650E+00 0.16371287E+04</pdfrwt>
<totfact> 0.38560173E+00</totfact>
</mgrwt>
</event>
<event>
12    7  0.1605494E-007  0.1358712E+04  0.7818608E-02  0.8984259E-01
         -1   -1    0    0    0  501 -0.00000000000E+00  0.00000000000E+00  0.50725386796E+03  0.50725386796E+03  0.00000000000E+00 0.  1.
          2   -1    0    0  501    0  0.00000000000E+00 -0.00000000000E+00 -0.90984941419E+03  0.90984941419E+03  0.00000000000E+00 0. -1.
         24    2    1    2    0    0 -0.10800940424E+03  0.15765717002E+03 -0.43790448653E+03  0.48456364886E+03  0.80745128721E+02 0.  0.
        254    2    1    2    0    0  0.10800940424E+03 -0.15765717002E+03  0.35308940295E+02  0.93253963328E+03  0.91206448879E+03 0.  0.
         23    2    4    4    0    0  0.45233727459E+03  0.12268199554E+03 -0.19982521107E+01  0.47778988946E+03  0.92840203781E+02 0.  0.
         23    2    4    4    0    0 -0.34432787036E+03 -0.28033916556E+03  0.37307192406E+02  0.45474974383E+03  0.90850277123E+02 0.  0.
          4    1    3    3  502    0 -0.95586741615E+02  0.11979574369E+03 -0.40452353068E+03  0.43258193704E+03  0.00000000000E+00 0. -1.
         -3    1    3    3    0  502 -0.12422662622E+02  0.37861426332E+02 -0.33380955849E+02  0.51981711821E+02  0.00000000000E+00 0.  1.
         13    1    5    5    0    0  0.24430457392E+03  0.53269778215E+02 -0.45657539448E+02  0.25417908061E+03  0.00000000000E+00 0.  1.
        -13    1    5    5    0    0  0.20803270067E+03  0.69412217326E+02  0.43659287337E+02  0.22361080885E+03  0.00000000000E+00 0. -1.
          3    1    6    6  503    0 -0.34427730242E+03 -0.28549026308E+03  0.39820343472E+02  0.44901805201E+03  0.00000000000E+00 0. -1.
         -3    1    6    6    0  503 -0.50567934724E-01  0.51510975210E+01 -0.25131510659E+01  0.57316918154E+01  0.00000000000E+00 0.  1.
<mgrwt>
<rscale>  0 0.13587121E+04</rscale>
<asrwt>0</asrwt>
<pdfrwt beam="1">  1        2 0.13997683E+00 0.13587121E+04</pdfrwt>
<pdfrwt beam="2">  1       -1 0.78039057E-01 0.13587121E+04</pdfrwt>
<totfact> 0.52913770E+01</totfact>
</mgrwt>
</event>
<event>
12    7  0.1605494E-007  0.1258984E+04  0.7818608E-02  0.9062739E-01
         -1   -1    0    0    0  501 -0.00000000000E+00  0.00000000000E+00  0.15243897257E+03  0.15243897257E+03  0.00000000000E+00 0.  1.
          2   -1    0    0  501    0  0.00000000000E+00 -0.00000000000E+00 -0.25994691992E+04  0.25994691992E+04  0.00000000000E+00 0. -1.
         24    2    1    2    0    0 -0.11473233398E+03  0.17705218953E+02  0.16906497852E-01  0.14192028131E+03  0.81635670644E+02 0.  0.
        254    2    1    2    0    0  0.11473233398E+03 -0.17705218953E+02 -0.24470471331E+04  0.26099878904E+04  0.90028891661E+03 0.  0.
         23    2    4    4    0    0 -0.21037095003E+03 -0.83430207150E+02 -0.21227800561E+04  0.21367650344E+04  0.91395348578E+02 0.  0.
         23    2    4    4    0    0  0.32510328401E+03  0.65724988197E+02 -0.32426707700E+03  0.47322285600E+03  0.93695330014E+02 0.  0.
          2    1    3    3  502    0 -0.61023145869E+02 -0.31485601046E+02  0.54726945212E+01  0.68884815382E+02  0.00000000000E+00 0. -1.
         -1    1    3    3    0  502 -0.53709188114E+02  0.49190819999E+02 -0.54557880233E+01  0.73035465926E+02  0.00000000000E+00 0.  1.
         13    1    5    5    0    0  0.14580803297E+01 -0.23822167181E+02 -0.18673541413E+03  0.18825444626E+03  0.00000000000E+00 0.  1.
        -13    1    5    5    0    0 -0.21182903036E+03 -0.59608039969E+02 -0.19360446419E+04  0.19485105882E+04  0.00000000000E+00 0. -1.
          3    1    6    6  503    0  0.12248973189E+03  0.69993659260E+02 -0.11620379657E+03  0.18277354593E+03  0.00000000000E+00 0. -1.
         -3    1    6    6    0  503  0.20261355212E+03 -0.42686710638E+01 -0.20806328043E+03  0.29044931007E+03  0.00000000000E+00 0.  1.
<mgrwt>
<rscale>  0 0.12589844E+04</rscale>
<asrwt>0</asrwt>
<pdfrwt beam="1">  1        2 0.39991831E+00 0.12589844E+04</pdfrwt>
<pdfrwt beam="2">  1       -1 0.23452151E-01 0.12589844E+04</pdfrwt>
<totfact> 0.53627085E+01</totfact>
</mgrwt>
</event>
<event>
12    7  0.1605494E-007  0.2889253E+04  0.7818608E-02  0.8276082E-01
          2   -1    0    0  501    0  0.00000000000E+00  0.00000000000E+00  0.26765349070E+04  0.26765349070E+04  0.00000000000E+00 0. -1.
         -1   -1    0    0    0  501 -0.00000000000E+00 -0.00000000000E+00 -0.77971895784E+03  0.77971895784E+03  0.00000000000E+00 0.  1.
         24    2    1    2    0    0 -0.46542893272E+03  0.12174218938E+04  0.79782158510E+03  0.15301680662E+04  0.78452980545E+02 0.  0.
        254    2    1    2    0    0  0.46542893272E+03 -0.12174218938E+04  0.10989943641E+04  0.19260857987E+04  0.89625762625E+03 0.  0.
         23    2    4    4    0    0  0.23395963763E+03  0.61804482157E+02  0.78334781154E+02  0.27044086928E+03  0.91896788736E+02 0.  0.
         23    2    4    4    0    0  0.23146929509E+03 -0.12792263760E+04  0.10206595829E+04  0.16556449294E+04  0.97036036905E+02 0.  0.
          4    1    3    3  502    0 -0.15886387943E+03  0.35867171062E+03  0.27518941267E+03  0.47917881947E+03  0.00000000000E+00 0. -1.
         -3    1    3    3    0  502 -0.30656505329E+03  0.85875018321E+03  0.52263217243E+03  0.10509892467E+04  0.00000000000E+00 0.  1.
         13    1    5    5    0    0  0.35692522962E+02  0.31637498883E+02  0.47898386785E+02  0.67595436145E+02  0.00000000000E+00 0. -1.
        -13    1    5    5    0    0  0.19826711467E+03  0.30166983274E+02  0.30436394368E+02  0.20284543313E+03  0.00000000000E+00 0.  1.
          2    1    6    6  503    0  0.45773057793E+02 -0.43621246197E+03  0.38526940555E+03  0.58378848879E+03  0.00000000000E+00 0. -1.
         -2    1    6    6    0  503  0.18569623730E+03 -0.84301391402E+03  0.63539017740E+03  0.10718564406E+04  0.00000000000E+00 0.  1.
<mgrwt>
<rscale>  0 0.28892525E+04</rscale>
<asrwt>0</asrwt>
<pdfrwt beam="1">  1        2 0.41177460E+00 0.28892525E+04</pdfrwt>
<pdfrwt beam="2">  1       -1 0.11995676E+00 0.28892525E+04</pdfrwt>
<totfact> 0.16677047E+00</totfact>
</mgrwt>
</event>
<event>
12    7  0.1605494E-007  0.1530548E+04  0.7818608E-02  0.8864389E-01
         -1   -1    0    0    0  501 -0.00000000000E+00  0.00000000000E+00  0.94763271060E+03  0.94763271060E+03  0.00000000000E+00 0.  1.
          2   -1    0    0  501    0  0.00000000000E+00 -0.00000000000E+00 -0.61800807355E+03  0.61800807355E+03  0.00000000000E+00 0. -1.
         24    2    1    2    0    0  0.25660158372E+03 -0.42396160870E+03  0.14203410278E+03  0.52133628646E+03  0.77653195728E+02 0.  0.
        254    2    1    2    0    0 -0.25660158372E+03  0.42396160870E+03  0.18759053427E+03  0.10443044977E+04  0.89988546879E+03 0.  0.
         23    2    4    4    0    0  0.23690870411E+03 -0.37986077344E+02 -0.13444353976E+03  0.28978906038E+03  0.91290514177E+02 0.  0.
         23    2    4    4    0    0 -0.49351028783E+03  0.46194768604E+03  0.32203407403E+03  0.75451543731E+03  0.92949079951E+02 0.  0.
          2    1    3    3  502    0  0.39716821962E+02 -0.10340403947E+03  0.58969643505E+02  0.12548800811E+03  0.00000000000E+00 0. -1.
         -1    1    3    3    0  502  0.21688476176E+03 -0.32055756923E+03  0.83064459279E+02  0.39584827835E+03  0.00000000000E+00 0.  1.
         13    1    5    5    0    0  0.26583662535E+01 -0.53176721804E+01  0.10733523155E+02  0.12270006841E+02  0.00000000000E+00 0.  1.
        -13    1    5    5    0    0  0.23425033786E+03 -0.32668405164E+02 -0.14517706292E+03  0.27751905354E+03  0.00000000000E+00 0. -1.
          3    1    6    6  503    0 -0.48318505587E+03  0.45993728700E+03  0.32695030729E+03  0.74290417258E+03  0.00000000000E+00 0. -1.
         -3    1    6    6    0  503 -0.10325231955E+02  0.20103990413E+01 -0.49162332564E+01  0.11611264732E+02  0.00000000000E+00 0.  1.
<mgrwt>
<rscale>  0 0.15305485E+04</rscale>
<asrwt>0</asrwt>
<pdfrwt beam="1">  1        2 0.95078166E-01 0.15305485E+04</pdfrwt>
<pdfrwt beam="2">  1       -1 0.14578965E+00 0.15305485E+04</pdfrwt>
<totfact> 0.19846400E+01</totfact>
</mgrwt>
</event>
<event>
12    7  0.1605494E-007  0.2325651E+04  0.7818608E-02  0.8467875E-01
         -1   -1    0    0    0  501 -0.00000000000E+00  0.00000000000E+00  0.43617437808E+03  0.43617437808E+03  0.00000000000E+00 0.  1.
          2   -1    0    0  501    0  0.00000000000E+00 -0.00000000000E+00 -0.31000519727E+04  0.31000519727E+04  0.00000000000E+00 0. -1.
         24    2    1    2    0    0  0.38153123015E+03 -0.58378325962E+03 -0.21811281572E+04  0.22920385967E+04  0.98751794707E+02 0.  0.
        254    2    1    2    0    0 -0.38153123015E+03  0.58378325962E+03 -0.48274943740E+03  0.12441877540E+04  0.91026763876E+03 0.  0.
         23    2    4    4    0    0  0.11215139745E+03  0.61533415535E+03 -0.18450676883E+03  0.65839334359E+03  0.90691722037E+02 0.  0.
         23    2    4    4    0    0 -0.49368262760E+03 -0.31550895734E+02 -0.29824266857E+03  0.58579441044E+03  0.97408449999E+02 0.  0.
          4    1    3    3  502    0  0.35967890105E+03 -0.51398818032E+03 -0.20180894044E+04  0.21133474881E+04  0.00000000000E+00 0. -1.
         -3    1    3    3    0  502  0.21852329097E+02 -0.69795079299E+02 -0.16303875277E+03  0.17869110858E+03  0.00000000000E+00 0.  1.
         13    1    5    5    0    0 -0.12582320104E+02  0.99527249936E+02 -0.15857695843E+02  0.10156502733E+03  0.00000000000E+00 0. -1.
        -13    1    5    5    0    0  0.12473371755E+03  0.51580690541E+03 -0.16864907298E+03  0.55682831626E+03  0.00000000000E+00 0.  1.
          4    1    6    6  503    0 -0.45838977795E+03 -0.35472915057E+01 -0.26216298303E+03  0.52807499607E+03  0.00000000000E+00 0.  1.
         -4    1    6    6    0  503 -0.35292849652E+02 -0.28003604228E+02 -0.36079685549E+02  0.57719414374E+02  0.00000000000E+00 0. -1.
<mgrwt>
<rscale>  0 0.23256511E+04</rscale>
<asrwt>0</asrwt>
<pdfrwt beam="1">  1        2 0.47693108E+00 0.23256511E+04</pdfrwt>
<pdfrwt beam="2">  1       -1 0.67103749E-01 0.23256511E+04</pdfrwt>
<totfact> 0.34873721E+00</totfact>
</mgrwt>
</event>
<event>
12    7  0.1605494E-007  0.1941972E+04  0.7818608E-02  0.8634242E-01
          2   -1    0    0  501    0  0.00000000000E+00  0.00000000000E+00  0.84841173351E+03  0.84841173351E+03  0.00000000000E+00 0. -1.
         -1   -1    0    0    0  501 -0.00000000000E+00 -0.00000000000E+00 -0.11112689025E+04  0.11112689025E+04  0.00000000000E+00 0.  1.
         24    2    1    2    0    0  0.78818839988E+03  0.19141801236E+03 -0.82485098898E+02  0.81923882418E+03  0.80415485735E+02 0.  0.
        254    2    1    2    0    0 -0.78818839988E+03 -0.19141801236E+03 -0.18037207007E+03  0.11404418118E+04  0.78114763862E+03 0.  0.
         23    2    4    4    0    0 -0.17845491142E+03 -0.41751214596E+03 -0.15451012095E+02  0.46340720648E+03  0.91350740623E+02 0.  0.
         23    2    4    4    0    0 -0.60973348846E+03  0.22609413360E+03 -0.16492105798E+03  0.67703460533E+03  0.91013280656E+02 0.  0.
          4    1    3    3  502    0  0.23185500781E+03  0.70841981834E+02 -0.58961636396E+02  0.24950311742E+03  0.00000000000E+00 0. -1.
         -3    1    3    3    0  502  0.55633339207E+03  0.12057603053E+03 -0.23523462502E+02  0.56973570676E+03  0.00000000000E+00 0.  1.
         13    1    5    5    0    0 -0.13844635421E+03 -0.22016659301E+03  0.11036150806E+02  0.26031234757E+03  0.00000000000E+00 0. -1.
        -13    1    5    5    0    0 -0.40008557206E+02 -0.19734555295E+03 -0.26487162901E+02  0.20309485891E+03  0.00000000000E+00 0.  1.
          2    1    6    6  503    0 -0.19767770647E+00  0.98100791922E+01 -0.35678764219E+01  0.10440616476E+02  0.00000000000E+00 0. -1.
         -2    1    6    6    0  503 -0.60953581075E+03  0.21628405441E+03 -0.16135318156E+03  0.66659398886E+03  0.00000000000E+00 0.  1.
<mgrwt>
<rscale>  0 0.19419718E+04</rscale>
<asrwt>0</asrwt>
<pdfrwt beam="1">  1        2 0.13052488E+00 0.19419718E+04</pdfrwt>
<pdfrwt beam="2">  1       -1 0.17096445E+00 0.19419718E+04</pdfrwt>
<totfact> 0.82050792E+00</totfact>
</mgrwt>
</event>
<event>
12    7  0.1605494E-007  0.1419860E+04  0.7818608E-02  0.8939567E-01
         -1   -1    0    0    0  501 -0.00000000000E+00  0.00000000000E+00  0.63010821939E+03  0.63010821939E+03  0.00000000000E+00 0.  1.
          2   -1    0    0  501    0  0.00000000000E+00 -0.00000000000E+00 -0.79986333027E+03  0.79986333027E+03  0.00000000000E+00 0. -1.
         24    2    1    2    0    0  0.16638765662E+03 -0.62090044030E+02 -0.43050406265E+03  0.47309978821E+03  0.83364475664E+02 0.  0.
        254    2    1    2    0    0 -0.16638765662E+03  0.62090044030E+02  0.26074895176E+03  0.95687176145E+03  0.90336787976E+03 0.  0.
         23    2    4    4    0    0 -0.41691372981E+03  0.22473368308E+03  0.38907061364E+03  0.61922809468E+03  0.88006843082E+02 0.  0.
         23    2    4    4    0    0  0.25052607319E+03 -0.16264363905E+03 -0.12832166187E+03  0.33764366677E+03  0.91216939954E+02 0.  0.
          2    1    3    3  502    0  0.17409169239E+03 -0.58231031991E+02 -0.42479663516E+03  0.46276446675E+03  0.00000000000E+00 0. -1.
         -1    1    3    3    0  502 -0.77040357694E+01 -0.38590120395E+01 -0.57074274890E+01  0.10335321456E+02  0.00000000000E+00 0.  1.
         13    1    5    5    0    0 -0.11609830550E+03  0.10308142225E+03  0.10013066316E+03  0.18474508345E+03  0.00000000000E+00 0. -1.
        -13    1    5    5    0    0 -0.30081542431E+03  0.12165226083E+03  0.28893995048E+03  0.43448301123E+03  0.00000000000E+00 0.  1.
          1    1    6    6  503    0  0.44406005762E+01 -0.33433648949E+02 -0.20807480162E+02  0.39629270069E+02  0.00000000000E+00 0. -1.
         -1    1    6    6    0  503  0.24608547262E+03 -0.12920999010E+03 -0.10751418171E+03  0.29801439671E+03  0.00000000000E+00 0.  1.
<mgrwt>
<rscale>  0 0.14198598E+04</rscale>
<asrwt>0</asrwt>
<pdfrwt beam="1">  1        2 0.12305590E+00 0.14198598E+04</pdfrwt>
<pdfrwt beam="2">  1       -1 0.96939727E-01 0.14198598E+04</pdfrwt>
<totfact> 0.39127607E+01</totfact>
</mgrwt>
</event>
<event>
12    7  0.1605494E-007  0.1606062E+04  0.7818608E-02  0.8816833E-01
          2   -1    0    0  501    0  0.00000000000E+00  0.00000000000E+00  0.24712831259E+04  0.24712831259E+04  0.00000000000E+00 0. -1.
         -1   -1    0    0    0  501 -0.00000000000E+00 -0.00000000000E+00 -0.26094080946E+03  0.26094080946E+03  0.00000000000E+00 0.  1.
         24    2    1    2    0    0 -0.48015335011E+03  0.25557021065E+03  0.64095700406E+03  0.84439983445E+03  0.79509918614E+02 0.  0.
        254    2    1    2    0    0  0.48015335011E+03 -0.25557021065E+03  0.15693853124E+04  0.18878241009E+04  0.89724367097E+03 0.  0.
         23    2    4    4    0    0  0.22320709435E+03 -0.57830464867E+03  0.96286978233E+03  0.11487468195E+04  0.90792973300E+02 0.  0.
         23    2    4    4    0    0  0.25694625576E+03  0.32273443802E+03  0.60651553007E+03  0.73907728141E+03  0.90527586085E+02 0.  0.
          4    1    3    3  502    0 -0.24901597009E+03  0.15682025731E+03  0.39653333100E+03  0.49380181152E+03  0.00000000000E+00 0. -1.
         -3    1    3    3    0  502 -0.23113738002E+03  0.98749953341E+02  0.24442367306E+03  0.35059802293E+03  0.00000000000E+00 0.  1.
         13    1    5    5    0    0  0.21589619294E+03 -0.54240543654E+03  0.85897786563E+03  0.10385845162E+04  0.00000000000E+00 0. -1.
        -13    1    5    5    0    0  0.73109014043E+01 -0.35899212133E+02  0.10389191670E+03  0.11016230329E+03  0.00000000000E+00 0.  1.
          1    1    6    6  503    0  0.26212859105E+03  0.30452491827E+03  0.56353474384E+03  0.69211143005E+03  0.00000000000E+00 0. -1.
         -1    1    6    6    0  503 -0.51823352903E+01  0.18209519754E+02  0.42980786228E+02  0.46965851355E+02  0.00000000000E+00 0.  1.
<mgrwt>
<rscale>  0 0.16060618E+04</rscale>
<asrwt>0</asrwt>
<pdfrwt beam="1">  1        2 0.38019739E+00 0.16060618E+04</pdfrwt>
<pdfrwt beam="2">  1       -1 0.40144742E-01 0.16060618E+04</pdfrwt>
<totfact> 0.23935365E+01</totfact>
</mgrwt>
</event>
<event>
12    7  0.1605494E-007  0.1919372E+04  0.7818608E-02  0.8645273E-01
         -1   -1    0    0    0  501 -0.00000000000E+00  0.00000000000E+00  0.10157663770E+04  0.10157663770E+04  0.00000000000E+00 0.  1.
          2   -1    0    0  501    0  0.00000000000E+00 -0.00000000000E+00 -0.90670207751E+03  0.90670207751E+03  0.00000000000E+00 0. -1.
         24    2    1    2    0    0  0.33184337962E+03 -0.64853187757E+03  0.36149205990E+02  0.73329913709E+03  0.75546241018E+02 0.  0.
        254    2    1    2    0    0 -0.33184337962E+03  0.64853187757E+03  0.72915093470E+02  0.11891693174E+04  0.93706639559E+03 0.  0.
         23    2    4    4    0    0 -0.33454667675E+03  0.10053421776E+03 -0.34023021139E+03  0.49611130685E+03  0.91330302646E+02 0.  0.
         23    2    4    4    0    0  0.27032971246E+01  0.54799765982E+03  0.41314530486E+03  0.69305801054E+03  0.96600310939E+02 0.  0.
          4    1    3    3  502    0  0.28076964402E+03 -0.56223417548E+03  0.56499747359E+02  0.63097629316E+03  0.00000000000E+00 0. -1.
         -3    1    3    3    0  502  0.51073735605E+02 -0.86297702090E+02 -0.20350541369E+02  0.10232284392E+03  0.00000000000E+00 0.  1.
         13    1    5    5    0    0 -0.17745713675E+03  0.90716046549E+02 -0.15139519319E+03  0.25028172328E+03  0.00000000000E+00 0. -1.
        -13    1    5    5    0    0 -0.15708953999E+03  0.98181712078E+01 -0.18883501820E+03  0.24582958357E+03  0.00000000000E+00 0.  1.
          1    1    6    6  503    0  0.33114531315E+02  0.37766725034E+03  0.32248721851E+03  0.49772194071E+03  0.00000000000E+00 0. -1.
         -1    1    6    6    0  503 -0.30411234190E+02  0.17033040947E+03  0.90658086347E+02  0.19533606983E+03  0.00000000000E+00 0.  1.
<mgrwt>
<rscale>  0 0.19193723E+04</rscale>
<asrwt>0</asrwt>
<pdfrwt beam="1">  1        2 0.13949263E+00 0.19193723E+04</pdfrwt>
<pdfrwt beam="2">  1       -1 0.15627175E+00 0.19193723E+04</pdfrwt>
<totfact> 0.96609188E+00</totfact>
</mgrwt>
</event>
<event>
12    7  0.1826075E-007  0.1749318E+04  0.7818608E-02  0.8733726E-01
         -1   -1    0    0    0  501 -0.00000000000E+00  0.00000000000E+00  0.61556013049E+03  0.61556013049E+03  0.00000000000E+00 0.  1.
          2   -1    0    0  501    0  0.00000000000E+00 -0.00000000000E+00 -0.12428164124E+04  0.12428164124E+04  0.00000000000E+00 0. -1.
         24    2    1    2    0    0 -0.24673682860E+02  0.46858467906E+03  0.24109880362E+03  0.53349626945E+03  0.79430751859E+02 0.  0.
        254    2    1    2    0    0  0.24673682860E+02 -0.46858467906E+03 -0.86835508555E+03  0.13248802735E+04  0.88379114748E+03 0.  0.
         23    2    4    4    0    0 -0.34241467709E+03 -0.48224844811E+03 -0.66831530470E+03  0.89700376655E+03  0.90327370815E+02 0.  0.
         23    2    4    4    0    0  0.36708835995E+03  0.13663769050E+02 -0.20003978085E+03  0.42787650693E+03  0.90121188765E+02 0.  0.
          2    1    3    3  502    0 -0.13740128661E+02  0.47082568195E+02  0.51713341229E+02  0.71272919293E+02  0.00000000000E+00 0. -1.
         -1    1    3    3    0  502 -0.10933554199E+02  0.42150211086E+03  0.18938546239E+03  0.46222335016E+03  0.00000000000E+00 0.  1.
         13    1    5    5    0    0 -0.12251107598E+02 -0.13118376039E+02 -0.52046472267E+02  0.55054670126E+02  0.00000000000E+00 0. -1.
        -13    1    5    5    0    0 -0.33016356949E+03 -0.46913007207E+03 -0.61626883243E+03  0.84194909642E+03  0.00000000000E+00 0.  1.
          3    1    6    6  503    0  0.10210602168E+03 -0.13723416952E+01 -0.12461240070E+02  0.10287276360E+03  0.00000000000E+00 0. -1.
         -3    1    6    6    0  503  0.26498233826E+03  0.15036110745E+02 -0.18757854078E+03  0.32500374333E+03  0.00000000000E+00 0.  1.
<mgrwt>
<rscale>  0 0.17493178E+04</rscale>
<asrwt>0</asrwt>
<pdfrwt beam="1">  1        2 0.19120252E+00 0.17493178E+04</pdfrwt>
<pdfrwt beam="2">  1       -1 0.94701560E-01 0.17493178E+04</pdfrwt>
<totfact> 0.20817752E+01</totfact>
</mgrwt>
</event>
<event>
12    7  0.1605494E-007  0.2320867E+04  0.7818608E-02  0.8469739E-01
         -1   -1    0    0    0  501 -0.00000000000E+00  0.00000000000E+00  0.30922837100E+03  0.30922837100E+03  0.00000000000E+00 0.  1.
          2   -1    0    0  501    0  0.00000000000E+00 -0.00000000000E+00 -0.43547304054E+04  0.43547304054E+04  0.00000000000E+00 0. -1.
         24    2    1    2    0    0 -0.90047926081E+03  0.19400955858E+03 -0.10244948702E+04  0.13800470553E+04  0.80234206536E+02 0.  0.
        254    2    1    2    0    0  0.90047926081E+03 -0.19400955858E+03 -0.30210071642E+04  0.32839117211E+04  0.89949391199E+03 0.  0.
         23    2    4    4    0    0  0.35178526428E+03  0.27207709066E+03 -0.18608359476E+04  0.19153000631E+04  0.88798042636E+02 0.  0.
         23    2    4    4    0    0  0.54869399652E+03 -0.46608664924E+03 -0.11601712166E+04  0.13686116580E+04  0.93801663796E+02 0.  0.
          4    1    3    3  502    0 -0.33923169540E+03  0.80966672486E+02 -0.44568143466E+03  0.56592021206E+03  0.00000000000E+00 0. -1.
         -3    1    3    3    0  502 -0.56124756541E+03  0.11304288609E+03 -0.57881343553E+03  0.81412684326E+03  0.00000000000E+00 0.  1.
         13    1    5    5    0    0  0.14787759842E+03  0.71575307441E+02 -0.79267265629E+03  0.80951883782E+03  0.00000000000E+00 0.  1.
        -13    1    5    5    0    0  0.20390766586E+03  0.20050178322E+03 -0.10681632913E+04  0.11057812252E+04  0.00000000000E+00 0. -1.
          4    1    6    6  503    0  0.39840944646E+03 -0.38598437928E+03 -0.85638740950E+03  0.10203496573E+04  0.00000000000E+00 0. -1.
         -4    1    6    6    0  503  0.15028455006E+03 -0.80102269962E+02 -0.30378380714E+03  0.34826200069E+03  0.00000000000E+00 0.  1.
<mgrwt>
<rscale>  0 0.23208672E+04</rscale>
<asrwt>0</asrwt>
<pdfrwt beam="1">  1        2 0.66995846E+00 0.23208672E+04</pdfrwt>
<pdfrwt beam="2">  1       -1 0.47573600E-01 0.23208672E+04</pdfrwt>
<totfact> 0.77428624E-01</totfact>
</mgrwt>
</event>
<event>
12    7  0.1605494E-007  0.1058240E+04  0.7818608E-02  0.9246878E-01
          2   -1    0    0  501    0  0.00000000000E+00  0.00000000000E+00  0.16644661568E+04  0.16644661568E+04  0.00000000000E+00 0. -1.
         -1   -1    0    0    0  501 -0.00000000000E+00 -0.00000000000E+00 -0.16820271305E+03  0.16820271305E+03  0.00000000000E+00 0.  1.
         24    2    1    2    0    0 -0.10571277227E+03 -0.65312243391E+02  0.12232222764E+03  0.19230455809E+03  0.81101395375E+02 0.  0.
        254    2    1    2    0    0  0.10571277227E+03  0.65312243391E+02  0.13739412162E+04  0.16403643118E+04  0.88749069326E+03 0.  0.
         23    2    4    4    0    0  0.34524913991E+03  0.23506082052E+03  0.12284187327E+04  0.13010543933E+04  0.96329609246E+02 0.  0.
         23    2    4    4    0    0 -0.23953636764E+03 -0.16974857713E+03  0.14552248351E+03  0.33930991851E+03  0.88103216376E+02 0.  0.
          4    1    3    3  502    0 -0.26013252103E+02 -0.63504252637E+02  0.54362547452E+02  0.87548649067E+02  0.00000000000E+00 0. -1.
         -3    1    3    3    0  502 -0.79699520165E+02 -0.18079907548E+01  0.67959680184E+02  0.10475590903E+03  0.00000000000E+00 0.  1.
         13    1    5    5    0    0  0.22606890912E+03  0.16833318498E+03  0.95008854931E+03  0.99101537040E+03  0.00000000000E+00 0.  1.
        -13    1    5    5    0    0  0.11918023079E+03  0.66727635545E+02  0.27833018334E+03  0.31003902289E+03  0.00000000000E+00 0. -1.
          3    1    6    6  503    0 -0.78166029017E+02 -0.99448899638E+02  0.88153100471E+02  0.15417840593E+03  0.00000000000E+00 0. -1.
         -3    1    6    6    0  503 -0.16137033862E+03 -0.70299677492E+02  0.57369383038E+02  0.18513151259E+03  0.00000000000E+00 0.  1.
<mgrwt>
<rscale>  0 0.10582395E+04</rscale>
<asrwt>0</asrwt>
<pdfrwt beam="1">  1        2 0.25607171E+00 0.10582395E+04</pdfrwt>
<pdfrwt beam="2">  1       -1 0.25877342E-01 0.10582395E+04</pdfrwt>
<totfact> 0.15360924E+02</totfact>
</mgrwt>
</event>
<event>
12    7  0.1605494E-007  0.1532213E+04  0.7818608E-02  0.8863310E-01
          2   -1    0    0  501    0  0.00000000000E+00  0.00000000000E+00  0.35207990994E+04  0.35207990994E+04  0.00000000000E+00 0. -1.
         -1   -1    0    0    0  501 -0.00000000000E+00 -0.00000000000E+00 -0.16670064958E+03  0.16670064958E+03  0.00000000000E+00 0.  1.
         24    2    1    2    0    0  0.31853015202E+03 -0.33197027869E+03  0.59079785156E+03  0.75314664990E+03  0.80759217260E+02 0.  0.
        254    2    1    2    0    0 -0.31853015202E+03  0.33197027869E+03  0.27633005982E+04  0.29343530991E+04  0.87345989606E+03 0.  0.
         23    2    4    4    0    0  0.82231206738E+02  0.26875320402E+03  0.22734350452E+04  0.22924369711E+04  0.88148202855E+02 0.  0.
         23    2    4    4    0    0 -0.40076135876E+03  0.63217074671E+02  0.48986555301E+03  0.64191612794E+03  0.86498497515E+02 0.  0.
          2    1    3    3  502    0  0.42539521035E+02 -0.75614099579E+02  0.15040277142E+03  0.17363207237E+03  0.00000000000E+00 0. -1.
         -1    1    3    3    0  502  0.27599063098E+03 -0.25635617911E+03  0.44039508014E+03  0.57951457753E+03  0.00000000000E+00 0.  1.
         13    1    5    5    0    0  0.81048356637E+02  0.25995921165E+03  0.22599429501E+04  0.22762885945E+04  0.00000000000E+00 0.  1.
        -13    1    5    5    0    0  0.11828501006E+01  0.87939923705E+01  0.13492095170E+02  0.16148376644E+02  0.00000000000E+00 0. -1.
          4    1    6    6  503    0 -0.24560521527E+03  0.44406592493E+02  0.36345909378E+03  0.44090404860E+03  0.00000000000E+00 0. -1.
         -4    1    6    6    0  503 -0.15515614348E+03  0.18810482178E+02  0.12640645924E+03  0.20101207933E+03  0.00000000000E+00 0.  1.
<mgrwt>
<rscale>  0 0.15322134E+04</rscale>
<asrwt>0</asrwt>
<pdfrwt beam="1">  1        2 0.54166134E+00 0.15322134E+04</pdfrwt>
<pdfrwt beam="2">  1       -1 0.25646256E-01 0.15322134E+04</pdfrwt>
<totfact> 0.11725099E+01</totfact>
</mgrwt>
</event>
<event>
12    7  0.1605494E-007  0.1492966E+04  0.7818608E-02  0.8889144E-01
         -1   -1    0    0    0  501 -0.00000000000E+00  0.00000000000E+00  0.33448155175E+03  0.33448155175E+03  0.00000000000E+00 0.  1.
          2   -1    0    0  501    0  0.00000000000E+00 -0.00000000000E+00 -0.16659723761E+04  0.16659723761E+04  0.00000000000E+00 0. -1.
         24    2    1    2    0    0 -0.28770702882E+03 -0.11966642792E+02  0.73316619557E+02  0.30785231100E+03  0.80493376816E+02 0.  0.
        254    2    1    2    0    0  0.28770702882E+03  0.11966642792E+02 -0.14048074439E+04  0.16926016168E+04  0.89916502597E+03 0.  0.
         23    2    4    4    0    0 -0.28253414326E+02 -0.54129964466E+02  0.10260126075E+03  0.14821217623E+03  0.87815272017E+02 0.  0.
         23    2    4    4    0    0  0.31596044314E+03  0.66096607258E+02 -0.15074087046E+04  0.15443894406E+04  0.93048258016E+02 0.  0.
          4    1    3    3  502    0 -0.44983269086E+01 -0.96520893386E+01 -0.78539864506E+01  0.13231888631E+02  0.00000000000E+00 0. -1.
         -3    1    3    3    0  502 -0.28320870191E+03 -0.23145534537E+01  0.81170606007E+02  0.29462042237E+03  0.00000000000E+00 0.  1.
         13    1    5    5    0    0 -0.53993594592E+02 -0.13384538980E+02  0.36995348934E+02  0.66806511535E+02  0.00000000000E+00 0. -1.
        -13    1    5    5    0    0  0.25740180267E+02 -0.40745425486E+02  0.65605911819E+02  0.81405664690E+02  0.00000000000E+00 0.  1.
          1    1    6    6  503    0  0.52291852893E+01 -0.10149359501E+02 -0.20670719564E+02  0.23614244099E+02  0.00000000000E+00 0. -1.
         -1    1    6    6    0  503  0.31073125786E+03  0.76245966759E+02 -0.14867379851E+04  0.15207751965E+04  0.00000000000E+00 0.  1.
<mgrwt>
<rscale>  0 0.14929662E+04</rscale>
<asrwt>0</asrwt>
<pdfrwt beam="1">  1        2 0.25630345E+00 0.14929662E+04</pdfrwt>
<pdfrwt beam="2">  1       -1 0.51458700E-01 0.14929662E+04</pdfrwt>
<totfact> 0.42861899E+01</totfact>
</mgrwt>
</event>
<event>
12    7  0.1605494E-007  0.1857988E+04  0.7818608E-02  0.8676056E-01
          2   -1    0    0  501    0  0.00000000000E+00  0.00000000000E+00  0.32609345853E+04  0.32609345853E+04  0.00000000000E+00 0. -1.
         -1   -1    0    0    0  501 -0.00000000000E+00 -0.00000000000E+00 -0.26465728209E+03  0.26465728209E+03  0.00000000000E+00 0.  1.
         24    2    1    2    0    0  0.38551220442E+03  0.58281375553E+03  0.13547562913E+04  0.15262625192E+04  0.76296365077E+02 0.  0.
        254    2    1    2    0    0 -0.38551220442E+03 -0.58281375553E+03  0.16415210119E+04  0.19993293482E+04  0.90246056788E+03 0.  0.
         23    2    4    4    0    0  0.16831036232E+02 -0.69099346628E+03  0.11808306368E+04  0.13714020774E+04  0.92883856220E+02 0.  0.
         23    2    4    4    0    0 -0.40234324065E+03  0.10817971075E+03  0.46069037508E+03  0.62792727081E+03  0.92054889136E+02 0.  0.
          2    1    3    3  502    0  0.21976722303E+03  0.33226600850E+03  0.68919772744E+03  0.79604763691E+03  0.00000000000E+00 0. -1.
         -1    1    3    3    0  502  0.16574498139E+03  0.25054774703E+03  0.66555856387E+03  0.73021488230E+03  0.00000000000E+00 0.  1.
         13    1    5    5    0    0  0.32541131595E+02 -0.92976084604E+02  0.18891714017E+03  0.21305671406E+03  0.00000000000E+00 0.  1.
        -13    1    5    5    0    0 -0.15710095363E+02 -0.59801738168E+03  0.99191349663E+03  0.11583453633E+04  0.00000000000E+00 0. -1.
          4    1    6    6  503    0 -0.37962686810E+03  0.12245695901E+03  0.44106502116E+03  0.59468531063E+03  0.00000000000E+00 0. -1.
         -4    1    6    6    0  503 -0.22716372551E+02 -0.14277248256E+02  0.19625353927E+02  0.33241960177E+02  0.00000000000E+00 0.  1.
<mgrwt>
<rscale>  0 0.18579883E+04</rscale>
<asrwt>0</asrwt>
<pdfrwt beam="1">  1        2 0.50168221E+00 0.18579883E+04</pdfrwt>
<pdfrwt beam="2">  1       -1 0.40716507E-01 0.18579883E+04</pdfrwt>
<totfact> 0.74969479E+00</totfact>
</mgrwt>
</event>
<event>
12    7  0.1605494E-007  0.1391799E+04  0.7818608E-02  0.8959777E-01
          2   -1    0    0  501    0  0.00000000000E+00  0.00000000000E+00  0.73151581495E+03  0.73151581495E+03  0.00000000000E+00 0. -1.
         -1   -1    0    0    0  501 -0.00000000000E+00 -0.00000000000E+00 -0.66201695366E+03  0.66201695366E+03  0.00000000000E+00 0.  1.
         24    2    1    2    0    0  0.16805604485E+03 -0.36157494675E+03  0.31571110515E+02  0.40753767967E+03  0.78172559143E+02 0.  0.
        254    2    1    2    0    0 -0.16805604485E+03  0.36157494675E+03  0.37927750768E+02  0.98599508894E+03  0.90098197807E+03 0.  0.
         23    2    4    4    0    0  0.22754462561E+03 -0.10743685126E+03  0.21313372048E+03  0.34125545020E+03  0.87806980563E+02 0.  0.
         23    2    4    4    0    0 -0.39560067046E+03  0.46901179800E+03 -0.17520596971E+03  0.64473963874E+03  0.92304457135E+02 0.  0.
          4    1    3    3  502    0  0.15484967750E+03 -0.32605942777E+03  0.45353733918E+01  0.36098994816E+03  0.00000000000E+00 0. -1.
         -3    1    3    3    0  502  0.13206367350E+02 -0.35515518980E+02  0.27035737123E+02  0.46547731511E+02  0.00000000000E+00 0.  1.
         13    1    5    5    0    0  0.17140585096E+02 -0.40152381763E+02  0.51620106341E+02  0.67606573625E+02  0.00000000000E+00 0. -1.
        -13    1    5    5    0    0  0.21040404052E+03 -0.67284469493E+02  0.16151361414E+03  0.27364887658E+03  0.00000000000E+00 0.  1.
          2    1    6    6  503    0 -0.23246482759E+03  0.34183931597E+03 -0.12513456866E+03  0.43191743919E+03  0.00000000000E+00 0. -1.
         -2    1    6    6    0  503 -0.16313584287E+03  0.12717248204E+03 -0.50071401049E+02  0.21282219955E+03  0.00000000000E+00 0.  1.
<mgrwt>
<rscale>  0 0.13917987E+04</rscale>
<asrwt>0</asrwt>
<pdfrwt beam="1">  1        2 0.11254089E+00 0.13917987E+04</pdfrwt>
<pdfrwt beam="2">  1       -1 0.10184876E+00 0.13917987E+04</pdfrwt>
<totfact> 0.39379255E+01</totfact>
</mgrwt>
</event>
<event>
12    7  0.1878682E-007  0.1840595E+04  0.7818608E-02  0.8685005E-01
          2   -1    0    0  501    0  0.00000000000E+00  0.00000000000E+00  0.23918322632E+04  0.23918322632E+04  0.00000000000E+00 0. -1.
         -1   -1    0    0    0  501 -0.00000000000E+00 -0.00000000000E+00 -0.35409969700E+03  0.35409969700E+03  0.00000000000E+00 0.  1.
         24    2    1    2    0    0 -0.26418959717E+03 -0.46429873037E+03  0.14091726135E+04  0.15092135390E+04  0.81170176162E+02 0.  0.
        254    2    1    2    0    0  0.26418959717E+03  0.46429873037E+03  0.62855995270E+03  0.12367184212E+04  0.92142030847E+03 0.  0.
         23    2    4    4    0    0  0.17471300591E+03  0.18466388691E+03 -0.21131347053E+03  0.34220076973E+03  0.88445454447E+02 0.  0.
         23    2    4    4    0    0  0.89476591258E+02  0.27963484345E+03  0.83987342323E+03  0.89451765144E+03  0.92589176610E+02 0.  0.
          2    1    3    3  502    0 -0.23645543418E+03 -0.44623498771E+03  0.12841327102E+04  0.13798672595E+04  0.00000000000E+00 0. -1.
         -1    1    3    3    0  502 -0.27734162993E+02 -0.18063742653E+02  0.12503990334E+03  0.12934627951E+03  0.00000000000E+00 0.  1.
         13    1    5    5    0    0  0.10586717954E+03  0.51585521354E+02 -0.11142589966E+03  0.16212543549E+03  0.00000000000E+00 0. -1.
        -13    1    5    5    0    0  0.68845826377E+02  0.13307836556E+03 -0.99887570872E+02  0.18007533425E+03  0.00000000000E+00 0.  1.
          3    1    6    6  503    0  0.31502615813E+02  0.15042723109E+03  0.30944764849E+03  0.34551210371E+03  0.00000000000E+00 0. -1.
         -3    1    6    6    0  503  0.57973975445E+02  0.12920761236E+03  0.53042577474E+03  0.54900554773E+03  0.00000000000E+00 0.  1.
<mgrwt>
<rscale>  0 0.18405946E+04</rscale>
<asrwt>0</asrwt>
<pdfrwt beam="1">  1        2 0.36797418E+00 0.18405946E+04</pdfrwt>
<pdfrwt beam="2">  1       -1 0.54476878E-01 0.18405946E+04</pdfrwt>
<totfact> 0.14664542E+01</totfact>
</mgrwt>
</event>
<event>
12    7  0.1605494E-007  0.2304150E+04  0.7818608E-02  0.8476287E-01
         -1   -1    0    0    0  501 -0.00000000000E+00  0.00000000000E+00  0.28685062224E+03  0.28685062224E+03  0.00000000000E+00 0.  1.
          2   -1    0    0  501    0  0.00000000000E+00 -0.00000000000E+00 -0.46270665751E+04  0.46270665751E+04  0.00000000000E+00 0. -1.
         24    2    1    2    0    0  0.31804502242E+03 -0.85967240529E+03 -0.11781109602E+04  0.14947561054E+04  0.78492670579E+02 0.  0.
        254    2    1    2    0    0 -0.31804502242E+03  0.85967240529E+03 -0.31621049926E+04  0.34191610919E+04  0.92280296243E+03 0.  0.
         23    2    4    4    0    0  0.22134603202E+02  0.90532277170E+03 -0.18884685164E+04  0.20963489628E+04  0.90919605075E+02 0.  0.
         23    2    4    4    0    0 -0.34017962563E+03 -0.45650366409E+02 -0.12736364762E+04  0.13228121291E+04  0.99377672988E+02 0.  0.
          2    1    3    3  502    0  0.28693489590E+03 -0.82208121912E+03 -0.11044438941E+04  0.14063944968E+04  0.00000000000E+00 0. -1.
         -1    1    3    3    0  502  0.31110126520E+02 -0.37591186167E+02 -0.73667066114E+02  0.88361608628E+02  0.00000000000E+00 0.  1.
         13    1    5    5    0    0  0.30874358802E+02  0.14954413708E+03 -0.36642404220E+03  0.39696757256E+03  0.00000000000E+00 0. -1.
        -13    1    5    5    0    0 -0.87397556000E+01  0.75577863462E+03 -0.15220444742E+04  0.16993813902E+04  0.00000000000E+00 0.  1.
          3    1    6    6  503    0 -0.11935218835E+03  0.31323495931E+02 -0.42720971902E+03  0.44467319493E+03  0.00000000000E+00 0. -1.
         -3    1    6    6    0  503 -0.22082743728E+03 -0.76973862340E+02 -0.84642675716E+03  0.87813893421E+03  0.00000000000E+00 0.  1.
<mgrwt>
<rscale>  0 0.23041501E+04</rscale>
<asrwt>0</asrwt>
<pdfrwt beam="1">  1        2 0.71185639E+00 0.23041501E+04</pdfrwt>
<pdfrwt beam="2">  1       -1 0.44130865E-01 0.23041501E+04</pdfrwt>
<totfact> 0.48508300E-01</totfact>
</mgrwt>
</event>
<event>
12    7  0.1605494E-007  0.1873427E+04  0.7818608E-02  0.8668198E-01
         -1   -1    0    0    0  501 -0.00000000000E+00  0.00000000000E+00  0.15471588537E+04  0.15471588537E+04  0.00000000000E+00 0.  1.
          2   -1    0    0  501    0  0.00000000000E+00 -0.00000000000E+00 -0.56712499595E+03  0.56712499595E+03  0.00000000000E+00 0. -1.
         24    2    1    2    0    0  0.89147247428E+02  0.48623374568E+03  0.97933713118E+03  0.11000564873E+04  0.81563298465E+02 0.  0.
        254    2    1    2    0    0 -0.89147247428E+02 -0.48623374568E+03  0.69672659669E+00  0.10142273623E+04  0.88559932809E+03 0.  0.
         23    2    4    4    0    0  0.16494860294E+03 -0.47841436215E+03  0.31268254971E+03  0.60152781571E+03  0.89314011540E+02 0.  0.
         23    2    4    4    0    0 -0.25409585036E+03 -0.78193835349E+01 -0.31198582311E+03  0.41269954663E+03  0.91432587366E+02 0.  0.
          4    1    3    3  502    0  0.70094270346E+02  0.19125794865E+03  0.35522722291E+03  0.40948649496E+03  0.00000000000E+00 0. -1.
         -3    1    3    3    0  502  0.19052977083E+02  0.29497579703E+03  0.62410990827E+03  0.69056999238E+03  0.00000000000E+00 0.  1.
         13    1    5    5    0    0  0.37972420261E+02 -0.62010859847E+02  0.15268457760E+02  0.74299241192E+02  0.00000000000E+00 0.  1.
        -13    1    5    5    0    0  0.12697618267E+03 -0.41640350230E+03  0.29741409195E+03  0.52722857451E+03  0.00000000000E+00 0. -1.
          2    1    6    6  503    0 -0.19276257285E+03  0.34247213453E+02 -0.22714476033E+03  0.29987501274E+03  0.00000000000E+00 0. -1.
         -2    1    6    6    0  503 -0.61333277518E+02 -0.42066596988E+02 -0.84841062785E+02  0.11282453389E+03  0.00000000000E+00 0.  1.
<mgrwt>
<rscale>  0 0.18734273E+04</rscale>
<asrwt>0</asrwt>
<pdfrwt beam="1">  1        2 0.87250000E-01 0.18734273E+04</pdfrwt>
<pdfrwt beam="2">  1       -1 0.23802444E+00 0.18734273E+04</pdfrwt>
<totfact> 0.47533816E+00</totfact>
</mgrwt>
</event>
<event>
12    7  0.1605494E-007  0.2816314E+04  0.7818608E-02  0.8298221E-01
          2   -1    0    0  501    0  0.00000000000E+00  0.00000000000E+00  0.30869164074E+04  0.30869164074E+04  0.00000000000E+00 0. -1.
         -1   -1    0    0    0  501 -0.00000000000E+00 -0.00000000000E+00 -0.64235824715E+03  0.64235824715E+03  0.00000000000E+00 0.  1.
         24    2    1    2    0    0  0.26861909086E+03 -0.11096776609E+04  0.37548897846E+03  0.12044159094E+04  0.78006300025E+02 0.  0.
        254    2    1    2    0    0 -0.26861909086E+03  0.11096776609E+04  0.20690691818E+04  0.25248587452E+04  0.88900150553E+03 0.  0.
         23    2    4    4    0    0  0.77174799767E+02  0.47939819459E+03  0.15680892711E+04  0.16440135638E+04  0.89989205677E+02 0.  0.
         23    2    4    4    0    0 -0.34579389063E+03  0.63027946630E+03  0.50097991070E+03  0.88084518134E+03  0.89898510168E+02 0.  0.
          4    1    3    3  502    0  0.16890537475E+03 -0.73092126307E+03  0.20832425471E+03  0.77857171380E+03  0.00000000000E+00 0. -1.
         -3    1    3    3    0  502  0.99713716106E+02 -0.37875639782E+03  0.16716472375E+03  0.42584419561E+03  0.00000000000E+00 0.  1.
         13    1    5    5    0    0 -0.16587525189E+00  0.55954370918E+02  0.29106129029E+03  0.29639094764E+03  0.00000000000E+00 0. -1.
        -13    1    5    5    0    0  0.77340675019E+02  0.42344382367E+03  0.12770279808E+04  0.13476226162E+04  0.00000000000E+00 0.  1.
          1    1    6    6  503    0 -0.27256003948E+03  0.40999837752E+03  0.33609937696E+03  0.59611277111E+03  0.00000000000E+00 0.  1.
         -1    1    6    6    0  503 -0.73233851149E+02  0.22028108878E+03  0.16488053374E+03  0.28473241023E+03  0.00000000000E+00 0. -1.
<mgrwt>
<rscale>  0 0.28163141E+04</rscale>
<asrwt>0</asrwt>
<pdfrwt beam="1">  1        2 0.47491021E+00 0.28163141E+04</pdfrwt>
<pdfrwt beam="2">  1       -1 0.98824347E-01 0.28163141E+04</pdfrwt>
<totfact> 0.14829861E+00</totfact>
</mgrwt>
</event>
<event>
12    7  0.1605494E-007  0.1547869E+04  0.7818608E-02  0.8853230E-01
          2   -1    0    0  501    0  0.00000000000E+00  0.00000000000E+00  0.68176847186E+03  0.68176847186E+03  0.00000000000E+00 0. -1.
         -1   -1    0    0    0  501 -0.00000000000E+00 -0.00000000000E+00 -0.87856060507E+03  0.87856060507E+03  0.00000000000E+00 0.  1.
         24    2    1    2    0    0  0.17329035079E+03  0.12056743150E+03  0.40634535261E+03  0.46469704401E+03  0.79124875380E+02 0.  0.
        254    2    1    2    0    0 -0.17329035079E+03 -0.12056743150E+03 -0.60313748582E+03  0.10956320329E+04  0.88998240070E+03 0.  0.
         23    2    4    4    0    0  0.60810567696E+02  0.24886117527E+03  0.75728781856E+02  0.28264334810E+03  0.92317951255E+02 0.  0.
         23    2    4    4    0    0 -0.23410091849E+03 -0.36942860677E+03 -0.67886626768E+03  0.81298868483E+03  0.93864033169E+02 0.  0.
          2    1    3    3  502    0  0.81319781055E+02  0.60676976464E+02  0.27736986991E+03  0.29534496271E+03  0.00000000000E+00 0. -1.
         -1    1    3    3    0  502  0.91970569738E+02  0.59890455033E+02  0.12897548270E+03  0.16935208130E+03  0.00000000000E+00 0.  1.
         13    1    5    5    0    0  0.74094581381E+02  0.20262704039E+03  0.32915064066E+02  0.21824556337E+03  0.00000000000E+00 0. -1.
        -13    1    5    5    0    0 -0.13284013685E+02  0.46234134886E+02  0.42813717790E+02  0.64397784739E+02  0.00000000000E+00 0.  1.
          1    1    6    6  503    0 -0.17360767614E+03 -0.19992499897E+03 -0.36079133977E+03  0.44752655930E+03  0.00000000000E+00 0. -1.
         -1    1    6    6    0  503 -0.60493242351E+02 -0.16950360780E+03 -0.31807492791E+03  0.36546212553E+03  0.00000000000E+00 0.  1.
<mgrwt>
<rscale>  0 0.15478694E+04</rscale>
<asrwt>0</asrwt>
<pdfrwt beam="1">  1        2 0.10488746E+00 0.15478694E+04</pdfrwt>
<pdfrwt beam="2">  1       -1 0.13516317E+00 0.15478694E+04</pdfrwt>
<totfact> 0.21395509E+01</totfact>
</mgrwt>
</event>
<event>
12    7  0.1605494E-007  0.1185009E+04  0.7818608E-02  0.9126081E-01
          2   -1    0    0  501    0  0.00000000000E+00  0.00000000000E+00  0.20049748000E+04  0.20049748000E+04  0.00000000000E+00 0. -1.
         -1   -1    0    0    0  501 -0.00000000000E+00 -0.00000000000E+00 -0.17509512983E+03  0.17509512983E+03  0.00000000000E+00 0.  1.
         24    2    1    2    0    0 -0.13968034068E+03 -0.85708163501E+01  0.35889834505E+02  0.16474410189E+03  0.79173748307E+02 0.  0.
        254    2    1    2    0    0  0.13968034068E+03  0.85708163501E+01  0.17939898357E+04  0.20153258280E+04  0.90749909412E+03 0.  0.
         23    2    4    4    0    0  0.36432135727E+03 -0.79487822291E+02  0.16965604786E+04  0.17394906783E+04  0.91989114928E+02 0.  0.
         23    2    4    4    0    0 -0.22464101659E+03  0.88058638641E+02  0.97429357096E+02  0.27583514962E+03  0.91513058999E+02 0.  0.
          4    1    3    3  502    0 -0.16837946499E+02  0.28874621290E+01 -0.22498567280E+02  0.28249591316E+02  0.00000000000E+00 0. -1.
         -3    1    3    3    0  502 -0.12284239418E+03 -0.11458278479E+02  0.58388401784E+02  0.13649451057E+03  0.00000000000E+00 0.  1.
         13    1    5    5    0    0  0.35554170713E+03 -0.70406556741E+02  0.15255608401E+04  0.15680251483E+04  0.00000000000E+00 0.  1.
        -13    1    5    5    0    0  0.87796501339E+01 -0.90812655499E+01  0.17099963848E+03  0.17146553007E+03  0.00000000000E+00 0. -1.
          2    1    6    6  503    0 -0.13625644006E+03  0.70985423630E+02  0.10407711362E+03  0.18557153177E+03  0.00000000000E+00 0.  1.
         -2    1    6    6    0  503 -0.88384576533E+02  0.17073215010E+02 -0.66477565255E+01  0.90263617846E+02  0.00000000000E+00 0. -1.
<mgrwt>
<rscale>  0 0.11850086E+04</rscale>
<asrwt>0</asrwt>
<pdfrwt beam="1">  1        2 0.30845765E+00 0.11850086E+04</pdfrwt>
<pdfrwt beam="2">  1       -1 0.26937714E-01 0.11850086E+04</pdfrwt>
<totfact> 0.92117296E+01</totfact>
</mgrwt>
</event>
<event>
12    7  0.1605494E-007  0.2325885E+04  0.7818608E-02  0.8467784E-01
          2   -1    0    0  501    0  0.00000000000E+00  0.00000000000E+00  0.42300203415E+04  0.42300203415E+04  0.00000000000E+00 0. -1.
         -1   -1    0    0    0  501 -0.00000000000E+00 -0.00000000000E+00 -0.31972319357E+03  0.31972319357E+03  0.00000000000E+00 0.  1.
         24    2    1    2    0    0  0.98621592950E+02  0.45225479313E+03 -0.40512186165E+02  0.47053818725E+03  0.74191184983E+02 0.  0.
        254    2    1    2    0    0 -0.98621592950E+02 -0.45225479313E+03  0.39508093341E+04  0.40792053478E+04  0.90374844884E+03 0.  0.
         23    2    4    4    0    0 -0.78632783336E+01 -0.51968212733E+03  0.10537329528E+04  0.11785347056E+04  0.91975931839E+02 0.  0.
         23    2    4    4    0    0 -0.90758314616E+02  0.67427334195E+02  0.28970763813E+04  0.29006706421E+04  0.89750198256E+02 0.  0.
          4    1    3    3  502    0  0.71436972741E+02  0.15979291947E+03 -0.17870574913E+02  0.17594424013E+03  0.00000000000E+00 0. -1.
         -3    1    3    3    0  502  0.27184620209E+02  0.29246187366E+03 -0.22641611252E+02  0.29459394712E+03  0.00000000000E+00 0.  1.
         13    1    5    5    0    0  0.19628184423E+02 -0.78045455612E+02  0.11082527942E+03  0.13696204337E+03  0.00000000000E+00 0. -1.
        -13    1    5    5    0    0 -0.27491462757E+02 -0.44163667171E+03  0.94290767336E+03  0.10415726623E+04  0.00000000000E+00 0.  1.
          4    1    6    6  503    0 -0.50373904302E+02 -0.10381728114E+02  0.72274455122E+03  0.72457228544E+03  0.00000000000E+00 0. -1.
         -4    1    6    6    0  503 -0.40384410314E+02  0.77809062309E+02  0.21743318301E+04  0.21760983567E+04  0.00000000000E+00 0.  1.
<mgrwt>
<rscale>  0 0.23258853E+04</rscale>
<asrwt>0</asrwt>
<pdfrwt beam="1">  1        2 0.65077232E+00 0.23258853E+04</pdfrwt>
<pdfrwt beam="2">  1       -1 0.49188187E-01 0.23258853E+04</pdfrwt>
<totfact> 0.93962879E-01</totfact>
</mgrwt>
</event>
<event>
12    7  0.1605494E-007  0.1472443E+04  0.7818608E-02  0.8902987E-01
         -1   -1    0    0    0  501 -0.00000000000E+00  0.00000000000E+00  0.36443481461E+03  0.36443481461E+03  0.00000000000E+00 0.  1.
          2   -1    0    0  501    0  0.00000000000E+00 -0.00000000000E+00 -0.14872959789E+04  0.14872959789E+04  0.00000000000E+00 0. -1.
         24    2    1    2    0    0  0.34701345419E+03  0.29879915054E+03 -0.39395680823E+03  0.60956023417E+03  0.81623786859E+02 0.  0.
        254    2    1    2    0    0 -0.34701345419E+03 -0.29879915054E+03 -0.72890435605E+03  0.12421705593E+04  0.89553719547E+03 0.  0.
         23    2    4    4    0    0  0.48482518071E+02 -0.46785571639E+03 -0.12552182032E+03  0.49520757112E+03  0.90748472190E+02 0.  0.
         23    2    4    4    0    0 -0.39549597226E+03  0.16905656585E+03 -0.60338253574E+03  0.74696298822E+03  0.94265766873E+02 0.  0.
          4    1    3    3  502    0  0.15545015578E+02  0.18710353138E+02 -0.50777381481E+02  0.56303350646E+02  0.00000000000E+00 0. -1.
         -3    1    3    3    0  502  0.33146843861E+03  0.28008879740E+03 -0.34317942675E+03  0.55325688352E+03  0.00000000000E+00 0.  1.
         13    1    5    5    0    0  0.40148402514E+02 -0.86540548101E+02 -0.63246553053E+01  0.95609423986E+02  0.00000000000E+00 0.  1.
        -13    1    5    5    0    0  0.83341155566E+01 -0.38131516828E+03 -0.11919716501E+03  0.39959814713E+03  0.00000000000E+00 0. -1.
          1    1    6    6  503    0  0.18153541248E+01  0.12686419073E+02 -0.24492289133E+02  0.27642593338E+02  0.00000000000E+00 0. -1.
         -1    1    6    6    0  503 -0.39731132638E+03  0.15637014678E+03 -0.57889024661E+03  0.71932039488E+03  0.00000000000E+00 0.  1.
<mgrwt>
<rscale>  0 0.14724435E+04</rscale>
<asrwt>0</asrwt>
<pdfrwt beam="1">  1        2 0.22881477E+00 0.14724435E+04</pdfrwt>
<pdfrwt beam="2">  1       -1 0.56066895E-01 0.14724435E+04</pdfrwt>
<totfact> 0.45820659E+01</totfact>
</mgrwt>
</event>
<event>
12    7  0.1605494E-007  0.1106895E+04  0.7818608E-02  0.9198498E-01
          2   -1    0    0  501    0  0.00000000000E+00  0.00000000000E+00  0.97310641546E+03  0.97310641546E+03  0.00000000000E+00 0. -1.
         -1   -1    0    0    0  501 -0.00000000000E+00 -0.00000000000E+00 -0.31476937545E+03  0.31476937545E+03  0.00000000000E+00 0.  1.
         24    2    1    2    0    0  0.14775314640E+03 -0.63151956255E+02  0.36985135430E+02  0.18320473861E+03  0.79855583131E+02 0.  0.
        254    2    1    2    0    0 -0.14775314640E+03  0.63151956255E+02  0.62135190458E+03  0.11046710523E+04  0.89911110694E+03 0.  0.
         23    2    4    4    0    0  0.15039010480E+03 -0.23565369004E+03  0.60540350733E+03  0.67349860513E+03  0.94536337793E+02 0.  0.
         23    2    4    4    0    0 -0.29814325120E+03  0.29880564629E+03  0.15948397243E+02  0.43117244717E+03  0.86493440990E+02 0.  0.
          2    1    3    3  502    0  0.12017429444E+03 -0.63100548586E+02  0.58916610288E+02  0.14796860223E+03  0.00000000000E+00 0. -1.
         -3    1    3    3    0  502  0.27578851953E+02 -0.51407669395E-01 -0.21931474858E+02  0.35236136384E+02  0.00000000000E+00 0.  1.
         13    1    5    5    0    0  0.92710061964E+02 -0.20968550183E+03  0.50824666548E+03  0.55756420100E+03  0.00000000000E+00 0. -1.
        -13    1    5    5    0    0  0.57680042840E+02 -0.25968188210E+02  0.97156841857E+02  0.11593440413E+03  0.00000000000E+00 0.  1.
          3    1    6    6  503    0 -0.30426381501E+03  0.29277582465E+03  0.14842493893E+02  0.42250970669E+03  0.00000000000E+00 0. -1.
         -3    1    6    6    0  503  0.61205638114E+01  0.60298216407E+01  0.11059033503E+01  0.86627404791E+01  0.00000000000E+00 0.  1.
<mgrwt>
<rscale>  0 0.11068949E+04</rscale>
<asrwt>0</asrwt>
<pdfrwt beam="1">  1        2 0.14970868E+00 0.11068949E+04</pdfrwt>
<pdfrwt beam="2">  1       -1 0.48426058E-01 0.11068949E+04</pdfrwt>
<totfact> 0.12655269E+02</totfact>
</mgrwt>
</event>
<event>
12    7  0.1605494E-007  0.2456003E+04  0.7818608E-02  0.8418829E-01
          2   -1    0    0  501    0  0.00000000000E+00  0.00000000000E+00  0.90252894776E+03  0.90252894776E+03  0.00000000000E+00 0. -1.
         -1   -1    0    0    0  501 -0.00000000000E+00 -0.00000000000E+00 -0.16708472905E+04  0.16708472905E+04  0.00000000000E+00 0.  1.
         24    2    1    2    0    0 -0.72025837038E+02 -0.36423428014E+03  0.70769094940E+03  0.80337190543E+03  0.82009795449E+02 0.  0.
        254    2    1    2    0    0  0.72025837038E+02  0.36423428014E+03 -0.14760092922E+04  0.17700043329E+04  0.90358042018E+03 0.  0.
         23    2    4    4    0    0 -0.11678609836E+03 -0.22138533559E+03 -0.83560925042E+03  0.87703802260E+03  0.91117584010E+02 0.  0.
         23    2    4    4    0    0  0.18881193540E+03  0.58561961573E+03 -0.64040004176E+03  0.89296631026E+03  0.93146854543E+02 0.  0.
          2    1    3    3  502    0 -0.22927432569E+02 -0.26273524191E+03  0.54462712350E+03  0.60512327517E+03  0.00000000000E+00 0. -1.
         -1    1    3    3    0  502 -0.49098404470E+02 -0.10149903823E+03  0.16306382590E+03  0.19824863026E+03  0.00000000000E+00 0.  1.
         13    1    5    5    0    0 -0.65020811996E+02 -0.16489216624E+03 -0.44532192611E+03  0.47930027159E+03  0.00000000000E+00 0.  1.
        -13    1    5    5    0    0 -0.51765286362E+02 -0.56493169351E+02 -0.39028732432E+03  0.39773775101E+03  0.00000000000E+00 0. -1.
          3    1    6    6  503    0  0.11079904166E+02  0.62764288495E+02 -0.11080549316E+03  0.12782792144E+03  0.00000000000E+00 0. -1.
         -3    1    6    6    0  503  0.17773203123E+03  0.52285532723E+03 -0.52959454860E+03  0.76513838882E+03  0.00000000000E+00 0.  1.
<mgrwt>
<rscale>  0 0.24560033E+04</rscale>
<asrwt>0</asrwt>
<pdfrwt beam="1">  1        2 0.13885061E+00 0.24560033E+04</pdfrwt>
<pdfrwt beam="2">  1       -1 0.25705342E+00 0.24560033E+04</pdfrwt>
<totfact> 0.18694668E+00</totfact>
</mgrwt>
</event>
<event>
12    7  0.1605494E-007  0.1342792E+04  0.7818608E-02  0.8996302E-01
          2   -1    0    0  501    0  0.00000000000E+00  0.00000000000E+00  0.83742291747E+03  0.83742291747E+03  0.00000000000E+00 0. -1.
         -1   -1    0    0    0  501 -0.00000000000E+00 -0.00000000000E+00 -0.53828580977E+03  0.53828580977E+03  0.00000000000E+00 0.  1.
         24    2    1    2    0    0  0.92057325432E+01 -0.25872655456E+03  0.34877642517E+03  0.44168548617E+03  0.80105545321E+02 0.  0.
        254    2    1    2    0    0 -0.92057325432E+01  0.25872655456E+03 -0.49639317477E+02  0.93402324106E+03  0.89605311085E+03 0.  0.
         23    2    4    4    0    0  0.42363495290E+03  0.13886132611E+03  0.69990312534E+02  0.46039449503E+03  0.91188847976E+02 0.  0.
         23    2    4    4    0    0 -0.43284068544E+03  0.11986522845E+03 -0.11962963001E+03  0.47362874604E+03  0.91072546522E+02 0.  0.
          2    1    3    3  502    0  0.37151769140E+02 -0.18746367116E+03  0.27854317591E+03  0.33780050740E+03  0.00000000000E+00 0. -1.
         -3    1    3    3    0  502 -0.27946036597E+02 -0.71262883393E+02  0.70233249266E+02  0.10388497877E+03  0.00000000000E+00 0.  1.
         13    1    5    5    0    0  0.37293376948E+03  0.10412017642E+03  0.86528459991E+02  0.39674649582E+03  0.00000000000E+00 0. -1.
        -13    1    5    5    0    0  0.50701183418E+02  0.34741149687E+02 -0.16538147457E+02  0.63647999206E+02  0.00000000000E+00 0.  1.
          1    1    6    6  503    0 -0.34926054118E+03  0.84704318492E+02 -0.58106940127E+02  0.36405241888E+03  0.00000000000E+00 0. -1.
         -1    1    6    6    0  503 -0.83580144260E+02  0.35160909956E+02 -0.61522689883E+02  0.10957632716E+03  0.00000000000E+00 0.  1.
<mgrwt>
<rscale>  0 0.13427924E+04</rscale>
<asrwt>0</asrwt>
<pdfrwt beam="1">  1        2 0.12883430E+00 0.13427924E+04</pdfrwt>
<pdfrwt beam="2">  1       -1 0.82813201E-01 0.13427924E+04</pdfrwt>
<totfact> 0.52361233E+01</totfact>
</mgrwt>
</event>
<event>
12    7  0.1605494E-007  0.1687836E+04  0.7818608E-02  0.8768333E-01
          2   -1    0    0  501    0  0.00000000000E+00  0.00000000000E+00  0.10886825428E+04  0.10886825428E+04  0.00000000000E+00 0. -1.
         -1   -1    0    0    0  501 -0.00000000000E+00 -0.00000000000E+00 -0.65418261193E+03  0.65418261193E+03  0.00000000000E+00 0.  1.
         24    2    1    2    0    0  0.84406665714E+02  0.17376063138E+02  0.77847610591E+03  0.78789871813E+03  0.85632527524E+02 0.  0.
        254    2    1    2    0    0 -0.84406665714E+02 -0.17376063138E+02 -0.34397617503E+03  0.95496643661E+03  0.88668758494E+03 0.  0.
         23    2    4    4    0    0 -0.45226725858E+03  0.87715110468E+02 -0.30429807731E+03  0.55955582320E+03  0.90916366137E+02 0.  0.
         23    2    4    4    0    0  0.36786059287E+03 -0.10509117361E+03 -0.39678097727E+02  0.39541061342E+03  0.91704041397E+02 0.  0.
          2    1    3    3  502    0  0.61161362217E+02 -0.32799901741E+01  0.71064018706E+03  0.71327480400E+03  0.00000000000E+00 0. -1.
         -1    1    3    3    0  502  0.23245303496E+02  0.20656053312E+02  0.67835918855E+02  0.74623914130E+02  0.00000000000E+00 0.  1.
         13    1    5    5    0    0 -0.18814051604E+03  0.76369856416E+02 -0.10579760183E+03  0.22895925685E+03  0.00000000000E+00 0. -1.
        -13    1    5    5    0    0 -0.26412674254E+03  0.11345254052E+02 -0.19850047548E+03  0.33059656635E+03  0.00000000000E+00 0.  1.
          3    1    6    6  503    0  0.34368495063E+03 -0.89805309129E+02 -0.11726315891E+02  0.35541784609E+03  0.00000000000E+00 0. -1.
         -3    1    6    6    0  503  0.24175642239E+02 -0.15285864478E+02 -0.27951781836E+02  0.39992767325E+02  0.00000000000E+00 0.  1.
<mgrwt>
<rscale>  0 0.16878355E+04</rscale>
<asrwt>0</asrwt>
<pdfrwt beam="1">  1        2 0.16748962E+00 0.16878355E+04</pdfrwt>
<pdfrwt beam="2">  1       -1 0.10064348E+00 0.16878355E+04</pdfrwt>
<totfact> 0.22594204E+01</totfact>
</mgrwt>
</event>
<event>
12    7  0.1605494E-007  0.2368579E+04  0.7818608E-02  0.8451362E-01
          2   -1    0    0  501    0  0.00000000000E+00  0.00000000000E+00  0.87722700960E+03  0.87722700960E+03  0.00000000000E+00 0. -1.
         -3   -1    0    0    0  501 -0.00000000000E+00 -0.00000000000E+00 -0.15988355367E+04  0.15988355367E+04  0.00000000000E+00 0.  1.
         24    2    1    2    0    0 -0.24253039841E+03  0.97016879707E+03 -0.46112522966E+03  0.11040655583E+04  0.79219887627E+02 0.  0.
        254    2    1    2    0    0  0.24253039841E+03 -0.97016879707E+03 -0.26048329741E+03  0.13719969880E+04  0.90248307343E+03 0.  0.
         23    2    4    4    0    0  0.44439409657E+03 -0.31878044885E+03  0.14607008297E+03  0.57265364794E+03  0.86536950069E+02 0.  0.
         23    2    4    4    0    0 -0.20186369816E+03 -0.65138834822E+03 -0.40655338038E+03  0.79934334004E+03  0.92781416972E+02 0.  0.
          4    1    3    3  502    0 -0.15898997779E+03  0.72789984002E+03 -0.37179095740E+03  0.83267310882E+03  0.00000000000E+00 0. -1.
         -3    1    3    3    0  502 -0.83540420622E+02  0.24226895705E+03 -0.89334272254E+02  0.27139244946E+03  0.00000000000E+00 0.  1.
         13    1    5    5    0    0  0.30254645183E+03 -0.21696317903E+03  0.56991221546E+02  0.37663692849E+03  0.00000000000E+00 0. -1.
        -13    1    5    5    0    0  0.14184764474E+03 -0.10181726981E+03  0.89078861423E+02  0.19601671945E+03  0.00000000000E+00 0.  1.
          3    1    6    6  503    0 -0.24920294767E+02 -0.41165206769E+02 -0.65749375458E+01  0.48567737679E+02  0.00000000000E+00 0. -1.
         -3    1    6    6    0  503 -0.17694340339E+03 -0.61022314146E+03 -0.39997844283E+03  0.75077560236E+03  0.00000000000E+00 0.  1.
<mgrwt>
<rscale>  0 0.23685791E+04</rscale>
<asrwt>0</asrwt>
<pdfrwt beam="1">  1        2 0.13495800E+00 0.23685791E+04</pdfrwt>
<pdfrwt beam="2">  1       -3 0.24597470E+00 0.23685791E+04</pdfrwt>
<totfact> 0.13259901E+00</totfact>
</mgrwt>
</event>
<event>
12    7  0.1854802E-007  0.1524213E+04  0.7818608E-02  0.8868509E-01
          2   -1    0    0  501    0  0.00000000000E+00  0.00000000000E+00  0.13227729589E+04  0.13227729589E+04  0.00000000000E+00 0. -1.
         -3   -1    0    0    0  501 -0.00000000000E+00 -0.00000000000E+00 -0.43908234788E+03  0.43908234788E+03  0.00000000000E+00 0.  1.
         24    2    1    2    0    0 -0.84299014529E+02 -0.46881317425E+03  0.13169237954E+03  0.50031740194E+03  0.77990407506E+02 0.  0.
        254    2    1    2    0    0  0.84299014529E+02  0.46881317425E+03  0.75199823143E+03  0.12615379048E+04  0.89391522471E+03 0.  0.
         23    2    4    4    0    0  0.36832866835E+03  0.38658107875E+03  0.11515950563E+03  0.55346573106E+03  0.89172110822E+02 0.  0.
         23    2    4    4    0    0 -0.28402965382E+03  0.82232095497E+02  0.63683872580E+03  0.70807217374E+03  0.91475017122E+02 0.  0.
          2    1    3    3  502    0 -0.85919290109E+01 -0.44444629515E+02 -0.10375458372E+02  0.46441322906E+02  0.00000000000E+00 0. -1.
         -1    1    3    3    0  502 -0.75707085518E+02 -0.42436854473E+03  0.14206783791E+03  0.45387607904E+03  0.00000000000E+00 0.  1.
         13    1    5    5    0    0  0.32001466212E+03  0.35811108506E+03  0.78940225126E+02  0.48670781004E+03  0.00000000000E+00 0.  1.
        -13    1    5    5    0    0  0.48314006228E+02  0.28469993690E+02  0.36219280503E+02  0.66757921018E+02  0.00000000000E+00 0. -1.
          2    1    6    6  503    0 -0.59949150662E+01  0.16635775061E+02  0.13031628484E+02  0.21966141206E+02  0.00000000000E+00 0. -1.
         -2    1    6    6    0  503 -0.27803473875E+03  0.65596320436E+02  0.62380709732E+03  0.68610603253E+03  0.00000000000E+00 0.  1.
<mgrwt>
<rscale>  0 0.15242129E+04</rscale>
<asrwt>0</asrwt>
<pdfrwt beam="1">  1        2 0.20350353E+00 0.15242129E+04</pdfrwt>
<pdfrwt beam="2">  1       -3 0.67551131E-01 0.15242129E+04</pdfrwt>
<totfact> 0.20787484E+01</totfact>
</mgrwt>
</event>
<event>
12    7  0.1605494E-007  0.1418475E+04  0.7818608E-02  0.8940553E-01
          2   -1    0    0  501    0  0.00000000000E+00  0.00000000000E+00  0.36733564078E+04  0.36733564078E+04  0.00000000000E+00 0. -1.
         -1   -1    0    0    0  501 -0.00000000000E+00 -0.00000000000E+00 -0.13693682767E+03  0.13693682767E+03  0.00000000000E+00 0.  1.
         24    2    1    2    0    0 -0.18983966330E+03  0.25226425957E+02  0.59967619316E+02  0.21541907015E+03  0.78318516907E+02 0.  0.
        254    2    1    2    0    0  0.18983966330E+03 -0.25226425957E+02  0.34764519609E+04  0.35948741654E+04  0.89483325726E+03 0.  0.
         23    2    4    4    0    0  0.46405644133E+03 -0.15154839607E+03  0.12334893550E+04  0.13298652053E+04  0.93435423522E+02 0.  0.
         23    2    4    4    0    0 -0.27421677804E+03  0.12632197012E+03  0.22429626059E+04  0.22650089600E+04  0.90731781762E+02 0.  0.
          2    1    3    3  502    0 -0.14921967782E+02 -0.87342907576E+01 -0.14240797030E+02  0.22399849499E+02  0.00000000000E+00 0. -1.
         -1    1    3    3    0  502 -0.17491769552E+03  0.33960716714E+02  0.74208416346E+02  0.19301922065E+03  0.00000000000E+00 0.  1.
         13    1    5    5    0    0  0.74157209828E+02 -0.46805401803E+02  0.30599699409E+03  0.31831462077E+03  0.00000000000E+00 0.  1.
        -13    1    5    5    0    0  0.38989923151E+03 -0.10474299427E+03  0.92749236090E+03  0.10115505846E+04  0.00000000000E+00 0. -1.
          4    1    6    6  503    0 -0.20407621369E+03  0.61893911385E+02  0.13160493903E+04  0.13332156446E+04  0.00000000000E+00 0. -1.
         -4    1    6    6    0  503 -0.70140564346E+02  0.64428058733E+02  0.92691321555E+03  0.93179331543E+03  0.00000000000E+00 0.  1.
<mgrwt>
<rscale>  0 0.14184749E+04</rscale>
<asrwt>0</asrwt>
<pdfrwt beam="1">  1        2 0.56513168E+00 0.14184749E+04</pdfrwt>
<pdfrwt beam="2">  1       -1 0.21067207E-01 0.14184749E+04</pdfrwt>
<totfact> 0.12925612E+01</totfact>
</mgrwt>
</event>
<event>
12    7  0.1605494E-007  0.1437486E+04  0.7818608E-02  0.8927123E-01
          2   -1    0    0  501    0  0.00000000000E+00  0.00000000000E+00  0.22324219410E+03  0.22324219410E+03  0.00000000000E+00 0. -1.
         -1   -1    0    0    0  501 -0.00000000000E+00 -0.00000000000E+00 -0.23140396325E+04  0.23140396325E+04  0.00000000000E+00 0.  1.
         24    2    1    2    0    0 -0.73281607459E+02 -0.35872621472E+03 -0.48810634843E+03  0.61568613601E+03  0.82261288491E+02 0.  0.
        254    2    1    2    0    0  0.73281607459E+02  0.35872621472E+03 -0.16026910900E+04  0.19215956906E+04  0.99491536180E+03 0.  0.
         23    2    4    4    0    0  0.52216528670E+03  0.25646197102E+03 -0.93810589858E+03  0.11076455417E+04  0.91687730819E+02 0.  0.
         23    2    4    4    0    0 -0.44888367924E+03  0.10226424369E+03 -0.66458519143E+03  0.81395014889E+03  0.94270012108E+02 0.  0.
          4    1    3    3  502    0 -0.82843638897E+02 -0.35363336666E+03 -0.48100810848E+03  0.60273412625E+03  0.00000000000E+00 0. -1.
         -3    1    3    3    0  502  0.95620314377E+01 -0.50928480579E+01 -0.70982399476E+01  0.12952009763E+02  0.00000000000E+00 0.  1.
         13    1    5    5    0    0  0.35377383308E+03  0.18856026966E+03 -0.56581059499E+03  0.69343531038E+03  0.00000000000E+00 0. -1.
        -13    1    5    5    0    0  0.16839145361E+03  0.67901701364E+02 -0.37229530358E+03  0.41421023136E+03  0.00000000000E+00 0.  1.
          1    1    6    6  503    0 -0.24866184223E+03  0.11408326866E+02 -0.38109187719E+03  0.45518554520E+03  0.00000000000E+00 0. -1.
         -1    1    6    6    0  503 -0.20022183701E+03  0.90855916829E+02 -0.28349331424E+03  0.35876460369E+03  0.00000000000E+00 0.  1.
<mgrwt>
<rscale>  0 0.14374857E+04</rscale>
<asrwt>0</asrwt>
<pdfrwt beam="1">  1        2 0.34344954E-01 0.14374857E+04</pdfrwt>
<pdfrwt beam="2">  1       -1 0.35600608E+00 0.14374857E+04</pdfrwt>
<totfact> 0.24255539E+00</totfact>
</mgrwt>
</event>
<event>
12    7  0.1605494E-007  0.1968824E+04  0.7818608E-02  0.8621337E-01
         -1   -1    0    0    0  501 -0.00000000000E+00  0.00000000000E+00  0.37155110366E+03  0.37155110366E+03  0.00000000000E+00 0.  1.
          2   -1    0    0  501    0  0.00000000000E+00 -0.00000000000E+00 -0.26081670931E+04  0.26081670931E+04  0.00000000000E+00 0. -1.
         24    2    1    2    0    0  0.71755220158E+03 -0.19646372347E+03 -0.12649409977E+04  0.14696535408E+04  0.79540214127E+02 0.  0.
        254    2    1    2    0    0 -0.71755220158E+03  0.19646372347E+03 -0.97167499174E+03  0.15100646560E+04  0.88468289179E+03 0.  0.
         23    2    4    4    0    0 -0.90582326170E+02  0.13761649513E+03  0.13563683103E+03  0.23303787910E+03  0.93626094761E+02 0.  0.
         23    2    4    4    0    0 -0.62696987541E+03  0.58847228348E+02 -0.11073118228E+04  0.12770267769E+04  0.90020525700E+02 0.  0.
          2    1    3    3  502    0  0.68193849020E+03 -0.20029006707E+03 -0.12227332577E+04  0.14142958796E+04  0.00000000000E+00 0. -1.
         -1    1    3    3    0  502  0.35613711375E+02  0.38263435928E+01 -0.42207739961E+02  0.55357661221E+02  0.00000000000E+00 0.  1.
         13    1    5    5    0    0 -0.45177025865E+02  0.19848721062E+02  0.82414951680E+02  0.96058105614E+02  0.00000000000E+00 0. -1.
        -13    1    5    5    0    0 -0.45405300305E+02  0.11776777406E+03  0.53221879352E+02  0.13697977349E+03  0.00000000000E+00 0.  1.
          3    1    6    6  503    0 -0.23293309271E+03 -0.17717058245E+02 -0.37141597201E+03  0.43877277046E+03  0.00000000000E+00 0. -1.
         -3    1    6    6    0  503 -0.39403678270E+03  0.76564286592E+02 -0.73589585077E+03  0.83825400642E+03  0.00000000000E+00 0.  1.
<mgrwt>
<rscale>  0 0.19688244E+04</rscale>
<asrwt>0</asrwt>
<pdfrwt beam="1">  1        2 0.40125647E+00 0.19688244E+04</pdfrwt>
<pdfrwt beam="2">  1       -1 0.57161709E-01 0.19688244E+04</pdfrwt>
<totfact> 0.98984851E+00</totfact>
</mgrwt>
</event>
<event>
12    7  0.1605494E-007  0.1436028E+04  0.7818608E-02  0.8928144E-01
          2   -1    0    0  501    0  0.00000000000E+00  0.00000000000E+00  0.21657284011E+04  0.21657284011E+04  0.00000000000E+00 0. -1.
         -1   -1    0    0    0  501 -0.00000000000E+00 -0.00000000000E+00 -0.23804662826E+03  0.23804662826E+03  0.00000000000E+00 0.  1.
         24    2    1    2    0    0  0.28356916376E+01 -0.16563260240E+03 -0.70816531899E+02  0.20453782055E+03  0.96842855815E+02 0.  0.
        254    2    1    2    0    0 -0.28356916376E+01  0.16563260240E+03  0.19984983048E+04  0.21992372088E+04  0.90288793680E+03 0.  0.
         23    2    4    4    0    0  0.30741311925E+03 -0.18096122616E+03  0.46172234142E+03  0.59107592906E+03  0.94516887885E+02 0.  0.
         23    2    4    4    0    0 -0.31024881089E+03  0.34659382855E+03  0.15367759634E+04  0.16081612798E+04  0.90115112817E+02 0.  0.
          4    1    3    3  502    0 -0.34377404531E+02 -0.16420966309E+02 -0.13351661355E+02  0.40369802300E+02  0.00000000000E+00 0. -1.
         -3    1    3    3    0  502  0.37213096168E+02 -0.14921163609E+03 -0.57464870544E+02  0.16416801825E+03  0.00000000000E+00 0.  1.
         13    1    5    5    0    0  0.14240522887E+03 -0.69364682197E+02  0.27865685824E+03  0.32053136039E+03  0.00000000000E+00 0. -1.
        -13    1    5    5    0    0  0.16500789038E+03 -0.11159654396E+03  0.18306548318E+03  0.27054456868E+03  0.00000000000E+00 0.  1.
          1    1    6    6  503    0 -0.23305625938E+03  0.23595856835E+03  0.95496871567E+03  0.10109188464E+04  0.00000000000E+00 0. -1.
         -1    1    6    6    0  503 -0.77192551505E+02  0.11063526020E+03  0.58180724769E+03  0.59724243342E+03  0.00000000000E+00 0.  1.
<mgrwt>
<rscale>  0 0.14360283E+04</rscale>
<asrwt>0</asrwt>
<pdfrwt beam="1">  1        2 0.33318897E+00 0.14360283E+04</pdfrwt>
<pdfrwt beam="2">  1       -1 0.36622560E-01 0.14360283E+04</pdfrwt>
<totfact> 0.42737448E+01</totfact>
</mgrwt>
</event>
<event>
12    7  0.1605494E-007  0.1674841E+04  0.7818608E-02  0.8775845E-01
          2   -1    0    0  501    0  0.00000000000E+00  0.00000000000E+00  0.77596121444E+03  0.77596121444E+03  0.00000000000E+00 0. -1.
         -1   -1    0    0    0  501 -0.00000000000E+00 -0.00000000000E+00 -0.90374775434E+03  0.90374775434E+03  0.00000000000E+00 0.  1.
         24    2    1    2    0    0  0.19596310832E+03 -0.48196815513E+03 -0.29299260907E+03  0.60250283281E+03  0.80437256249E+02 0.  0.
        254    2    1    2    0    0 -0.19596310832E+03  0.48196815513E+03  0.16520606917E+03  0.10772061360E+04  0.92864695751E+03 0.  0.
         23    2    4    4    0    0  0.33888535207E+03  0.36387796404E+03  0.11646538532E+03  0.51973415459E+03  0.96482904723E+02 0.  0.
         23    2    4    4    0    0 -0.53484846039E+03  0.11809019109E+03  0.48740683845E+02  0.55747198138E+03  0.91603422156E+02 0.  0.
          4    1    3    3  502    0  0.51389431017E+02 -0.93588041963E+02 -0.96282312497E+02  0.14377022960E+03  0.00000000000E+00 0. -1.
         -3    1    3    3    0  502  0.14457367730E+03 -0.38838011317E+03 -0.19671029657E+03  0.45873260322E+03  0.00000000000E+00 0.  1.
         13    1    5    5    0    0  0.18631206516E+03  0.13289961795E+03  0.37819976340E+02  0.23195871332E+03  0.00000000000E+00 0. -1.
        -13    1    5    5    0    0  0.15257328691E+03  0.23097834609E+03  0.78645408980E+02  0.28777544126E+03  0.00000000000E+00 0.  1.
          3    1    6    6  503    0 -0.19851593306E+03  0.67134518750E+02 -0.19700797793E+02  0.21048453796E+03  0.00000000000E+00 0. -1.
         -3    1    6    6    0  503 -0.33633252733E+03  0.50955672344E+02  0.68441481638E+02  0.34698744342E+03  0.00000000000E+00 0.  1.
<mgrwt>
<rscale>  0 0.16748411E+04</rscale>
<asrwt>0</asrwt>
<pdfrwt beam="1">  1        2 0.11937865E+00 0.16748411E+04</pdfrwt>
<pdfrwt beam="2">  1       -1 0.13903812E+00 0.16748411E+04</pdfrwt>
<totfact> 0.16664953E+01</totfact>
</mgrwt>
</event>
<event>
12    7  0.1605494E-007  0.2161184E+04  0.7818608E-02  0.8534760E-01
          2   -1    0    0  501    0  0.00000000000E+00  0.00000000000E+00  0.28393288434E+04  0.28393288434E+04  0.00000000000E+00 0. -1.
         -1   -1    0    0    0  501 -0.00000000000E+00 -0.00000000000E+00 -0.41125173140E+03  0.41125173140E+03  0.00000000000E+00 0.  1.
         24    2    1    2    0    0 -0.44396984424E+03  0.33718033586E+03  0.20422539905E+04  0.21184993473E+04  0.80239149299E+02 0.  0.
        254    2    1    2    0    0  0.44396984424E+03 -0.33718033586E+03  0.38582312148E+03  0.11320812275E+04  0.90661382253E+03 0.  0.
         23    2    4    4    0    0 -0.16261201106E+02 -0.16140338331E+03  0.56915211653E+03  0.59849894998E+03  0.89170525187E+02 0.  0.
         23    2    4    4    0    0  0.46023104535E+03 -0.17577695255E+03 -0.18332899505E+03  0.53358227757E+03  0.91598986638E+02 0.  0.
          2    1    3    3  502    0 -0.41801519046E+03  0.29433953636E+03  0.19043111156E+04  0.19717437174E+04  0.00000000000E+00 0. -1.
         -1    1    3    3    0  502 -0.25954653786E+02  0.42840799505E+02  0.13794287490E+03  0.14675562985E+03  0.00000000000E+00 0.  1.
         13    1    5    5    0    0 -0.41137724830E+02 -0.14793799637E+03  0.51499932073E+03  0.53740325969E+03  0.00000000000E+00 0.  1.
        -13    1    5    5    0    0  0.24876523724E+02 -0.13465386947E+02  0.54152795800E+02  0.61095690284E+02  0.00000000000E+00 0. -1.
          2    1    6    6  503    0  0.74393688017E+01 -0.21216820788E+02 -0.11180825035E+02  0.25109929131E+02  0.00000000000E+00 0. -1.
         -2    1    6    6    0  503  0.45279167655E+03 -0.15456013176E+03 -0.17214817002E+03  0.50847234843E+03  0.00000000000E+00 0.  1.
<mgrwt>
<rscale>  0 0.21611838E+04</rscale>
<asrwt>0</asrwt>
<pdfrwt beam="1">  1        2 0.43681981E+00 0.21611838E+04</pdfrwt>
<pdfrwt beam="2">  1       -1 0.63269499E-01 0.21611838E+04</pdfrwt>
<totfact> 0.57915309E+00</totfact>
</mgrwt>
</event>
<event>
12    7  0.1605494E-007  0.1766858E+04  0.7818608E-02  0.8724125E-01
          2   -1    0    0  501    0  0.00000000000E+00  0.00000000000E+00  0.39108349837E+04  0.39108349837E+04  0.00000000000E+00 0. -1.
         -1   -1    0    0    0  501 -0.00000000000E+00 -0.00000000000E+00 -0.19956012780E+03  0.19956012780E+03  0.00000000000E+00 0.  1.
         24    2    1    2    0    0  0.54568134487E+03  0.25664107211E+03  0.82064930325E+03  0.10215386564E+04  0.80269406295E+02 0.  0.
        254    2    1    2    0    0 -0.54568134487E+03 -0.25664107211E+03  0.28906255526E+04  0.30888564551E+04  0.90646861196E+03 0.  0.
         23    2    4    4    0    0  0.16459411663E+03 -0.15174791468E+02  0.14487875345E+04  0.14609385444E+04  0.89636001475E+02 0.  0.
         23    2    4    4    0    0 -0.71027546150E+03 -0.24146628064E+03  0.14418380181E+04  0.16279179107E+04  0.91775037775E+02 0.  0.
          4    1    3    3  502    0  0.48626119835E+03  0.23947125053E+03  0.76972635056E+03  0.94142184360E+03  0.00000000000E+00 0. -1.
         -3    1    3    3    0  502  0.59420146515E+02  0.17169821578E+02  0.50922952691E+02  0.80116812815E+02  0.00000000000E+00 0.  1.
         13    1    5    5    0    0  0.10388630795E+03  0.27471226138E+02  0.10339706217E+04  0.10395394556E+04  0.00000000000E+00 0. -1.
        -13    1    5    5    0    0  0.60707808683E+02 -0.42646017606E+02  0.41481691284E+03  0.42139908879E+03  0.00000000000E+00 0.  1.
          3    1    6    6  503    0 -0.56841000356E+03 -0.23033369154E+03  0.11560410344E+04  0.13086536650E+04  0.00000000000E+00 0. -1.
         -3    1    6    6    0  503 -0.14186545794E+03 -0.11132589093E+02  0.28579698367E+03  0.31926424568E+03  0.00000000000E+00 0.  1.
<mgrwt>
<rscale>  0 0.17668579E+04</rscale>
<asrwt>0</asrwt>
<pdfrwt beam="1">  1        2 0.60166686E+00 0.17668579E+04</pdfrwt>
<pdfrwt beam="2">  1       -1 0.30701561E-01 0.17668579E+04</pdfrwt>
<totfact> 0.43161260E+00</totfact>
</mgrwt>
</event>
<event>
12    7  0.1605494E-007  0.1248902E+04  0.7818608E-02  0.9071097E-01
         -1   -1    0    0    0  501 -0.00000000000E+00  0.00000000000E+00  0.28741481559E+03  0.28741481559E+03  0.00000000000E+00 0.  1.
          2   -1    0    0  501    0  0.00000000000E+00 -0.00000000000E+00 -0.13567120288E+04  0.13567120288E+04  0.00000000000E+00 0. -1.
         24    2    1    2    0    0 -0.49472244441E+01  0.17725902960E+03  0.37545519480E+02  0.19810167566E+03  0.79933530272E+02 0.  0.
        254    2    1    2    0    0  0.49472244441E+01 -0.17725902960E+03 -0.11068427327E+04  0.14460251688E+04  0.91347836049E+03 0.  0.
         23    2    4    4    0    0  0.11316469874E+03 -0.46172685855E+03 -0.27787461262E+03  0.55809404511E+03  0.90866505935E+02 0.  0.
         23    2    4    4    0    0 -0.10821747430E+03  0.28446782895E+03 -0.82896812010E+03  0.88793112364E+03  0.92739251375E+02 0.  0.
          4    1    3    3  502    0  0.63394784019E+01 -0.43254799502E+01  0.12195223883E+02  0.14409102983E+02  0.00000000000E+00 0. -1.
         -3    1    3    3    0  502 -0.11286702846E+02  0.18158450955E+03  0.25350295597E+02  0.18369257268E+03  0.00000000000E+00 0.  1.
         13    1    5    5    0    0  0.10434983816E+03 -0.42479198689E+03 -0.28114640007E+03  0.51998117189E+03  0.00000000000E+00 0.  1.
        -13    1    5    5    0    0  0.88148605801E+01 -0.36934871661E+02  0.32717874541E+01  0.38112873216E+02  0.00000000000E+00 0. -1.
          1    1    6    6  503    0 -0.12379262453E+02  0.71679193517E+02 -0.10865712020E+03  0.13075749574E+03  0.00000000000E+00 0. -1.
         -1    1    6    6    0  503 -0.95838211843E+02  0.21278863543E+03 -0.72031099989E+03  0.75717362790E+03  0.00000000000E+00 0.  1.
<mgrwt>
<rscale>  0 0.12489021E+04</rscale>
<asrwt>0</asrwt>
<pdfrwt beam="1">  1        2 0.20872493E+00 0.12489021E+04</pdfrwt>
<pdfrwt beam="2">  1       -1 0.44217664E-01 0.12489021E+04</pdfrwt>
<totfact> 0.86894574E+01</totfact>
</mgrwt>
</event>
<event>
12    7  0.1605494E-007  0.2492030E+04  0.7818608E-02  0.8405830E-01
         -1   -1    0    0    0  501 -0.00000000000E+00  0.00000000000E+00  0.70449737219E+03  0.70449737219E+03  0.00000000000E+00 0.  1.
          2   -1    0    0  501    0  0.00000000000E+00 -0.00000000000E+00 -0.22037753698E+04  0.22037753698E+04  0.00000000000E+00 0. -1.
         24    2    1    2    0    0  0.33171215217E+03 -0.52454510724E+02 -0.18740763439E+04  0.19055365974E+04  0.78250582953E+02 0.  0.
        254    2    1    2    0    0 -0.33171215217E+03  0.52454510724E+02  0.37479834627E+03  0.10027361446E+04  0.86730706657E+03 0.  0.
         23    2    4    4    0    0  0.84464123830E+02 -0.25866410689E+03 -0.86181599425E+02  0.30192757165E+03  0.98446340879E+02 0.  0.
         23    2    4    4    0    0 -0.41617627600E+03  0.31111861762E+03  0.46097994570E+03  0.70080857295E+03  0.92912101764E+02 0.  0.
          4    1    3    3  502    0  0.13143623112E+03 -0.40340535100E+02 -0.95250279174E+03  0.96237436057E+03  0.00000000000E+00 0. -1.
         -3    1    3    3    0  502  0.20027592105E+03 -0.12113975624E+02 -0.92157355218E+03  0.94316223686E+03  0.00000000000E+00 0.  1.
         13    1    5    5    0    0  0.53046620594E+02 -0.59328359142E+02  0.65302202073E+01  0.79852626324E+02  0.00000000000E+00 0. -1.
        -13    1    5    5    0    0  0.31417503237E+02 -0.19933574775E+03 -0.92711819632E+02  0.22207494532E+03  0.00000000000E+00 0.  1.
          4    1    6    6  503    0 -0.93053993199E+02  0.84581949439E+02  0.64161186553E+02  0.14117297787E+03  0.00000000000E+00 0. -1.
         -4    1    6    6    0  503 -0.32312228280E+03  0.22653666818E+03  0.39681875915E+03  0.55963559508E+03  0.00000000000E+00 0.  1.
<mgrwt>
<rscale>  0 0.24920305E+04</rscale>
<asrwt>0</asrwt>
<pdfrwt beam="1">  1        2 0.33904236E+00 0.24920305E+04</pdfrwt>
<pdfrwt beam="2">  1       -1 0.10838421E+00 0.24920305E+04</pdfrwt>
<totfact> 0.41226624E+00</totfact>
</mgrwt>
</event>
<event>
12    7  0.1605494E-007  0.1040285E+04  0.7818608E-02  0.9265432E-01
          2   -1    0    0  501    0  0.00000000000E+00  0.00000000000E+00  0.18975658405E+04  0.18975658405E+04  0.00000000000E+00 0. -1.
         -1   -1    0    0    0  501 -0.00000000000E+00 -0.00000000000E+00 -0.14257640599E+03  0.14257640599E+03  0.00000000000E+00 0.  1.
         24    2    1    2    0    0 -0.60673893699E+00 -0.41503151469E+02  0.41488157618E+03  0.42476541881E+03  0.81092903778E+02 0.  0.
        254    2    1    2    0    0  0.60673893699E+00  0.41503151469E+02  0.13401078583E+04  0.16153768277E+04  0.90101628385E+03 0.  0.
         23    2    4    4    0    0 -0.19991147845E+03  0.27834784835E+03  0.15541349181E+03  0.38744423973E+03  0.92290636416E+02 0.  0.
         23    2    4    4    0    0  0.20051821738E+03 -0.23684469688E+03  0.11846943665E+04  0.12279325879E+04  0.89525038747E+02 0.  0.
          2    1    3    3  502    0 -0.10979523566E+02 -0.55627557345E+02  0.39129301036E+03  0.39537981111E+03  0.00000000000E+00 0. -1.
         -1    1    3    3    0  502  0.10372784629E+02  0.14124405875E+02  0.23588565823E+02  0.29385607700E+02  0.00000000000E+00 0.  1.
         13    1    5    5    0    0  0.86193732431E+01  0.55171842247E+01  0.10681692699E+02  0.14792953585E+02  0.00000000000E+00 0. -1.
        -13    1    5    5    0    0 -0.20853085169E+03  0.27283066413E+03  0.14473179911E+03  0.37265128615E+03  0.00000000000E+00 0.  1.
          1    1    6    6  503    0  0.16048407664E+03 -0.14261959318E+03  0.90416245497E+03  0.92930362756E+03  0.00000000000E+00 0. -1.
         -1    1    6    6    0  503  0.40034140749E+02 -0.94225103696E+02  0.28053191153E+03  0.29862896038E+03  0.00000000000E+00 0.  1.
<mgrwt>
<rscale>  0 0.10402848E+04</rscale>
<asrwt>0</asrwt>
<pdfrwt beam="1">  1        2 0.29193319E+00 0.10402848E+04</pdfrwt>
<pdfrwt beam="2">  1       -1 0.21934833E-01 0.10402848E+04</pdfrwt>
<totfact> 0.15163139E+02</totfact>
</mgrwt>
</event>
<event>
12    7  0.1605494E-007  0.3135093E+04  0.7818608E-02  0.8206172E-01
          2   -1    0    0  501    0  0.00000000000E+00  0.00000000000E+00  0.14206719838E+04  0.14206719838E+04  0.00000000000E+00 0. -1.
         -1   -1    0    0    0  501 -0.00000000000E+00 -0.00000000000E+00 -0.17296059507E+04  0.17296059507E+04  0.00000000000E+00 0.  1.
         24    2    1    2    0    0 -0.51710467712E+03 -0.13312997815E+04  0.72080474592E+01  0.14304587267E+04  0.80024105042E+02 0.  0.
        254    2    1    2    0    0  0.51710467712E+03  0.13312997815E+04 -0.31614201437E+03  0.17198192079E+04  0.90447552717E+03 0.  0.
         23    2    4    4    0    0  0.10663858594E+03  0.42931030460E+02 -0.33340195419E+03  0.36431768431E+03  0.91409248183E+02 0.  0.
         23    2    4    4    0    0  0.41046609118E+03  0.12883687511E+04  0.17259939816E+02  0.13555015236E+04  0.93327510654E+02 0.  0.
          2    1    3    3  502    0 -0.62786353563E+02 -0.11685461023E+03 -0.15947515909E+02  0.13360931625E+03  0.00000000000E+00 0. -1.
         -1    1    3    3    0  502 -0.45431832356E+03 -0.12144451713E+04  0.23155563369E+02  0.12968494104E+04  0.00000000000E+00 0.  1.
         13    1    5    5    0    0  0.85235847853E+02  0.17446670585E+02 -0.11935762823E+03  0.14770165703E+03  0.00000000000E+00 0. -1.
        -13    1    5    5    0    0  0.21402738086E+02  0.25484359875E+02 -0.21404432596E+03  0.21661602727E+03  0.00000000000E+00 0.  1.
          2    1    6    6  503    0  0.50477597699E+02  0.24604059127E+03  0.27885306887E+02  0.25270843034E+03  0.00000000000E+00 0. -1.
         -2    1    6    6    0  503  0.35998849348E+03  0.10423281598E+04 -0.10625367072E+02  0.11027930933E+04  0.00000000000E+00 0.  1.
<mgrwt>
<rscale>  0 0.31350934E+04</rscale>
<asrwt>0</asrwt>
<pdfrwt beam="1">  1        2 0.21856492E+00 0.31350934E+04</pdfrwt>
<pdfrwt beam="2">  1       -1 0.26609322E+00 0.31350934E+04</pdfrwt>
<totfact> 0.74356216E-01</totfact>
</mgrwt>
</event>
<event>
12    7  0.1626111E-007  0.2084695E+04  0.7818608E-02  0.8568015E-01
         -1   -1    0    0    0  501 -0.00000000000E+00  0.00000000000E+00  0.39605226899E+03  0.39605226899E+03  0.00000000000E+00 0.  1.
          2   -1    0    0  501    0  0.00000000000E+00 -0.00000000000E+00 -0.27432951688E+04  0.27432951688E+04  0.00000000000E+00 0. -1.
         24    2    1    2    0    0  0.34917529788E+02 -0.78594340374E+03 -0.49473735652E+03  0.93438207383E+03  0.96842863400E+02 0.  0.
        254    2    1    2    0    0 -0.34917529788E+02  0.78594340374E+03 -0.18525055433E+04  0.22049653639E+04  0.90064932161E+03 0.  0.
         23    2    4    4    0    0  0.42338601334E+03  0.38363566409E+03 -0.94587358450E+03  0.11086363965E+04  0.89251233896E+02 0.  0.
         23    2    4    4    0    0 -0.45830354313E+03  0.40230773965E+03 -0.90663195876E+03  0.10963289674E+04  0.89788869689E+02 0.  0.
          4    1    3    3  502    0  0.36154667090E+02 -0.34588386969E+03 -0.16761024877E+03  0.38605181874E+03  0.00000000000E+00 0. -1.
         -3    1    3    3    0  502 -0.12371373024E+01 -0.44005953406E+03 -0.32712710775E+03  0.54833025509E+03  0.00000000000E+00 0.  1.
         13    1    5    5    0    0  0.41439221375E+03  0.37579228081E+03 -0.88778368104E+03  0.10493334120E+04  0.00000000000E+00 0.  1.
        -13    1    5    5    0    0  0.89937995873E+01  0.78433832844E+01 -0.58089903460E+02  0.59302984549E+02  0.00000000000E+00 0. -1.
          1    1    6    6  503    0 -0.25123735606E+03  0.20669598529E+03 -0.40529165001E+03  0.51971603880E+03  0.00000000000E+00 0. -1.
         -1    1    6    6    0  503 -0.20706618707E+03  0.19561175436E+03 -0.50134030875E+03  0.57661292862E+03  0.00000000000E+00 0.  1.
<mgrwt>
<rscale>  0 0.20846950E+04</rscale>
<asrwt>0</asrwt>
<pdfrwt beam="1">  1        2 0.42204539E+00 0.20846950E+04</pdfrwt>
<pdfrwt beam="2">  1       -1 0.60931121E-01 0.20846950E+04</pdfrwt>
<totfact> 0.71835557E+00</totfact>
</mgrwt>
</event>
<event>
12    7  0.1605494E-007  0.3113123E+04  0.7818608E-02  0.8212146E-01
         -1   -1    0    0    0  501 -0.00000000000E+00  0.00000000000E+00  0.99828000839E+03  0.99828000839E+03  0.00000000000E+00 0.  1.
          2   -1    0    0  501    0  0.00000000000E+00 -0.00000000000E+00 -0.24270579256E+04  0.24270579256E+04  0.00000000000E+00 0. -1.
         24    2    1    2    0    0  0.36706674111E+03  0.37629681800E+03  0.80527584215E+03  0.96487960546E+03  0.78652294434E+02 0.  0.
        254    2    1    2    0    0 -0.36706674111E+03 -0.37629681800E+03 -0.22340537594E+04  0.24604583286E+04  0.88686058603E+03 0.  0.
         23    2    4    4    0    0 -0.12757683019E+03 -0.54811468979E+03 -0.19805059678E+04  0.20609529759E+04  0.91748131304E+02 0.  0.
         23    2    4    4    0    0 -0.23948991093E+03  0.17181787179E+03 -0.25354779164E+03  0.39950535271E+03  0.91876252078E+02 0.  0.
          2    1    3    3  502    0  0.11135725666E+03  0.12455512946E+03  0.19365742713E+03  0.25576868059E+03  0.00000000000E+00 0. -1.
         -1    1    3    3    0  502  0.25570948445E+03  0.25174168854E+03  0.61161841502E+03  0.70911092487E+03  0.00000000000E+00 0.  1.
         13    1    5    5    0    0 -0.91340766618E+02 -0.24932873347E+03 -0.10458739290E+04  0.10790552481E+04  0.00000000000E+00 0. -1.
        -13    1    5    5    0    0 -0.36236063570E+02 -0.29878595632E+03 -0.93463203873E+03  0.98189772778E+03  0.00000000000E+00 0.  1.
          3    1    6    6  503    0 -0.10433348622E+03  0.37668862284E+02 -0.52953207868E+02  0.12291648285E+03  0.00000000000E+00 0. -1.
         -3    1    6    6    0  503 -0.13515642470E+03  0.13414900951E+03 -0.20059458377E+03  0.27658886986E+03  0.00000000000E+00 0.  1.
<mgrwt>
<rscale>  0 0.31131228E+04</rscale>
<asrwt>0</asrwt>
<pdfrwt beam="1">  1        2 0.37339352E+00 0.31131228E+04</pdfrwt>
<pdfrwt beam="2">  1       -1 0.15358154E+00 0.31131228E+04</pdfrwt>
<totfact> 0.12098536E+00</totfact>
</mgrwt>
</event>
<event>
12    7  0.1605494E-007  0.1793421E+04  0.7818608E-02  0.8709806E-01
          2   -1    0    0  501    0  0.00000000000E+00  0.00000000000E+00  0.35057239545E+03  0.35057239545E+03  0.00000000000E+00 0. -1.
         -1   -1    0    0    0  501 -0.00000000000E+00 -0.00000000000E+00 -0.22936488623E+04  0.22936488623E+04  0.00000000000E+00 0.  1.
         24    2    1    2    0    0  0.30603761080E+03  0.58407787819E+03 -0.70651710813E+03  0.96970925804E+03  0.79772388941E+02 0.  0.
        254    2    1    2    0    0 -0.30603761080E+03 -0.58407787819E+03 -0.12365593588E+04  0.16745119997E+04  0.91657263897E+03 0.  0.
         23    2    4    4    0    0 -0.23169268834E+03 -0.82255416202E+03 -0.99814601064E+03  0.13167933937E+04  0.85863448125E+02 0.  0.
         23    2    4    4    0    0 -0.74344922461E+02  0.23847628382E+03 -0.23841334812E+03  0.35771860609E+03  0.93400059614E+02 0.  0.
          2    1    3    3  502    0  0.86923618982E+02  0.15165257789E+03 -0.13896447221E+03  0.22330549580E+03  0.00000000000E+00 0. -1.
         -1    1    3    3    0  502  0.21911399182E+03  0.43242530030E+03 -0.56755263592E+03  0.74640376224E+03  0.00000000000E+00 0.  1.
         13    1    5    5    0    0 -0.53483228377E+01 -0.94738473386E+02 -0.13875940233E+03  0.16810161996E+03  0.00000000000E+00 0. -1.
        -13    1    5    5    0    0 -0.22634436550E+03 -0.72781568863E+03 -0.85938660831E+03  0.11486917737E+04  0.00000000000E+00 0.  1.
          1    1    6    6  503    0 -0.52424652838E+02  0.37375024849E+02 -0.56202331909E+02  0.85463084543E+02  0.00000000000E+00 0. -1.
         -1    1    6    6    0  503 -0.21920269623E+02  0.20110125898E+03 -0.18221101621E+03  0.27225552154E+03  0.00000000000E+00 0.  1.
<mgrwt>
<rscale>  0 0.17934213E+04</rscale>
<asrwt>0</asrwt>
<pdfrwt beam="1">  1        2 0.53934215E-01 0.17934213E+04</pdfrwt>
<pdfrwt beam="2">  1       -1 0.35286905E+00 0.17934213E+04</pdfrwt>
<totfact> 0.14858227E+00</totfact>
</mgrwt>
</event>
<event>
12    7  0.1605494E-007  0.1311303E+04  0.7818608E-02  0.9020650E-01
          2   -1    0    0  501    0  0.00000000000E+00  0.00000000000E+00  0.66930208052E+03  0.66930208052E+03  0.00000000000E+00 0. -1.
         -1   -1    0    0    0  501 -0.00000000000E+00 -0.00000000000E+00 -0.64227922105E+03  0.64227922105E+03  0.00000000000E+00 0.  1.
         24    2    1    2    0    0 -0.28966915285E+03 -0.53510898783E+00  0.16424538657E+03  0.34294474508E+03  0.82012479019E+02 0.  0.
        254    2    1    2    0    0  0.28966915285E+03  0.53510898783E+00 -0.13722252710E+03  0.96863655648E+03  0.91406687510E+03 0.  0.
         23    2    4    4    0    0 -0.16831501325E+03 -0.12824903440E+03  0.25674932141E+03  0.34497958200E+03  0.91175322579E+02 0.  0.
         23    2    4    4    0    0  0.45798416611E+03  0.12878414338E+03 -0.39397184850E+03  0.62365697448E+03  0.86019488555E+02 0.  0.
          2    1    3    3  502    0 -0.26585814900E+03 -0.61646381871E+01  0.11864771321E+03  0.29119724930E+03  0.00000000000E+00 0. -1.
         -1    1    3    3    0  502 -0.23811003855E+02  0.56295291993E+01  0.45597673358E+02  0.51747495778E+02  0.00000000000E+00 0.  1.
         13    1    5    5    0    0 -0.16504518151E+03 -0.88610122668E+02  0.23178694207E+03  0.29802156347E+03  0.00000000000E+00 0. -1.
        -13    1    5    5    0    0 -0.32698317432E+01 -0.39638911728E+02  0.24962379338E+02  0.46958018536E+02  0.00000000000E+00 0.  1.
          2    1    6    6  503    0  0.43549767675E+03  0.13977305708E+03 -0.38197459164E+03  0.59590210823E+03  0.00000000000E+00 0. -1.
         -2    1    6    6    0  503  0.22486489358E+02 -0.10988913701E+02 -0.11997256863E+02  0.27754866244E+02  0.00000000000E+00 0.  1.
<mgrwt>
<rscale>  0 0.13113029E+04</rscale>
<asrwt>0</asrwt>
<pdfrwt beam="1">  1        2 0.10296955E+00 0.13113029E+04</pdfrwt>
<pdfrwt beam="2">  1       -1 0.98812187E-01 0.13113029E+04</pdfrwt>
<totfact> 0.47537093E+01</totfact>
</mgrwt>
</event>
<event>
12    7  0.1605494E-007  0.1655849E+04  0.7818608E-02  0.8786954E-01
          2   -1    0    0  501    0  0.00000000000E+00  0.00000000000E+00  0.94184535743E+03  0.94184535743E+03  0.00000000000E+00 0. -1.
         -1   -1    0    0    0  501 -0.00000000000E+00 -0.00000000000E+00 -0.72778310386E+03  0.72778310386E+03  0.00000000000E+00 0.  1.
         24    2    1    2    0    0 -0.11515678950E+03  0.77775867090E+02  0.64262145846E+03  0.66225920449E+03  0.79465359645E+02 0.  0.
        254    2    1    2    0    0  0.11515678950E+03 -0.77775867090E+02 -0.42855920489E+03  0.10073692568E+04  0.90101035276E+03 0.  0.
         23    2    4    4    0    0 -0.19700119173E+03  0.25238813634E+03  0.54487246417E+02  0.33718974979E+03  0.90657743355E+02 0.  0.
         23    2    4    4    0    0  0.31215798123E+03 -0.33016400344E+03 -0.48304645131E+03  0.67017950701E+03  0.96725503811E+02 0.  0.
          4    1    3    3  502    0 -0.91608801261E+02  0.94108571370E+02  0.53562929884E+03  0.55149554980E+03  0.00000000000E+00 0. -1.
         -3    1    3    3    0  502 -0.23547988236E+02 -0.16332704280E+02  0.10699215962E+03  0.11076365469E+03  0.00000000000E+00 0.  1.
         13    1    5    5    0    0 -0.35419130847E+02  0.34590530614E+01  0.10988091390E+02  0.37245375960E+02  0.00000000000E+00 0. -1.
        -13    1    5    5    0    0 -0.16158206088E+03  0.24892908328E+03  0.43499155027E+02  0.29994437383E+03  0.00000000000E+00 0.  1.
          2    1    6    6  503    0  0.29803548887E+01 -0.20139027626E+02 -0.32213698287E+01  0.20611651378E+02  0.00000000000E+00 0. -1.
         -2    1    6    6    0  503  0.30917762634E+03 -0.31002497581E+03 -0.47982508148E+03  0.64956785563E+03  0.00000000000E+00 0.  1.
<mgrwt>
<rscale>  0 0.16558492E+04</rscale>
<asrwt>0</asrwt>
<pdfrwt beam="1">  1        2 0.14489929E+00 0.16558492E+04</pdfrwt>
<pdfrwt beam="2">  1       -1 0.11196663E+00 0.16558492E+04</pdfrwt>
<totfact> 0.21920740E+01</totfact>
</mgrwt>
</event>
<event>
12    7  0.1605494E-007  0.2423247E+04  0.7818608E-02  0.8430851E-01
          2   -1    0    0  501    0  0.00000000000E+00  0.00000000000E+00  0.25244391113E+04  0.25244391113E+04  0.00000000000E+00 0. -1.
         -1   -1    0    0    0  501 -0.00000000000E+00 -0.00000000000E+00 -0.58152793652E+03  0.58152793652E+03  0.00000000000E+00 0.  1.
         24    2    1    2    0    0 -0.71559219838E+03  0.59435954425E+03  0.24813320873E+03  0.96607059842E+03  0.79917767950E+02 0.  0.
        254    2    1    2    0    0  0.71559219838E+03 -0.59435954425E+03  0.16947779661E+04  0.21398964494E+04  0.91735979735E+03 0.  0.
         23    2    4    4    0    0  0.18574875412E+03 -0.24180505205E+03 -0.93097263085E+01  0.31859297365E+03  0.91883235697E+02 0.  0.
         23    2    4    4    0    0  0.52984344426E+03 -0.35255449220E+03  0.17040876924E+04  0.18213034758E+04  0.90568991230E+02 0.  0.
          4    1    3    3  502    0 -0.38285132272E+03  0.34408698741E+03  0.10162380043E+03  0.52468884782E+03  0.00000000000E+00 0. -1.
         -1    1    3    3    0  502 -0.33274087566E+03  0.25027255683E+03  0.14650940830E+03  0.44138175059E+03  0.00000000000E+00 0.  1.
         13    1    5    5    0    0  0.70641075120E+02 -0.38406460682E+02  0.20526643114E+02  0.82985304686E+02  0.00000000000E+00 0. -1.
        -13    1    5    5    0    0  0.11510767900E+03 -0.20339859137E+03 -0.29836369422E+02  0.23560766897E+03  0.00000000000E+00 0.  1.
          3    1    6    6  503    0  0.15136210216E+03 -0.11066612198E+03  0.62333660138E+03  0.65092702752E+03  0.00000000000E+00 0. -1.
         -3    1    6    6    0  503  0.37848134210E+03 -0.24188837021E+03  0.10807510910E+04  0.11703764483E+04  0.00000000000E+00 0.  1.
<mgrwt>
<rscale>  0 0.24232473E+04</rscale>
<asrwt>0</asrwt>
<pdfrwt beam="1">  1        2 0.38837524E+00 0.24232473E+04</pdfrwt>
<pdfrwt beam="2">  1       -1 0.89465838E-01 0.24232473E+04</pdfrwt>
<totfact> 0.42094308E+00</totfact>
</mgrwt>
</event>
<event>
12    7  0.1605494E-007  0.2400770E+04  0.7818608E-02  0.8439215E-01
          2   -1    0    0  501    0  0.00000000000E+00  0.00000000000E+00  0.15717881876E+04  0.15717881876E+04  0.00000000000E+00 0. -1.
         -1   -1    0    0    0  501 -0.00000000000E+00 -0.00000000000E+00 -0.91674230275E+03  0.91674230275E+03  0.00000000000E+00 0.  1.
         24    2    1    2    0    0 -0.98827257660E+03 -0.54940442245E+02  0.58429133544E+03  0.11522547893E+04  0.81200966244E+02 0.  0.
        254    2    1    2    0    0  0.98827257660E+03  0.54940442245E+02  0.70754549416E+02  0.13362757011E+04  0.89494435869E+03 0.  0.
         23    2    4    4    0    0 -0.75173118749E+02  0.20648674401E+03 -0.69926053632E+02  0.24915093797E+03  0.94333258603E+02 0.  0.
         23    2    4    4    0    0  0.10634456953E+04 -0.15154630177E+03  0.14068060305E+03  0.10871247631E+04  0.90366973686E+02 0.  0.
          2    1    3    3  502    0 -0.92361149067E+03 -0.70905156965E+02  0.53933335172E+03  0.10718984053E+04  0.00000000000E+00 0. -1.
         -1    1    3    3    0  502 -0.64661085931E+02  0.15964714721E+02  0.44957983720E+02  0.80356384003E+02  0.00000000000E+00 0.  1.
         13    1    5    5    0    0 -0.10194251845E+02  0.14999500188E+02  0.20733396192E+02  0.27545988714E+02  0.00000000000E+00 0.  1.
        -13    1    5    5    0    0 -0.64978866905E+02  0.19148724383E+03 -0.90659449824E+02  0.22160494926E+03  0.00000000000E+00 0. -1.
          2    1    6    6  503    0  0.85890728952E+03 -0.88262513822E+02  0.10017254003E+03  0.86922180202E+03  0.00000000000E+00 0. -1.
         -2    1    6    6    0  503  0.20453840583E+03 -0.63283787948E+02  0.40508063022E+02  0.21790296108E+03  0.00000000000E+00 0.  1.
<mgrwt>
<rscale>  0 0.24007705E+04</rscale>
<asrwt>0</asrwt>
<pdfrwt beam="1">  1        2 0.24181357E+00 0.24007705E+04</pdfrwt>
<pdfrwt beam="2">  1       -1 0.14103728E+00 0.24007705E+04</pdfrwt>
<totfact> 0.48694097E+00</totfact>
</mgrwt>
</event>
<event>
12    7  0.1669507E-007  0.2794147E+04  0.7818608E-02  0.8305088E-01
         -1   -1    0    0    0  501 -0.00000000000E+00  0.00000000000E+00  0.11245553999E+04  0.11245553999E+04  0.00000000000E+00 0.  1.
          2   -1    0    0  501    0  0.00000000000E+00 -0.00000000000E+00 -0.17356319552E+04  0.17356319552E+04  0.00000000000E+00 0. -1.
         24    2    1    2    0    0  0.33911676154E+03  0.77943474746E+02  0.95285500118E+03  0.10179174441E+04  0.84545293083E+02 0.  0.
        254    2    1    2    0    0 -0.33911676154E+03 -0.77943474746E+02 -0.15639315566E+04  0.18422699110E+04  0.90939603479E+03 0.  0.
         23    2    4    4    0    0  0.30519795848E+03  0.42664092194E+01 -0.50544634705E+03  0.59713800590E+03  0.89071837548E+02 0.  0.
         23    2    4    4    0    0 -0.64431472001E+03 -0.82209883966E+02 -0.10584852095E+04  0.12451319051E+04  0.89791975389E+02 0.  0.
          4    1    3    3  502    0  0.74180229963E+02  0.28259680937E+02  0.32671524853E+03  0.33622041834E+03  0.00000000000E+00 0. -1.
         -3    1    3    3    0  502  0.26493653157E+03  0.49683793809E+02  0.62613975265E+03  0.68169702579E+03  0.00000000000E+00 0.  1.
         13    1    5    5    0    0  0.11046114183E+03  0.41019968550E+02 -0.22121966420E+03  0.25064405340E+03  0.00000000000E+00 0. -1.
        -13    1    5    5    0    0  0.19473681664E+03 -0.36753559331E+02 -0.28422668284E+03  0.34649395250E+03  0.00000000000E+00 0.  1.
          4    1    6    6  503    0 -0.50612526430E+03 -0.77750868969E+02 -0.76300772887E+03  0.91890629288E+03  0.00000000000E+00 0. -1.
         -4    1    6    6    0  503 -0.13818945571E+03 -0.44590149972E+01 -0.29547748064E+03  0.32622561220E+03  0.00000000000E+00 0.  1.
<mgrwt>
<rscale>  0 0.27941469E+04</rscale>
<asrwt>0</asrwt>
<pdfrwt beam="1">  1        2 0.26702030E+00 0.27941469E+04</pdfrwt>
<pdfrwt beam="2">  1       -1 0.17300852E+00 0.27941469E+04</pdfrwt>
<totfact> 0.21714974E+00</totfact>
</mgrwt>
</event>
<event>
12    7  0.1605494E-007  0.2400477E+04  0.7818608E-02  0.8439325E-01
          2   -1    0    0  501    0  0.00000000000E+00  0.00000000000E+00  0.27630475556E+04  0.27630475556E+04  0.00000000000E+00 0. -1.
         -1   -1    0    0    0  501 -0.00000000000E+00 -0.00000000000E+00 -0.52137082000E+03  0.52137082000E+03  0.00000000000E+00 0.  1.
         24    2    1    2    0    0  0.86646044011E+03  0.34212329928E+03  0.16263945583E+04  0.18760019253E+04  0.80136871430E+02 0.  0.
        254    2    1    2    0    0 -0.86646044011E+03 -0.34212329928E+03  0.61528217730E+03  0.14084164503E+04  0.85864002566E+03 0.  0.
         23    2    4    4    0    0 -0.24730509659E+03 -0.54312197602E+03  0.22761032696E+03  0.64525062729E+03  0.91654893122E+02 0.  0.
         23    2    4    4    0    0 -0.61915534352E+03  0.20099867674E+03  0.38767185034E+03  0.76316582304E+03  0.91535798766E+02 0.  0.
          4    1    3    3  502    0  0.12939633226E+03  0.82310779401E+02  0.25549793945E+03  0.29798938281E+03  0.00000000000E+00 0. -1.
         -3    1    3    3    0  502  0.73706410785E+03  0.25981251988E+03  0.13708966189E+04  0.15780125425E+04  0.00000000000E+00 0.  1.
         13    1    5    5    0    0 -0.15377309155E+03 -0.39692211392E+03  0.12506034667E+03  0.44365912423E+03  0.00000000000E+00 0. -1.
        -13    1    5    5    0    0 -0.93532005044E+02 -0.14619986211E+03  0.10254998029E+03  0.20159150306E+03  0.00000000000E+00 0.  1.
          3    1    6    6  503    0 -0.27671688727E+03  0.52759533075E+02  0.20002346039E+03  0.34549267538E+03  0.00000000000E+00 0. -1.
         -3    1    6    6    0  503 -0.34243845624E+03  0.14823914367E+03  0.18764838995E+03  0.41767314767E+03  0.00000000000E+00 0.  1.
<mgrwt>
<rscale>  0 0.24004769E+04</rscale>
<asrwt>0</asrwt>
<pdfrwt beam="1">  1        2 0.42508423E+00 0.24004769E+04</pdfrwt>
<pdfrwt beam="2">  1       -1 0.80210897E-01 0.24004769E+04</pdfrwt>
<totfact> 0.38625702E+00</totfact>
</mgrwt>
</event>
<event>
12    7  0.1605494E-007  0.2921668E+04  0.7818608E-02  0.8266460E-01
         -1   -1    0    0    0  501 -0.00000000000E+00  0.00000000000E+00  0.28539262551E+04  0.28539262551E+04  0.00000000000E+00 0.  1.
          2   -1    0    0  501    0  0.00000000000E+00 -0.00000000000E+00 -0.74775446271E+03  0.74775446271E+03  0.00000000000E+00 0. -1.
         24    2    1    2    0    0  0.41804894470E+03  0.12458528444E+04  0.78864963613E+03  0.15345351425E+04  0.76913098349E+02 0.  0.
        254    2    1    2    0    0 -0.41804894470E+03 -0.12458528444E+04  0.13175221563E+04  0.20671455754E+04  0.90017329847E+03 0.  0.
         23    2    4    4    0    0  0.69051106913E+02 -0.60271081634E+03  0.10439576588E+04  0.12107726936E+04  0.89969653766E+02 0.  0.
         23    2    4    4    0    0 -0.48710005162E+03 -0.64314202811E+03  0.27356449744E+03  0.85637288177E+03  0.87400513550E+02 0.  0.
          2    1    3    3  502    0  0.45823756736E+02  0.11595991443E+03  0.50603624858E+02  0.13456316467E+03  0.00000000000E+00 0. -1.
         -1    1    3    3    0  502  0.37222518797E+03  0.11298929300E+04  0.73804601127E+03  0.13999719778E+04  0.00000000000E+00 0.  1.
         13    1    5    5    0    0 -0.29939059815E+01 -0.10731307668E+03  0.25126292994E+03  0.27323638093E+03  0.00000000000E+00 0.  1.
        -13    1    5    5    0    0  0.72045012895E+02 -0.49539773965E+03  0.79269472890E+03  0.93753631266E+03  0.00000000000E+00 0. -1.
          4    1    6    6  503    0 -0.41696081938E+03 -0.57989531687E+03  0.26391682030E+03  0.76143745079E+03  0.00000000000E+00 0. -1.
         -4    1    6    6    0  503 -0.70139232240E+02 -0.63246711240E+02  0.96476771320E+01  0.94935430983E+02  0.00000000000E+00 0.  1.
<mgrwt>
<rscale>  0 0.29216681E+04</rscale>
<asrwt>0</asrwt>
<pdfrwt beam="1">  1        2 0.11503915E+00 0.29216681E+04</pdfrwt>
<pdfrwt beam="2">  1       -1 0.43906557E+00 0.29216681E+04</pdfrwt>
<totfact> 0.14222969E-01</totfact>
</mgrwt>
</event>
<event>
12    7  0.1605494E-007  0.1396839E+04  0.7818608E-02  0.8956110E-01
         -1   -1    0    0    0  501 -0.00000000000E+00  0.00000000000E+00  0.39048202202E+03  0.39048202202E+03  0.00000000000E+00 0.  1.
          2   -1    0    0  501    0  0.00000000000E+00 -0.00000000000E+00 -0.12491998215E+04  0.12491998215E+04  0.00000000000E+00 0. -1.
         24    2    1    2    0    0 -0.27825980248E+02  0.32400683783E+03 -0.53202392629E+03  0.62896437135E+03  0.82413628447E+02 0.  0.
        254    2    1    2    0    0  0.27825980248E+02 -0.32400683783E+03 -0.32669387319E+03  0.10107174722E+04  0.89948107575E+03 0.  0.
         23    2    4    4    0    0  0.40037244738E+02 -0.62944749440E+03 -0.18980339815E+03  0.66506111134E+03  0.92053368774E+02 0.  0.
         23    2    4    4    0    0 -0.12211264491E+02  0.30544065656E+03 -0.13689047505E+03  0.34565636083E+03  0.85417843334E+02 0.  0.
          2    1    3    3  502    0 -0.97426498729E+01  0.31214442157E+03 -0.48031510427E+03  0.57291505351E+03  0.00000000000E+00 0. -1.
         -1    1    3    3    0  502 -0.18083330375E+02  0.11862416261E+02 -0.51708822011E+02  0.56049317844E+02  0.00000000000E+00 0.  1.
         13    1    5    5    0    0  0.19356396731E+02 -0.26279918020E+03 -0.12692433790E+03  0.29248566932E+03  0.00000000000E+00 0.  1.
        -13    1    5    5    0    0  0.20680848007E+02 -0.36664831420E+03 -0.62879060247E+02  0.37257544202E+03  0.00000000000E+00 0. -1.
          3    1    6    6  503    0  0.11953109693E+02  0.25907307456E+03 -0.87447495245E+02  0.27369471901E+03  0.00000000000E+00 0. -1.
         -3    1    6    6    0  503 -0.24164374184E+02  0.46367582007E+02 -0.49442979801E+02  0.71961641813E+02  0.00000000000E+00 0.  1.
<mgrwt>
<rscale>  0 0.13968394E+04</rscale>
<asrwt>0</asrwt>
<pdfrwt beam="1">  1        2 0.19218458E+00 0.13968394E+04</pdfrwt>
<pdfrwt beam="2">  1       -1 0.60074159E-01 0.13968394E+04</pdfrwt>
<totfact> 0.55214706E+01</totfact>
</mgrwt>
</event>
<event>
12    7  0.1605494E-007  0.2016162E+04  0.7818608E-02  0.8599102E-01
          2   -1    0    0  501    0  0.00000000000E+00  0.00000000000E+00  0.11094030887E+04  0.11094030887E+04  0.00000000000E+00 0. -1.
         -1   -1    0    0    0  501 -0.00000000000E+00 -0.00000000000E+00 -0.91601225084E+03  0.91601225084E+03  0.00000000000E+00 0.  1.
         24    2    1    2    0    0 -0.75193800379E+03  0.21903255747E+02  0.35301918216E+03  0.83473317928E+03  0.79160744484E+02 0.  0.
        254    2    1    2    0    0  0.75193800379E+03 -0.21903255747E+02 -0.15962834429E+03  0.11906821603E+04  0.90903920945E+03 0.  0.
         23    2    4    4    0    0  0.13522331267E+03  0.10765573021E+03  0.33265958952E+03  0.38579874074E+03  0.91121706104E+02 0.  0.
         23    2    4    4    0    0  0.61671469112E+03 -0.12955898596E+03 -0.49228793380E+03  0.80488341952E+03  0.91473319417E+02 0.  0.
          2    1    3    3  502    0 -0.57516207848E+03  0.13468700441E+02  0.30591119362E+03  0.65159380046E+03  0.00000000000E+00 0. -1.
         -1    1    3    3    0  502 -0.17677592531E+03  0.84345553064E+01  0.47107988541E+02  0.18313937882E+03  0.00000000000E+00 0.  1.
         13    1    5    5    0    0  0.14000726040E+03  0.81544367554E+02  0.31404173242E+03  0.35337476784E+03  0.00000000000E+00 0.  1.
        -13    1    5    5    0    0 -0.47839477346E+01  0.26111362658E+02  0.18617857100E+02  0.32423972903E+02  0.00000000000E+00 0. -1.
          4    1    6    6  503    0  0.41853845482E+02  0.13384239093E+02 -0.26430989767E+02  0.51278450228E+02  0.00000000000E+00 0. -1.
         -4    1    6    6    0  503  0.57486084564E+03 -0.14294322505E+03 -0.46585694404E+03  0.75360496930E+03  0.00000000000E+00 0.  1.
<mgrwt>
<rscale>  0 0.20161615E+04</rscale>
<asrwt>0</asrwt>
<pdfrwt beam="1">  1        2 0.17067740E+00 0.20161615E+04</pdfrwt>
<pdfrwt beam="2">  1       -1 0.14092496E+00 0.20161615E+04</pdfrwt>
<totfact> 0.93717740E+00</totfact>
</mgrwt>
</event>
<event>
12    7  0.1605494E-007  0.1493039E+04  0.7818608E-02  0.8889095E-01
         -1   -1    0    0    0  501 -0.00000000000E+00  0.00000000000E+00  0.51672493382E+03  0.51672493382E+03  0.00000000000E+00 0.  1.
          2   -1    0    0  501    0  0.00000000000E+00 -0.00000000000E+00 -0.10785072825E+04  0.10785072825E+04  0.00000000000E+00 0. -1.
         24    2    1    2    0    0  0.27160619152E+03  0.37389022909E+03 -0.23688789600E+03  0.52521796582E+03  0.78576139320E+02 0.  0.
        254    2    1    2    0    0 -0.27160619152E+03 -0.37389022909E+03 -0.32489445267E+03  0.10700142505E+04  0.90874103252E+03 0.  0.
         23    2    4    4    0    0  0.74702513541E+02 -0.24842091277E+03 -0.56020614309E+03  0.62344852649E+03  0.86969690126E+02 0.  0.
         23    2    4    4    0    0 -0.34630870506E+03 -0.12546931631E+03  0.23531169042E+03  0.44656572400E+03  0.91526420585E+02 0.  0.
          2    1    3    3  502    0  0.26141613618E+03  0.32631894262E+03 -0.22629336135E+03  0.47542731722E+03  0.00000000000E+00 0. -1.
         -1    1    3    3    0  502  0.10190055343E+02  0.47571286464E+02 -0.10594534657E+02  0.49790648603E+02  0.00000000000E+00 0.  1.
         13    1    5    5    0    0 -0.81622412924E+01 -0.12265219336E+03 -0.24507316383E+03  0.27417337279E+03  0.00000000000E+00 0.  1.
        -13    1    5    5    0    0  0.82864754833E+02 -0.12576871941E+03 -0.31513297926E+03  0.34927515370E+03  0.00000000000E+00 0. -1.
          2    1    6    6  503    0 -0.47067150756E+02 -0.27399477753E+02  0.76440329011E+02  0.93857189180E+02  0.00000000000E+00 0.  1.
         -2    1    6    6    0  503 -0.29924155430E+03 -0.98069838561E+02  0.15887136141E+03  0.35270853482E+03  0.00000000000E+00 0. -1.
<mgrwt>
<rscale>  0 0.14930393E+04</rscale>
<asrwt>0</asrwt>
<pdfrwt beam="1">  1        2 0.16592419E+00 0.14930393E+04</pdfrwt>
<pdfrwt beam="2">  1       -1 0.79496145E-01 0.14930393E+04</pdfrwt>
<totfact> 0.39172088E+01</totfact>
</mgrwt>
</event>
<event>
12    7  0.1605494E-007  0.1378700E+04  0.7818608E-02  0.8969382E-01
          2   -1    0    0  501    0  0.00000000000E+00  0.00000000000E+00  0.28738021986E+03  0.28738021986E+03  0.00000000000E+00 0. -1.
         -1   -1    0    0    0  501 -0.00000000000E+00 -0.00000000000E+00 -0.16535709944E+04  0.16535709944E+04  0.00000000000E+00 0.  1.
         24    2    1    2    0    0  0.28537337703E+03 -0.34448760340E+02 -0.33345308250E+02  0.30369597730E+03  0.92166456165E+02 0.  0.
        254    2    1    2    0    0 -0.28537337703E+03  0.34448760340E+02 -0.13328454663E+04  0.16372552370E+04  0.90636802267E+03 0.  0.
         23    2    4    4    0    0 -0.22942454247E+02 -0.95357558078E+02 -0.13239101056E+04  0.13305517989E+04  0.89502523281E+02 0.  0.
         23    2    4    4    0    0 -0.26243092278E+03  0.12980631842E+03 -0.89353607324E+01  0.30670343812E+03  0.90925732068E+02 0.  0.
          4    1    3    3  502    0  0.16118680518E+03 -0.55021266568E+02  0.98720507108E+01  0.17060475763E+03  0.00000000000E+00 0. -1.
         -3    1    3    3    0  502  0.12418657184E+03  0.20572506227E+02 -0.43217358961E+02  0.13309121968E+03  0.00000000000E+00 0.  1.
         13    1    5    5    0    0 -0.29181690747E+01 -0.54849181712E+01 -0.39028028001E+01  0.73370230877E+01  0.00000000000E+00 0. -1.
        -13    1    5    5    0    0 -0.20024285173E+02 -0.89872639907E+02 -0.13200073028E+04  0.13232147758E+04  0.00000000000E+00 0.  1.
          3    1    6    6  503    0 -0.49483522505E+01  0.29967483917E+02 -0.23418813104E+01  0.30463432019E+02  0.00000000000E+00 0. -1.
         -3    1    6    6    0  503 -0.25748257053E+03  0.99838834502E+02 -0.65934794220E+01  0.27624000610E+03  0.00000000000E+00 0.  1.
<mgrwt>
<rscale>  0 0.13787003E+04</rscale>
<asrwt>0</asrwt>
<pdfrwt beam="1">  1        2 0.44212342E-01 0.13787003E+04</pdfrwt>
<pdfrwt beam="2">  1       -1 0.25439553E+00 0.13787003E+04</pdfrwt>
<totfact> 0.84050717E+00</totfact>
</mgrwt>
</event>
<event>
12    7  0.1605494E-007  0.1312233E+04  0.7818608E-02  0.9019920E-01
          2   -1    0    0  501    0  0.00000000000E+00  0.00000000000E+00  0.18737078008E+04  0.18737078008E+04  0.00000000000E+00 0. -1.
         -1   -1    0    0    0  501 -0.00000000000E+00 -0.00000000000E+00 -0.22975245364E+03  0.22975245364E+03  0.00000000000E+00 0.  1.
         24    2    1    2    0    0 -0.31928848669E+03  0.93490750357E+02  0.30064078052E+03  0.45383369438E+03  0.69960596829E+02 0.  0.
        254    2    1    2    0    0  0.31928848669E+03 -0.93490750357E+02  0.13433145666E+04  0.16496265601E+04  0.89782409447E+03 0.  0.
         23    2    4    4    0    0 -0.18196350261E+03 -0.10261133338E+03  0.10219175571E+04  0.10469913834E+04  0.90750544746E+02 0.  0.
         23    2    4    4    0    0  0.50125198930E+03  0.91205830276E+01  0.32139700957E+03  0.60263517671E+03  0.92392513921E+02 0.  0.
          2    1    3    3  502    0 -0.28667669861E+03  0.10323733894E+03  0.28125274943E+03  0.41466201506E+03  0.00000000000E+00 0. -1.
         -1    1    3    3    0  502 -0.32611788082E+02 -0.97465885797E+01  0.19388031085E+02  0.39171679314E+02  0.00000000000E+00 0.  1.
         13    1    5    5    0    0 -0.38262635330E+02  0.41680736597E+01  0.33199788771E+03  0.33422148277E+03  0.00000000000E+00 0. -1.
        -13    1    5    5    0    0 -0.14370086728E+03 -0.10677940704E+03  0.68991966936E+03  0.71276990060E+03  0.00000000000E+00 0.  1.
          3    1    6    6  503    0  0.63834032715E+02 -0.29317027557E+02  0.35983139469E+02  0.78924382566E+02  0.00000000000E+00 0. -1.
         -3    1    6    6    0  503  0.43741795659E+03  0.38437610584E+02  0.28541387011E+03  0.52371079414E+03  0.00000000000E+00 0.  1.
<mgrwt>
<rscale>  0 0.13122332E+04</rscale>
<asrwt>0</asrwt>
<pdfrwt beam="1">  1        2 0.28826273E+00 0.13122332E+04</pdfrwt>
<pdfrwt beam="2">  1       -1 0.35346533E-01 0.13122332E+04</pdfrwt>
<totfact> 0.66815874E+01</totfact>
</mgrwt>
</event>
<event>
12    7  0.1605494E-007  0.1454839E+04  0.7818608E-02  0.8915053E-01
         -1   -1    0    0    0  501 -0.00000000000E+00  0.00000000000E+00  0.85244135842E+03  0.85244135842E+03  0.00000000000E+00 0.  1.
          2   -1    0    0  501    0  0.00000000000E+00 -0.00000000000E+00 -0.62073378758E+03  0.62073378758E+03  0.00000000000E+00 0. -1.
         24    2    1    2    0    0  0.12839319996E+03 -0.25660579182E+03 -0.27495562494E+03  0.40617009210E+03  0.83917827865E+02 0.  0.
        254    2    1    2    0    0 -0.12839319996E+03  0.25660579182E+03  0.50666319579E+03  0.10670050539E+04  0.89412574333E+03 0.  0.
         23    2    4    4    0    0 -0.56812737592E+02  0.27026543855E+03  0.74621216591E+03  0.80089107549E+03  0.91229511724E+02 0.  0.
         23    2    4    4    0    0 -0.71580462368E+02 -0.13659646727E+02 -0.23954897013E+03  0.26611397841E+03  0.90125423024E+02 0.  0.
          4    1    3    3  502    0  0.11725862665E+03 -0.25407368134E+03 -0.27790314537E+03  0.39437695075E+03  0.00000000000E+00 0. -1.
         -3    1    3    3    0  502  0.11134573307E+02 -0.25321104828E+01  0.29475204269E+01  0.11793141350E+02  0.00000000000E+00 0.  1.
         13    1    5    5    0    0 -0.32143200829E+02  0.62468846693E+02  0.10447713954E+03  0.12590081355E+03  0.00000000000E+00 0.  1.
        -13    1    5    5    0    0 -0.24669536762E+02  0.20779659186E+03  0.64173502637E+03  0.67499026193E+03  0.00000000000E+00 0. -1.
          3    1    6    6  503    0 -0.60972322524E+02  0.18063836012E+02 -0.21610278092E+03  0.22526503991E+03  0.00000000000E+00 0. -1.
         -3    1    6    6    0  503 -0.10608139844E+02 -0.31723482740E+02 -0.23446189206E+02  0.40848938498E+02  0.00000000000E+00 0.  1.
<mgrwt>
<rscale>  0 0.14548390E+04</rscale>
<asrwt>0</asrwt>
<pdfrwt beam="1">  1        2 0.95497506E-01 0.14548390E+04</pdfrwt>
<pdfrwt beam="2">  1       -1 0.13114482E+00 0.14548390E+04</pdfrwt>
<totfact> 0.26151018E+01</totfact>
</mgrwt>
</event>
<event>
12    7  0.1605494E-007  0.3656123E+04  0.7818608E-02  0.8077756E-01
         -1   -1    0    0    0  501 -0.00000000000E+00  0.00000000000E+00  0.17492316902E+04  0.17492316902E+04  0.00000000000E+00 0.  1.
          2   -1    0    0  501    0  0.00000000000E+00 -0.00000000000E+00 -0.19104435054E+04  0.19104435054E+04  0.00000000000E+00 0. -1.
         24    2    1    2    0    0  0.10528581500E+04  0.97514481188E+03  0.86856664252E+03  0.16796737363E+04  0.86476353665E+02 0.  0.
        254    2    1    2    0    0 -0.10528581500E+04 -0.97514481188E+03 -0.10297784577E+04  0.19800014593E+04  0.89473147848E+03 0.  0.
         23    2    4    4    0    0 -0.11432454520E+03 -0.46052998911E+03 -0.71134204022E+03  0.85949180880E+03  0.86952278304E+02 0.  0.
         23    2    4    4    0    0 -0.93853360481E+03 -0.51461482277E+03 -0.31843641750E+03  0.11205096505E+04  0.92012942874E+02 0.  0.
          2    1    3    3  502    0  0.20114555062E+03  0.16677231212E+03  0.19414838864E+03  0.32552439761E+03  0.00000000000E+00 0. -1.
         -1    1    3    3    0  502  0.85171259938E+03  0.80837249976E+03  0.67441825388E+03  0.13541493387E+04  0.00000000000E+00 0.  1.
         13    1    5    5    0    0  0.12312287464E+02 -0.23156098311E+02 -0.51467215194E+02  0.57763929501E+02  0.00000000000E+00 0. -1.
        -13    1    5    5    0    0 -0.12663683266E+03 -0.43737389080E+03 -0.65987482502E+03  0.80172787930E+03  0.00000000000E+00 0.  1.
          4    1    6    6  503    0 -0.69654769469E+03 -0.41823485200E+03 -0.26519776846E+03  0.85465135512E+03  0.00000000000E+00 0. -1.
         -4    1    6    6    0  503 -0.24198591012E+03 -0.96379970766E+02 -0.53238649043E+02  0.26585829536E+03  0.00000000000E+00 0.  1.
<mgrwt>
<rscale>  0 0.36561227E+04</rscale>
<asrwt>0</asrwt>
<pdfrwt beam="1">  1        2 0.29391438E+00 0.36561227E+04</pdfrwt>
<pdfrwt beam="2">  1       -1 0.26911257E+00 0.36561227E+04</pdfrwt>
<totfact> 0.36211560E-01</totfact>
</mgrwt>
</event>
<event>
12    7  0.1605494E-007  0.1596874E+04  0.7818608E-02  0.8822471E-01
          2   -1    0    0  501    0  0.00000000000E+00  0.00000000000E+00  0.20449315123E+04  0.20449315123E+04  0.00000000000E+00 0. -1.
         -1   -1    0    0    0  501 -0.00000000000E+00 -0.00000000000E+00 -0.31174708852E+03  0.31174708852E+03  0.00000000000E+00 0.  1.
         24    2    1    2    0    0  0.18377408148E+03  0.46980117782E+03  0.57693755087E+03  0.77036920069E+03  0.78266902720E+02 0.  0.
        254    2    1    2    0    0 -0.18377408148E+03 -0.46980117782E+03  0.11562468729E+04  0.15863094001E+04  0.96176120847E+03 0.  0.
         23    2    4    4    0    0 -0.24698667470E+03 -0.72087931078E+03  0.63296214673E+03  0.99471834367E+03  0.90300087778E+02 0.  0.
         23    2    4    4    0    0  0.63212593219E+02  0.25107813296E+03  0.52328472613E+03  0.59159105642E+03  0.95483048991E+02 0.  0.
          4    1    3    3  502    0  0.15847580659E+03  0.30846656247E+03  0.40631977742E+03  0.53419281440E+03  0.00000000000E+00 0. -1.
         -3    1    3    3    0  502  0.25298274886E+02  0.16133461534E+03  0.17061777345E+03  0.23617638628E+03  0.00000000000E+00 0.  1.
         13    1    5    5    0    0 -0.36173179186E+02 -0.11128792120E+03  0.57823983060E+02  0.13052629357E+03  0.00000000000E+00 0. -1.
        -13    1    5    5    0    0 -0.21081349551E+03 -0.60959138958E+03  0.57513816367E+03  0.86419205010E+03  0.00000000000E+00 0.  1.
          3    1    6    6  503    0  0.16353477291E+02  0.20951089040E+03  0.43768411253E+03  0.48551996023E+03  0.00000000000E+00 0.  1.
         -3    1    6    6    0  503  0.46859115928E+02  0.41567242562E+02  0.85600613599E+02  0.10607109620E+03  0.00000000000E+00 0. -1.
<mgrwt>
<rscale>  0 0.15968738E+04</rscale>
<asrwt>0</asrwt>
<pdfrwt beam="1">  1        2 0.31460484E+00 0.15968738E+04</pdfrwt>
<pdfrwt beam="2">  1       -1 0.47961092E-01 0.15968738E+04</pdfrwt>
<totfact> 0.29942705E+01</totfact>
</mgrwt>
</event>
<event>
12    7  0.1605494E-007  0.1408452E+04  0.7818608E-02  0.8947723E-01
         -1   -1    0    0    0  501 -0.00000000000E+00  0.00000000000E+00  0.24924645651E+03  0.24924645651E+03  0.00000000000E+00 0.  1.
          2   -1    0    0  501    0  0.00000000000E+00 -0.00000000000E+00 -0.19897332493E+04  0.19897332493E+04  0.00000000000E+00 0. -1.
         24    2    1    2    0    0  0.11564789253E+03  0.32224690521E+03 -0.16544220995E+03  0.38824986191E+03  0.78417647740E+02 0.  0.
        254    2    1    2    0    0 -0.11564789253E+03 -0.32224690521E+03 -0.15750445829E+04  0.18507298439E+04  0.90951526333E+03 0.  0.
         23    2    4    4    0    0 -0.12890485563E+02  0.30039270535E+03 -0.70496318647E+03  0.77185155382E+03  0.91541164561E+02 0.  0.
         23    2    4    4    0    0 -0.10275740696E+03 -0.62263961056E+03 -0.87008139642E+03  0.10788782901E+04  0.93260705540E+02 0.  0.
          4    1    3    3  502    0  0.62417519219E+01  0.11845301260E+03 -0.72173536262E+02  0.13884918076E+03  0.00000000000E+00 0. -1.
         -3    1    3    3    0  502  0.10940614060E+03  0.20379389261E+03 -0.93268673690E+02  0.24940068116E+03  0.00000000000E+00 0.  1.
         13    1    5    5    0    0  0.78311603555E+01  0.28674078338E+03 -0.61636015118E+03  0.67983927504E+03  0.00000000000E+00 0. -1.
        -13    1    5    5    0    0 -0.20721645919E+02  0.13651921966E+02 -0.88603035290E+02  0.92012278776E+02  0.00000000000E+00 0.  1.
          3    1    6    6  503    0 -0.14744055310E+01 -0.29204300924E+03 -0.40820059671E+03  0.50191535170E+03  0.00000000000E+00 0.  1.
         -3    1    6    6    0  503 -0.10128300143E+03 -0.33059660132E+03 -0.46188079971E+03  0.57696293843E+03  0.00000000000E+00 0. -1.
<mgrwt>
<rscale>  0 0.14084516E+04</rscale>
<asrwt>0</asrwt>
<pdfrwt beam="1">  1        2 0.30611282E+00 0.14084516E+04</pdfrwt>
<pdfrwt beam="2">  1       -1 0.38345607E-01 0.14084516E+04</pdfrwt>
<totfact> 0.49380386E+01</totfact>
</mgrwt>
</event>
<event>
12    7  0.1605494E-007  0.2801743E+04  0.7818608E-02  0.8302727E-01
          2   -1    0    0  501    0  0.00000000000E+00  0.00000000000E+00  0.27597627948E+04  0.27597627948E+04  0.00000000000E+00 0. -1.
         -1   -1    0    0    0  501 -0.00000000000E+00 -0.00000000000E+00 -0.71109034530E+03  0.71109034530E+03  0.00000000000E+00 0.  1.
         24    2    1    2    0    0 -0.35265262511E+03  0.80928872172E+03  0.20062666978E+04  0.21933397316E+04  0.79504756540E+02 0.  0.
        254    2    1    2    0    0  0.35265262511E+03 -0.80928872172E+03  0.42405751700E+02  0.12775134085E+04  0.92245875358E+03 0.  0.
         23    2    4    4    0    0  0.50044953462E+03 -0.87045077756E+03 -0.13886115413E+03  0.10176820493E+04  0.90884764802E+02 0.  0.
         23    2    4    4    0    0 -0.14779690950E+03  0.61162055839E+02  0.18126690583E+03  0.25983135923E+03  0.95236130501E+02 0.  0.
          2    1    3    3  502    0 -0.15765603014E+03  0.40183160079E+03  0.10705368343E+04  0.11542847018E+04  0.00000000000E+00 0. -1.
         -1    1    3    3    0  502 -0.19499659497E+03  0.40745712093E+03  0.93572986355E+03  0.10390550298E+04  0.00000000000E+00 0.  1.
         13    1    5    5    0    0  0.20545633862E+03 -0.43881767798E+03 -0.46269729467E+02  0.48673827613E+03  0.00000000000E+00 0. -1.
        -13    1    5    5    0    0  0.29499319599E+03 -0.43163309958E+03 -0.92591424668E+02  0.53094377316E+03  0.00000000000E+00 0.  1.
          1    1    6    6  503    0 -0.74263899556E+02  0.73728214852E+02  0.13933148000E+03  0.17425337231E+03  0.00000000000E+00 0. -1.
         -1    1    6    6    0  503 -0.73533009948E+02 -0.12566159013E+02  0.41935425831E+02  0.85577986912E+02  0.00000000000E+00 0.  1.
<mgrwt>
<rscale>  0 0.28017428E+04</rscale>
<asrwt>0</asrwt>
<pdfrwt beam="1">  1        2 0.42457889E+00 0.28017428E+04</pdfrwt>
<pdfrwt beam="2">  1       -1 0.10939852E+00 0.28017428E+04</pdfrwt>
<totfact> 0.18690433E+00</totfact>
</mgrwt>
</event>
<event>
12    7  0.1605494E-007  0.2867234E+04  0.7818608E-02  0.8282694E-01
         -1   -1    0    0    0  501 -0.00000000000E+00  0.00000000000E+00  0.16067369867E+04  0.16067369867E+04  0.00000000000E+00 0.  1.
          2   -1    0    0  501    0  0.00000000000E+00 -0.00000000000E+00 -0.12791496172E+04  0.12791496172E+04  0.00000000000E+00 0. -1.
         24    2    1    2    0    0 -0.11120257238E+04 -0.28893280219E+02 -0.51322911840E+03  0.12276347009E+04  0.79036692423E+02 0.  0.
        254    2    1    2    0    0  0.11120257238E+04  0.28893280219E+02  0.84081648790E+03  0.16582519030E+04  0.89743577793E+03 0.  0.
         23    2    4    4    0    0  0.91069816032E+03  0.33371383356E+03  0.83229463280E+03  0.12813411185E+04  0.91567702886E+02 0.  0.
         23    2    4    4    0    0  0.20132756350E+03 -0.30482055334E+03  0.85218550991E+01  0.37691078455E+03  0.92416231959E+02 0.  0.
          4    1    3    3  502    0 -0.93538514302E+03 -0.27470693028E+02 -0.46253859236E+03  0.10438591640E+04  0.00000000000E+00 0. -1.
         -3    1    3    3    0  502 -0.17664058081E+03 -0.14225871911E+01 -0.50690526034E+02  0.18377553692E+03  0.00000000000E+00 0.  1.
         13    1    5    5    0    0  0.71843396971E+03  0.26785054454E+03  0.70459352574E+03  0.10413180684E+04  0.00000000000E+00 0. -1.
        -13    1    5    5    0    0  0.19226419061E+03  0.65863289023E+02  0.12770110706E+03  0.24002305009E+03  0.00000000000E+00 0.  1.
          2    1    6    6  503    0  0.89031537695E+02 -0.10334970816E+03 -0.38018056836E+02  0.14160914351E+03  0.00000000000E+00 0. -1.
         -2    1    6    6    0  503  0.11229602581E+03 -0.20147084519E+03  0.46539911936E+02  0.23530164104E+03  0.00000000000E+00 0.  1.
<mgrwt>
<rscale>  0 0.28672335E+04</rscale>
<asrwt>0</asrwt>
<pdfrwt beam="1">  1        2 0.19679225E+00 0.28672335E+04</pdfrwt>
<pdfrwt beam="2">  1       -1 0.24719031E+00 0.28672335E+04</pdfrwt>
<totfact> 0.12191134E+00</totfact>
</mgrwt>
</event>
<event>
12    7  0.1605494E-007  0.2305206E+04  0.7818608E-02  0.8475871E-01
         -1   -1    0    0    0  501 -0.00000000000E+00  0.00000000000E+00  0.52067250126E+03  0.52067250126E+03  0.00000000000E+00 0.  1.
          2   -1    0    0  501    0  0.00000000000E+00 -0.00000000000E+00 -0.25514951417E+04  0.25514951417E+04  0.00000000000E+00 0. -1.
         24    2    1    2    0    0  0.26776472033E+03 -0.86833316158E+03 -0.13478734195E+04  0.16276351960E+04  0.82055781467E+02 0.  0.
        254    2    1    2    0    0 -0.26776472033E+03  0.86833316158E+03 -0.68294922095E+03  0.14445324470E+04  0.89137754459E+03 0.  0.
         23    2    4    4    0    0 -0.76892137110E+02 -0.15364021494E+03 -0.25722368013E+01  0.19869828111E+03  0.99783135441E+02 0.  0.
         23    2    4    4    0    0 -0.19087258323E+03  0.10219733765E+04 -0.68037698415E+03  0.12458341659E+04  0.91257892375E+02 0.  0.
          4    1    3    3  502    0  0.22266972464E+03 -0.61149064602E+03 -0.93026247420E+03  0.11352933045E+04  0.00000000000E+00 0. -1.
         -3    1    3    3    0  502  0.45094995691E+02 -0.25684251556E+03 -0.41761094528E+03  0.49234189142E+03  0.00000000000E+00 0.  1.
         13    1    5    5    0    0 -0.74968066756E+02 -0.16285474238E+03 -0.18461902163E+02  0.18022963125E+03  0.00000000000E+00 0. -1.
        -13    1    5    5    0    0 -0.19240703536E+01  0.92145274351E+01  0.15889665362E+02  0.18468649866E+02  0.00000000000E+00 0.  1.
          3    1    6    6  503    0 -0.16981129866E+03  0.97134946228E+03 -0.66327825837E+03  0.11883996395E+04  0.00000000000E+00 0. -1.
         -3    1    6    6    0  503 -0.21061284560E+02  0.50623914236E+02 -0.17098725779E+02  0.57434526404E+02  0.00000000000E+00 0.  1.
<mgrwt>
<rscale>  0 0.23052057E+04</rscale>
<asrwt>0</asrwt>
<pdfrwt beam="1">  1        2 0.39253771E+00 0.23052057E+04</pdfrwt>
<pdfrwt beam="2">  1       -1 0.80103462E-01 0.23052057E+04</pdfrwt>
<totfact> 0.52111726E+00</totfact>
</mgrwt>
</event>
<event>
12    7  0.1605494E-007  0.1547712E+04  0.7818608E-02  0.8853331E-01
          2   -1    0    0  501    0  0.00000000000E+00  0.00000000000E+00  0.36232851958E+04  0.36232851958E+04  0.00000000000E+00 0. -1.
         -1   -1    0    0    0  501 -0.00000000000E+00 -0.00000000000E+00 -0.16527901399E+03  0.16527901399E+03  0.00000000000E+00 0.  1.
         24    2    1    2    0    0 -0.47871028952E+03  0.12446771234E+01  0.73790955463E+03  0.88365133924E+03  0.84640935822E+02 0.  0.
        254    2    1    2    0    0  0.47871028952E+03 -0.12446771234E+01  0.27200966271E+04  0.29049128705E+04  0.90023776510E+03 0.  0.
         23    2    4    4    0    0  0.77691982684E+02 -0.67698213323E+02  0.23295002347E+04  0.23335324031E+04  0.90460159546E+02 0.  0.
         23    2    4    4    0    0  0.40101830683E+03  0.66453536199E+02  0.39059639243E+03  0.57138046741E+03  0.93157618461E+02 0.  0.
          2    1    3    3  502    0 -0.27834720919E+03  0.36804006411E+02  0.46563268883E+03  0.54373293505E+03  0.00000000000E+00 0. -1.
         -1    1    3    3    0  502 -0.20036308032E+03 -0.35559329288E+02  0.27227686580E+03  0.33991840419E+03  0.00000000000E+00 0.  1.
         13    1    5    5    0    0  0.59734802695E+02 -0.90289690855E+02  0.18358794830E+04  0.18390687728E+04  0.00000000000E+00 0.  1.
        -13    1    5    5    0    0  0.17957179989E+02  0.22591477533E+02  0.49362075172E+03  0.49446363031E+03  0.00000000000E+00 0. -1.
          2    1    6    6  503    0  0.42346048983E+02 -0.21080868632E+02  0.53832011648E+02  0.71662238067E+02  0.00000000000E+00 0. -1.
         -2    1    6    6    0  503  0.35867225785E+03  0.87534404832E+02  0.33676438078E+03  0.49971822935E+03  0.00000000000E+00 0.  1.
<mgrwt>
<rscale>  0 0.15477119E+04</rscale>
<asrwt>0</asrwt>
<pdfrwt beam="1">  1        2 0.55742843E+00 0.15477119E+04</pdfrwt>
<pdfrwt beam="2">  1       -1 0.25427543E-01 0.15477119E+04</pdfrwt>
<totfact> 0.10055334E+01</totfact>
</mgrwt>
</event>
<event>
12    7  0.1605494E-007  0.1859835E+04  0.7818608E-02  0.8675111E-01
         -1   -1    0    0    0  501 -0.00000000000E+00  0.00000000000E+00  0.62704982373E+03  0.62704982373E+03  0.00000000000E+00 0.  1.
          2   -1    0    0  501    0  0.00000000000E+00 -0.00000000000E+00 -0.13790717085E+04  0.13790717085E+04  0.00000000000E+00 0. -1.
         24    2    1    2    0    0  0.42971211996E+03 -0.41087052259E+03 -0.69543742696E+03  0.91840665670E+03  0.79815286016E+02 0.  0.
        254    2    1    2    0    0 -0.42971211996E+03  0.41087052259E+03 -0.56584457764E+02  0.10877148755E+04  0.90909557095E+03 0.  0.
         23    2    4    4    0    0  0.10963120512E+03  0.35077351518E+03  0.25365525447E+03  0.45585586982E+03  0.91665292444E+02 0.  0.
         23    2    4    4    0    0 -0.53934332507E+03  0.60097007402E+02 -0.31023971224E+03  0.63185900566E+03  0.92164263052E+02 0.  0.
          2    1    3    3  502    0  0.30284210283E+03 -0.33431244538E+03 -0.50540773068E+03  0.67743274545E+03  0.00000000000E+00 0. -1.
         -1    1    3    3    0  502  0.12687001713E+03 -0.76558077203E+02 -0.19002969628E+03  0.24097391125E+03  0.00000000000E+00 0.  1.
         13    1    5    5    0    0  0.97057369406E+02  0.20009034438E+03  0.18720326986E+03  0.29069114730E+03  0.00000000000E+00 0.  1.
        -13    1    5    5    0    0  0.12573835712E+02  0.15068317080E+03  0.66451984614E+02  0.16516472253E+03  0.00000000000E+00 0. -1.
          3    1    6    6  503    0 -0.67661601410E+02 -0.20549635680E+02 -0.54522516048E+02  0.89292130606E+02  0.00000000000E+00 0. -1.
         -3    1    6    6    0  503 -0.47168172366E+03  0.80646643082E+02 -0.25571719619E+03  0.54256687505E+03  0.00000000000E+00 0.  1.
<mgrwt>
<rscale>  0 0.18598351E+04</rscale>
<asrwt>0</asrwt>
<pdfrwt beam="1">  1        2 0.21216488E+00 0.18598351E+04</pdfrwt>
<pdfrwt beam="2">  1       -1 0.96469204E-01 0.18598351E+04</pdfrwt>
<totfact> 0.16478496E+01</totfact>
</mgrwt>
</event>
<event>
12    7  0.1605494E-007  0.2076551E+04  0.7818608E-02  0.8571644E-01
          2   -1    0    0  501    0  0.00000000000E+00  0.00000000000E+00  0.14308431215E+04  0.14308431215E+04  0.00000000000E+00 0. -1.
         -1   -1    0    0    0  501 -0.00000000000E+00 -0.00000000000E+00 -0.75341289369E+03  0.75341289369E+03  0.00000000000E+00 0.  1.
         24    2    1    2    0    0 -0.26223597962E+03  0.56845424697E+03  0.86618656754E+03  0.10716643142E+04  0.79229367723E+02 0.  0.
        254    2    1    2    0    0  0.26223597962E+03 -0.56845424697E+03 -0.18875633972E+03  0.11125917010E+04  0.90017964728E+03 0.  0.
         23    2    4    4    0    0 -0.32208291968E+03 -0.26457784179E+03 -0.25900024872E+02  0.42806954434E+03  0.93988733326E+02 0.  0.
         23    2    4    4    0    0  0.58431889930E+03 -0.30387640519E+03 -0.16285631484E+03  0.68452215663E+03  0.90988779131E+02 0.  0.
          4    1    3    3  502    0 -0.21438465075E+03  0.48004951284E+03  0.67426065831E+03  0.85500628571E+03  0.00000000000E+00 0. -1.
         -3    1    3    3    0  502 -0.47851328873E+02  0.88404734131E+02  0.19192590923E+03  0.21665802852E+03  0.00000000000E+00 0.  1.
         13    1    5    5    0    0 -0.16193683045E+03 -0.12941796071E+03 -0.59880274395E+02  0.21577347583E+03  0.00000000000E+00 0.  1.
        -13    1    5    5    0    0 -0.16014608923E+03 -0.13515988108E+03  0.33980249523E+02  0.21229606851E+03  0.00000000000E+00 0. -1.
          1    1    6    6  503    0  0.16424479699E+02 -0.71473664283E+01 -0.22194028689E+02  0.28520576602E+02  0.00000000000E+00 0. -1.
         -1    1    6    6    0  503  0.56789441960E+03 -0.29672903876E+03 -0.14066228615E+03  0.65600158003E+03  0.00000000000E+00 0.  1.
<mgrwt>
<rscale>  0 0.20765507E+04</rscale>
<asrwt>0</asrwt>
<pdfrwt beam="1">  1        2 0.22012971E+00 0.20765507E+04</pdfrwt>
<pdfrwt beam="2">  1       -1 0.11590968E+00 0.20765507E+04</pdfrwt>
<totfact> 0.98464350E+00</totfact>
</mgrwt>
</event>
<event>
12    7  0.1605494E-007  0.1101948E+04  0.7818608E-02  0.9203296E-01
          2   -1    0    0  501    0  0.00000000000E+00  0.00000000000E+00  0.17381002022E+04  0.17381002022E+04  0.00000000000E+00 0. -1.
         -1   -1    0    0    0  501 -0.00000000000E+00 -0.00000000000E+00 -0.17465744610E+03  0.17465744610E+03  0.00000000000E+00 0.  1.
         24    2    1    2    0    0 -0.17481387296E+03 -0.85622273679E+02  0.57219703690E+03  0.60941689656E+03  0.78028461738E+02 0.  0.
        254    2    1    2    0    0  0.17481387296E+03  0.85622273679E+02  0.99124571921E+03  0.13033407518E+04  0.82355204779E+03 0.  0.
         23    2    4    4    0    0  0.47404168517E+03 -0.71379080638E+02  0.66089870298E+03  0.82159657888E+03  0.91778812290E+02 0.  0.
         23    2    4    4    0    0 -0.29922781221E+03  0.15700135432E+03  0.33034701623E+03  0.48174417289E+03  0.93603355289E+02 0.  0.
          4    1    3    3  502    0 -0.16274156367E+03 -0.64391613640E+02  0.54703798381E+03  0.57435324687E+03  0.00000000000E+00 0. -1.
         -3    1    3    3    0  502 -0.12072309290E+02 -0.21230660039E+02  0.25159053091E+02  0.35063649692E+02  0.00000000000E+00 0.  1.
         13    1    5    5    0    0  0.26928797409E+01  0.78183606579E+01  0.39126923454E+01  0.91480886564E+01  0.00000000000E+00 0. -1.
        -13    1    5    5    0    0  0.47134880543E+03 -0.79197441296E+02  0.65698601064E+03  0.81244849022E+03  0.00000000000E+00 0.  1.
          1    1    6    6  503    0  0.57744376676E+01  0.10476425309E+02  0.78787902148E+01  0.14323929380E+02  0.00000000000E+00 0. -1.
         -1    1    6    6    0  503 -0.30500224988E+03  0.14652492901E+03  0.32246822602E+03  0.46742024351E+03  0.00000000000E+00 0.  1.
<mgrwt>
<rscale>  0 0.11019476E+04</rscale>
<asrwt>0</asrwt>
<pdfrwt beam="1">  1        2 0.26740002E+00 0.11019476E+04</pdfrwt>
<pdfrwt beam="2">  1       -1 0.26870377E-01 0.11019476E+04</pdfrwt>
<totfact> 0.13066760E+02</totfact>
</mgrwt>
</event>
<event>
12    7  0.1605494E-007  0.2175800E+04  0.7818608E-02  0.8528569E-01
          2   -1    0    0  501    0  0.00000000000E+00  0.00000000000E+00  0.28629013010E+04  0.28629013010E+04  0.00000000000E+00 0. -1.
         -1   -1    0    0    0  501 -0.00000000000E+00 -0.00000000000E+00 -0.41340087328E+03  0.41340087328E+03  0.00000000000E+00 0.  1.
         24    2    1    2    0    0 -0.57429983555E+03 -0.22159653874E+03  0.20119870214E+04  0.21056330040E+04  0.81689938970E+02 0.  0.
        254    2    1    2    0    0  0.57429983555E+03  0.22159653874E+03  0.43751340637E+03  0.11706691703E+04  0.89449594664E+03 0.  0.
         23    2    4    4    0    0  0.62833104925E+03  0.15928944097E+03 -0.60937542033E+02  0.65705111028E+03  0.88485840883E+02 0.  0.
         23    2    4    4    0    0 -0.54031213702E+02  0.62307097767E+02  0.49845094841E+03  0.51361806007E+03  0.92458732267E+02 0.  0.
          4    1    3    3  502    0 -0.48075141437E+03 -0.15239251068E+03  0.16097490038E+04  0.16869016732E+04  0.00000000000E+00 0. -1.
         -3    1    3    3    0  502 -0.93548421178E+02 -0.69204028056E+02  0.40223801759E+03  0.41873133081E+03  0.00000000000E+00 0.  1.
         13    1    5    5    0    0  0.13952788263E+03 -0.12384664107E+01 -0.63886881095E+01  0.13967955887E+03  0.00000000000E+00 0.  1.
        -13    1    5    5    0    0  0.48880316662E+03  0.16052790738E+03 -0.54548853924E+02  0.51737155141E+03  0.00000000000E+00 0. -1.
          4    1    6    6  503    0 -0.66633718807E+02  0.82884414789E+01  0.23582860747E+03  0.24520171868E+03  0.00000000000E+00 0. -1.
         -4    1    6    6    0  503  0.12602505105E+02  0.54018656288E+02  0.26262234094E+03  0.26841634139E+03  0.00000000000E+00 0.  1.
<mgrwt>
<rscale>  0 0.21757995E+04</rscale>
<asrwt>0</asrwt>
<pdfrwt beam="1">  1        2 0.44044634E+00 0.21757995E+04</pdfrwt>
<pdfrwt beam="2">  1       -1 0.63600136E-01 0.21757995E+04</pdfrwt>
<totfact> 0.55375814E+00</totfact>
</mgrwt>
</event>
<event>
12    7  0.1605494E-007  0.1357471E+04  0.7818608E-02  0.8985192E-01
         -1   -1    0    0    0  501 -0.00000000000E+00  0.00000000000E+00  0.10963099098E+04  0.10963099098E+04  0.00000000000E+00 0.  1.
          2   -1    0    0  501    0  0.00000000000E+00 -0.00000000000E+00 -0.42021111247E+03  0.42021111247E+03  0.00000000000E+00 0. -1.
         24    2    1    2    0    0 -0.85995616744E+01 -0.19819243026E+03  0.54910933369E+03  0.58949607017E+03  0.81427050315E+02 0.  0.
        254    2    1    2    0    0  0.85995616744E+01  0.19819243026E+03  0.12698946360E+03  0.92702495207E+03  0.89660177672E+03 0.  0.
         23    2    4    4    0    0 -0.99248805854E+00  0.42600993305E+02 -0.37821084514E+03  0.39097103231E+03  0.89437548359E+02 0.  0.
         23    2    4    4    0    0  0.95920497329E+01  0.15559143696E+03  0.50520030874E+03  0.53605391976E+03  0.88463270740E+02 0.  0.
          2    1    3    3  502    0  0.30996444489E+02 -0.10599060034E+03  0.34145173751E+03  0.35886498294E+03  0.00000000000E+00 0. -1.
         -1    1    3    3    0  502 -0.39596006163E+02 -0.92201829917E+02  0.20765759618E+03  0.23063108723E+03  0.00000000000E+00 0.  1.
         13    1    5    5    0    0 -0.38771392966E+02  0.41196752103E+02 -0.28160925213E+03  0.28723538114E+03  0.00000000000E+00 0. -1.
        -13    1    5    5    0    0  0.37778904908E+02  0.14042412017E+01 -0.96601593014E+02  0.10373565116E+03  0.00000000000E+00 0.  1.
          3    1    6    6  503    0  0.25258306580E+02  0.13678692005E+03  0.48426466198E+03  0.50384611380E+03  0.00000000000E+00 0. -1.
         -3    1    6    6    0  503 -0.15666256847E+02  0.18804516909E+02  0.20935646761E+02  0.32207805965E+02  0.00000000000E+00 0.  1.
<mgrwt>
<rscale>  0 0.13574706E+04</rscale>
<asrwt>0</asrwt>
<pdfrwt beam="1">  1        2 0.64647864E-01 0.13574706E+04</pdfrwt>
<pdfrwt beam="2">  1       -1 0.16866306E+00 0.13574706E+04</pdfrwt>
<totfact> 0.21141471E+01</totfact>
</mgrwt>
</event>
<event>
12    7  0.1605494E-007  0.2312669E+04  0.7818608E-02  0.8472943E-01
          2   -1    0    0  501    0  0.00000000000E+00  0.00000000000E+00  0.22397582418E+04  0.22397582418E+04  0.00000000000E+00 0. -1.
         -1   -1    0    0    0  501 -0.00000000000E+00 -0.00000000000E+00 -0.59698831515E+03  0.59698831515E+03  0.00000000000E+00 0.  1.
         24    2    1    2    0    0 -0.41810729009E+03  0.49906441074E+03 -0.19720655427E+03  0.68526002482E+03  0.82534141228E+02 0.  0.
        254    2    1    2    0    0  0.41810729009E+03 -0.49906441074E+03  0.18399764809E+04  0.21514865321E+04  0.90526341773E+03 0.  0.
         23    2    4    4    0    0  0.15808647567E+03  0.25249343025E+03  0.58866531370E+03  0.66585392058E+03  0.89946238940E+02 0.  0.
         23    2    4    4    0    0  0.26002081441E+03 -0.75155784099E+03  0.12513111672E+04  0.14856326115E+04  0.94205132365E+02 0.  0.
          4    1    3    3  502    0 -0.15133129923E+03  0.17010833876E+03 -0.28887914641E+02  0.22950494691E+03  0.00000000000E+00 0. -1.
         -3    1    3    3    0  502 -0.26677599085E+03  0.32895607198E+03 -0.16831863963E+03  0.45575507791E+03  0.00000000000E+00 0.  1.
         13    1    5    5    0    0  0.10813884850E+02  0.42805475303E+02  0.37078409162E+02  0.57654637692E+02  0.00000000000E+00 0. -1.
        -13    1    5    5    0    0  0.14727259082E+03  0.20968795495E+03  0.55158690453E+03  0.60819928289E+03  0.00000000000E+00 0.  1.
          2    1    6    6  503    0  0.23369138534E+03 -0.61430126138E+03  0.10833157993E+04  0.12671033203E+04  0.00000000000E+00 0. -1.
         -2    1    6    6    0  503  0.26329429068E+02 -0.13725657962E+03  0.16799536790E+03  0.21852929122E+03  0.00000000000E+00 0.  1.
<mgrwt>
<rscale>  0 0.23126690E+04</rscale>
<asrwt>0</asrwt>
<pdfrwt beam="1">  1        2 0.34457819E+00 0.23126690E+04</pdfrwt>
<pdfrwt beam="2">  1       -1 0.91844357E-01 0.23126690E+04</pdfrwt>
<totfact> 0.58354491E+00</totfact>
</mgrwt>
</event>
<event>
12    7  0.1605494E-007  0.2012550E+04  0.7818608E-02  0.8600776E-01
          2   -1    0    0  501    0  0.00000000000E+00  0.00000000000E+00  0.27264387339E+04  0.27264387339E+04  0.00000000000E+00 0. -1.
         -1   -1    0    0    0  501 -0.00000000000E+00 -0.00000000000E+00 -0.37139632837E+03  0.37139632837E+03  0.00000000000E+00 0.  1.
         24    2    1    2    0    0 -0.30179799409E+03 -0.73985737933E+03  0.82889159332E+03  0.11540746426E+04  0.79724753598E+02 0.  0.
        254    2    1    2    0    0  0.30179799409E+03  0.73985737933E+03  0.15261508122E+04  0.19437604196E+04  0.90033177012E+03 0.  0.
         23    2    4    4    0    0  0.42551612717E+03  0.10657577515E+03  0.25541629416E+03  0.51586777816E+03  0.91976686630E+02 0.  0.
         23    2    4    4    0    0 -0.12371813309E+03  0.63328160417E+03  0.12707345180E+04  0.14278926414E+04  0.88087533461E+02 0.  0.
          4    1    3    3  502    0 -0.80546536746E+02 -0.20716553315E+03  0.28348924088E+03  0.36023804963E+03  0.00000000000E+00 0. -1.
         -3    1    3    3    0  502 -0.22125145734E+03 -0.53269184618E+03  0.54540235244E+03  0.79383659301E+03  0.00000000000E+00 0.  1.
         13    1    5    5    0    0  0.10973313048E+03  0.53247464238E+02  0.34319187110E+02  0.12670619154E+03  0.00000000000E+00 0. -1.
        -13    1    5    5    0    0  0.31578299670E+03  0.53328310916E+02  0.22109710705E+03  0.38916158661E+03  0.00000000000E+00 0.  1.
          2    1    6    6  503    0  0.42269146007E+01  0.18443719644E+03  0.35398698763E+03  0.39917631899E+03  0.00000000000E+00 0. -1.
         -2    1    6    6    0  503 -0.12794504769E+03  0.44884440774E+03  0.91674753040E+03  0.10287163225E+04  0.00000000000E+00 0.  1.
<mgrwt>
<rscale>  0 0.20125500E+04</rscale>
<asrwt>0</asrwt>
<pdfrwt beam="1">  1        2 0.41945210E+00 0.20125500E+04</pdfrwt>
<pdfrwt beam="2">  1       -1 0.57137898E-01 0.20125500E+04</pdfrwt>
<totfact> 0.83998763E+00</totfact>
</mgrwt>
</event>
<event>
12    7  0.1605494E-007  0.5130439E+04  0.7818608E-02  0.7808695E-01
         -1   -1    0    0    0  501 -0.00000000000E+00  0.00000000000E+00  0.15932415484E+04  0.15932415484E+04  0.00000000000E+00 0.  1.
          2   -1    0    0  501    0  0.00000000000E+00 -0.00000000000E+00 -0.41301652122E+04  0.41301652122E+04  0.00000000000E+00 0. -1.
         24    2    1    2    0    0  0.10863231534E+03 -0.24578185947E+04 -0.16297297576E+04  0.29520927133E+04  0.78479807927E+02 0.  0.
        254    2    1    2    0    0 -0.10863231534E+03  0.24578185947E+04 -0.90719390606E+03  0.27713140473E+04  0.89694344362E+03 0.  0.
         23    2    4    4    0    0 -0.18079859117E+03  0.12634559690E+04 -0.91178875675E+03  0.15713367706E+04  0.93441926851E+02 0.  0.
         23    2    4    4    0    0  0.72166275825E+02  0.11943626258E+04  0.45948506959E+01  0.11999772767E+04  0.90632768356E+02 0.  0.
          4    1    3    3  502    0  0.11592274733E+03 -0.24089838676E+04 -0.16035365568E+04  0.28961993797E+04  0.00000000000E+00 0. -1.
         -3    1    3    3    0  502 -0.72904319890E+01 -0.48834727142E+02 -0.26193200857E+02  0.55893333634E+02  0.00000000000E+00 0.  1.
         13    1    5    5    0    0 -0.16492012860E+03  0.10218622189E+04 -0.77667131337E+03  0.12940708529E+04  0.00000000000E+00 0. -1.
        -13    1    5    5    0    0 -0.15878462572E+02  0.24159375004E+03 -0.13511744339E+03  0.27726591774E+03  0.00000000000E+00 0.  1.
          1    1    6    6  503    0  0.28578345552E+02  0.94788390343E+03  0.26781772751E+02  0.94869272137E+03  0.00000000000E+00 0. -1.
         -1    1    6    6    0  503  0.43587930273E+02  0.24647872234E+03 -0.22186922055E+02  0.25128455532E+03  0.00000000000E+00 0.  1.
<mgrwt>
<rscale>  0 0.51304389E+04</rscale>
<asrwt>0</asrwt>
<pdfrwt beam="1">  1        2 0.63541004E+00 0.51304389E+04</pdfrwt>
<pdfrwt beam="2">  1       -1 0.24511408E+00 0.51304389E+04</pdfrwt>
<totfact> 0.16282875E-02</totfact>
</mgrwt>
</event>
<event>
12    7  0.1605494E-007  0.1552074E+04  0.7818608E-02  0.8850544E-01
         -1   -1    0    0    0  501 -0.00000000000E+00  0.00000000000E+00  0.14104753302E+04  0.14104753302E+04  0.00000000000E+00 0.  1.
          2   -1    0    0  501    0  0.00000000000E+00 -0.00000000000E+00 -0.42697187121E+03  0.42697187121E+03  0.00000000000E+00 0. -1.
         24    2    1    2    0    0 -0.26408189901E+03  0.42946849127E+03  0.27252867314E+03  0.57858788813E+03  0.79433193506E+02 0.  0.
        254    2    1    2    0    0  0.26408189901E+03 -0.42946849127E+03  0.71097478581E+03  0.12588593132E+04  0.90832768873E+03 0.  0.
         23    2    4    4    0    0 -0.17760050964E+03 -0.11468204742E+02 -0.11265288504E+03  0.23096896421E+03  0.94776205749E+02 0.  0.
         23    2    4    4    0    0  0.44168240865E+03 -0.41800028652E+03  0.82362767084E+03  0.10278903490E+04  0.91588426205E+02 0.  0.
          4    1    3    3  502    0 -0.20235614398E+03  0.37118696577E+03  0.20359389020E+03  0.46923154698E+03  0.00000000000E+00 0. -1.
         -3    1    3    3    0  502 -0.61725755029E+02  0.58281525498E+02  0.68934782944E+02  0.10935634114E+03  0.00000000000E+00 0.  1.
         13    1    5    5    0    0 -0.12713318978E+03 -0.15162203733E+00 -0.12446484521E+03  0.17791674634E+03  0.00000000000E+00 0. -1.
        -13    1    5    5    0    0 -0.50467319863E+02 -0.11316582705E+02  0.11811960176E+02  0.53052217875E+02  0.00000000000E+00 0.  1.
          4    1    6    6  503    0  0.33717173058E+03 -0.35136031405E+03  0.70088381522E+03  0.85345003875E+03  0.00000000000E+00 0. -1.
         -4    1    6    6    0  503  0.10451067806E+03 -0.66639972474E+02  0.12274385562E+03  0.17444031029E+03  0.00000000000E+00 0.  1.
<mgrwt>
<rscale>  0 0.15520738E+04</rscale>
<asrwt>0</asrwt>
<pdfrwt beam="1">  1        2 0.65687981E-01 0.15520738E+04</pdfrwt>
<pdfrwt beam="2">  1       -1 0.21699620E+00 0.15520738E+04</pdfrwt>
<totfact> 0.93704671E+00</totfact>
</mgrwt>
</event>
<event>
12    7  0.1605494E-007  0.1297848E+04  0.7818608E-02  0.9031274E-01
          2   -1    0    0  501    0  0.00000000000E+00  0.00000000000E+00  0.15987011069E+04  0.15987011069E+04  0.00000000000E+00 0. -1.
         -1   -1    0    0    0  501 -0.00000000000E+00 -0.00000000000E+00 -0.26340269835E+03  0.26340269835E+03  0.00000000000E+00 0.  1.
         24    2    1    2    0    0  0.25937736504E+03 -0.18696677268E+03  0.46179741908E+03  0.56667016509E+03  0.75000187673E+02 0.  0.
        254    2    1    2    0    0 -0.25937736504E+03  0.18696677268E+03  0.87350098951E+03  0.12954336402E+04  0.90161585274E+03 0.  0.
         23    2    4    4    0    0 -0.19167059667E+03 -0.33687250327E+03  0.51105030693E+03  0.64799615406E+03  0.92227427440E+02 0.  0.
         23    2    4    4    0    0 -0.67706768378E+02  0.52383927595E+03  0.36245068257E+03  0.64743748614E+03  0.93877620586E+02 0.  0.
          2    1    3    3  502    0  0.22368225504E+03 -0.12785402301E+03  0.33908753636E+03  0.42586471999E+03  0.00000000000E+00 0. -1.
         -1    1    3    3    0  502  0.35695110003E+02 -0.59112749676E+02  0.12270988272E+03  0.14080544510E+03  0.00000000000E+00 0.  1.
         13    1    5    5    0    0 -0.33042341214E+00 -0.67638648552E+02  0.75482152571E+02  0.10135408879E+03  0.00000000000E+00 0. -1.
        -13    1    5    5    0    0 -0.19134017325E+03 -0.26923385472E+03  0.43556815436E+03  0.54664206527E+03  0.00000000000E+00 0.  1.
          1    1    6    6  503    0  0.10440236919E+02  0.39219151830E+02  0.65423928125E+01  0.41108920210E+02  0.00000000000E+00 0. -1.
         -1    1    6    6    0  503 -0.78147005297E+02  0.48462012413E+03  0.35590828976E+03  0.60632856593E+03  0.00000000000E+00 0.  1.
<mgrwt>
<rscale>  0 0.12978477E+04</rscale>
<asrwt>0</asrwt>
<pdfrwt beam="1">  1        2 0.24595401E+00 0.12978477E+04</pdfrwt>
<pdfrwt beam="2">  1       -1 0.40523493E-01 0.12978477E+04</pdfrwt>
<totfact> 0.74185503E+01</totfact>
</mgrwt>
</event>
<event>
12    7  0.1605494E-007  0.1961939E+04  0.7818608E-02  0.8624625E-01
          2   -1    0    0  501    0  0.00000000000E+00  0.00000000000E+00  0.33036468133E+04  0.33036468133E+04  0.00000000000E+00 0. -1.
         -1   -1    0    0    0  501 -0.00000000000E+00 -0.00000000000E+00 -0.29128451239E+03  0.29128451239E+03  0.00000000000E+00 0.  1.
         24    2    1    2    0    0  0.64214590003E+03 -0.34369466368E+03  0.73150917149E+03  0.10353642124E+04  0.79975031359E+02 0.  0.
        254    2    1    2    0    0 -0.64214590003E+03  0.34369466368E+03  0.22808531295E+04  0.25595671133E+04  0.90477369020E+03 0.  0.
         23    2    4    4    0    0  0.16992004548E+03  0.26137336320E+03  0.46590541159E+03  0.56782413354E+03  0.90374427951E+02 0.  0.
         23    2    4    4    0    0 -0.81206594552E+03  0.82321300485E+02  0.18149477179E+04  0.19917429797E+04  0.82322429602E+02 0.  0.
          2    1    3    3  502    0  0.20520576444E+03 -0.83652598880E+02  0.26353923328E+03  0.34432555894E+03  0.00000000000E+00 0. -1.
         -3    1    3    3    0  502  0.43694013560E+03 -0.26004206480E+03  0.46796993821E+03  0.69103865350E+03  0.00000000000E+00 0.  1.
         13    1    5    5    0    0  0.18018785202E+03  0.24407493665E+03  0.44691284511E+03  0.54015861359E+03  0.00000000000E+00 0.  1.
        -13    1    5    5    0    0 -0.10267806534E+02  0.17298426550E+02  0.18992566486E+02  0.27665519945E+02  0.00000000000E+00 0. -1.
          2    1    6    6  503    0 -0.10784785089E+03  0.20855900226E+02  0.18579554453E+03  0.21583816132E+03  0.00000000000E+00 0. -1.
         -2    1    6    6    0  503 -0.70421809463E+03  0.61465400259E+02  0.16291521733E+04  0.17759048184E+04  0.00000000000E+00 0.  1.
<mgrwt>
<rscale>  0 0.19619390E+04</rscale>
<asrwt>0</asrwt>
<pdfrwt beam="1">  1        2 0.50825333E+00 0.19619390E+04</pdfrwt>
<pdfrwt beam="2">  1       -1 0.44813004E-01 0.19619390E+04</pdfrwt>
<totfact> 0.58254649E+00</totfact>
</mgrwt>
</event>
<event>
12    7  0.1605494E-007  0.2553750E+04  0.7818608E-02  0.8384083E-01
         -1   -1    0    0    0  501 -0.00000000000E+00  0.00000000000E+00  0.73359241960E+03  0.73359241960E+03  0.00000000000E+00 0.  1.
          2   -1    0    0  501    0  0.00000000000E+00 -0.00000000000E+00 -0.22225001631E+04  0.22225001631E+04  0.00000000000E+00 0. -1.
         24    2    1    2    0    0  0.37780642967E+03 -0.96223260250E+03 -0.16808768544E+03  0.10503465855E+04  0.79656763382E+02 0.  0.
        254    2    1    2    0    0 -0.37780642967E+03  0.96223260250E+03 -0.13208200580E+04  0.19057459972E+04  0.90480544904E+03 0.  0.
         23    2    4    4    0    0 -0.49884437258E+03  0.18033416344E+03 -0.31498562525E+03  0.62288499771E+03  0.86044510018E+02 0.  0.
         23    2    4    4    0    0  0.12103794291E+03  0.78189843906E+03 -0.10058344328E+04  0.12828609995E+04  0.89521423539E+02 0.  0.
          2    1    3    3  502    0  0.96606872151E+02 -0.31544418688E+03 -0.81120751356E+02  0.33973298204E+03  0.00000000000E+00 0. -1.
         -1    1    3    3    0  502  0.28119955752E+03 -0.64678841562E+03 -0.86966934084E+02  0.71061360341E+03  0.00000000000E+00 0.  1.
         13    1    5    5    0    0 -0.19629783708E+03  0.28889849319E+02 -0.10201281080E+03  0.22310104842E+03  0.00000000000E+00 0. -1.
        -13    1    5    5    0    0 -0.30254653550E+03  0.15144431413E+03 -0.21297281445E+03  0.39978394930E+03  0.00000000000E+00 0.  1.
          1    1    6    6  503    0 -0.35619781201E+01  0.24658484575E+03 -0.31631321869E+03  0.40108705558E+03  0.00000000000E+00 0. -1.
         -1    1    6    6    0  503  0.12459992103E+03  0.53531359331E+03 -0.68952121409E+03  0.88177394393E+03  0.00000000000E+00 0.  1.
<mgrwt>
<rscale>  0 0.25537496E+04</rscale>
<asrwt>0</asrwt>
<pdfrwt beam="1">  1        2 0.34192309E+00 0.25537496E+04</pdfrwt>
<pdfrwt beam="2">  1       -1 0.11286038E+00 0.25537496E+04</pdfrwt>
<totfact> 0.36364945E+00</totfact>
</mgrwt>
</event>
<event>
12    7  0.1605494E-007  0.1788141E+04  0.7818608E-02  0.8712631E-01
          2   -1    0    0  501    0  0.00000000000E+00  0.00000000000E+00  0.93839722950E+03  0.93839722950E+03  0.00000000000E+00 0. -1.
         -1   -1    0    0    0  501 -0.00000000000E+00 -0.00000000000E+00 -0.85183805574E+03  0.85183805574E+03  0.00000000000E+00 0.  1.
         24    2    1    2    0    0  0.41475719806E+03  0.49641859813E+02  0.54083631045E+03  0.68793353643E+03  0.79125142945E+02 0.  0.
        254    2    1    2    0    0 -0.41475719806E+03 -0.49641859813E+02 -0.45427713669E+03  0.11023017488E+04  0.91335293337E+03 0.  0.
         23    2    4    4    0    0 -0.40917986417E+03  0.64853182882E+02  0.17318053422E+03  0.45834836545E+03  0.91965374499E+02 0.  0.
         23    2    4    4    0    0 -0.55773338898E+01 -0.11449504269E+03 -0.62745767091E+03  0.64395338335E+03  0.88502032137E+02 0.  0.
          2    1    3    3  502    0  0.13872272958E+03  0.14752836615E+02  0.24415758448E+03  0.28120200559E+03  0.00000000000E+00 0. -1.
         -1    1    3    3    0  502  0.27603446848E+03  0.34889023197E+02  0.29667872597E+03  0.40673153083E+03  0.00000000000E+00 0.  1.
         13    1    5    5    0    0 -0.15745359261E+02 -0.16015590044E+02  0.57086995190E+01  0.23173362141E+02  0.00000000000E+00 0.  1.
        -13    1    5    5    0    0 -0.39343450491E+03  0.80868772926E+02  0.16747183470E+03  0.43517500331E+03  0.00000000000E+00 0. -1.
          2    1    6    6  503    0 -0.40676497569E+02 -0.52832504609E+02 -0.20477594304E+03  0.21535792961E+03  0.00000000000E+00 0.  1.
         -2    1    6    6    0  503  0.35099163679E+02 -0.61662538085E+02 -0.42268172787E+03  0.42859545374E+03  0.00000000000E+00 0. -1.
<mgrwt>
<rscale>  0 0.17881415E+04</rscale>
<asrwt>0</asrwt>
<pdfrwt beam="1">  1        2 0.14436880E+00 0.17881415E+04</pdfrwt>
<pdfrwt beam="2">  1       -1 0.13105201E+00 0.17881415E+04</pdfrwt>
<totfact> 0.14807562E+01</totfact>
</mgrwt>
</event>
<event>
12    7  0.1605494E-007  0.1734288E+04  0.7818608E-02  0.8742047E-01
          2   -1    0    0  501    0  0.00000000000E+00  0.00000000000E+00  0.28045327334E+04  0.28045327334E+04  0.00000000000E+00 0. -1.
         -1   -1    0    0    0  501 -0.00000000000E+00 -0.00000000000E+00 -0.26811544567E+03  0.26811544567E+03  0.00000000000E+00 0.  1.
         24    2    1    2    0    0 -0.23448824874E+03  0.42367098700E+03  0.21230927597E+03  0.53485324961E+03  0.80690308819E+02 0.  0.
        254    2    1    2    0    0  0.23448824874E+03 -0.42367098700E+03  0.23241080117E+04  0.25377949294E+04  0.89690758142E+03 0.  0.
         23    2    4    4    0    0 -0.26137877942E+03 -0.35489591451E+03  0.67194867784E+03  0.80900610882E+03  0.93305315988E+02 0.  0.
         23    2    4    4    0    0  0.49586702816E+03 -0.68775072486E+02  0.16521593339E+04  0.17287888206E+04  0.92011963778E+02 0.  0.
          4    1    3    3  502    0 -0.15565063918E+01  0.38243166916E+02  0.34437845250E+01  0.38429444177E+02  0.00000000000E+00 0. -1.
         -3    1    3    3    0  502 -0.23293174234E+03  0.38542782008E+03  0.20886549145E+03  0.49642380543E+03  0.00000000000E+00 0.  1.
         13    1    5    5    0    0  0.58004464907E+01 -0.10395391562E+02  0.67840535850E+01  0.13701559337E+02  0.00000000000E+00 0. -1.
        -13    1    5    5    0    0 -0.26717922591E+03 -0.34450052295E+03  0.66516462426E+03  0.79530454948E+03  0.00000000000E+00 0.  1.
          1    1    6    6  503    0  0.23074112932E+03  0.60113152223E+01  0.66529308651E+03  0.70419634735E+03  0.00000000000E+00 0. -1.
         -1    1    6    6    0  503  0.26512589884E+03 -0.74786387708E+02  0.98686624740E+03  0.10245924733E+04  0.00000000000E+00 0.  1.
<mgrwt>
<rscale>  0 0.17342878E+04</rscale>
<asrwt>0</asrwt>
<pdfrwt beam="1">  1        2 0.43146655E+00 0.17342878E+04</pdfrwt>
<pdfrwt beam="2">  1       -1 0.41248532E-01 0.17342878E+04</pdfrwt>
<totfact> 0.14336731E+01</totfact>
</mgrwt>
</event>
<event>
12    7  0.1605494E-007  0.1342702E+04  0.7818608E-02  0.8996371E-01
          2   -1    0    0  501    0  0.00000000000E+00  0.00000000000E+00  0.20400210819E+04  0.20400210819E+04  0.00000000000E+00 0. -1.
         -1   -1    0    0    0  501 -0.00000000000E+00 -0.00000000000E+00 -0.22093495608E+03  0.22093495608E+03  0.00000000000E+00 0.  1.
         24    2    1    2    0    0  0.28115880058E+03  0.21707989402E+03  0.55608877868E+03  0.66476109584E+03  0.80614100765E+02 0.  0.
        254    2    1    2    0    0 -0.28115880058E+03 -0.21707989402E+03  0.12629973471E+04  0.15961949421E+04  0.90912157763E+03 0.  0.
         23    2    4    4    0    0  0.11809168888E+03  0.22223219303E+03  0.78197177797E+03  0.82655412014E+03  0.91537191241E+02 0.  0.
         23    2    4    4    0    0 -0.39925048946E+03 -0.43931208705E+03  0.48102556916E+03  0.76964082200E+03  0.92549087209E+02 0.  0.
          4    1    3    3  502    0  0.10735361823E+03  0.11970191789E+03  0.29925614387E+03  0.33971692354E+03  0.00000000000E+00 0. -1.
         -3    1    3    3    0  502  0.17380518235E+03  0.97377976128E+02  0.25683263480E+03  0.32504417230E+03  0.00000000000E+00 0.  1.
         13    1    5    5    0    0 -0.97945568553E+01  0.75805717247E+01  0.90108815741E+02  0.90956017316E+02  0.00000000000E+00 0.  1.
        -13    1    5    5    0    0  0.12788624573E+03  0.21465162131E+03  0.69186296223E+03  0.73559810283E+03  0.00000000000E+00 0. -1.
          1    1    6    6  503    0 -0.40116025298E+03 -0.41965002108E+03  0.47044600050E+03  0.74723164290E+03  0.00000000000E+00 0. -1.
         -1    1    6    6    0  503  0.19097635248E+01 -0.19662065968E+02  0.10579568661E+02  0.22409179099E+02  0.00000000000E+00 0.  1.
<mgrwt>
<rscale>  0 0.13427017E+04</rscale>
<asrwt>0</asrwt>
<pdfrwt beam="1">  1        2 0.31384938E+00 0.13427017E+04</pdfrwt>
<pdfrwt beam="2">  1       -1 0.33989995E-01 0.13427017E+04</pdfrwt>
<totfact> 0.57834761E+01</totfact>
</mgrwt>
</event>
<event>
12    7  0.1605494E-007  0.1692167E+04  0.7818608E-02  0.8765844E-01
          2   -1    0    0  501    0  0.00000000000E+00  0.00000000000E+00  0.16523886187E+04  0.16523886187E+04  0.00000000000E+00 0. -1.
         -1   -1    0    0    0  501 -0.00000000000E+00 -0.00000000000E+00 -0.43322574357E+03  0.43322574357E+03  0.00000000000E+00 0.  1.
         24    2    1    2    0    0  0.52538368153E+03 -0.18194812655E+02  0.76202191097E+02  0.53749443079E+03  0.82063543532E+02 0.  0.
        254    2    1    2    0    0 -0.52538368153E+03  0.18194812655E+02  0.11429606840E+04  0.15481199314E+04  0.90219572871E+03 0.  0.
         23    2    4    4    0    0 -0.58828765685E+03  0.52695033044E+02  0.12526655885E+04  0.13880405859E+04  0.92878725825E+02 0.  0.
         23    2    4    4    0    0  0.62903975316E+02 -0.34500220389E+02 -0.10970490450E+03  0.16007934556E+03  0.91886100621E+02 0.  0.
          4    1    3    3  502    0  0.24860790652E+03 -0.47035530314E+02  0.50757388696E+02  0.25805918856E+03  0.00000000000E+00 0. -1.
         -3    1    3    3    0  502  0.27677577502E+03  0.28840717660E+02  0.25444802401E+02  0.27943524223E+03  0.00000000000E+00 0.  1.
         13    1    5    5    0    0 -0.19567787040E+03  0.49988311373E+02  0.35849665770E+03  0.41147115795E+03  0.00000000000E+00 0. -1.
        -13    1    5    5    0    0 -0.39260978645E+03  0.27067216711E+01  0.89416893078E+03  0.97656942791E+03  0.00000000000E+00 0.  1.
          3    1    6    6  503    0 -0.18909075970E+02 -0.11485489469E+02 -0.10702041302E+01  0.22149829779E+02  0.00000000000E+00 0. -1.
         -3    1    6    6    0  503  0.81813051286E+02 -0.23014730920E+02 -0.10863470037E+03  0.13792951578E+03  0.00000000000E+00 0.  1.
<mgrwt>
<rscale>  0 0.16921670E+04</rscale>
<asrwt>0</asrwt>
<pdfrwt beam="1">  1        2 0.25421363E+00 0.16921670E+04</pdfrwt>
<pdfrwt beam="2">  1       -1 0.66650115E-01 0.16921670E+04</pdfrwt>
<totfact> 0.25790305E+01</totfact>
</mgrwt>
</event>
<event>
12    7  0.1605494E-007  0.1509739E+04  0.7818608E-02  0.8878003E-01
          2   -1    0    0  501    0  0.00000000000E+00  0.00000000000E+00  0.12985028146E+04  0.12985028146E+04  0.00000000000E+00 0. -1.
         -1   -1    0    0    0  501 -0.00000000000E+00 -0.00000000000E+00 -0.43883433307E+03  0.43883433307E+03  0.00000000000E+00 0.  1.
         24    2    1    2    0    0  0.47456184527E+03  0.91750298714E+02  0.27305904662E+03  0.56089869660E+03  0.80118927892E+02 0.  0.
        254    2    1    2    0    0 -0.47456184527E+03 -0.91750298714E+02  0.58660943489E+03  0.11764384511E+04  0.89792524061E+03 0.  0.
         23    2    4    4    0    0 -0.41147115813E+03  0.35228796414E+03  0.41136572476E+03  0.68635987372E+03  0.91939072767E+02 0.  0.
         23    2    4    4    0    0 -0.63090687142E+02 -0.44403826285E+03  0.17524371013E+03  0.49007857733E+03  0.91193422696E+02 0.  0.
          4    1    3    3  502    0  0.42578243968E+03  0.96834230980E+02  0.22107096746E+03  0.48942816315E+03  0.00000000000E+00 0. -1.
         -3    1    3    3    0  502  0.48779405586E+02 -0.50839322660E+01  0.51988079160E+02  0.71470533448E+02  0.00000000000E+00 0.  1.
         13    1    5    5    0    0 -0.11898301842E+03  0.15270634747E+03  0.11965520997E+03  0.22758197755E+03  0.00000000000E+00 0. -1.
        -13    1    5    5    0    0 -0.29248813971E+03  0.19958161666E+03  0.29171051479E+03  0.45877789617E+03  0.00000000000E+00 0.  1.
          1    1    6    6  503    0 -0.63336314638E+02 -0.16809721466E+03  0.46342781440E+02  0.18551500133E+03  0.00000000000E+00 0. -1.
         -1    1    6    6    0  503  0.24562749633E+00 -0.27594104820E+03  0.12890092869E+03  0.30456357601E+03  0.00000000000E+00 0.  1.
<mgrwt>
<rscale>  0 0.15097385E+04</rscale>
<asrwt>0</asrwt>
<pdfrwt beam="1">  1        2 0.19976966E+00 0.15097385E+04</pdfrwt>
<pdfrwt beam="2">  1       -1 0.67512975E-01 0.15097385E+04</pdfrwt>
<totfact> 0.40509633E+01</totfact>
</mgrwt>
</event>
<event>
12    7  0.1605494E-007  0.1480898E+04  0.7818608E-02  0.8897256E-01
          2   -1    0    0  501    0  0.00000000000E+00  0.00000000000E+00  0.22305405752E+04  0.22305405752E+04  0.00000000000E+00 0. -1.
         -1   -1    0    0    0  501 -0.00000000000E+00 -0.00000000000E+00 -0.24579890045E+03  0.24579890045E+03  0.00000000000E+00 0.  1.
         24    2    1    2    0    0  0.11048173395E+01  0.19591158485E+03 -0.73309870276E+02  0.22392207680E+03  0.79901124516E+02 0.  0.
        254    2    1    2    0    0 -0.11048173395E+01 -0.19591158485E+03  0.20580515450E+04  0.22524173988E+04  0.89410592605E+03 0.  0.
         23    2    4    4    0    0  0.11880710733E+03 -0.54047156996E+02 -0.21570435247E+02  0.16253186622E+03  0.94419806857E+02 0.  0.
         23    2    4    4    0    0 -0.11991192467E+03 -0.14186442785E+03  0.20796219803E+04  0.20898855326E+04  0.91047093023E+02 0.  0.
          2    1    3    3  502    0 -0.30688891383E+02  0.32254445147E+02 -0.20724598807E+02  0.49108718999E+02  0.00000000000E+00 0. -1.
         -1    1    3    3    0  502  0.31793708723E+02  0.16365713970E+03 -0.52585271470E+02  0.17481335780E+03  0.00000000000E+00 0.  1.
         13    1    5    5    0    0 -0.13478018047E+02  0.55756202882E+00  0.89671709817E+01  0.16198086347E+02  0.00000000000E+00 0.  1.
        -13    1    5    5    0    0  0.13228512538E+03 -0.54604719024E+02 -0.30537606229E+02  0.14633377987E+03  0.00000000000E+00 0. -1.
          2    1    6    6  503    0 -0.60578219194E+01 -0.60070649814E+02  0.88700293864E+03  0.88905533761E+03  0.00000000000E+00 0. -1.
         -2    1    6    6    0  503 -0.11385410275E+03 -0.81793778041E+02  0.11926190416E+04  0.12008301950E+04  0.00000000000E+00 0.  1.
<mgrwt>
<rscale>  0 0.14808976E+04</rscale>
<asrwt>0</asrwt>
<pdfrwt beam="1">  1        2 0.34316007E+00 0.14808976E+04</pdfrwt>
<pdfrwt beam="2">  1       -1 0.37815217E-01 0.14808976E+04</pdfrwt>
<totfact> 0.36957919E+01</totfact>
</mgrwt>
</event>
<event>
12    7  0.1605494E-007  0.2056596E+04  0.7818608E-02  0.8580608E-01
          2   -1    0    0  501    0  0.00000000000E+00  0.00000000000E+00  0.15944617622E+04  0.15944617622E+04  0.00000000000E+00 0. -1.
         -1   -1    0    0    0  501 -0.00000000000E+00 -0.00000000000E+00 -0.66316836850E+03  0.66316836850E+03  0.00000000000E+00 0.  1.
         24    2    1    2    0    0  0.28227786147E+03 -0.65356243578E+03  0.84521985657E+03  0.11079268777E+04  0.79250941808E+02 0.  0.
        254    2    1    2    0    0 -0.28227786147E+03  0.65356243578E+03  0.86073537095E+02  0.11497032530E+04  0.89865692432E+03 0.  0.
         23    2    4    4    0    0 -0.24933461829E+03 -0.14986111828E+03  0.14757090449E+03  0.33804105143E+03  0.88704419007E+02 0.  0.
         23    2    4    4    0    0 -0.32943243181E+02  0.80342355406E+03 -0.61497367393E+02  0.81166220157E+03  0.91863696657E+02 0.  0.
          2    1    3    3  502    0  0.65769021414E+02 -0.15373474134E+03  0.14918404292E+03  0.22408885188E+03  0.00000000000E+00 0. -1.
         -1    1    3    3    0  502  0.21650884006E+03 -0.49982769444E+03  0.69603581365E+03  0.88383802579E+03  0.00000000000E+00 0.  1.
         13    1    5    5    0    0 -0.18218568215E+02 -0.40959435954E+02  0.40750725187E+01  0.45013307338E+02  0.00000000000E+00 0. -1.
        -13    1    5    5    0    0 -0.23111605008E+03 -0.10890168233E+03  0.14349583197E+03  0.29302774410E+03  0.00000000000E+00 0.  1.
          2    1    6    6  503    0 -0.44221751977E+02  0.45831845003E+03  0.27043376398E+01  0.46045486036E+03  0.00000000000E+00 0. -1.
         -2    1    6    6    0  503  0.11278508796E+02  0.34510510403E+03 -0.64201705032E+02  0.35120734121E+03  0.00000000000E+00 0.  1.
<mgrwt>
<rscale>  0 0.20565958E+04</rscale>
<asrwt>0</asrwt>
<pdfrwt beam="1">  1        2 0.24530181E+00 0.20565958E+04</pdfrwt>
<pdfrwt beam="2">  1       -1 0.10202590E+00 0.20565958E+04</pdfrwt>
<totfact> 0.10768602E+01</totfact>
</mgrwt>
</event>
<event>
12    7  0.1605494E-007  0.1699831E+04  0.7818608E-02  0.8761461E-01
         -1   -1    0    0    0  501 -0.00000000000E+00  0.00000000000E+00  0.15339054239E+04  0.15339054239E+04  0.00000000000E+00 0.  1.
          2   -1    0    0  501    0  0.00000000000E+00 -0.00000000000E+00 -0.47092604152E+03  0.47092604152E+03  0.00000000000E+00 0. -1.
         24    2    1    2    0    0 -0.18505422944E+01 -0.59824386945E+03  0.38073125313E+03  0.71358128602E+03  0.79641778010E+02 0.  0.
        254    2    1    2    0    0  0.18505422944E+01  0.59824386945E+03  0.68224812923E+03  0.12912501794E+04  0.91867587541E+03 0.  0.
         23    2    4    4    0    0 -0.55263187267E+02 -0.21296247230E+03  0.31519795879E+03  0.39508531083E+03  0.91299589980E+02 0.  0.
         23    2    4    4    0    0  0.57113729561E+02  0.81120634174E+03  0.36705017044E+03  0.89616486855E+03  0.84071023631E+02 0.  0.
          4    1    3    3  502    0 -0.16443169695E+02 -0.40384256106E+03  0.29621416861E+03  0.50110081385E+03  0.00000000000E+00 0. -1.
         -3    1    3    3    0  502  0.14592627401E+02 -0.19440130839E+03  0.84517084518E+02  0.21248047217E+03  0.00000000000E+00 0.  1.
         13    1    5    5    0    0  0.12128132354E+02 -0.91907604233E+01  0.58683124520E+02  0.60624011538E+02  0.00000000000E+00 0.  1.
        -13    1    5    5    0    0 -0.67391319621E+02 -0.20377171187E+03  0.25651483427E+03  0.33446129929E+03  0.00000000000E+00 0. -1.
          4    1    6    6  503    0  0.50925173034E+02  0.25668446813E+03  0.14151187079E+03  0.29749941009E+03  0.00000000000E+00 0. -1.
         -4    1    6    6    0  503  0.61885565270E+01  0.55452187361E+03  0.22553829964E+03  0.59866545846E+03  0.00000000000E+00 0.  1.
<mgrwt>
<rscale>  0 0.16998306E+04</rscale>
<asrwt>0</asrwt>
<pdfrwt beam="1">  1        2 0.72450161E-01 0.16998306E+04</pdfrwt>
<pdfrwt beam="2">  1       -1 0.23598545E+00 0.16998306E+04</pdfrwt>
<totfact> 0.61867647E+00</totfact>
</mgrwt>
</event>
<event>
12    7  0.1605494E-007  0.2372244E+04  0.7818608E-02  0.8449969E-01
          2   -1    0    0  501    0  0.00000000000E+00  0.00000000000E+00  0.13573336751E+04  0.13573336751E+04  0.00000000000E+00 0. -1.
         -1   -1    0    0    0  501 -0.00000000000E+00 -0.00000000000E+00 -0.10365067829E+04  0.10365067829E+04  0.00000000000E+00 0.  1.
         24    2    1    2    0    0  0.61294005405E+03  0.78277979028E+03 -0.67239174490E+02  0.10008452018E+04  0.93436082329E+02 0.  0.
        254    2    1    2    0    0 -0.61294005405E+03 -0.78277979028E+03  0.38806606662E+03  0.13929952562E+04  0.89520992051E+03 0.  0.
         23    2    4    4    0    0 -0.76679326542E+03 -0.59971807894E+03  0.51660356486E+03  0.11059271156E+04  0.92530295506E+02 0.  0.
         23    2    4    4    0    0  0.15385321137E+03 -0.18306171133E+03 -0.12853749824E+03  0.28706814064E+03  0.93294309091E+02 0.  0.
          4    1    3    3  502    0  0.30670406481E+03  0.44414280160E+03 -0.28478853347E+01  0.53975765121E+03  0.00000000000E+00 0. -1.
         -3    1    3    3    0  502  0.30623598924E+03  0.33863698867E+03 -0.64391289155E+02  0.46108755060E+03  0.00000000000E+00 0.  1.
         13    1    5    5    0    0 -0.71151872840E+03 -0.53269759147E+03  0.44873087482E+03  0.99568319401E+03  0.00000000000E+00 0.  1.
        -13    1    5    5    0    0 -0.55274537027E+02 -0.67020487475E+02  0.67872690039E+02  0.11024392155E+03  0.00000000000E+00 0. -1.
          1    1    6    6  503    0  0.78456523246E+02 -0.85262791973E+02 -0.11430959796E+03  0.16276318356E+03  0.00000000000E+00 0. -1.
         -1    1    6    6    0  503  0.75396688126E+02 -0.97798919361E+02 -0.14227900277E+02  0.12430495708E+03  0.00000000000E+00 0.  1.
<mgrwt>
<rscale>  0 0.23722441E+04</rscale>
<asrwt>0</asrwt>
<pdfrwt beam="1">  1        2 0.20882057E+00 0.23722441E+04</pdfrwt>
<pdfrwt beam="2">  1       -1 0.15946258E+00 0.23722441E+04</pdfrwt>
<totfact> 0.46389430E+00</totfact>
</mgrwt>
</event>
<event>
12    7  0.1605494E-007  0.2441127E+04  0.7818608E-02  0.8424265E-01
          2   -1    0    0  501    0  0.00000000000E+00  0.00000000000E+00  0.13775335706E+04  0.13775335706E+04  0.00000000000E+00 0. -1.
         -1   -1    0    0    0  501 -0.00000000000E+00 -0.00000000000E+00 -0.10814799550E+04  0.10814799550E+04  0.00000000000E+00 0.  1.
         24    2    1    2    0    0  0.41824208764E+03  0.78832341920E+02  0.10944832772E+04  0.11770085752E+04  0.79464206071E+02 0.  0.
        254    2    1    2    0    0 -0.41824208764E+03 -0.78832341920E+02 -0.79842966160E+03  0.12820049504E+04  0.90824324186E+03 0.  0.
         23    2    4    4    0    0 -0.28143748013E+03  0.15852512173E+02 -0.97725093421E+03  0.10210787093E+04  0.90133150708E+02 0.  0.
         23    2    4    4    0    0 -0.13680460751E+03 -0.94684854094E+02  0.17882127261E+03  0.26092624109E+03  0.91786347146E+02 0.  0.
          4    1    3    3  502    0  0.41437468101E+03  0.67239950413E+02  0.10743891021E+04  0.11534901516E+04  0.00000000000E+00 0. -1.
         -3    1    3    3    0  502  0.38674066258E+01  0.11592391507E+02  0.20094175113E+02  0.23518423594E+02  0.00000000000E+00 0.  1.
         13    1    5    5    0    0 -0.63730814159E+02  0.30491537320E+02 -0.15452370452E+03  0.16990858065E+03  0.00000000000E+00 0.  1.
        -13    1    5    5    0    0 -0.21770666597E+03 -0.14639025147E+02 -0.82272722969E+03  0.85117012867E+03  0.00000000000E+00 0. -1.
          2    1    6    6  503    0 -0.58888980464E+02 -0.94800511112E+02  0.95944930099E+02  0.14717499291E+03  0.00000000000E+00 0. -1.
         -2    1    6    6    0  503 -0.77915627045E+02  0.11565701884E+00  0.82876342514E+02  0.11375124818E+03  0.00000000000E+00 0.  1.
<mgrwt>
<rscale>  0 0.24411267E+04</rscale>
<asrwt>0</asrwt>
<pdfrwt beam="1">  1        2 0.21192824E+00 0.24411267E+04</pdfrwt>
<pdfrwt beam="2">  1       -1 0.16638153E+00 0.24411267E+04</pdfrwt>
<totfact> 0.39836543E+00</totfact>
</mgrwt>
</event>
<event>
12    7  0.1605494E-007  0.2201970E+04  0.7818608E-02  0.8517609E-01
          2   -1    0    0  501    0  0.00000000000E+00  0.00000000000E+00  0.76231484688E+03  0.76231484688E+03  0.00000000000E+00 0. -1.
         -1   -1    0    0    0  501 -0.00000000000E+00 -0.00000000000E+00 -0.15901140831E+04  0.15901140831E+04  0.00000000000E+00 0.  1.
         24    2    1    2    0    0  0.24914676098E+03  0.47709896287E+03 -0.11344538584E+04  0.12583781338E+04  0.82658586419E+02 0.  0.
        254    2    1    2    0    0 -0.24914676098E+03 -0.47709896287E+03  0.30665462220E+03  0.10940507962E+04  0.90178298852E+03 0.  0.
         23    2    4    4    0    0 -0.25345441252E+03  0.86464476643E+02 -0.18710969700E+03  0.33922186041E+03  0.91357467761E+02 0.  0.
         23    2    4    4    0    0  0.43076515392E+01 -0.56356343952E+03  0.49376431920E+03  0.75482893576E+03  0.91330242062E+02 0.  0.
          4    1    3    3  502    0  0.26271034889E+02  0.10936866285E+03 -0.28223245463E+03  0.30382039125E+03  0.00000000000E+00 0. -1.
         -3    1    3    3    0  502  0.22287572610E+03  0.36773030002E+03 -0.85222140374E+03  0.95455774253E+03  0.00000000000E+00 0.  1.
         13    1    5    5    0    0 -0.69005094084E+02  0.32679872318E+02 -0.83769459654E+01  0.76810482930E+02  0.00000000000E+00 0.  1.
        -13    1    5    5    0    0 -0.18444931844E+03  0.53784604325E+02 -0.17873275104E+03  0.26241137748E+03  0.00000000000E+00 0. -1.
          4    1    6    6  503    0 -0.15785753547E+02 -0.53380863097E+03  0.47274906790E+03  0.71322684030E+03  0.00000000000E+00 0. -1.
         -4    1    6    6    0  503  0.20093405086E+02 -0.29754808545E+02  0.21015251299E+02  0.41602095460E+02  0.00000000000E+00 0.  1.
<mgrwt>
<rscale>  0 0.22019696E+04</rscale>
<asrwt>0</asrwt>
<pdfrwt beam="1">  1        2 0.11727921E+00 0.22019696E+04</pdfrwt>
<pdfrwt beam="2">  1       -1 0.24463293E+00 0.22019696E+04</pdfrwt>
<totfact> 0.28937899E+00</totfact>
</mgrwt>
</event>
<event>
12    7  0.1605494E-007  0.2080598E+04  0.7818608E-02  0.8569838E-01
         -1   -1    0    0    0  501 -0.00000000000E+00  0.00000000000E+00  0.10899550688E+04  0.10899550688E+04  0.00000000000E+00 0.  1.
          2   -1    0    0  501    0  0.00000000000E+00 -0.00000000000E+00 -0.99290535364E+03  0.99290535364E+03  0.00000000000E+00 0. -1.
         24    2    1    2    0    0 -0.73167158332E+03 -0.40332167759E+03  0.15367043857E+03  0.85323462856E+03  0.79893968663E+02 0.  0.
        254    2    1    2    0    0  0.73167158332E+03  0.40332167759E+03 -0.56620723436E+02  0.12296257938E+04  0.90042323666E+03 0.  0.
         23    2    4    4    0    0  0.42875710290E+03 -0.24342129523E+03  0.39259868495E+02  0.50308780527E+03  0.92029464182E+02 0.  0.
         23    2    4    4    0    0  0.30291448042E+03  0.64674297282E+03 -0.95880591931E+02  0.72653798858E+03  0.92901590955E+02 0.  0.
          4    1    3    3  502    0 -0.51584429962E+03 -0.31557617242E+03  0.87327527607E+02  0.61099080118E+03  0.00000000000E+00 0. -1.
         -3    1    3    3    0  502 -0.21582728370E+03 -0.87745505163E+02  0.66342910965E+02  0.24224382738E+03  0.00000000000E+00 0.  1.
         13    1    5    5    0    0  0.27580663600E+03 -0.11315055674E+03  0.48171591993E+02  0.30198154120E+03  0.00000000000E+00 0. -1.
        -13    1    5    5    0    0  0.15295046691E+03 -0.13027073849E+03 -0.89117234983E+01  0.20110626407E+03  0.00000000000E+00 0.  1.
          2    1    6    6  503    0  0.14791899513E+03  0.34059014756E+03 -0.95409904557E+02  0.38338587301E+03  0.00000000000E+00 0. -1.
         -2    1    6    6    0  503  0.15499548529E+03  0.30615282525E+03 -0.47068737464E+00  0.34315211556E+03  0.00000000000E+00 0.  1.
<mgrwt>
<rscale>  0 0.20805982E+04</rscale>
<asrwt>0</asrwt>
<pdfrwt beam="1">  1        2 0.15275467E+00 0.20805982E+04</pdfrwt>
<pdfrwt beam="2">  1       -1 0.16768540E+00 0.20805982E+04</pdfrwt>
<totfact> 0.68591541E+00</totfact>
</mgrwt>
</event>
<event>
12    7  0.1605494E-007  0.1670627E+04  0.7818608E-02  0.8778297E-01
         -1   -1    0    0    0  501 -0.00000000000E+00  0.00000000000E+00  0.24839973248E+03  0.24839973248E+03  0.00000000000E+00 0.  1.
          2   -1    0    0  501    0  0.00000000000E+00 -0.00000000000E+00 -0.28089745768E+04  0.28089745768E+04  0.00000000000E+00 0. -1.
         24    2    1    2    0    0  0.39359478197E+03 -0.35349139338E+03 -0.13810788110E+04  0.14808790015E+04  0.75834803248E+02 0.  0.
        254    2    1    2    0    0 -0.39359478197E+03  0.35349139338E+03 -0.11794960334E+04  0.15764953078E+04  0.90235998646E+03 0.  0.
         23    2    4    4    0    0 -0.10416001158E+03 -0.97346267089E+02 -0.98484822490E+03  0.99923207089E+03  0.90626164450E+02 0.  0.
         23    2    4    4    0    0 -0.28943477040E+03  0.45083766047E+03 -0.19464780846E+03  0.57726323689E+03  0.91203031275E+02 0.  0.
          2    1    3    3  502    0  0.39027004551E+03 -0.34676950786E+03 -0.13762855284E+04  0.14719788231E+04  0.00000000000E+00 0. -1.
         -1    1    3    3    0  502  0.33247364580E+01 -0.67218855213E+01 -0.47932825602E+01  0.89001783790E+01  0.00000000000E+00 0.  1.
         13    1    5    5    0    0 -0.74058510095E+02 -0.11113839365E+03 -0.84690443411E+03  0.85737012192E+03  0.00000000000E+00 0. -1.
        -13    1    5    5    0    0 -0.30101501481E+02  0.13792126557E+02 -0.13794379079E+03  0.14186194897E+03  0.00000000000E+00 0.  1.
          3    1    6    6  503    0 -0.19654633691E+03  0.37416339006E+03 -0.16020710443E+03  0.45199006773E+03  0.00000000000E+00 0. -1.
         -3    1    6    6    0  503 -0.92888433484E+02  0.76674270416E+02 -0.34440704027E+02  0.12527316917E+03  0.00000000000E+00 0.  1.
<mgrwt>
<rscale>  0 0.16706269E+04</rscale>
<asrwt>0</asrwt>
<pdfrwt beam="1">  1        2 0.43214992E+00 0.16706269E+04</pdfrwt>
<pdfrwt beam="2">  1       -1 0.38215345E-01 0.16706269E+04</pdfrwt>
<totfact> 0.16478171E+01</totfact>
</mgrwt>
</event>
<event>
12    7  0.1605494E-007  0.1118269E+04  0.7818608E-02  0.9187566E-01
          2   -1    0    0  501    0  0.00000000000E+00  0.00000000000E+00  0.31214540064E+04  0.31214540064E+04  0.00000000000E+00 0. -1.
         -1   -1    0    0    0  501 -0.00000000000E+00 -0.00000000000E+00 -0.10015572731E+03  0.10015572731E+03  0.00000000000E+00 0.  1.
         24    2    1    2    0    0  0.65145871384E+01 -0.64531090553E+02  0.52137085208E+02  0.11599147944E+03  0.80802513293E+02 0.  0.
        254    2    1    2    0    0 -0.65145871384E+01  0.64531090553E+02  0.29691611939E+04  0.31056182543E+04  0.90815188409E+03 0.  0.
         23    2    4    4    0    0  0.37040913061E+03  0.18953698870E+02  0.64971988565E+03  0.75355331979E+03  0.90246934695E+02 0.  0.
         23    2    4    4    0    0 -0.37692371775E+03  0.45577391683E+02  0.23194413083E+04  0.23520649345E+04  0.90844295768E+02 0.  0.
          2    1    3    3  502    0 -0.35910644112E+02 -0.42873041913E+02  0.26285092406E+02  0.61794645126E+02  0.00000000000E+00 0. -1.
         -1    1    3    3    0  502  0.42425231251E+02 -0.21658048640E+02  0.25851992802E+02  0.54196834311E+02  0.00000000000E+00 0.  1.
         13    1    5    5    0    0  0.88519176062E+01  0.10727298924E+02  0.61480998061E+02  0.63034470808E+02  0.00000000000E+00 0. -1.
        -13    1    5    5    0    0  0.36155721300E+03  0.82263999460E+01  0.58823888759E+03  0.69051884898E+03  0.00000000000E+00 0.  1.
          3    1    6    6  503    0 -0.80992374596E+01  0.10217545582E+02  0.20438079155E+03  0.20479624957E+03  0.00000000000E+00 0. -1.
         -3    1    6    6    0  503 -0.36882448029E+03  0.35359846101E+02  0.21150605167E+04  0.21472686849E+04  0.00000000000E+00 0.  1.
<mgrwt>
<rscale>  0 0.11182692E+04</rscale>
<asrwt>0</asrwt>
<pdfrwt beam="1">  1        2 0.48022362E+00 0.11182692E+04</pdfrwt>
<pdfrwt beam="2">  1       -1 0.15408576E-01 0.11182692E+04</pdfrwt>
<totfact> 0.52951097E+01</totfact>
</mgrwt>
</event>
<event>
12    7  0.1605494E-007  0.1166965E+04  0.7818608E-02  0.9142274E-01
          2   -1    0    0  501    0  0.00000000000E+00  0.00000000000E+00  0.40941326898E+03  0.40941326898E+03  0.00000000000E+00 0. -1.
         -1   -1    0    0    0  501 -0.00000000000E+00 -0.00000000000E+00 -0.83156038340E+03  0.83156038340E+03  0.00000000000E+00 0.  1.
         24    2    1    2    0    0 -0.14944433429E+03 -0.11412245355E+03  0.32220503678E+02  0.20717446093E+03  0.80780894690E+02 0.  0.
        254    2    1    2    0    0  0.14944433429E+03  0.11412245355E+03 -0.45436761809E+03  0.10337991914E+04  0.90935872592E+03 0.  0.
         23    2    4    4    0    0 -0.23805493257E+03 -0.13687607401E+03  0.10116622526E+03  0.30545260299E+03  0.87529863355E+02 0.  0.
         23    2    4    4    0    0  0.38749926686E+03  0.25099852756E+03 -0.55553384336E+03  0.72834658846E+03  0.93353945548E+02 0.  0.
          2    1    3    3  502    0 -0.15441145135E+03 -0.11918502735E+03  0.37113173999E+02  0.19855818980E+03  0.00000000000E+00 0. -1.
         -1    1    3    3    0  502  0.49671170542E+01  0.50625738003E+01 -0.48926703210E+01  0.86162711299E+01  0.00000000000E+00 0.  1.
         13    1    5    5    0    0 -0.15865920422E+03 -0.60820803429E+02  0.25106861547E+02  0.17176224180E+03  0.00000000000E+00 0. -1.
        -13    1    5    5    0    0 -0.79395728352E+02 -0.76055270584E+02  0.76059363715E+02  0.13369036118E+03  0.00000000000E+00 0.  1.
          3    1    6    6  503    0  0.37408936156E+03  0.25685328267E+03 -0.54916213376E+03  0.71238718995E+03  0.00000000000E+00 0. -1.
         -3    1    6    6    0  503  0.13409905305E+02 -0.58547551051E+01 -0.63717095945E+01  0.15959398510E+02  0.00000000000E+00 0.  1.
<mgrwt>
<rscale>  0 0.11669650E+04</rscale>
<asrwt>0</asrwt>
<pdfrwt beam="1">  1        2 0.62986657E-01 0.11669650E+04</pdfrwt>
<pdfrwt beam="2">  1       -1 0.12793237E+00 0.11669650E+04</pdfrwt>
<totfact> 0.46301211E+01</totfact>
</mgrwt>
</event>
<event>
12    7  0.1605494E-007  0.1146529E+04  0.7818608E-02  0.9160991E-01
          2   -1    0    0  501    0  0.00000000000E+00  0.00000000000E+00  0.16114257758E+04  0.16114257758E+04  0.00000000000E+00 0. -1.
         -1   -1    0    0    0  501 -0.00000000000E+00 -0.00000000000E+00 -0.20393883139E+03  0.20393883139E+03  0.00000000000E+00 0.  1.
         24    2    1    2    0    0  0.13819069913E+03 -0.21001644304E+02  0.52066330954E+03  0.54474156029E+03  0.78200685558E+02 0.  0.
        254    2    1    2    0    0 -0.13819069913E+03  0.21001644304E+02  0.88682363491E+03  0.12706230469E+04  0.89916018016E+03 0.  0.
         23    2    4    4    0    0 -0.40128296705E+03 -0.45793815231E+02  0.91013538306E+02  0.42440864892E+03  0.93349579332E+02 0.  0.
         23    2    4    4    0    0  0.26309226792E+03  0.66795459535E+02  0.79581009661E+03  0.84621439802E+03  0.95320106513E+02 0.  0.
          4    1    3    3  502    0  0.13412227113E+03 -0.28121400755E+02  0.38201606420E+03  0.40585202980E+03  0.00000000000E+00 0. -1.
         -3    1    3    3    0  502  0.40684280041E+01  0.71197564515E+01  0.13864724534E+03  0.13888953049E+03  0.00000000000E+00 0.  1.
         13    1    5    5    0    0 -0.29353147060E+03 -0.27184226051E+02  0.10759985515E+03  0.31381114576E+03  0.00000000000E+00 0. -1.
        -13    1    5    5    0    0 -0.10775149646E+03 -0.18609589180E+02 -0.16586316842E+02  0.11059750316E+03  0.00000000000E+00 0.  1.
          4    1    6    6  503    0  0.15557829482E+03  0.46659023393E+02  0.33095871399E+03  0.36866697797E+03  0.00000000000E+00 0. -1.
         -4    1    6    6    0  503  0.10751397309E+03  0.20136436141E+02  0.46485138262E+03  0.47754742005E+03  0.00000000000E+00 0.  1.
<mgrwt>
<rscale>  0 0.11465292E+04</rscale>
<asrwt>0</asrwt>
<pdfrwt beam="1">  1        2 0.24791165E+00 0.11465292E+04</pdfrwt>
<pdfrwt beam="2">  1       -1 0.31375206E-01 0.11465292E+04</pdfrwt>
<totfact> 0.11682950E+02</totfact>
</mgrwt>
</event>
<event>
12    7  0.1605494E-007  0.1658561E+04  0.7818608E-02  0.8785358E-01
         -1   -1    0    0    0  501 -0.00000000000E+00  0.00000000000E+00  0.54399973297E+03  0.54399973297E+03  0.00000000000E+00 0.  1.
          2   -1    0    0  501    0  0.00000000000E+00 -0.00000000000E+00 -0.12641663593E+04  0.12641663593E+04  0.00000000000E+00 0. -1.
         24    2    1    2    0    0  0.14891427253E+03 -0.33979295554E+03  0.22853310448E+03  0.44269845769E+03  0.78229351288E+02 0.  0.
        254    2    1    2    0    0 -0.14891427253E+03  0.33979295554E+03 -0.94869973085E+03  0.13654676346E+04  0.90930521206E+03 0.  0.
         23    2    4    4    0    0 -0.51259922364E+02  0.18159372278E+02 -0.10072739804E+04  0.10129102452E+04  0.91809317023E+02 0.  0.
         23    2    4    4    0    0 -0.97654350166E+02  0.32163358326E+03  0.58574249576E+02  0.35255738944E+03  0.88776326519E+02 0.  0.
          4    1    3    3  502    0  0.73951340188E+02 -0.81071359098E+02  0.69548001163E+02  0.12991647489E+03  0.00000000000E+00 0. -1.
         -3    1    3    3    0  502  0.74962932342E+02 -0.25872159644E+03  0.15898510332E+03  0.31278198280E+03  0.00000000000E+00 0.  1.
         13    1    5    5    0    0  0.43621357431E+01 -0.31159366477E+02 -0.36327411612E+03  0.36463408753E+03  0.00000000000E+00 0. -1.
        -13    1    5    5    0    0 -0.55622058107E+02  0.49318738755E+02 -0.64399986431E+03  0.64827615764E+03  0.00000000000E+00 0.  1.
          1    1    6    6  503    0 -0.33762558584E+02  0.16001534305E+03 -0.14184367153E+02  0.16415241895E+03  0.00000000000E+00 0. -1.
         -1    1    6    6    0  503 -0.63891791583E+02  0.16161824021E+03  0.72758616730E+02  0.18840497050E+03  0.00000000000E+00 0.  1.
<mgrwt>
<rscale>  0 0.16585610E+04</rscale>
<asrwt>0</asrwt>
<pdfrwt beam="1">  1        2 0.19448713E+00 0.16585610E+04</pdfrwt>
<pdfrwt beam="2">  1       -1 0.83692268E-01 0.16585610E+04</pdfrwt>
<totfact> 0.26739267E+01</totfact>
</mgrwt>
</event>
<event>
12    7  0.1605494E-007  0.1353619E+04  0.7818608E-02  0.8988093E-01
         -1   -1    0    0    0  501 -0.00000000000E+00  0.00000000000E+00  0.18561535263E+03  0.18561535263E+03  0.00000000000E+00 0.  1.
          2   -1    0    0  501    0  0.00000000000E+00 -0.00000000000E+00 -0.24678517458E+04  0.24678517458E+04  0.00000000000E+00 0. -1.
         24    2    1    2    0    0 -0.69732143945E+02  0.36290915624E+03 -0.55833519587E+03  0.67425270268E+03  0.79453688067E+02 0.  0.
        254    2    1    2    0    0  0.69732143945E+02 -0.36290915624E+03 -0.17239011973E+04  0.19792143957E+04  0.89938237622E+03 0.  0.
         23    2    4    4    0    0 -0.64210535753E+02  0.25877508987E+03 -0.27023361794E+03  0.38988665821E+03  0.88869893378E+02 0.  0.
         23    2    4    4    0    0  0.13394267970E+03 -0.62168424611E+03 -0.14536675793E+04  0.15893277375E+04  0.91549345676E+02 0.  0.
          4    1    3    3  502    0 -0.37574773890E+02  0.27501660189E+03 -0.46832477148E+03  0.54440250415E+03  0.00000000000E+00 0. -1.
         -3    1    3    3    0  502 -0.32157370055E+02  0.87892554354E+02 -0.90010424388E+02  0.12985019853E+03  0.00000000000E+00 0.  1.
         13    1    5    5    0    0 -0.45211124225E+02  0.25770381799E+03 -0.25667691127E+03  0.36652195069E+03  0.00000000000E+00 0.  1.
        -13    1    5    5    0    0 -0.18999411528E+02  0.10712718806E+01 -0.13556706671E+02  0.23364707522E+02  0.00000000000E+00 0. -1.
          4    1    6    6  503    0  0.45103945142E+02 -0.34237391836E+03 -0.87461173673E+03  0.94031907130E+03  0.00000000000E+00 0.  1.
         -4    1    6    6    0  503  0.88838734556E+02 -0.27931032775E+03 -0.57905584259E+03  0.64900866618E+03  0.00000000000E+00 0. -1.
<mgrwt>
<rscale>  0 0.13536191E+04</rscale>
<asrwt>0</asrwt>
<pdfrwt beam="1">  1        2 0.37966947E+00 0.13536191E+04</pdfrwt>
<pdfrwt beam="2">  1       -1 0.28556210E-01 0.13536191E+04</pdfrwt>
<totfact> 0.45133176E+01</totfact>
</mgrwt>
</event>
<event>
12    7  0.1605494E-007  0.3292473E+04  0.7818608E-02  0.8164813E-01
          2   -1    0    0  501    0  0.00000000000E+00  0.00000000000E+00  0.18041557295E+04  0.18041557295E+04  0.00000000000E+00 0. -1.
         -1   -1    0    0    0  501 -0.00000000000E+00 -0.00000000000E+00 -0.15021397392E+04  0.15021397392E+04  0.00000000000E+00 0.  1.
         24    2    1    2    0    0 -0.10907693265E+04  0.70230152237E+03 -0.65713761843E+03  0.14564161395E+04  0.79454199890E+02 0.  0.
        254    2    1    2    0    0  0.10907693265E+04 -0.70230152237E+03  0.95915360871E+03  0.18498793293E+04  0.90502637302E+03 0.  0.
         23    2    4    4    0    0  0.43251372937E+03  0.17922558335E+03  0.31224251358E+03  0.57039465032E+03  0.93084552934E+02 0.  0.
         23    2    4    4    0    0  0.65825559709E+03 -0.88152710572E+03  0.64691109513E+03  0.12794846790E+04  0.90535128253E+02 0.  0.
          2    1    3    3  502    0 -0.47004116903E+02  0.21877614664E+02 -0.42809702968E+02  0.67236059502E+02  0.00000000000E+00 0. -1.
         -1    1    3    3    0  502 -0.10437652096E+04  0.68042390770E+03 -0.61432791546E+03  0.13891800800E+04  0.00000000000E+00 0.  1.
         13    1    5    5    0    0  0.23539790346E+03  0.69921960252E+02  0.11617947387E+03  0.27165957305E+03  0.00000000000E+00 0.  1.
        -13    1    5    5    0    0  0.19711582591E+03  0.10930362310E+03  0.19606303972E+03  0.29873507727E+03  0.00000000000E+00 0. -1.
          4    1    6    6  503    0  0.45357166232E+03 -0.63632063951E+03  0.41523437502E+03  0.88490157381E+03  0.00000000000E+00 0. -1.
         -4    1    6    6    0  503  0.20468393477E+03 -0.24520646620E+03  0.23167672011E+03  0.39458310514E+03  0.00000000000E+00 0.  1.
<mgrwt>
<rscale>  0 0.32924726E+04</rscale>
<asrwt>0</asrwt>
<pdfrwt beam="1">  1        2 0.27756242E+00 0.32924726E+04</pdfrwt>
<pdfrwt beam="2">  1       -1 0.23109842E+00 0.32924726E+04</pdfrwt>
<totfact> 0.75763832E-01</totfact>
</mgrwt>
</event>
<event>
12    7  0.1605494E-007  0.1695362E+04  0.7818608E-02  0.8764014E-01
          2   -1    0    0  501    0  0.00000000000E+00  0.00000000000E+00  0.44200711526E+03  0.44200711526E+03  0.00000000000E+00 0. -1.
         -3   -1    0    0    0  501 -0.00000000000E+00 -0.00000000000E+00 -0.16256821658E+04  0.16256821658E+04  0.00000000000E+00 0.  1.
         24    2    1    2    0    0 -0.23290938777E+03 -0.25248356839E+03  0.18050277634E+03  0.39617646167E+03  0.79873658335E+02 0.  0.
        254    2    1    2    0    0  0.23290938777E+03  0.25248356839E+03 -0.13641778268E+04  0.16715128194E+04  0.90276199898E+03 0.  0.
         23    2    4    4    0    0  0.47257811761E+02 -0.20981008467E+03 -0.21265507245E+02  0.23613013456E+03  0.95140140026E+02 0.  0.
         23    2    4    4    0    0  0.18565157601E+03  0.46229365306E+03 -0.13429123196E+04  0.14353826848E+04  0.93423896096E+02 0.  0.
          2    1    3    3  502    0 -0.10381103821E+03 -0.74272583418E+02  0.34969885620E+02  0.13234818171E+03  0.00000000000E+00 0. -1.
         -1    1    3    3    0  502 -0.12909834955E+03 -0.17821098497E+03  0.14553289072E+03  0.26382827995E+03  0.00000000000E+00 0.  1.
         13    1    5    5    0    0  0.48739232924E+02 -0.39766517857E+02  0.85625387059E+01  0.63483902192E+02  0.00000000000E+00 0. -1.
        -13    1    5    5    0    0 -0.14814211625E+01 -0.17004356682E+03 -0.29828045950E+02  0.17264623236E+03  0.00000000000E+00 0.  1.
          1    1    6    6  503    0  0.10253665536E+03  0.36335146069E+03 -0.98783896145E+03  0.10575272400E+04  0.00000000000E+00 0. -1.
         -1    1    6    6    0  503  0.83114920642E+02  0.98942192373E+02 -0.35507335815E+03  0.37785544476E+03  0.00000000000E+00 0.  1.
<mgrwt>
<rscale>  0 0.16953620E+04</rscale>
<asrwt>0</asrwt>
<pdfrwt beam="1">  1        2 0.68001094E-01 0.16953620E+04</pdfrwt>
<pdfrwt beam="2">  1       -3 0.25010495E+00 0.16953620E+04</pdfrwt>
<totfact> 0.30799288E+00</totfact>
</mgrwt>
</event>
<event>
12    7  0.1605494E-007  0.1320669E+04  0.7818608E-02  0.9013333E-01
         -1   -1    0    0    0  501 -0.00000000000E+00  0.00000000000E+00  0.50670485000E+03  0.50670485000E+03  0.00000000000E+00 0.  1.
          2   -1    0    0  501    0  0.00000000000E+00 -0.00000000000E+00 -0.86054316636E+03  0.86054316636E+03  0.00000000000E+00 0. -1.
         24    2    1    2    0    0  0.37113054661E+02  0.20490361323E+03  0.17303754461E+03  0.28163613781E+03  0.77550323882E+02 0.  0.
        254    2    1    2    0    0 -0.37113054661E+02 -0.20490361323E+03 -0.52687586097E+03  0.10856118785E+04  0.92606269141E+03 0.  0.
         23    2    4    4    0    0 -0.17457256940E+03 -0.53741334852E+03 -0.37580105584E+03  0.68476429538E+03  0.91580661139E+02 0.  0.
         23    2    4    4    0    0  0.13745951474E+03  0.33250973529E+03 -0.15107480513E+03  0.40084758317E+03  0.91637033631E+02 0.  0.
          4    1    3    3  502    0  0.30257717598E+02  0.10702560398E+03  0.13847235827E+03  0.17760800485E+03  0.00000000000E+00 0. -1.
         -3    1    3    3    0  502  0.68553370628E+01  0.97878009251E+02  0.34565186348E+02  0.10402813297E+03  0.00000000000E+00 0.  1.
         13    1    5    5    0    0 -0.18096955066E+03 -0.47661630983E+03 -0.31952014809E+03  0.60166951901E+03  0.00000000000E+00 0.  1.
        -13    1    5    5    0    0  0.63969812621E+01 -0.60797038687E+02 -0.56280907755E+02  0.83094776371E+02  0.00000000000E+00 0. -1.
          4    1    6    6  503    0  0.43290054057E+02  0.25687791640E+02 -0.21017811375E+02  0.54549425428E+02  0.00000000000E+00 0. -1.
         -4    1    6    6    0  503  0.94169460686E+02  0.30682194365E+03 -0.13005699376E+03  0.34629815774E+03  0.00000000000E+00 0.  1.
<mgrwt>
<rscale>  0 0.13206686E+04</rscale>
<asrwt>0</asrwt>
<pdfrwt beam="1">  1        2 0.13239126E+00 0.13206686E+04</pdfrwt>
<pdfrwt beam="2">  1       -1 0.77954593E-01 0.13206686E+04</pdfrwt>
<totfact> 0.57481547E+01</totfact>
</mgrwt>
</event>
<event>
12    7  0.1605494E-007  0.1518874E+04  0.7818608E-02  0.8871998E-01
         -1   -1    0    0    0  501 -0.00000000000E+00  0.00000000000E+00  0.26145936731E+03  0.26145936731E+03  0.00000000000E+00 0.  1.
          2   -1    0    0  501    0  0.00000000000E+00 -0.00000000000E+00 -0.22058677126E+04  0.22058677126E+04  0.00000000000E+00 0. -1.
         24    2    1    2    0    0  0.10214686369E+03  0.41135997657E+03 -0.10411095290E+04  0.11268152272E+04  0.78437827166E+02 0.  0.
        254    2    1    2    0    0 -0.10214686369E+03 -0.41135997657E+03 -0.90329881625E+03  0.13405118527E+04  0.89519398105E+03 0.  0.
         23    2    4    4    0    0  0.24420824963E+03 -0.19581074269E+03 -0.86023832027E+03  0.91986514328E+03  0.90345990597E+02 0.  0.
         23    2    4    4    0    0 -0.34635511332E+03 -0.21554923387E+03 -0.43060495979E+02  0.42064670943E+03  0.93091949665E+02 0.  0.
          2    1    3    3  502    0  0.97266231157E+02  0.41009198006E+03 -0.10392132518E+04  0.11214278107E+04  0.00000000000E+00 0. -1.
         -1    1    3    3    0  502  0.48806325336E+01  0.12679965036E+01 -0.18962771593E+01  0.53874164612E+01  0.00000000000E+00 0.  1.
         13    1    5    5    0    0  0.38392247498E+02  0.20466629775E+01 -0.73891516550E+02  0.83295316287E+02  0.00000000000E+00 0.  1.
        -13    1    5    5    0    0  0.20581600213E+03 -0.19785740567E+03 -0.78634680372E+03  0.83656982699E+03  0.00000000000E+00 0. -1.
          4    1    6    6  503    0 -0.25448630855E+03 -0.11169929764E+03 -0.99700583998E+01  0.27809965192E+03  0.00000000000E+00 0. -1.
         -4    1    6    6    0  503 -0.91868804769E+02 -0.10384993623E+03 -0.33090437580E+02  0.14254705751E+03  0.00000000000E+00 0.  1.
<mgrwt>
<rscale>  0 0.15188743E+04</rscale>
<asrwt>0</asrwt>
<pdfrwt beam="1">  1        2 0.33936427E+00 0.15188743E+04</pdfrwt>
<pdfrwt beam="2">  1       -1 0.40224518E-01 0.15188743E+04</pdfrwt>
<totfact> 0.33985893E+01</totfact>
</mgrwt>
</event>
<event>
12    7  0.1605494E-007  0.1144136E+04  0.7818608E-02  0.9163210E-01
         -1   -1    0    0    0  501 -0.00000000000E+00  0.00000000000E+00  0.17453960951E+03  0.17453960951E+03  0.00000000000E+00 0.  1.
          2   -1    0    0  501    0  0.00000000000E+00 -0.00000000000E+00 -0.18750015185E+04  0.18750015185E+04  0.00000000000E+00 0. -1.
         24    2    1    2    0    0  0.28354745660E+03  0.13182715941E+02 -0.36855544741E+03  0.47222958112E+03  0.81207852606E+02 0.  0.
        254    2    1    2    0    0 -0.28354745660E+03 -0.13182715941E+02 -0.13319064616E+04  0.15773115469E+04  0.79584166102E+03 0.  0.
         23    2    4    4    0    0 -0.30308117525E+03 -0.36096140132E+03 -0.67245103820E+03  0.82602762365E+03  0.89330309654E+02 0.  0.
         23    2    4    4    0    0  0.19533718651E+02  0.34777868538E+03 -0.65945542343E+03  0.75128392328E+03  0.90633866358E+02 0.  0.
          4    1    3    3  502    0  0.11125460682E+03 -0.25561248231E+02 -0.18600459295E+03  0.21823994489E+03  0.00000000000E+00 0. -1.
         -3    1    3    3    0  502  0.17229284978E+03  0.38743964171E+02 -0.18255085446E+03  0.25398963622E+03  0.00000000000E+00 0.  1.
         13    1    5    5    0    0 -0.16402360121E+02 -0.63441090406E+02 -0.74453899671E+02  0.99182622196E+02  0.00000000000E+00 0.  1.
        -13    1    5    5    0    0 -0.28667881513E+03 -0.29752031091E+03 -0.59799713853E+03  0.72684500145E+03  0.00000000000E+00 0. -1.
          4    1    6    6  503    0  0.38128021739E+02  0.79682857411E+02 -0.20659205497E+03  0.22468507068E+03  0.00000000000E+00 0. -1.
         -4    1    6    6    0  503 -0.18594303089E+02  0.26809582796E+03 -0.45286336845E+03  0.52659885261E+03  0.00000000000E+00 0.  1.
<mgrwt>
<rscale>  0 0.11441364E+04</rscale>
<asrwt>0</asrwt>
<pdfrwt beam="1">  1        2 0.28846177E+00 0.11441364E+04</pdfrwt>
<pdfrwt beam="2">  1       -1 0.26852248E-01 0.11441364E+04</pdfrwt>
<totfact> 0.10960094E+02</totfact>
</mgrwt>
</event>
<event>
12    7  0.1605494E-007  0.1554896E+04  0.7818608E-02  0.8848746E-01
          2   -1    0    0  501    0  0.00000000000E+00  0.00000000000E+00  0.56352180431E+03  0.56352180431E+03  0.00000000000E+00 0. -1.
         -1   -1    0    0    0  501 -0.00000000000E+00 -0.00000000000E+00 -0.10725859037E+04  0.10725859037E+04  0.00000000000E+00 0.  1.
         24    2    1    2    0    0 -0.47013268384E+03  0.93039501959E+02 -0.34006549639E+03  0.59305647253E+03  0.79939654936E+02 0.  0.
        254    2    1    2    0    0  0.47013268384E+03 -0.93039501959E+02 -0.16899860296E+03  0.10430512354E+04  0.91088652565E+03 0.  0.
         23    2    4    4    0    0 -0.96341107096E+02 -0.78864099023E+02  0.27590662705E+03  0.31636693077E+03  0.91991374605E+02 0.  0.
         23    2    4    4    0    0  0.56647379094E+03 -0.14175402936E+02 -0.44490523001E+03  0.72668430467E+03  0.95057441033E+02 0.  0.
          2    1    3    3  502    0 -0.31444845073E+03  0.70735991713E+02 -0.18230089778E+03  0.37029046169E+03  0.00000000000E+00 0. -1.
         -1    1    3    3    0  502 -0.15568423311E+03  0.22303510246E+02 -0.15776459861E+03  0.22276601083E+03  0.00000000000E+00 0.  1.
         13    1    5    5    0    0 -0.66583521054E+02 -0.49164451501E+02  0.25749360867E+03  0.27046897618E+03  0.00000000000E+00 0. -1.
        -13    1    5    5    0    0 -0.29757586041E+02 -0.29699647522E+02  0.18413018382E+02  0.45897954593E+02  0.00000000000E+00 0.  1.
          1    1    6    6  503    0  0.43141024001E+03 -0.46473706070E+02 -0.36092174070E+03  0.56439268551E+03  0.00000000000E+00 0. -1.
         -1    1    6    6    0  503  0.13506355093E+03  0.32298303134E+02 -0.83983489308E+02  0.16229161916E+03  0.00000000000E+00 0.  1.
<mgrwt>
<rscale>  0 0.15548962E+04</rscale>
<asrwt>0</asrwt>
<pdfrwt beam="1">  1        2 0.86695663E-01 0.15548962E+04</pdfrwt>
<pdfrwt beam="2">  1       -1 0.16501321E+00 0.15548962E+04</pdfrwt>
<totfact> 0.15756295E+01</totfact>
</mgrwt>
</event>
<event>
12    7  0.1605494E-007  0.1719411E+04  0.7818608E-02  0.8750370E-01
          2   -1    0    0  501    0  0.00000000000E+00  0.00000000000E+00  0.28316028903E+04  0.28316028903E+04  0.00000000000E+00 0. -1.
         -1   -1    0    0    0  501 -0.00000000000E+00 -0.00000000000E+00 -0.26101600853E+03  0.26101600853E+03  0.00000000000E+00 0.  1.
         24    2    1    2    0    0 -0.18571324191E+03 -0.13267728788E+03  0.19685971000E+04  0.19833670014E+04  0.79230353422E+02 0.  0.
        254    2    1    2    0    0  0.18571324191E+03  0.13267728788E+03  0.60198978174E+03  0.11092518975E+04  0.90330249850E+03 0.  0.
         23    2    4    4    0    0 -0.35171432509E+03  0.26407408137E+02  0.32620263416E+03  0.48916039305E+03  0.92029418789E+02 0.  0.
         23    2    4    4    0    0  0.53742756700E+03  0.10626987974E+03  0.27578714759E+03  0.62009150442E+03  0.91286614407E+02 0.  0.
          4    1    3    3  502    0 -0.11791891017E+03 -0.86458864291E+02  0.15444858673E+04  0.15513918263E+04  0.00000000000E+00 0. -1.
         -3    1    3    3    0  502 -0.67794331737E+02 -0.46218423590E+02  0.42411123276E+03  0.43197517504E+03  0.00000000000E+00 0.  1.
         13    1    5    5    0    0 -0.32263786664E+03  0.13101703597E+02  0.32348944523E+03  0.45706921664E+03  0.00000000000E+00 0. -1.
        -13    1    5    5    0    0 -0.29076458447E+02  0.13305704540E+02  0.27131889277E+01  0.32091176409E+02  0.00000000000E+00 0.  1.
          1    1    6    6  503    0  0.29805769450E+03  0.10353767941E+03  0.16945362970E+03  0.35815216449E+03  0.00000000000E+00 0. -1.
         -1    1    6    6    0  503  0.23936987250E+03  0.27322003326E+01  0.10633351789E+03  0.26193933993E+03  0.00000000000E+00 0.  1.
<mgrwt>
<rscale>  0 0.17194112E+04</rscale>
<asrwt>0</asrwt>
<pdfrwt beam="1">  1        2 0.43563119E+00 0.17194112E+04</pdfrwt>
<pdfrwt beam="2">  1       -1 0.40156311E-01 0.17194112E+04</pdfrwt>
<totfact> 0.14523711E+01</totfact>
</mgrwt>
</event>
<event>
12    7  0.1605494E-007  0.1280955E+04  0.7818608E-02  0.9044806E-01
          2   -1    0    0  501    0  0.00000000000E+00  0.00000000000E+00  0.11083570922E+04  0.11083570922E+04  0.00000000000E+00 0. -1.
         -1   -1    0    0    0  501 -0.00000000000E+00 -0.00000000000E+00 -0.37010758110E+03  0.37010758110E+03  0.00000000000E+00 0.  1.
         24    2    1    2    0    0 -0.78380015287E+01  0.20325880226E+03  0.49188012214E+03  0.53825439624E+03  0.79976031108E+02 0.  0.
        254    2    1    2    0    0  0.78380015287E+01 -0.20325880226E+03  0.24636938899E+03  0.94021027709E+03  0.88426348695E+03 0.  0.
         23    2    4    4    0    0 -0.33171137592E+02 -0.11421485713E+02  0.55514168183E+03  0.56342421316E+03  0.89631369275E+02 0.  0.
         23    2    4    4    0    0  0.41009139121E+02 -0.19183731654E+03 -0.30877229284E+03  0.37678606393E+03  0.90244687578E+02 0.  0.
          2    1    3    3  502    0  0.24882870506E+02  0.16946877902E+03  0.37510624575E+03  0.41236333483E+03  0.00000000000E+00 0. -1.
         -1    1    3    3    0  502 -0.32720872034E+02  0.33790023238E+02  0.11677387638E+03  0.12589106141E+03  0.00000000000E+00 0.  1.
         13    1    5    5    0    0  0.26017847127E+02  0.15126039973E+02  0.13581072494E+03  0.13910527834E+03  0.00000000000E+00 0. -1.
        -13    1    5    5    0    0 -0.59188984719E+02 -0.26547525686E+02  0.41933095689E+03  0.42431893481E+03  0.00000000000E+00 0.  1.
          1    1    6    6  503    0  0.32717136225E+02 -0.14053102650E+02 -0.74537968457E+02  0.82606352289E+02  0.00000000000E+00 0. -1.
         -1    1    6    6    0  503  0.82920028960E+01 -0.17778421389E+03 -0.23423432439E+03  0.29417971164E+03  0.00000000000E+00 0.  1.
<mgrwt>
<rscale>  0 0.12809549E+04</rscale>
<asrwt>0</asrwt>
<pdfrwt beam="1">  1        2 0.17051647E+00 0.12809549E+04</pdfrwt>
<pdfrwt beam="2">  1       -1 0.56939628E-01 0.12809549E+04</pdfrwt>
<totfact> 0.75237648E+01</totfact>
</mgrwt>
</event>
<event>
12    7  0.1605494E-007  0.2272551E+04  0.7818608E-02  0.8488823E-01
         -1   -1    0    0    0  501 -0.00000000000E+00  0.00000000000E+00  0.60322859358E+03  0.60322859358E+03  0.00000000000E+00 0.  1.
          2   -1    0    0  501    0  0.00000000000E+00 -0.00000000000E+00 -0.21403529371E+04  0.21403529371E+04  0.00000000000E+00 0. -1.
         24    2    1    2    0    0  0.11438218494E+03 -0.23168314225E+03  0.46088161538E+03  0.53531521119E+03  0.85965977564E+02 0.  0.
        254    2    1    2    0    0 -0.11438218494E+03  0.23168314225E+03 -0.19980059589E+04  0.22082663195E+04  0.90424109802E+03 0.  0.
         23    2    4    4    0    0  0.29886683138E+03 -0.16449440411E+03 -0.62602495791E+03  0.71891480561E+03  0.92474093238E+02 0.  0.
         23    2    4    4    0    0 -0.41324901632E+03  0.39617754636E+03 -0.13719810010E+04  0.14893515139E+04  0.90025924459E+02 0.  0.
          2    1    3    3  502    0  0.70527389752E+02 -0.68063910521E+02  0.21988696150E+03  0.24074277655E+03  0.00000000000E+00 0. -1.
         -1    1    3    3    0  502  0.43854795192E+02 -0.16361923173E+03  0.24099465388E+03  0.29457243464E+03  0.00000000000E+00 0.  1.
         13    1    5    5    0    0  0.29455048669E+03 -0.15160267481E+03 -0.62203076087E+03  0.70474507993E+03  0.00000000000E+00 0.  1.
        -13    1    5    5    0    0  0.43163446938E+01 -0.12891729301E+02 -0.39941970372E+01  0.14169725681E+02  0.00000000000E+00 0. -1.
          3    1    6    6  503    0 -0.96976794169E+02  0.63788722155E+02 -0.20781116463E+03  0.23803146815E+03  0.00000000000E+00 0. -1.
         -3    1    6    6    0  503 -0.31627222215E+03  0.33238882421E+03 -0.11641698363E+04  0.12513200457E+04  0.00000000000E+00 0.  1.
<mgrwt>
<rscale>  0 0.22725511E+04</rscale>
<asrwt>0</asrwt>
<pdfrwt beam="1">  1        2 0.32928507E+00 0.22725511E+04</pdfrwt>
<pdfrwt beam="2">  1       -1 0.92804398E-01 0.22725511E+04</pdfrwt>
<totfact> 0.65075259E+00</totfact>
</mgrwt>
</event>
<event>
12    7  0.1605494E-007  0.1326115E+04  0.7818608E-02  0.9009108E-01
          2   -1    0    0  501    0  0.00000000000E+00  0.00000000000E+00  0.16470996960E+04  0.16470996960E+04  0.00000000000E+00 0. -1.
         -1   -1    0    0    0  501 -0.00000000000E+00 -0.00000000000E+00 -0.26692075073E+03  0.26692075073E+03  0.00000000000E+00 0.  1.
         24    2    1    2    0    0  0.69105375183E+02  0.33670905457E+03  0.27491310417E+03  0.44730908444E+03  0.79747488148E+02 0.  0.
        254    2    1    2    0    0 -0.69105375183E+02 -0.33670905457E+03  0.11052658411E+04  0.14667113623E+04  0.90082245781E+03 0.  0.
         23    2    4    4    0    0  0.39187312618E+03 -0.35426064811E+02  0.51006858449E+03  0.65059760906E+03  0.91036997629E+02 0.  0.
         23    2    4    4    0    0 -0.46097850136E+03 -0.30128298976E+03  0.59519725665E+03  0.81611375328E+03  0.92245679206E+02 0.  0.
          4    1    3    3  502    0 -0.73425157926E+01  0.58099928935E+02  0.78589820587E+02  0.98009561678E+02  0.00000000000E+00 0. -1.
         -3    1    3    3    0  502  0.76447890975E+02  0.27860912564E+03  0.19632328358E+03  0.34929952276E+03  0.00000000000E+00 0.  1.
         13    1    5    5    0    0  0.24730050462E+02 -0.10388450016E+02  0.77776073441E+01  0.27928237782E+02  0.00000000000E+00 0. -1.
        -13    1    5    5    0    0  0.36714307572E+03 -0.25037614795E+02  0.50229097715E+03  0.62266937128E+03  0.00000000000E+00 0.  1.
          1    1    6    6  503    0 -0.42145770681E+02 -0.81702097266E+01  0.77227777819E+02  0.88358066865E+02  0.00000000000E+00 0. -1.
         -1    1    6    6    0  503 -0.41883273068E+03 -0.29311278004E+03  0.51796947883E+03  0.72775568642E+03  0.00000000000E+00 0.  1.
<mgrwt>
<rscale>  0 0.13261148E+04</rscale>
<asrwt>0</asrwt>
<pdfrwt beam="1">  1        2 0.25339995E+00 0.13261148E+04</pdfrwt>
<pdfrwt beam="2">  1       -1 0.41064732E-01 0.13261148E+04</pdfrwt>
<totfact> 0.67894866E+01</totfact>
</mgrwt>
</event>
<event>
12    7  0.1605494E-007  0.1413950E+04  0.7818608E-02  0.8943783E-01
         -1   -1    0    0    0  501 -0.00000000000E+00  0.00000000000E+00  0.15505603581E+03  0.15505603581E+03  0.00000000000E+00 0.  1.
          2   -1    0    0  501    0  0.00000000000E+00 -0.00000000000E+00 -0.32234371474E+04  0.32234371474E+04  0.00000000000E+00 0. -1.
         24    2    1    2    0    0 -0.29208968530E+03 -0.28400935580E+03 -0.11117084484E+04  0.11865442342E+04  0.77548997748E+02 0.  0.
        254    2    1    2    0    0  0.29208968530E+03  0.28400935580E+03 -0.19566726632E+04  0.21919489490E+04  0.90005254607E+03 0.  0.
         23    2    4    4    0    0 -0.82864729914E+02  0.31570792836E+03 -0.16855742439E+04  0.17192656213E+04  0.90419495673E+02 0.  0.
         23    2    4    4    0    0  0.37495441521E+03 -0.31698572559E+02 -0.27109841930E+03  0.47268332776E+03  0.91321204571E+02 0.  0.
          2    1    3    3  502    0 -0.23494167350E+03 -0.24265004576E+03 -0.98798862502E+03  0.10441255470E+04  0.00000000000E+00 0. -1.
         -1    1    3    3    0  502 -0.57148011793E+02 -0.41359310043E+02 -0.12371982337E+03  0.14241868724E+03  0.00000000000E+00 0.  1.
         13    1    5    5    0    0  0.12120263384E+02  0.82877579356E+02 -0.32305917509E+03  0.33374065464E+03  0.00000000000E+00 0.  1.
        -13    1    5    5    0    0 -0.94984993298E+02  0.23283034900E+03 -0.13625150688E+04  0.13855249666E+04  0.00000000000E+00 0. -1.
          1    1    6    6  503    0  0.22172309573E+03 -0.62336073267E+02 -0.17467197993E+03  0.28906265374E+03  0.00000000000E+00 0. -1.
         -1    1    6    6    0  503  0.15323131948E+03  0.30637500708E+02 -0.96426439363E+02  0.18362067402E+03  0.00000000000E+00 0.  1.
<mgrwt>
<rscale>  0 0.14139496E+04</rscale>
<asrwt>0</asrwt>
<pdfrwt beam="1">  1        2 0.49591341E+00 0.14139496E+04</pdfrwt>
<pdfrwt beam="2">  1       -1 0.23854775E-01 0.14139496E+04</pdfrwt>
<totfact> 0.21294485E+01</totfact>
</mgrwt>
</event>
<event>
12    7  0.1605494E-007  0.1440081E+04  0.7818608E-02  0.8925306E-01
         -1   -1    0    0    0  501 -0.00000000000E+00  0.00000000000E+00  0.39538380519E+03  0.39538380519E+03  0.00000000000E+00 0.  1.
          2   -1    0    0  501    0  0.00000000000E+00 -0.00000000000E+00 -0.13112788738E+04  0.13112788738E+04  0.00000000000E+00 0. -1.
         24    2    1    2    0    0 -0.45957222120E+02 -0.35976286202E+01  0.21720626153E+03  0.23677527951E+03  0.82212917139E+02 0.  0.
        254    2    1    2    0    0  0.45957222120E+02  0.35976286202E+01 -0.11331013301E+04  0.14698873995E+04  0.93516059242E+03 0.  0.
         23    2    4    4    0    0 -0.14812623825E+03 -0.42205239547E+03 -0.61582841495E+03  0.76650193984E+03  0.90614458817E+02 0.  0.
         23    2    4    4    0    0  0.19408346037E+03  0.42565002409E+03 -0.51727291519E+03  0.70338545964E+03  0.91288024681E+02 0.  0.
          4    1    3    3  502    0  0.95268568825E+00  0.22019443057E+02  0.12780133758E+02  0.25477348792E+02  0.00000000000E+00 0. -1.
         -3    1    3    3    0  502 -0.46909907808E+02 -0.25617071678E+02  0.20442612777E+03  0.21129793072E+03  0.00000000000E+00 0.  1.
         13    1    5    5    0    0 -0.97627506388E+02 -0.27781668769E+03 -0.47391866914E+03  0.55795353473E+03  0.00000000000E+00 0. -1.
        -13    1    5    5    0    0 -0.50498731858E+02 -0.14423570778E+03 -0.14190974581E+03  0.20854840511E+03  0.00000000000E+00 0.  1.
          3    1    6    6  503    0  0.47060111324E+01  0.11089095210E+02  0.22755894819E+01  0.12259399694E+02  0.00000000000E+00 0. -1.
         -3    1    6    6    0  503  0.18937744923E+03  0.41456092888E+03 -0.51954850467E+03  0.69112605995E+03  0.00000000000E+00 0.  1.
<mgrwt>
<rscale>  0 0.14400812E+04</rscale>
<asrwt>0</asrwt>
<pdfrwt beam="1">  1        2 0.20173521E+00 0.14400812E+04</pdfrwt>
<pdfrwt beam="2">  1       -1 0.60828277E-01 0.14400812E+04</pdfrwt>
<totfact> 0.49370448E+01</totfact>
</mgrwt>
</event>
<event>
12    7  0.1605494E-007  0.1868679E+04  0.7818608E-02  0.8670606E-01
          2   -1    0    0  501    0  0.00000000000E+00  0.00000000000E+00  0.31498246264E+04  0.31498246264E+04  0.00000000000E+00 0. -1.
         -1   -1    0    0    0  501 -0.00000000000E+00 -0.00000000000E+00 -0.27715529050E+03  0.27715529050E+03  0.00000000000E+00 0.  1.
         24    2    1    2    0    0 -0.14256220627E+03 -0.32170415985E+03  0.22607414145E+04  0.22893580636E+04  0.79944049539E+02 0.  0.
        254    2    1    2    0    0  0.14256220627E+03  0.32170415985E+03  0.61192792135E+03  0.11376218532E+04  0.89213796629E+03 0.  0.
         23    2    4    4    0    0  0.77270172484E+02  0.57272039305E+03  0.15653890030E+03  0.60579375563E+03  0.92208019616E+02 0.  0.
         23    2    4    4    0    0  0.65292033790E+02 -0.25101623320E+03  0.45538902105E+03  0.53182809761E+03  0.90497325419E+02 0.  0.
          2    1    3    3  502    0 -0.15020517406E+03 -0.27608862478E+03  0.19386898387E+04  0.19640022438E+04  0.00000000000E+00 0. -1.
         -1    1    3    3    0  502  0.76429677880E+01 -0.45615535070E+02  0.32205157580E+03  0.32535581979E+03  0.00000000000E+00 0.  1.
         13    1    5    5    0    0  0.18238661811E+02  0.40410073378E+03  0.84985108910E+02  0.41334310271E+03  0.00000000000E+00 0. -1.
        -13    1    5    5    0    0  0.59031510673E+02  0.16861965927E+03  0.71553791390E+02  0.19245065291E+03  0.00000000000E+00 0.  1.
          3    1    6    6  503    0  0.30062887242E+02 -0.23185747675E+03  0.37336541851E+03  0.44052627895E+03  0.00000000000E+00 0. -1.
         -3    1    6    6    0  503  0.35229146548E+02 -0.19158756448E+02  0.82023602542E+02  0.91301818652E+02  0.00000000000E+00 0.  1.
<mgrwt>
<rscale>  0 0.18686793E+04</rscale>
<asrwt>0</asrwt>
<pdfrwt beam="1">  1        2 0.48458838E+00 0.18686793E+04</pdfrwt>
<pdfrwt beam="2">  1       -1 0.42639278E-01 0.18686793E+04</pdfrwt>
<totfact> 0.81240104E+00</totfact>
</mgrwt>
</event>
<event>
12    7  0.1605494E-007  0.1148826E+04  0.7818608E-02  0.9158867E-01
          2   -1    0    0  501    0  0.00000000000E+00  0.00000000000E+00  0.10302178032E+04  0.10302178032E+04  0.00000000000E+00 0. -1.
         -1   -1    0    0    0  501 -0.00000000000E+00 -0.00000000000E+00 -0.32027248638E+03  0.32027248638E+03  0.00000000000E+00 0.  1.
         24    2    1    2    0    0 -0.18425104291E+03 -0.86549088369E+02  0.56634195160E+02  0.22620655483E+03  0.80763741118E+02 0.  0.
        254    2    1    2    0    0  0.18425104291E+03  0.86549088369E+02  0.65331112170E+03  0.11242837348E+04  0.89205341939E+03 0.  0.
         23    2    4    4    0    0 -0.20175327280E+03 -0.20510059341E+03 -0.57733333428E+01  0.30155470277E+03  0.90173559752E+02 0.  0.
         23    2    4    4    0    0  0.38600431571E+03  0.29164968178E+03  0.65908445504E+03  0.82272903202E+03  0.91825228652E+02 0.  0.
          2    1    3    3  502    0 -0.37527987103E+02  0.94655234792E+01  0.29738696956E+02  0.48809179949E+02  0.00000000000E+00 0. -1.
         -1    1    3    3    0  502 -0.14672305580E+03 -0.96014611848E+02  0.26895498204E+02  0.17739737489E+03  0.00000000000E+00 0.  1.
         13    1    5    5    0    0 -0.70269010903E+02 -0.13067483354E+03 -0.20380379286E+02  0.14976316594E+03  0.00000000000E+00 0.  1.
        -13    1    5    5    0    0 -0.13148426190E+03 -0.74425759875E+02  0.14607045943E+02  0.15179153682E+03  0.00000000000E+00 0. -1.
          2    1    6    6  503    0  0.35298312206E+03  0.29267225661E+03  0.60154747942E+03  0.75638185082E+03  0.00000000000E+00 0. -1.
         -2    1    6    6    0  503  0.33021193649E+02 -0.10225748331E+01  0.57536975624E+02  0.66347181200E+02  0.00000000000E+00 0.  1.
<mgrwt>
<rscale>  0 0.11488262E+04</rscale>
<asrwt>0</asrwt>
<pdfrwt beam="1">  1        2 0.15849505E+00 0.11488262E+04</pdfrwt>
<pdfrwt beam="2">  1       -1 0.49272691E-01 0.11488262E+04</pdfrwt>
<totfact> 0.11223000E+02</totfact>
</mgrwt>
</event>
<event>
12    7  0.1605494E-007  0.1620981E+04  0.7818608E-02  0.8807761E-01
          2   -1    0    0  501    0  0.00000000000E+00  0.00000000000E+00  0.32632874726E+04  0.32632874726E+04  0.00000000000E+00 0. -1.
         -1   -1    0    0    0  501 -0.00000000000E+00 -0.00000000000E+00 -0.20129854984E+03  0.20129854984E+03  0.00000000000E+00 0.  1.
         24    2    1    2    0    0 -0.32186685256E+03  0.77516542480E+01  0.94788062793E+02  0.34563756487E+03  0.82596552471E+02 0.  0.
        254    2    1    2    0    0  0.32186685256E+03 -0.77516542480E+01  0.29672008600E+04  0.31189484576E+04  0.90548339501E+03 0.  0.
         23    2    4    4    0    0  0.15542676596E+03 -0.36780478203E+03  0.66868577979E+03  0.78459238962E+03  0.94903680071E+02 0.  0.
         23    2    4    4    0    0  0.16644008660E+03  0.36005312778E+03  0.22985150802E+04  0.23343560680E+04  0.93306596298E+02 0.  0.
          4    1    3    3  502    0 -0.37811348396E+02 -0.26630323283E+02  0.12287897664E+02  0.47852529867E+02  0.00000000000E+00 0. -1.
         -3    1    3    3    0  502 -0.28405550416E+03  0.34381977531E+02  0.82500165129E+02  0.29778503500E+03  0.00000000000E+00 0.  1.
         13    1    5    5    0    0 -0.88892746903E+01 -0.60475431546E+02  0.11813206721E+03  0.13300933174E+03  0.00000000000E+00 0.  1.
        -13    1    5    5    0    0  0.16431604065E+03 -0.30732935048E+03  0.55055371258E+03  0.65158305788E+03  0.00000000000E+00 0. -1.
          1    1    6    6  503    0  0.16812707456E+03  0.30352230823E+03  0.20741985661E+04  0.21030197803E+04  0.00000000000E+00 0. -1.
         -1    1    6    6    0  503 -0.16869879585E+01  0.56530819550E+02  0.22431651410E+03  0.23133628765E+03  0.00000000000E+00 0.  1.
<mgrwt>
<rscale>  0 0.16209812E+04</rscale>
<asrwt>0</asrwt>
<pdfrwt beam="1">  1        2 0.50204419E+00 0.16209812E+04</pdfrwt>
<pdfrwt beam="2">  1       -1 0.30969010E-01 0.16209812E+04</pdfrwt>
<totfact> 0.12497876E+01</totfact>
</mgrwt>
</event>
<event>
12    7  0.1605494E-007  0.1315007E+04  0.7818608E-02  0.9017748E-01
          2   -1    0    0  501    0  0.00000000000E+00  0.00000000000E+00  0.32871791344E+03  0.32871791344E+03  0.00000000000E+00 0. -1.
         -1   -1    0    0    0  501 -0.00000000000E+00 -0.00000000000E+00 -0.13151425711E+04  0.13151425711E+04  0.00000000000E+00 0.  1.
         24    2    1    2    0    0  0.17263437621E+03 -0.18506412796E+03  0.23124592970E+02  0.26846189720E+03  0.86519848226E+02 0.  0.
        254    2    1    2    0    0 -0.17263437621E+03  0.18506412796E+03 -0.10095492506E+04  0.13753985873E+04  0.89915528432E+03 0.  0.
         23    2    4    4    0    0 -0.28836309719E+03  0.48935122678E+03 -0.76848360347E+03  0.96050378552E+03  0.96863688882E+02 0.  0.
         23    2    4    4    0    0  0.11572872098E+03 -0.30428709881E+03 -0.24106564716E+03  0.41489480183E+03  0.89673156393E+02 0.  0.
          2    1    3    3  502    0  0.18102898781E+03 -0.16369994805E+03  0.25444607705E+02  0.24539069966E+03  0.00000000000E+00 0. -1.
         -1    1    3    3    0  502 -0.83946115987E+01 -0.21364179914E+02 -0.23200147352E+01  0.23071197534E+02  0.00000000000E+00 0.  1.
         13    1    5    5    0    0 -0.12317433259E+03  0.12621156967E+03 -0.21137585601E+03  0.27528354298E+03  0.00000000000E+00 0. -1.
        -13    1    5    5    0    0 -0.16518876460E+03  0.36313965711E+03 -0.55710774745E+03  0.68522024254E+03  0.00000000000E+00 0.  1.
          3    1    6    6  503    0  0.71148883348E+02 -0.12532422603E+03 -0.15410534413E+03  0.21099000527E+03  0.00000000000E+00 0. -1.
         -3    1    6    6    0  503  0.44579837634E+02 -0.17896287278E+03 -0.86960303028E+02  0.20390479656E+03  0.00000000000E+00 0.  1.
<mgrwt>
<rscale>  0 0.13150071E+04</rscale>
<asrwt>0</asrwt>
<pdfrwt beam="1">  1        2 0.50571986E-01 0.13150071E+04</pdfrwt>
<pdfrwt beam="2">  1       -1 0.20232963E+00 0.13150071E+04</pdfrwt>
<totfact> 0.16123965E+01</totfact>
</mgrwt>
</event>
<event>
12    7  0.1605494E-007  0.1600238E+04  0.7818608E-02  0.8820402E-01
         -1   -1    0    0    0  501 -0.00000000000E+00  0.00000000000E+00  0.25159667588E+03  0.25159667588E+03  0.00000000000E+00 0.  1.
          2   -1    0    0  501    0  0.00000000000E+00 -0.00000000000E+00 -0.25445108142E+04  0.25445108142E+04  0.00000000000E+00 0. -1.
         24    2    1    2    0    0 -0.34301590103E+03  0.17176247793E+03 -0.14567990477E+04  0.15078781196E+04  0.65350600179E+02 0.  0.
        254    2    1    2    0    0  0.34301590103E+03 -0.17176247793E+03 -0.83611509056E+03  0.12882293704E+04  0.90182271486E+03 0.  0.
         23    2    4    4    0    0 -0.17032702662E+02 -0.34400075710E+03  0.11610222447E+01  0.35620200614E+03  0.90839899625E+02 0.  0.
         23    2    4    4    0    0  0.36004860369E+03  0.17223827917E+03 -0.83727611281E+03  0.93202736431E+03  0.91338364921E+02 0.  0.
          2    1    3    3  502    0 -0.20985362535E+03  0.13376745628E+03 -0.86450425960E+03  0.89961096664E+03  0.00000000000E+00 0. -1.
         -1    1    3    3    0  502 -0.13316227568E+03  0.37995021645E+02 -0.59229478814E+03  0.60826715298E+03  0.00000000000E+00 0.  1.
         13    1    5    5    0    0 -0.15584878531E+02 -0.32363195040E+03 -0.22693818823E+02  0.32480076535E+03  0.00000000000E+00 0.  1.
        -13    1    5    5    0    0 -0.14478241309E+01 -0.20368806696E+02  0.23854841068E+02  0.31401240792E+02  0.00000000000E+00 0. -1.
          2    1    6    6  503    0  0.33590878858E+02  0.32094573866E+02 -0.16797540395E+03  0.17428179810E+03  0.00000000000E+00 0. -1.
         -2    1    6    6    0  503  0.32645772483E+03  0.14014370531E+03 -0.66930070885E+03  0.75774556621E+03  0.00000000000E+00 0.  1.
<mgrwt>
<rscale>  0 0.16002381E+04</rscale>
<asrwt>0</asrwt>
<pdfrwt beam="1">  1        2 0.39146318E+00 0.16002381E+04</pdfrwt>
<pdfrwt beam="2">  1       -1 0.38707183E-01 0.16002381E+04</pdfrwt>
<totfact> 0.23219773E+01</totfact>
</mgrwt>
</event>
<event>
12    7  0.1605494E-007  0.1292190E+04  0.7818608E-02  0.9035782E-01
          2   -1    0    0  501    0  0.00000000000E+00  0.00000000000E+00  0.21307963455E+04  0.21307963455E+04  0.00000000000E+00 0. -1.
         -1   -1    0    0    0  501 -0.00000000000E+00 -0.00000000000E+00 -0.19590740649E+03  0.19590740649E+03  0.00000000000E+00 0.  1.
         24    2    1    2    0    0 -0.43990304600E+02 -0.20389670893E+03  0.46468379558E+02  0.22768620766E+03  0.78566430793E+02 0.  0.
        254    2    1    2    0    0  0.43990304600E+02  0.20389670893E+03  0.18884205594E+04  0.20990175443E+04  0.89231912857E+03 0.  0.
         23    2    4    4    0    0  0.27787392469E+03  0.14325658704E+03  0.18240603915E+03  0.37319219919E+03  0.90907022058E+02 0.  0.
         23    2    4    4    0    0 -0.23388362009E+03  0.60640121886E+02  0.17060145203E+04  0.17258253451E+04  0.98024519043E+02 0.  0.
          4    1    3    3  502    0 -0.46860688027E+02 -0.54822848916E+02  0.28328507761E+02  0.77485309560E+02  0.00000000000E+00 0. -1.
         -3    1    3    3    0  502  0.28703834272E+01 -0.14907386002E+03  0.18139871797E+02  0.15020089810E+03  0.00000000000E+00 0.  1.
         13    1    5    5    0    0  0.11387657061E+03  0.10640484248E+03  0.69110993099E+02  0.17048810282E+03  0.00000000000E+00 0. -1.
        -13    1    5    5    0    0  0.16399735408E+03  0.36851744570E+02  0.11329504605E+03  0.20270409637E+03  0.00000000000E+00 0.  1.
          2    1    6    6  503    0 -0.13798649137E+02 -0.15570568249E+02  0.29362901908E+03  0.29436515786E+03  0.00000000000E+00 0. -1.
         -2    1    6    6    0  503 -0.22008497095E+03  0.76210690136E+02  0.14123855012E+04  0.14314601872E+04  0.00000000000E+00 0.  1.
<mgrwt>
<rscale>  0 0.12921901E+04</rscale>
<asrwt>0</asrwt>
<pdfrwt beam="1">  1        2 0.32781481E+00 0.12921901E+04</pdfrwt>
<pdfrwt beam="2">  1       -1 0.30139602E-01 0.12921901E+04</pdfrwt>
<totfact> 0.63954538E+01</totfact>
</mgrwt>
</event>
<event>
12    7  0.1605494E-007  0.1400487E+04  0.7818608E-02  0.8953466E-01
          2   -1    0    0  501    0  0.00000000000E+00  0.00000000000E+00  0.12876722972E+04  0.12876722972E+04  0.00000000000E+00 0. -1.
         -1   -1    0    0    0  501 -0.00000000000E+00 -0.00000000000E+00 -0.38079617845E+03  0.38079617845E+03  0.00000000000E+00 0.  1.
         24    2    1    2    0    0 -0.32128597366E+03 -0.14488966496E+03  0.22521208401E+02  0.36201068323E+03  0.79541423548E+02 0.  0.
        254    2    1    2    0    0  0.32128597366E+03  0.14488966496E+03  0.88435491035E+03  0.13064577924E+04  0.89472379203E+03 0.  0.
         23    2    4    4    0    0  0.35559177226E+03 -0.27742028921E+03  0.21684931425E+03  0.51039274062E+03  0.10034739272E+03 0.  0.
         23    2    4    4    0    0 -0.34305798591E+02  0.42230995417E+03  0.66750559610E+03  0.79606505179E+03  0.92915341359E+02 0.  0.
          4    1    3    3  502    0 -0.51345377624E+02 -0.34002157759E+02  0.33247570430E+02  0.69984966065E+02  0.00000000000E+00 0. -1.
         -3    1    3    3    0  502 -0.26994059604E+03 -0.11088750720E+03 -0.10726362029E+02  0.29202571716E+03  0.00000000000E+00 0.  1.
         13    1    5    5    0    0  0.62860319425E+02 -0.92397887839E+02  0.25058530477E+02  0.11452824711E+03  0.00000000000E+00 0. -1.
        -13    1    5    5    0    0  0.29273145283E+03 -0.18502240137E+03  0.19179078377E+03  0.39586449351E+03  0.00000000000E+00 0.  1.
          1    1    6    6  503    0 -0.30242676353E+02  0.39299655162E+02  0.96385388056E+02  0.10839384392E+03  0.00000000000E+00 0. -1.
         -1    1    6    6    0  503 -0.40631222381E+01  0.38301029900E+03  0.57112020804E+03  0.68767120788E+03  0.00000000000E+00 0.  1.
<mgrwt>
<rscale>  0 0.14004866E+04</rscale>
<asrwt>0</asrwt>
<pdfrwt beam="1">  1        2 0.19810343E+00 0.14004866E+04</pdfrwt>
<pdfrwt beam="2">  1       -1 0.58584028E-01 0.14004866E+04</pdfrwt>
<totfact> 0.55060137E+01</totfact>
</mgrwt>
</event>
<event>
12    7  0.1605494E-007  0.1937522E+04  0.7818608E-02  0.8636402E-01
          2   -1    0    0  501    0  0.00000000000E+00  0.00000000000E+00  0.15323848615E+04  0.15323848615E+04  0.00000000000E+00 0. -1.
         -1   -1    0    0    0  501 -0.00000000000E+00 -0.00000000000E+00 -0.61244243865E+03  0.61244243865E+03  0.00000000000E+00 0.  1.
         24    2    1    2    0    0 -0.18743776177E+03  0.65313219953E+03 -0.71925140021E+01  0.68423583655E+03  0.80077232489E+02 0.  0.
        254    2    1    2    0    0  0.18743776177E+03 -0.65313219953E+03  0.92713493688E+03  0.14605914636E+04  0.90112909612E+03 0.  0.
         23    2    4    4    0    0  0.25223187232E+03  0.13672026861E+03  0.10848950974E+03  0.31750161311E+03  0.81999703285E+02 0.  0.
         23    2    4    4    0    0 -0.64794110557E+02 -0.78985246814E+03  0.81864542714E+03  0.11430898505E+04  0.91699906262E+02 0.  0.
          4    1    3    3  502    0  0.61408479549E+01  0.33497629032E+02 -0.83574509676E+01  0.35066339288E+02  0.00000000000E+00 0. -1.
         -3    1    3    3    0  502 -0.19357860972E+03  0.61963457050E+03  0.11649369655E+01  0.64916949726E+03  0.00000000000E+00 0.  1.
         13    1    5    5    0    0  0.12403696572E+03  0.34317641754E+02  0.17483978439E+02  0.12987901640E+03  0.00000000000E+00 0.  1.
        -13    1    5    5    0    0  0.12819490660E+03  0.10240262686E+03  0.91005531304E+02  0.18762259671E+03  0.00000000000E+00 0. -1.
          2    1    6    6  503    0 -0.95175728721E+01 -0.28026684801E+03  0.23110033368E+03  0.36338334375E+03  0.00000000000E+00 0. -1.
         -2    1    6    6    0  503 -0.55276537685E+02 -0.50958562013E+03  0.58754509346E+03  0.77970650678E+03  0.00000000000E+00 0.  1.
<mgrwt>
<rscale>  0 0.19375216E+04</rscale>
<asrwt>0</asrwt>
<pdfrwt beam="1">  1        2 0.23575152E+00 0.19375216E+04</pdfrwt>
<pdfrwt beam="2">  1       -1 0.94221914E-01 0.19375216E+04</pdfrwt>
<totfact> 0.14122678E+01</totfact>
</mgrwt>
</event>
<event>
12    7  0.1605494E-007  0.1560405E+04  0.7818608E-02  0.8845249E-01
         -1   -1    0    0    0  501 -0.00000000000E+00  0.00000000000E+00  0.22169542050E+03  0.22169542050E+03  0.00000000000E+00 0.  1.
          2   -1    0    0  501    0  0.00000000000E+00 -0.00000000000E+00 -0.27457315478E+04  0.27457315478E+04  0.00000000000E+00 0. -1.
         24    2    1    2    0    0  0.98492707887E+02  0.49136211852E+03 -0.85610380618E+03  0.99515366013E+03  0.79243518898E+02 0.  0.
        254    2    1    2    0    0 -0.98492707887E+02 -0.49136211852E+03 -0.16679323211E+04  0.19722733082E+04  0.92559506764E+03 0.  0.
         23    2    4    4    0    0  0.36153869225E+02 -0.51687339389E+03 -0.17220763928E+04  0.18006289711E+04  0.90842618257E+02 0.  0.
         23    2    4    4    0    0 -0.13464657711E+03  0.25511275371E+02  0.54144071709E+02  0.17164433706E+03  0.88032221623E+02 0.  0.
          4    1    3    3  502    0  0.39805752944E+02  0.28872043381E+03 -0.56369896024E+03  0.63458687714E+03  0.00000000000E+00 0. -1.
         -3    1    3    3    0  502  0.58686954943E+02  0.20264168471E+03 -0.29240484594E+03  0.36056678299E+03  0.00000000000E+00 0.  1.
         13    1    5    5    0    0  0.14189489820E+02 -0.49260210206E+03 -0.15943781909E+04  0.16688019620E+04  0.00000000000E+00 0.  1.
        -13    1    5    5    0    0  0.21964379405E+02 -0.24271291831E+02 -0.12769820186E+03  0.13182700910E+03  0.00000000000E+00 0. -1.
          3    1    6    6  503    0 -0.75361712732E+02  0.57893274404E+02  0.36738293041E+02  0.10188582405E+03  0.00000000000E+00 0. -1.
         -3    1    6    6    0  503 -0.59284864380E+02 -0.32381999032E+02  0.17405778668E+02  0.69758513007E+02  0.00000000000E+00 0.  1.
<mgrwt>
<rscale>  0 0.15604052E+04</rscale>
<asrwt>0</asrwt>
<pdfrwt beam="1">  1        2 0.42242020E+00 0.15604052E+04</pdfrwt>
<pdfrwt beam="2">  1       -1 0.34106990E-01 0.15604052E+04</pdfrwt>
<totfact> 0.22288112E+01</totfact>
</mgrwt>
</event>
<event>
12    7  0.1605494E-007  0.3342387E+04  0.7818608E-02  0.8152193E-01
          2   -1    0    0  501    0  0.00000000000E+00  0.00000000000E+00  0.17260423079E+04  0.17260423079E+04  0.00000000000E+00 0. -1.
         -1   -1    0    0    0  501 -0.00000000000E+00 -0.00000000000E+00 -0.16180874427E+04  0.16180874427E+04  0.00000000000E+00 0.  1.
         24    2    1    2    0    0  0.96536023048E+03  0.38686209510E+03 -0.10993868762E+04  0.15153478310E+04  0.77748891527E+02 0.  0.
        254    2    1    2    0    0 -0.96536023048E+03 -0.38686209510E+03  0.12073417414E+04  0.18287819196E+04  0.89732188967E+03 0.  0.
         23    2    4    4    0    0 -0.99258403422E+03 -0.38464097679E+03  0.62297727007E+03  0.12367367536E+04  0.90804033871E+02 0.  0.
         23    2    4    4    0    0  0.27223803739E+02 -0.22211183156E+01  0.58436447136E+03  0.59204516605E+03  0.91047099930E+02 0.  0.
          4    1    3    3  502    0  0.24990902909E+03  0.74107045285E+02 -0.30996621442E+03  0.40500053218E+03  0.00000000000E+00 0. -1.
         -3    1    3    3    0  502  0.71545120140E+03  0.31275504982E+03 -0.78942066179E+03  0.11103472988E+04  0.00000000000E+00 0.  1.
         13    1    5    5    0    0 -0.45664121118E+03 -0.13793326407E+03  0.30952798165E+03  0.56864255249E+03  0.00000000000E+00 0. -1.
        -13    1    5    5    0    0 -0.53594282305E+03 -0.24670771272E+03  0.31344928842E+03  0.66809420107E+03  0.00000000000E+00 0.  1.
          3    1    6    6  503    0  0.53480439130E+02 -0.15036994966E+02  0.49305961223E+03  0.49617945322E+03  0.00000000000E+00 0. -1.
         -3    1    6    6    0  503 -0.26256635392E+02  0.12815876651E+02  0.91304859131E+02  0.95865712835E+02  0.00000000000E+00 0.  1.
<mgrwt>
<rscale>  0 0.33423868E+04</rscale>
<asrwt>0</asrwt>
<pdfrwt beam="1">  1        2 0.26554497E+00 0.33423868E+04</pdfrwt>
<pdfrwt beam="2">  1       -1 0.24893653E+00 0.33423868E+04</pdfrwt>
<totfact> 0.63651296E-01</totfact>
</mgrwt>
</event>
<event>
12    7  0.1605494E-007  0.2492066E+04  0.7818608E-02  0.8405818E-01
          2   -1    0    0  501    0  0.00000000000E+00  0.00000000000E+00  0.32323014303E+04  0.32323014303E+04  0.00000000000E+00 0. -1.
         -1   -1    0    0    0  501 -0.00000000000E+00 -0.00000000000E+00 -0.48033818458E+03  0.48033818458E+03  0.00000000000E+00 0.  1.
         24    2    1    2    0    0 -0.68447143467E+03 -0.76499883019E+03  0.16370076682E+04  0.19338807305E+04  0.79851229686E+02 0.  0.
        254    2    1    2    0    0  0.68447143467E+03  0.76499883019E+03  0.11149555775E+04  0.17787588844E+04  0.93119969608E+03 0.  0.
         23    2    4    4    0    0  0.32132938678E+03  0.29608828374E+03  0.10906886736E+04  0.11784384036E+04  0.90523156516E+02 0.  0.
         23    2    4    4    0    0  0.36314204789E+03  0.46891054645E+03  0.24266903932E+02  0.60032048078E+03  0.89702561346E+02 0.  0.
          2    1    3    3  502    0 -0.43663877371E+03 -0.49211921971E+03  0.97599359695E+03  0.11770294161E+04  0.00000000000E+00 0. -1.
         -1    1    3    3    0  502 -0.24783266096E+03 -0.27287961048E+03  0.66101407126E+03  0.75685131437E+03  0.00000000000E+00 0.  1.
         13    1    5    5    0    0  0.23205920856E+03  0.23686243742E+03  0.90802345940E+03  0.96667569193E+03  0.00000000000E+00 0. -1.
        -13    1    5    5    0    0  0.89270178227E+02  0.59225846320E+02  0.18266521421E+03  0.21176271172E+03  0.00000000000E+00 0.  1.
          4    1    6    6  503    0  0.22724056322E+03  0.28646931943E+03  0.58369254511E+02  0.37028355948E+03  0.00000000000E+00 0. -1.
         -4    1    6    6    0  503  0.13590148467E+03  0.18244122701E+03 -0.34102350578E+02  0.23003692131E+03  0.00000000000E+00 0.  1.
<mgrwt>
<rscale>  0 0.24920657E+04</rscale>
<asrwt>0</asrwt>
<pdfrwt beam="1">  1        2 0.49727713E+00 0.24920657E+04</pdfrwt>
<pdfrwt beam="2">  1       -1 0.73898184E-01 0.24920657E+04</pdfrwt>
<totfact> 0.23130411E+00</totfact>
</mgrwt>
</event>
<event>
12    7  0.1605494E-007  0.2102708E+04  0.7818608E-02  0.8560051E-01
          2   -1    0    0  501    0  0.00000000000E+00  0.00000000000E+00  0.61173844305E+03  0.61173844305E+03  0.00000000000E+00 0. -1.
         -1   -1    0    0    0  501 -0.00000000000E+00 -0.00000000000E+00 -0.18068926163E+04  0.18068926163E+04  0.00000000000E+00 0.  1.
         24    2    1    2    0    0  0.75006368364E+03  0.34783814185E+03 -0.75100011263E+03  0.11196966196E+04  0.78309949972E+02 0.  0.
        254    2    1    2    0    0 -0.75006368364E+03 -0.34783814185E+03 -0.44415406065E+03  0.12989344398E+04  0.89798159606E+03 0.  0.
         23    2    4    4    0    0 -0.29071054045E+03 -0.31166172707E+03 -0.65181826614E+03  0.78457804092E+03  0.95131486736E+02 0.  0.
         23    2    4    4    0    0 -0.45935314320E+03 -0.36176414780E+02  0.20766420549E+03  0.51435639888E+03  0.95519839175E+02 0.  0.
          4    1    3    3  502    0  0.64978378839E+03  0.31669857032E+03 -0.68375500893E+03  0.99500646648E+03  0.00000000000E+00 0. -1.
         -3    1    3    3    0  502  0.10027989525E+03  0.31139571532E+02 -0.67245103704E+02  0.12469015310E+03  0.00000000000E+00 0.  1.
         13    1    5    5    0    0 -0.41985814046E+02 -0.10572198259E+03 -0.16681075402E+03  0.20190535862E+03  0.00000000000E+00 0. -1.
        -13    1    5    5    0    0 -0.24872472640E+03 -0.20593974448E+03 -0.48500751213E+03  0.58267268230E+03  0.00000000000E+00 0.  1.
          3    1    6    6  503    0 -0.12007144740E+03  0.13634923321E+02  0.17104799170E+02  0.12204768646E+03  0.00000000000E+00 0. -1.
         -3    1    6    6    0  503 -0.33928169580E+03 -0.49811338102E+02  0.19055940632E+03  0.39230871242E+03  0.00000000000E+00 0.  1.
<mgrwt>
<rscale>  0 0.21027084E+04</rscale>
<asrwt>0</asrwt>
<pdfrwt beam="1">  1        2 0.94113607E-01 0.21027084E+04</pdfrwt>
<pdfrwt beam="2">  1       -1 0.27798348E+00 0.21027084E+04</pdfrwt>
<totfact> 0.23376865E+00</totfact>
</mgrwt>
</event>
<event>
12    7  0.1605494E-007  0.1501553E+04  0.7818608E-02  0.8883421E-01
         -1   -1    0    0    0  501 -0.00000000000E+00  0.00000000000E+00  0.42544230742E+03  0.42544230742E+03  0.00000000000E+00 0.  1.
          2   -1    0    0  501    0  0.00000000000E+00 -0.00000000000E+00 -0.13248928979E+04  0.13248928979E+04  0.00000000000E+00 0. -1.
         24    2    1    2    0    0 -0.36804187752E+03  0.28401333572E+03 -0.18381774628E+03  0.50623103439E+03  0.79765267229E+02 0.  0.
        254    2    1    2    0    0  0.36804187752E+03 -0.28401333572E+03 -0.71563284419E+03  0.12441041709E+04  0.90528803257E+03 0.  0.
         23    2    4    4    0    0  0.60922210206E+03  0.19829356839E+02 -0.48579910859E+03  0.78423758232E+03  0.86504558135E+02 0.  0.
         23    2    4    4    0    0 -0.24118022454E+03 -0.30384269256E+03 -0.22983373560E+03  0.45986658859E+03  0.90362883705E+02 0.  0.
          4    1    3    3  502    0 -0.65104372437E+02  0.60180661052E+02 -0.69357648618E+02  0.11256453570E+03  0.00000000000E+00 0. -1.
         -3    1    3    3    0  502 -0.30293750508E+03  0.22383267467E+03 -0.11446009766E+03  0.39366649869E+03  0.00000000000E+00 0.  1.
         13    1    5    5    0    0  0.36027483933E+03  0.48906461540E+02 -0.31364485850E+03  0.48016965658E+03  0.00000000000E+00 0.  1.
        -13    1    5    5    0    0  0.24894726273E+03 -0.29077104701E+02 -0.17215425010E+03  0.30406792575E+03  0.00000000000E+00 0. -1.
          2    1    6    6  503    0 -0.15954064004E+03 -0.22598833780E+03 -0.11713565619E+03  0.30040756748E+03  0.00000000000E+00 0.  1.
         -2    1    6    6    0  503 -0.81639584502E+02 -0.77854354761E+02 -0.11269807941E+03  0.15945902112E+03  0.00000000000E+00 0. -1.
<mgrwt>
<rscale>  0 0.15015532E+04</rscale>
<asrwt>0</asrwt>
<pdfrwt beam="1">  1        2 0.20382968E+00 0.15015532E+04</pdfrwt>
<pdfrwt beam="2">  1       -1 0.65452662E-01 0.15015532E+04</pdfrwt>
<totfact> 0.41663271E+01</totfact>
</mgrwt>
</event>
<event>
12    7  0.1605494E-007  0.1654974E+04  0.7818608E-02  0.8787469E-01
         -1   -1    0    0    0  501 -0.00000000000E+00  0.00000000000E+00  0.76155870039E+03  0.76155870039E+03  0.00000000000E+00 0.  1.
          2   -1    0    0  501    0  0.00000000000E+00 -0.00000000000E+00 -0.89912289991E+03  0.89912289991E+03  0.00000000000E+00 0. -1.
         24    2    1    2    0    0  0.33358431966E+03 -0.16297208263E+03  0.39411903794E+03  0.54726723999E+03  0.79581517044E+02 0.  0.
        254    2    1    2    0    0 -0.33358431966E+03  0.16297208263E+03 -0.53168323746E+03  0.11134143603E+04  0.90507793847E+03 0.  0.
         23    2    4    4    0    0 -0.47058173472E+03  0.26804928170E+03 -0.19084941162E+01  0.54883863322E+03  0.89009080971E+02 0.  0.
         23    2    4    4    0    0  0.13699741505E+03 -0.10507719906E+03 -0.52977474335E+03  0.56457572709E+03  0.90966826030E+02 0.  0.
          2    1    3    3  502    0  0.58736421322E+02  0.17547723934E+01  0.71663347879E+02  0.92675141463E+02  0.00000000000E+00 0. -1.
         -1    1    3    3    0  502  0.27484789834E+03 -0.16472685503E+03  0.32245569006E+03  0.45459209853E+03  0.00000000000E+00 0.  1.
         13    1    5    5    0    0 -0.16798199865E+03  0.81245367969E+02 -0.41098681342E+02  0.19107030982E+03  0.00000000000E+00 0. -1.
        -13    1    5    5    0    0 -0.30259973607E+03  0.18680391373E+03  0.39190187225E+02  0.35776832340E+03  0.00000000000E+00 0.  1.
          1    1    6    6  503    0  0.15629063504E+02 -0.60757151322E+02 -0.12820660847E+03  0.14273273457E+03  0.00000000000E+00 0. -1.
         -1    1    6    6    0  503  0.12136835155E+03 -0.44320047741E+02 -0.40156813488E+03  0.42184299252E+03  0.00000000000E+00 0.  1.
<mgrwt>
<rscale>  0 0.16549742E+04</rscale>
<asrwt>0</asrwt>
<pdfrwt beam="1">  1        2 0.13832660E+00 0.16549742E+04</pdfrwt>
<pdfrwt beam="2">  1       -1 0.11716288E+00 0.16549742E+04</pdfrwt>
<totfact> 0.21003288E+01</totfact>
</mgrwt>
</event>
<event>
12    7  0.1605494E-007  0.2852466E+04  0.7818608E-02  0.8287162E-01
          2   -1    0    0  501    0  0.00000000000E+00  0.00000000000E+00  0.25582175074E+04  0.25582175074E+04  0.00000000000E+00 0. -1.
         -1   -1    0    0    0  501 -0.00000000000E+00 -0.00000000000E+00 -0.79513967242E+03  0.79513967242E+03  0.00000000000E+00 0.  1.
         24    2    1    2    0    0  0.46421629706E+03  0.11653329393E+03  0.21955886105E+04  0.22486444238E+04  0.81948881921E+02 0.  0.
        254    2    1    2    0    0 -0.46421629706E+03 -0.11653329393E+03 -0.43251077554E+03  0.11047127560E+04  0.89679870829E+03 0.  0.
         23    2    4    4    0    0 -0.41451257112E+03 -0.33414050261E+03  0.70963164650E+02  0.54483073199E+03  0.91291887269E+02 0.  0.
         23    2    4    4    0    0 -0.49703725943E+02  0.21760720868E+03 -0.50347394019E+03  0.55988202398E+03  0.10078945720E+03 0.  0.
          4    1    3    3  502    0  0.28963526263E+03  0.11179322316E+03  0.14524137927E+04  0.14852246077E+04  0.00000000000E+00 0. -1.
         -3    1    3    3    0  502  0.17458103443E+03  0.47400707677E+01  0.74317481779E+03  0.76341981612E+03  0.00000000000E+00 0.  1.
         13    1    5    5    0    0 -0.29277822019E+03 -0.20995060694E+03  0.95497662586E+01  0.36040191676E+03  0.00000000000E+00 0.  1.
        -13    1    5    5    0    0 -0.12173435093E+03 -0.12418989567E+03  0.61413398391E+02  0.18442881523E+03  0.00000000000E+00 0. -1.
          4    1    6    6  503    0 -0.65552330578E+02  0.21930516323E+03 -0.47408660029E+03  0.52645034642E+03  0.00000000000E+00 0. -1.
         -4    1    6    6    0  503  0.15848604635E+02 -0.16979545480E+01 -0.29387339898E+02  0.33431677564E+02  0.00000000000E+00 0.  1.
<mgrwt>
<rscale>  0 0.28524658E+04</rscale>
<asrwt>0</asrwt>
<pdfrwt beam="1">  1        2 0.39357192E+00 0.28524658E+04</pdfrwt>
<pdfrwt beam="2">  1       -1 0.12232918E+00 0.28524658E+04</pdfrwt>
<totfact> 0.18718733E+00</totfact>
</mgrwt>
</event>
<event>
12    7  0.1605494E-007  0.2114750E+04  0.7818608E-02  0.8554774E-01
          2   -1    0    0  501    0  0.00000000000E+00  0.00000000000E+00  0.93197685488E+03  0.93197685488E+03  0.00000000000E+00 0. -1.
         -1   -1    0    0    0  501 -0.00000000000E+00 -0.00000000000E+00 -0.11996450731E+04  0.11996450731E+04  0.00000000000E+00 0.  1.
         24    2    1    2    0    0  0.71420785868E+03  0.22605097998E+03 -0.56166742435E+03  0.93948402149E+03  0.77252961872E+02 0.  0.
        254    2    1    2    0    0 -0.71420785868E+03 -0.22605097998E+03  0.29399920612E+03  0.11921379065E+04  0.87952563576E+03 0.  0.
         23    2    4    4    0    0 -0.21984128045E+03 -0.35364839725E+03 -0.20510455703E+03  0.47304447936E+03  0.91136286251E+02 0.  0.
         23    2    4    4    0    0 -0.49436657822E+03  0.12759741728E+03  0.49910376315E+03  0.71909342713E+03  0.85506584556E+02 0.  0.
          2    1    3    3  502    0  0.21779616395E+03  0.78909625527E+02 -0.13170304662E+03  0.26647249487E+03  0.00000000000E+00 0. -1.
         -1    1    3    3    0  502  0.49641169472E+03  0.14714135445E+03 -0.42996437773E+03  0.67301152662E+03  0.00000000000E+00 0.  1.
         13    1    5    5    0    0 -0.45744103237E+01 -0.14547374581E+02  0.91808368151E+01  0.17799974765E+02  0.00000000000E+00 0. -1.
        -13    1    5    5    0    0 -0.21526687013E+03 -0.33910102267E+03 -0.21428539384E+03  0.45524450460E+03  0.00000000000E+00 0.  1.
          1    1    6    6  503    0 -0.25647248675E+03  0.25884951888E+02  0.22486245726E+03  0.34206913318E+03  0.00000000000E+00 0. -1.
         -1    1    6    6    0  503 -0.23789409147E+03  0.10171246539E+03  0.27424130589E+03  0.37702429395E+03  0.00000000000E+00 0.  1.
<mgrwt>
<rscale>  0 0.21147496E+04</rscale>
<asrwt>0</asrwt>
<pdfrwt beam="1">  1        2 0.14338105E+00 0.21147496E+04</pdfrwt>
<pdfrwt beam="2">  1       -1 0.18456078E+00 0.21147496E+04</pdfrwt>
<totfact> 0.56566754E+00</totfact>
</mgrwt>
</event>
<event>
12    7  0.1605494E-007  0.2099803E+04  0.7818608E-02  0.8561330E-01
         -3   -1    0    0    0  501 -0.00000000000E+00  0.00000000000E+00  0.47779007428E+03  0.47779007428E+03  0.00000000000E+00 0.  1.
          2   -1    0    0  501    0  0.00000000000E+00 -0.00000000000E+00 -0.23070661894E+04  0.23070661894E+04  0.00000000000E+00 0. -1.
         24    2    1    2    0    0 -0.18066083559E+03 -0.44307535322E+03 -0.16997092632E+04  0.17677132958E+04  0.82732162357E+02 0.  0.
        254    2    1    2    0    0  0.18066083559E+03  0.44307535322E+03 -0.12956685193E+03  0.10171429679E+04  0.88816560494E+03 0.  0.
         23    2    4    4    0    0  0.47489954287E+02 -0.48311256974E+02 -0.41242784291E+03  0.42765053334E+03  0.90548217779E+02 0.  0.
         23    2    4    4    0    0  0.13317088131E+03  0.49138661019E+03  0.28286099098E+03  0.58949243453E+03  0.91080765480E+02 0.  0.
          2    1    3    3  502    0 -0.12816249014E+03 -0.35447850508E+03 -0.12124935402E+04  0.12697327354E+04  0.00000000000E+00 0. -1.
         -1    1    3    3    0  502 -0.52498345452E+02 -0.88596848136E+02 -0.48721572303E+03  0.49798056041E+03  0.00000000000E+00 0.  1.
         13    1    5    5    0    0  0.43892564397E+02 -0.29607379343E+02 -0.88249978765E+02  0.10291361850E+03  0.00000000000E+00 0. -1.
        -13    1    5    5    0    0  0.35973898907E+01 -0.18703877632E+02 -0.32417786415E+03  0.32473691484E+03  0.00000000000E+00 0.  1.
          4    1    6    6  503    0 -0.17779027479E+01  0.14350529779E+03  0.66636778275E+02  0.15823208161E+03  0.00000000000E+00 0. -1.
         -4    1    6    6    0  503  0.13494878405E+03  0.34788131240E+03  0.21622421270E+03  0.43126035292E+03  0.00000000000E+00 0.  1.
<mgrwt>
<rscale>  0 0.20998032E+04</rscale>
<asrwt>0</asrwt>
<pdfrwt beam="1">  1        2 0.35493326E+00 0.20998032E+04</pdfrwt>
<pdfrwt beam="2">  1       -3 0.73506166E-01 0.20998032E+04</pdfrwt>
<totfact> 0.46522147E+00</totfact>
</mgrwt>
</event>
<event>
12    7  0.1605494E-007  0.1258089E+04  0.7818608E-02  0.9063478E-01
          2   -1    0    0  501    0  0.00000000000E+00  0.00000000000E+00  0.19056239265E+04  0.19056239265E+04  0.00000000000E+00 0. -1.
         -1   -1    0    0    0  501 -0.00000000000E+00 -0.00000000000E+00 -0.20764680930E+03  0.20764680930E+03  0.00000000000E+00 0.  1.
         24    2    1    2    0    0  0.29553940576E+03  0.14953281595E+00  0.33343662496E+03  0.45327069858E+03  0.83251309956E+02 0.  0.
        254    2    1    2    0    0 -0.29553940576E+03 -0.14953281595E+00  0.13645404922E+04  0.16600000372E+04  0.89793418794E+03 0.  0.
         23    2    4    4    0    0 -0.46087750545E+03  0.30096920958E+03  0.61494283828E+03  0.83035663718E+03  0.91361427411E+02 0.  0.
         23    2    4    4    0    0  0.16533809969E+03 -0.30111874240E+03  0.74959765394E+03  0.82964340002E+03  0.91664301467E+02 0.  0.
          2    1    3    3  502    0  0.13033550785E+03 -0.33131856035E+02  0.18488434183E+03  0.22862039355E+03  0.00000000000E+00 0. -1.
         -1    1    3    3    0  502  0.16520389792E+03  0.33281388851E+02  0.14855228313E+03  0.22465030504E+03  0.00000000000E+00 0.  1.
         13    1    5    5    0    0 -0.62351713353E+02  0.44233712737E+02  0.43812748275E+02  0.88113077417E+02  0.00000000000E+00 0. -1.
        -13    1    5    5    0    0 -0.39852579209E+03  0.25673549685E+03  0.57113009001E+03  0.74224355977E+03  0.00000000000E+00 0.  1.
          4    1    6    6  503    0  0.17499752145E+02 -0.90071397049E+02  0.27063324845E+03  0.28576468127E+03  0.00000000000E+00 0. -1.
         -4    1    6    6    0  503  0.14783834754E+03 -0.21104734535E+03  0.47896440549E+03  0.54387871875E+03  0.00000000000E+00 0.  1.
<mgrwt>
<rscale>  0 0.12580886E+04</rscale>
<asrwt>0</asrwt>
<pdfrwt beam="1">  1        2 0.29317290E+00 0.12580886E+04</pdfrwt>
<pdfrwt beam="2">  1       -1 0.31945664E-01 0.12580886E+04</pdfrwt>
<totfact> 0.77140363E+01</totfact>
</mgrwt>
</event>
<event>
12    7  0.1605494E-007  0.2110099E+04  0.7818608E-02  0.8556808E-01
         -1   -1    0    0    0  501 -0.00000000000E+00  0.00000000000E+00  0.38047480529E+03  0.38047480529E+03  0.00000000000E+00 0.  1.
          2   -1    0    0  501    0  0.00000000000E+00 -0.00000000000E+00 -0.29256317904E+04  0.29256317904E+04  0.00000000000E+00 0. -1.
         24    2    1    2    0    0  0.43577679597E+03  0.70121001654E+03 -0.13539134055E+04  0.15882778420E+04  0.89152064332E+02 0.  0.
        254    2    1    2    0    0 -0.43577679597E+03 -0.70121001654E+03 -0.11912435796E+04  0.17178287536E+04  0.92210490608E+03 0.  0.
         23    2    4    4    0    0  0.42632598967E+02 -0.24157785750E+03 -0.98169502842E+03  0.10161286556E+04  0.92816572898E+02 0.  0.
         23    2    4    4    0    0 -0.47840939494E+03 -0.45963215903E+03 -0.20954855115E+03  0.70170009804E+03  0.91297105748E+02 0.  0.
          2    1    3    3  502    0  0.43916301414E+03  0.68867982418E+03 -0.13394561154E+04  0.15688488577E+04  0.00000000000E+00 0. -1.
         -1    1    3    3    0  502 -0.33862181736E+01  0.12530192351E+02 -0.14457290187E+02  0.19428984364E+02  0.00000000000E+00 0.  1.
         13    1    5    5    0    0  0.38704275067E+02 -0.26735540388E+02 -0.19775102809E+03  0.20326898224E+03  0.00000000000E+00 0.  1.
        -13    1    5    5    0    0  0.39283239006E+01 -0.21484231711E+03 -0.78394400032E+03  0.81285967337E+03  0.00000000000E+00 0. -1.
          3    1    6    6  503    0 -0.45020529785E+03 -0.43617398867E+03 -0.21868602326E+03  0.66389467190E+03  0.00000000000E+00 0. -1.
         -3    1    6    6    0  503 -0.28204097091E+02 -0.23458170363E+02  0.91374721082E+01  0.37805426145E+02  0.00000000000E+00 0.  1.
<mgrwt>
<rscale>  0 0.21100988E+04</rscale>
<asrwt>0</asrwt>
<pdfrwt beam="1">  1        2 0.45009720E+00 0.21100988E+04</pdfrwt>
<pdfrwt beam="2">  1       -1 0.58534585E-01 0.21100988E+04</pdfrwt>
<totfact> 0.60125618E+00</totfact>
</mgrwt>
</event>
<event>
12    7  0.1605494E-007  0.1312480E+04  0.7818608E-02  0.9019726E-01
         -1   -1    0    0    0  501 -0.00000000000E+00  0.00000000000E+00  0.82527713962E+03  0.82527713962E+03  0.00000000000E+00 0.  1.
          2   -1    0    0  501    0  0.00000000000E+00 -0.00000000000E+00 -0.52182592027E+03  0.52182592027E+03  0.00000000000E+00 0. -1.
         24    2    1    2    0    0 -0.65185940179E+02  0.28382528547E+03 -0.10134274447E+03  0.31830284059E+03  0.78995866988E+02 0.  0.
        254    2    1    2    0    0  0.65185940179E+02 -0.28382528547E+03  0.40479396382E+03  0.10288002193E+04  0.89986984538E+03 0.  0.
         23    2    4    4    0    0 -0.24308632723E+03 -0.16109891931E+03 -0.17680389865E+03  0.35299385987E+03  0.91111043446E+02 0.  0.
         23    2    4    4    0    0  0.30827226741E+03 -0.12272636616E+03  0.58159786247E+03  0.67580635944E+03  0.91458241986E+02 0.  0.
          2    1    3    3  502    0 -0.66000950017E+01  0.12248454599E+03 -0.77278709456E+02  0.14497594351E+03  0.00000000000E+00 0. -1.
         -1    1    3    3    0  502 -0.58585845178E+02  0.16134073947E+03 -0.24064035011E+02  0.17332689708E+03  0.00000000000E+00 0.  1.
         13    1    5    5    0    0 -0.67528785993E+00  0.70873535995E+01 -0.14745842236E+02  0.16374567414E+02  0.00000000000E+00 0.  1.
        -13    1    5    5    0    0 -0.24241103937E+03 -0.16818627291E+03 -0.16205805641E+03  0.33661929245E+03  0.00000000000E+00 0. -1.
          4    1    6    6  503    0  0.18885179316E+03 -0.45145894391E+02  0.40336978989E+03  0.44767213333E+03  0.00000000000E+00 0. -1.
         -4    1    6    6    0  503  0.11942047425E+03 -0.77580471767E+02  0.17822807258E+03  0.22813422611E+03  0.00000000000E+00 0.  1.
<mgrwt>
<rscale>  0 0.13124801E+04</rscale>
<asrwt>0</asrwt>
<pdfrwt beam="1">  1        2 0.80280911E-01 0.13124801E+04</pdfrwt>
<pdfrwt beam="2">  1       -1 0.12696571E+00 0.13124801E+04</pdfrwt>
<totfact> 0.35313983E+01</totfact>
</mgrwt>
</event>
<event>
12    7  0.1605494E-007  0.1853733E+04  0.7818608E-02  0.8678235E-01
          2   -1    0    0  501    0  0.00000000000E+00  0.00000000000E+00  0.13730545057E+04  0.13730545057E+04  0.00000000000E+00 0. -1.
         -1   -1    0    0    0  501 -0.00000000000E+00 -0.00000000000E+00 -0.62567177802E+03  0.62567177802E+03  0.00000000000E+00 0.  1.
         24    2    1    2    0    0 -0.23980800497E+03 -0.66394096750E+03  0.13026877900E+03  0.72226705447E+03  0.79838935504E+02 0.  0.
        254    2    1    2    0    0  0.23980800497E+03  0.66394096750E+03  0.61711394870E+03  0.12764592293E+04  0.86613685451E+03 0.  0.
         23    2    4    4    0    0 -0.10508714067E+03  0.48207646181E+03  0.70343423565E+03  0.86405889379E+03  0.91307315617E+02 0.  0.
         23    2    4    4    0    0  0.34489514564E+03  0.18186450569E+03 -0.86320286952E+02  0.41240033548E+03  0.10293437157E+03 0.  0.
          4    1    3    3  502    0 -0.12780679128E+02 -0.22065990994E+02  0.20317874909E+02  0.32604750549E+02  0.00000000000E+00 0. -1.
         -3    1    3    3    0  502 -0.22702732584E+03 -0.64187497650E+03  0.10995090409E+03  0.68966230392E+03  0.00000000000E+00 0.  1.
         13    1    5    5    0    0 -0.90163320333E+02  0.30720324081E+03  0.38754291203E+03  0.50268555198E+03  0.00000000000E+00 0.  1.
        -13    1    5    5    0    0 -0.14923820336E+02  0.17487322099E+03  0.31589132361E+03  0.36137334181E+03  0.00000000000E+00 0. -1.
          1    1    6    6  503    0  0.32099253950E+03  0.18933118860E+03 -0.62567060659E+02  0.37788509691E+03  0.00000000000E+00 0. -1.
         -1    1    6    6    0  503  0.23902606142E+02 -0.74666829099E+01 -0.23753226293E+02  0.34515238568E+02  0.00000000000E+00 0.  1.
<mgrwt>
<rscale>  0 0.18537329E+04</rscale>
<asrwt>0</asrwt>
<pdfrwt beam="1">  1        2 0.21123915E+00 0.18537329E+04</pdfrwt>
<pdfrwt beam="2">  1       -1 0.96257197E-01 0.18537329E+04</pdfrwt>
<totfact> 0.16701567E+01</totfact>
</mgrwt>
</event>
<event>
12    7  0.1605494E-007  0.1786395E+04  0.7818608E-02  0.8713568E-01
          2   -1    0    0  501    0  0.00000000000E+00  0.00000000000E+00  0.52209433396E+03  0.52209433396E+03  0.00000000000E+00 0. -1.
         -1   -1    0    0    0  501 -0.00000000000E+00 -0.00000000000E+00 -0.15280791201E+04  0.15280791201E+04  0.00000000000E+00 0.  1.
         24    2    1    2    0    0  0.17364374824E+02  0.47818584482E+03 -0.90571178764E+03  0.10273268075E+04  0.78251539102E+02 0.  0.
        254    2    1    2    0    0 -0.17364374824E+02 -0.47818584482E+03 -0.10027299850E+03  0.10228466466E+04  0.89844163111E+03 0.  0.
         23    2    4    4    0    0 -0.38808259219E+03 -0.20465090317E+03  0.17211269510E+03  0.47993005584E+03  0.90664150345E+02 0.  0.
         23    2    4    4    0    0  0.37071821737E+03 -0.27353494166E+03 -0.27238569360E+03  0.54291659074E+03  0.91165220510E+02 0.  0.
          4    1    3    3  502    0 -0.18548522495E+02  0.34264448885E+02 -0.60675481035E+02  0.72108350022E+02  0.00000000000E+00 0. -1.
         -3    1    3    3    0  502  0.35912897319E+02  0.44392139594E+03 -0.84503630660E+03  0.95521845745E+03  0.00000000000E+00 0.  1.
         13    1    5    5    0    0 -0.30792118884E+01 -0.13385202173E+02 -0.54915529507E+01  0.14791968661E+02  0.00000000000E+00 0. -1.
        -13    1    5    5    0    0 -0.38500338030E+03 -0.19126570099E+03  0.17760424805E+03  0.46513808718E+03  0.00000000000E+00 0.  1.
          1    1    6    6  503    0  0.12192899142E+03 -0.46282997666E+02 -0.52652162125E+02  0.14064510300E+03  0.00000000000E+00 0. -1.
         -1    1    6    6    0  503  0.24878922594E+03 -0.22725194399E+03 -0.21973353148E+03  0.40227148774E+03  0.00000000000E+00 0.  1.
<mgrwt>
<rscale>  0 0.17863946E+04</rscale>
<asrwt>0</asrwt>
<pdfrwt beam="1">  1        2 0.80322204E-01 0.17863946E+04</pdfrwt>
<pdfrwt beam="2">  1       -1 0.23508910E+00 0.17863946E+04</pdfrwt>
<totfact> 0.55219318E+00</totfact>
</mgrwt>
</event>
<event>
12    7  0.1605494E-007  0.2013790E+04  0.7818608E-02  0.8600200E-01
         -1   -1    0    0    0  501 -0.00000000000E+00  0.00000000000E+00  0.12533784121E+04  0.12533784121E+04  0.00000000000E+00 0.  1.
          2   -1    0    0  501    0  0.00000000000E+00 -0.00000000000E+00 -0.80888417431E+03  0.80888417431E+03  0.00000000000E+00 0. -1.
         24    2    1    2    0    0  0.14259230426E+03  0.37685661197E+03 -0.54644385778E+03  0.68371678330E+03  0.80711082528E+02 0.  0.
        254    2    1    2    0    0 -0.14259230426E+03 -0.37685661197E+03  0.99093809555E+03  0.13785458031E+04  0.86952673954E+03 0.  0.
         23    2    4    4    0    0 -0.93701146820E+02  0.23574410901E+03  0.92466070309E+02  0.28609888302E+03  0.94590733462E+02 0.  0.
         23    2    4    4    0    0 -0.48891157440E+02 -0.61260072098E+03  0.89847202525E+03  0.10924469201E+04  0.92294660731E+02 0.  0.
          4    1    3    3  502    0  0.10784376558E+03  0.20189991056E+03 -0.26130957325E+03  0.34738529723E+03  0.00000000000E+00 0. -1.
         -3    1    3    3    0  502  0.34748538678E+02  0.17495670141E+03 -0.28513428454E+03  0.33633148608E+03  0.00000000000E+00 0.  1.
         13    1    5    5    0    0 -0.69503682689E+02  0.13123496808E+03  0.99240306203E+02  0.17861135778E+03  0.00000000000E+00 0. -1.
        -13    1    5    5    0    0 -0.24197464132E+02  0.10450914094E+03 -0.67742358945E+01  0.10748752524E+03  0.00000000000E+00 0.  1.
          2    1    6    6  503    0 -0.17281593752E+01  0.30628891490E+01  0.25008865762E+01  0.43153514841E+01  0.00000000000E+00 0. -1.
         -2    1    6    6    0  503 -0.47162998065E+02 -0.61566361013E+03  0.89597113867E+03  0.10881315686E+04  0.00000000000E+00 0.  1.
<mgrwt>
<rscale>  0 0.20137904E+04</rscale>
<asrwt>0</asrwt>
<pdfrwt beam="1">  1        2 0.12444372E+00 0.20137904E+04</pdfrwt>
<pdfrwt beam="2">  1       -1 0.19282745E+00 0.20137904E+04</pdfrwt>
<totfact> 0.60678123E+00</totfact>
</mgrwt>
</event>
<event>
12    7  0.1605494E-007  0.1667404E+04  0.7818608E-02  0.8780177E-01
         -1   -1    0    0    0  501 -0.00000000000E+00  0.00000000000E+00  0.18805039975E+03  0.18805039975E+03  0.00000000000E+00 0.  1.
          2   -1    0    0  501    0  0.00000000000E+00 -0.00000000000E+00 -0.36961311375E+04  0.36961311375E+04  0.00000000000E+00 0. -1.
         24    2    1    2    0    0  0.30470792197E+03  0.50185626377E+03 -0.11670295687E+04  0.13087233686E+04  0.78052636031E+02 0.  0.
        254    2    1    2    0    0 -0.30470792197E+03 -0.50185626377E+03 -0.23410511690E+04  0.25754581687E+04  0.89875334512E+03 0.  0.
         23    2    4    4    0    0 -0.36063074453E+03  0.70812648505E+02 -0.40902075373E+03  0.55756295978E+03  0.92247016418E+02 0.  0.
         23    2    4    4    0    0  0.55922822565E+02 -0.57266891227E+03 -0.19320304153E+04  0.20178952089E+04  0.89902743494E+02 0.  0.
          4    1    3    3  502    0  0.26533097116E+03  0.47489822938E+03 -0.10563267905E+04  0.11881730265E+04  0.00000000000E+00 0. -1.
         -3    1    3    3    0  502  0.39376950808E+02  0.26958034382E+02 -0.11070277826E+03  0.12055034212E+03  0.00000000000E+00 0.  1.
         13    1    5    5    0    0 -0.25376517294E+03  0.89401647206E+02 -0.26921858667E+03  0.38061537663E+03  0.00000000000E+00 0.  1.
        -13    1    5    5    0    0 -0.10686557159E+03 -0.18588998701E+02 -0.13980216706E+03  0.17694758314E+03  0.00000000000E+00 0. -1.
          1    1    6    6  503    0 -0.19353605926E+01 -0.92123292624E+01 -0.84354532919E+01  0.12639996175E+02  0.00000000000E+00 0. -1.
         -1    1    6    6    0  503  0.57858183157E+02 -0.56345658301E+03 -0.19235949620E+04  0.20052552127E+04  0.00000000000E+00 0.  1.
<mgrwt>
<rscale>  0 0.16674039E+04</rscale>
<asrwt>0</asrwt>
<pdfrwt beam="1">  1        2 0.56863553E+00 0.16674039E+04</pdfrwt>
<pdfrwt beam="2">  1       -1 0.28930832E-01 0.16674039E+04</pdfrwt>
<totfact> 0.70324333E+00</totfact>
</mgrwt>
</event>
<event>
12    7  0.1605494E-007  0.1791473E+04  0.7818608E-02  0.8710847E-01
         -1   -1    0    0    0  501 -0.00000000000E+00  0.00000000000E+00  0.64412813725E+03  0.64412813725E+03  0.00000000000E+00 0.  1.
          2   -1    0    0  501    0  0.00000000000E+00 -0.00000000000E+00 -0.12456280147E+04  0.12456280147E+04  0.00000000000E+00 0. -1.
         24    2    1    2    0    0  0.46431509975E+02  0.27216966696E+03 -0.85560757143E+03  0.90268953473E+03  0.80943604328E+02 0.  0.
        254    2    1    2    0    0 -0.46431509975E+02 -0.27216966696E+03  0.25410769396E+03  0.98706661723E+03  0.91296088306E+03 0.  0.
         23    2    4    4    0    0 -0.28994168766E+03 -0.43694299882E+03  0.38146173661E+03  0.65434787740E+03  0.87594073436E+02 0.  0.
         23    2    4    4    0    0  0.24351017768E+03  0.16477333186E+03 -0.12735404265E+03  0.33271873984E+03  0.89639556754E+02 0.  0.
          2    1    3    3  502    0 -0.45294177390E+01  0.91518169941E+02 -0.39111536261E+03  0.40170551145E+03  0.00000000000E+00 0. -1.
         -1    1    3    3    0  502  0.50960927714E+02  0.18065149702E+03 -0.46449220882E+03  0.50098402328E+03  0.00000000000E+00 0.  1.
         13    1    5    5    0    0 -0.57677113235E+02 -0.61320229775E+02  0.28105768727E+02  0.88751080030E+02  0.00000000000E+00 0.  1.
        -13    1    5    5    0    0 -0.23226457442E+03 -0.37562276904E+03  0.35335596788E+03  0.56559679737E+03  0.00000000000E+00 0. -1.
          4    1    6    6  503    0  0.21279671248E+03  0.14007084424E+03 -0.14079334812E+03  0.29107567594E+03  0.00000000000E+00 0. -1.
         -4    1    6    6    0  503  0.30713465204E+02  0.24702487621E+02  0.13439305475E+02  0.41643063902E+02  0.00000000000E+00 0.  1.
<mgrwt>
<rscale>  0 0.17914732E+04</rscale>
<asrwt>0</asrwt>
<pdfrwt beam="1">  1        2 0.19163507E+00 0.17914732E+04</pdfrwt>
<pdfrwt beam="2">  1       -1 0.99096639E-01 0.17914732E+04</pdfrwt>
<totfact> 0.18651115E+01</totfact>
</mgrwt>
</event>
<event>
12    7  0.1605494E-007  0.1340501E+04  0.7818608E-02  0.8998050E-01
         -1   -1    0    0    0  501 -0.00000000000E+00  0.00000000000E+00  0.21078752811E+03  0.21078752811E+03  0.00000000000E+00 0.  1.
          2   -1    0    0  501    0  0.00000000000E+00 -0.00000000000E+00 -0.21312256124E+04  0.21312256124E+04  0.00000000000E+00 0. -1.
         24    2    1    2    0    0  0.34474218471E+03  0.55946840869E+02 -0.35895382036E+03  0.50717506521E+03  0.80009241343E+02 0.  0.
        254    2    1    2    0    0 -0.34474218471E+03 -0.55946840869E+02 -0.15614842639E+04  0.18348380753E+04  0.89800914980E+03 0.  0.
         23    2    4    4    0    0 -0.87473917453E+02 -0.40119206662E+03 -0.11785097651E+04  0.12511772830E+04  0.89177163622E+02 0.  0.
         23    2    4    4    0    0 -0.25726826725E+03  0.34524522575E+03 -0.38297449882E+03  0.58366079228E+03  0.92785917357E+02 0.  0.
          2    1    3    3  502    0  0.39672065235E+02 -0.18419168606E+02 -0.35029116586E+02  0.56037287059E+02  0.00000000000E+00 0. -1.
         -1    1    3    3    0  502  0.30507011947E+03  0.74366009475E+02 -0.32392470378E+03  0.45113777815E+03  0.00000000000E+00 0.  1.
         13    1    5    5    0    0 -0.69725434400E+02 -0.39422158427E+03 -0.11069131538E+04  0.11770849688E+04  0.00000000000E+00 0.  1.
        -13    1    5    5    0    0 -0.17748483053E+02 -0.69704823476E+01 -0.71596611319E+02  0.74092314225E+02  0.00000000000E+00 0. -1.
          3    1    6    6  503    0 -0.96347543731E+02  0.15528491378E+03 -0.10608611124E+03  0.21130668856E+03  0.00000000000E+00 0. -1.
         -3    1    6    6    0  503 -0.16092072352E+03  0.18996031197E+03 -0.27688838758E+03  0.37235410372E+03  0.00000000000E+00 0.  1.
<mgrwt>
<rscale>  0 0.13405011E+04</rscale>
<asrwt>0</asrwt>
<pdfrwt beam="1">  1        2 0.32788088E+00 0.13405011E+04</pdfrwt>
<pdfrwt beam="2">  1       -1 0.32428849E-01 0.13405011E+04</pdfrwt>
<totfact> 0.55959385E+01</totfact>
</mgrwt>
</event>
<event>
12    7  0.1774988E-007  0.1486547E+04  0.7818608E-02  0.8893449E-01
         -1   -1    0    0    0  501 -0.00000000000E+00  0.00000000000E+00  0.23396632162E+03  0.23396632162E+03  0.00000000000E+00 0.  1.
          2   -1    0    0  501    0  0.00000000000E+00 -0.00000000000E+00 -0.23612602569E+04  0.23612602569E+04  0.00000000000E+00 0. -1.
         24    2    1    2    0    0 -0.12333046333E+03 -0.32208107827E+03 -0.12167016345E+04  0.12670682095E+04  0.78436955165E+02 0.  0.
        254    2    1    2    0    0  0.12333046333E+03  0.32208107827E+03 -0.91059230084E+03  0.13281583691E+04  0.90326058858E+03 0.  0.
         23    2    4    4    0    0  0.31782005448E+03  0.71863711588E+02 -0.93826502869E+03  0.99754111059E+03  0.92590621501E+02 0.  0.
         23    2    4    4    0    0 -0.19448959115E+03  0.25021736668E+03  0.27672727844E+02  0.33061725850E+03  0.90039214229E+02 0.  0.
          2    1    3    3  502    0 -0.13163966178E+03 -0.31729699113E+03 -0.11697623208E+04  0.12191596566E+04  0.00000000000E+00 0. -1.
         -1    1    3    3    0  502  0.83091984456E+01 -0.47840871411E+01 -0.46939313731E+02  0.47908552912E+02  0.00000000000E+00 0.  1.
         13    1    5    5    0    0  0.26292313603E+03  0.21713166613E+02 -0.75504756216E+03  0.79981051393E+03  0.00000000000E+00 0. -1.
        -13    1    5    5    0    0  0.54896918446E+02  0.50150544975E+02 -0.18321746652E+03  0.19773059666E+03  0.00000000000E+00 0.  1.
          1    1    6    6  503    0 -0.16182074833E+03  0.24084108755E+03  0.43015411121E+02  0.29332696712E+03  0.00000000000E+00 0. -1.
         -1    1    6    6    0  503 -0.32668842822E+02  0.93762791289E+01 -0.15342683278E+02  0.37290291388E+02  0.00000000000E+00 0.  1.
<mgrwt>
<rscale>  0 0.14865468E+04</rscale>
<asrwt>0</asrwt>
<pdfrwt beam="1">  1        2 0.36327082E+00 0.14865468E+04</pdfrwt>
<pdfrwt beam="2">  1       -1 0.35994817E-01 0.14865468E+04</pdfrwt>
<totfact> 0.34069853E+01</totfact>
</mgrwt>
</event>
<event>
12    7  0.1605494E-007  0.2362768E+04  0.7818608E-02  0.8453576E-01
         -1   -1    0    0    0  501 -0.00000000000E+00  0.00000000000E+00  0.10489625987E+04  0.10489625987E+04  0.00000000000E+00 0.  1.
          2   -1    0    0  501    0  0.00000000000E+00 -0.00000000000E+00 -0.13305225993E+04  0.13305225993E+04  0.00000000000E+00 0. -1.
         24    2    1    2    0    0  0.34829228911E+03  0.79537072772E+03  0.40469576673E+03  0.96119873887E+03  0.78754294080E+02 0.  0.
        254    2    1    2    0    0 -0.34829228911E+03 -0.79537072772E+03 -0.68625576738E+03  0.14182864591E+04  0.88694272009E+03 0.  0.
         23    2    4    4    0    0 -0.29163956376E+03 -0.93519788326E+03 -0.74343946607E+03  0.12333893170E+04  0.94330544353E+02 0.  0.
         23    2    4    4    0    0 -0.56652725350E+02  0.13982715554E+03  0.57183698690E+02  0.18489714212E+03  0.90309540214E+02 0.  0.
          2    1    3    3  502    0  0.11080831013E+03  0.34677471395E+03  0.15831829185E+03  0.39698345730E+03  0.00000000000E+00 0. -1.
         -3    1    3    3    0  502  0.23748397898E+03  0.44859601377E+03  0.24637747488E+03  0.56421528158E+03  0.00000000000E+00 0.  1.
         13    1    5    5    0    0 -0.25259228543E+03 -0.79300454487E+03 -0.67118454796E+03  0.10691808866E+04  0.00000000000E+00 0.  1.
        -13    1    5    5    0    0 -0.39047278321E+02 -0.14219333839E+03 -0.72254918110E+02  0.16420843041E+03  0.00000000000E+00 0. -1.
          3    1    6    6  503    0 -0.52273457818E+02  0.54531907197E+02 -0.10044431906E+02  0.76204553060E+02  0.00000000000E+00 0. -1.
         -3    1    6    6    0  503 -0.43792675319E+01  0.85295248340E+02  0.67228130596E+02  0.10869258906E+03  0.00000000000E+00 0.  1.
<mgrwt>
<rscale>  0 0.23627682E+04</rscale>
<asrwt>0</asrwt>
<pdfrwt beam="1">  1        2 0.20469578E+00 0.23627682E+04</pdfrwt>
<pdfrwt beam="2">  1       -1 0.16137886E+00 0.23627682E+04</pdfrwt>
<totfact> 0.46535754E+00</totfact>
</mgrwt>
</event>
<event>
12    7  0.1605494E-007  0.1928954E+04  0.7818608E-02  0.8640577E-01
         -1   -1    0    0    0  501 -0.00000000000E+00  0.00000000000E+00  0.31253784348E+03  0.31253784348E+03  0.00000000000E+00 0.  1.
          2   -1    0    0  501    0  0.00000000000E+00 -0.00000000000E+00 -0.29763291718E+04  0.29763291718E+04  0.00000000000E+00 0. -1.
         24    2    1    2    0    0  0.88135939807E+02 -0.26767690559E+02 -0.22602094917E+04  0.22634927270E+04  0.79799284217E+02 0.  0.
        254    2    1    2    0    0 -0.88135939807E+02  0.26767690559E+02 -0.40358183668E+03  0.10253742883E+04  0.93809897085E+03 0.  0.
         23    2    4    4    0    0  0.40378830991E+03  0.83928685721E+02 -0.28101969355E+03  0.50725446259E+03  0.90807478482E+02 0.  0.
         23    2    4    4    0    0 -0.49192424972E+03 -0.57160995162E+02 -0.12256214313E+03  0.51811982573E+03  0.90387101152E+02 0.  0.
          2    1    3    3  502    0  0.85609943207E+02 -0.42234234610E+02 -0.14536901746E+04  0.14568211684E+04  0.00000000000E+00 0. -1.
         -1    1    3    3    0  502  0.25259966003E+01  0.15466544051E+02 -0.80651931709E+03  0.80667155862E+03  0.00000000000E+00 0.  1.
         13    1    5    5    0    0  0.49416279337E+01  0.15058038305E+02 -0.20493928723E+02  0.25906858527E+02  0.00000000000E+00 0.  1.
        -13    1    5    5    0    0  0.39884668198E+03  0.68870647416E+02 -0.26052576483E+03  0.48134760406E+03  0.00000000000E+00 0. -1.
          3    1    6    6  503    0 -0.38234787234E+03 -0.81978085090E+02 -0.93011504617E+02  0.40194706357E+03  0.00000000000E+00 0. -1.
         -3    1    6    6    0  503 -0.10957637738E+03  0.24817089928E+02 -0.29550638513E+02  0.11617276216E+03  0.00000000000E+00 0.  1.
<mgrwt>
<rscale>  0 0.19289536E+04</rscale>
<asrwt>0</asrwt>
<pdfrwt beam="1">  1        2 0.45789682E+00 0.19289536E+04</pdfrwt>
<pdfrwt beam="2">  1       -1 0.48082743E-01 0.19289536E+04</pdfrwt>
<totfact> 0.83073248E+00</totfact>
</mgrwt>
</event>
<event>
12    7  0.1605494E-007  0.1551070E+04  0.7818608E-02  0.8851185E-01
         -1   -1    0    0    0  501 -0.00000000000E+00  0.00000000000E+00  0.86935981902E+03  0.86935981902E+03  0.00000000000E+00 0.  1.
          2   -1    0    0  501    0  0.00000000000E+00 -0.00000000000E+00 -0.69183621489E+03  0.69183621489E+03  0.00000000000E+00 0. -1.
         24    2    1    2    0    0 -0.45210425295E+03 -0.19970229291E+02 -0.16420637462E+03  0.48844942333E+03  0.82595642081E+02 0.  0.
        254    2    1    2    0    0  0.45210425295E+03  0.19970229291E+02  0.34172997874E+03  0.10727466106E+04  0.91060905253E+03 0.  0.
         23    2    4    4    0    0  0.18924176952E+03  0.45358928465E+03  0.16094533279E+03  0.52676706820E+03  0.10012221289E+03 0.  0.
         23    2    4    4    0    0  0.26286248344E+03 -0.43361905536E+03  0.18078464595E+03  0.54597954238E+03  0.91040661920E+02 0.  0.
          2    1    3    3  502    0 -0.32007523775E+03 -0.11446980706E+02 -0.15502955607E+03  0.35582770331E+03  0.00000000000E+00 0. -1.
         -1    1    3    3    0  502 -0.13202901521E+03 -0.85232485841E+01 -0.91768185426E+01  0.13262172002E+03  0.00000000000E+00 0.  1.
         13    1    5    5    0    0  0.16799980178E+03  0.39736179058E+03  0.17412827644E+03  0.46523218146E+03  0.00000000000E+00 0. -1.
        -13    1    5    5    0    0  0.21241967738E+02  0.56227494063E+02 -0.13182943651E+02  0.61534886734E+02  0.00000000000E+00 0.  1.
          1    1    6    6  503    0  0.22408817657E+03 -0.29823343582E+03  0.14840990374E+03  0.40147751201E+03  0.00000000000E+00 0. -1.
         -1    1    6    6    0  503  0.38774306870E+02 -0.13538561953E+03  0.32374742215E+02  0.14450203038E+03  0.00000000000E+00 0.  1.
<mgrwt>
<rscale>  0 0.15510701E+04</rscale>
<asrwt>0</asrwt>
<pdfrwt beam="1">  1        2 0.10643634E+00 0.15510701E+04</pdfrwt>
<pdfrwt beam="2">  1       -1 0.13374766E+00 0.15510701E+04</pdfrwt>
<totfact> 0.21572326E+01</totfact>
</mgrwt>
</event>
<event>
12    7  0.1605494E-007  0.1700329E+04  0.7818608E-02  0.8761177E-01
          2   -1    0    0  501    0  0.00000000000E+00  0.00000000000E+00  0.82682611037E+03  0.82682611037E+03  0.00000000000E+00 0. -1.
         -3   -1    0    0    0  501 -0.00000000000E+00 -0.00000000000E+00 -0.87416180455E+03  0.87416180455E+03  0.00000000000E+00 0.  1.
         24    2    1    2    0    0  0.18502180801E+03 -0.56535972779E+03  0.79684685814E+02  0.60538766180E+03  0.79245698023E+02 0.  0.
        254    2    1    2    0    0 -0.18502180801E+03  0.56535972779E+03 -0.12702037999E+03  0.10956002531E+04  0.91123051226E+03 0.  0.
         23    2    4    4    0    0  0.18706436321E+03  0.32193213454E+03 -0.40863597787E+03  0.56019711077E+03  0.90576295341E+02 0.  0.
         23    2    4    4    0    0 -0.37208617122E+03  0.24342759325E+03  0.28161559788E+03  0.53540314236E+03  0.98204215352E+02 0.  0.
          2    1    3    3  502    0  0.16454940952E+03 -0.52073697814E+03  0.94222954018E+02  0.55418541449E+03  0.00000000000E+00 0. -1.
         -1    1    3    3    0  502  0.20472398487E+02 -0.44622749654E+02 -0.14538268204E+02  0.51202247303E+02  0.00000000000E+00 0.  1.
         13    1    5    5    0    0  0.14265096337E+03  0.30182609474E+03 -0.34559432716E+03  0.48050361891E+03  0.00000000000E+00 0.  1.
        -13    1    5    5    0    0  0.44413399835E+02  0.20106039792E+02 -0.63041650707E+02  0.79693491860E+02  0.00000000000E+00 0. -1.
          2    1    6    6  503    0 -0.89139589527E+02  0.68037623747E+02  0.24523593376E+02  0.11478846326E+03  0.00000000000E+00 0. -1.
         -2    1    6    6    0  503 -0.28294658169E+03  0.17538996951E+03  0.25709200450E+03  0.42061467910E+03  0.00000000000E+00 0.  1.
<mgrwt>
<rscale>  0 0.17003292E+04</rscale>
<asrwt>0</asrwt>
<pdfrwt beam="1">  1        2 0.12720402E+00 0.17003292E+04</pdfrwt>
<pdfrwt beam="2">  1       -3 0.13448643E+00 0.17003292E+04</pdfrwt>
<totfact> 0.84366130E+00</totfact>
</mgrwt>
</event>
<event>
12    7  0.1605494E-007  0.2424647E+04  0.7818608E-02  0.8430333E-01
          2   -1    0    0  501    0  0.00000000000E+00  0.00000000000E+00  0.41865388780E+04  0.41865388780E+04  0.00000000000E+00 0. -1.
         -1   -1    0    0    0  501 -0.00000000000E+00 -0.00000000000E+00 -0.35106052086E+03  0.35106052086E+03  0.00000000000E+00 0.  1.
         24    2    1    2    0    0 -0.87301064717E+03  0.51291832951E+03  0.11973117845E+04  0.15701406806E+04  0.80953348799E+02 0.  0.
        254    2    1    2    0    0  0.87301064717E+03 -0.51291832951E+03  0.26381665726E+04  0.29674587183E+04  0.90590042329E+03 0.  0.
         23    2    4    4    0    0  0.82389682900E+03 -0.67625430320E+03  0.16927910073E+04  0.20025813166E+04  0.93084197230E+02 0.  0.
         23    2    4    4    0    0  0.49113818175E+02  0.16333597369E+03  0.94537556529E+03  0.96487740164E+03  0.90347292806E+02 0.  0.
          2    1    3    3  502    0 -0.50449639190E+03  0.31572070223E+03  0.75877921145E+03  0.96433503669E+03  0.00000000000E+00 0. -1.
         -1    1    3    3    0  502 -0.36851425528E+03  0.19719762728E+03  0.43853257308E+03  0.60580564391E+03  0.00000000000E+00 0.  1.
         13    1    5    5    0    0  0.25002468160E+03 -0.19470436047E+03  0.58392497991E+03  0.66437226881E+03  0.00000000000E+00 0. -1.
        -13    1    5    5    0    0  0.57387214740E+03 -0.48154994272E+03  0.11088660274E+04  0.13382090478E+04  0.00000000000E+00 0.  1.
          1    1    6    6  503    0  0.55706548324E+02  0.39983784276E+02  0.38365364849E+03  0.38973329923E+03  0.00000000000E+00 0. -1.
         -1    1    6    6    0  503 -0.65927301498E+01  0.12335218941E+03  0.56172191680E+03  0.57514410241E+03  0.00000000000E+00 0.  1.
<mgrwt>
<rscale>  0 0.24246472E+04</rscale>
<asrwt>0</asrwt>
<pdfrwt beam="1">  1        2 0.64408287E+00 0.24246472E+04</pdfrwt>
<pdfrwt beam="2">  1       -1 0.54009314E-01 0.24246472E+04</pdfrwt>
<totfact> 0.84840677E-01</totfact>
</mgrwt>
</event>
<event>
12    7  0.1605494E-007  0.1349765E+04  0.7818608E-02  0.8991006E-01
          2   -1    0    0  501    0  0.00000000000E+00  0.00000000000E+00  0.41836814795E+03  0.41836814795E+03  0.00000000000E+00 0. -1.
         -1   -1    0    0    0  501 -0.00000000000E+00 -0.00000000000E+00 -0.10886729529E+04  0.10886729529E+04  0.00000000000E+00 0.  1.
         24    2    1    2    0    0  0.24126932330E+03 -0.27991359119E+03 -0.19960358698E+03  0.42758603341E+03  0.80160583391E+02 0.  0.
        254    2    1    2    0    0 -0.24126932330E+03  0.27991359119E+03 -0.47070121795E+03  0.10794550674E+04  0.89838805708E+03 0.  0.
         23    2    4    4    0    0  0.15361810823E+03 -0.74151124452E+02 -0.50436095584E+03  0.54015559233E+03  0.91055904350E+02 0.  0.
         23    2    4    4    0    0 -0.39488743153E+03  0.35406471565E+03  0.33659737889E+02  0.53929947509E+03  0.91722622248E+02 0.  0.
          4    1    3    3  502    0  0.32827634261E+02 -0.50725324995E+02 -0.26458361469E+01  0.60479026248E+02  0.00000000000E+00 0. -1.
         -1    1    3    3    0  502  0.20844168904E+03 -0.22918826620E+03 -0.19695775083E+03  0.36710700716E+03  0.00000000000E+00 0.  1.
         13    1    5    5    0    0  0.12701505238E+03 -0.14246846217E+02 -0.33473476464E+03  0.35830595700E+03  0.00000000000E+00 0. -1.
        -13    1    5    5    0    0  0.26603055849E+02 -0.59904278235E+02 -0.16962619120E+03  0.18184963533E+03  0.00000000000E+00 0.  1.
          3    1    6    6  503    0 -0.24664390142E+03  0.21506811092E+03  0.65135252763E+02  0.33366166636E+03  0.00000000000E+00 0. -1.
         -3    1    6    6    0  503 -0.14824353011E+03  0.13899660473E+03 -0.31475514874E+02  0.20563780873E+03  0.00000000000E+00 0.  1.
<mgrwt>
<rscale>  0 0.13497646E+04</rscale>
<asrwt>0</asrwt>
<pdfrwt beam="1">  1        2 0.64364330E-01 0.13497646E+04</pdfrwt>
<pdfrwt beam="2">  1       -1 0.16748815E+00 0.13497646E+04</pdfrwt>
<totfact> 0.21689424E+01</totfact>
</mgrwt>
</event>
<event>
12    7  0.1605494E-007  0.2129751E+04  0.7818608E-02  0.8548250E-01
          2   -1    0    0  501    0  0.00000000000E+00  0.00000000000E+00  0.24022899405E+04  0.24022899405E+04  0.00000000000E+00 0. -1.
         -1   -1    0    0    0  501 -0.00000000000E+00 -0.00000000000E+00 -0.47203278347E+03  0.47203278347E+03  0.00000000000E+00 0.  1.
         24    2    1    2    0    0  0.11124891800E+03 -0.17723821741E+03  0.19379670622E+04  0.19509026559E+04  0.80716364008E+02 0.  0.
        254    2    1    2    0    0 -0.11124891800E+03  0.17723821741E+03 -0.77099051876E+01  0.92342006799E+03  0.89936392626E+03 0.  0.
         23    2    4    4    0    0 -0.11179527341E+03  0.17001160838E+03 -0.43402624272E+03  0.48762607060E+03  0.89433076779E+02 0.  0.
         23    2    4    4    0    0  0.54635540873E+00  0.72266090294E+01  0.42631633753E+03  0.43579399739E+03  0.90101421361E+02 0.  0.
          2    1    3    3  502    0  0.78611654236E+02 -0.17055150879E+03  0.15083581944E+04  0.15200039645E+04  0.00000000000E+00 0. -1.
         -1    1    3    3    0  502  0.32637263761E+02 -0.66867086236E+01  0.42960886776E+03  0.43089869147E+03  0.00000000000E+00 0.  1.
         13    1    5    5    0    0  0.99992949935E+01  0.30802420591E+02 -0.34268728965E+02  0.47149981967E+02  0.00000000000E+00 0.  1.
        -13    1    5    5    0    0 -0.12179456840E+03  0.13920918779E+03 -0.39975751375E+03  0.44047608864E+03  0.00000000000E+00 0. -1.
          3    1    6    6  503    0  0.37339220832E+02 -0.87530893681E+01  0.31771444826E+03  0.32002078779E+03  0.00000000000E+00 0. -1.
         -3    1    6    6    0  503 -0.36792865423E+02  0.15979698397E+02  0.10860188927E+03  0.11577320960E+03  0.00000000000E+00 0.  1.
<mgrwt>
<rscale>  0 0.21297508E+04</rscale>
<asrwt>0</asrwt>
<pdfrwt beam="1">  1        2 0.36958306E+00 0.21297508E+04</pdfrwt>
<pdfrwt beam="2">  1       -1 0.72620429E-01 0.21297508E+04</pdfrwt>
<totfact> 0.79311107E+00</totfact>
</mgrwt>
</event>
<event>
12    7  0.1605494E-007  0.1899288E+04  0.7818608E-02  0.8655211E-01
         -1   -1    0    0    0  501 -0.00000000000E+00  0.00000000000E+00  0.91117511510E+03  0.91117511510E+03  0.00000000000E+00 0.  1.
          2   -1    0    0  501    0  0.00000000000E+00 -0.00000000000E+00 -0.98973745568E+03  0.98973745568E+03  0.00000000000E+00 0. -1.
         24    2    1    2    0    0 -0.41094331437E+03 -0.29168085377E+03 -0.55965881172E+03  0.75742455565E+03  0.80757933882E+02 0.  0.
        254    2    1    2    0    0  0.41094331437E+03  0.29168085377E+03  0.48109647114E+03  0.11434880151E+04  0.90672978230E+03 0.  0.
         23    2    4    4    0    0 -0.18099479241E+03 -0.18034820199E+03  0.14578658562E+03  0.31099117105E+03  0.10088206524E+03 0.  0.
         23    2    4    4    0    0  0.59193810678E+03  0.47202905576E+03  0.33530988552E+03  0.83249684408E+03  0.86116922474E+02 0.  0.
          4    1    3    3  502    0 -0.36606494860E+03 -0.28249289784E+03 -0.52740335723E+03  0.70139866349E+03  0.00000000000E+00 0. -1.
         -3    1    3    3    0  502 -0.44878365769E+02 -0.91879559318E+01 -0.32255454484E+02  0.56025892159E+02  0.00000000000E+00 0.  1.
         13    1    5    5    0    0 -0.32554388389E+02  0.78949169688E+01  0.29097215090E+02  0.44370776907E+02  0.00000000000E+00 0. -1.
        -13    1    5    5    0    0 -0.14844040402E+03 -0.18824311895E+03  0.11668937053E+03  0.26662039414E+03  0.00000000000E+00 0.  1.
          1    1    6    6  503    0  0.19682121888E+03  0.11297927456E+03  0.79255681221E+02  0.24038380080E+03  0.00000000000E+00 0. -1.
         -1    1    6    6    0  503  0.39511688790E+03  0.35904978119E+03  0.25605420430E+03  0.59211304328E+03  0.00000000000E+00 0.  1.
<mgrwt>
<rscale>  0 0.18992884E+04</rscale>
<asrwt>0</asrwt>
<pdfrwt beam="1">  1        2 0.15226730E+00 0.18992884E+04</pdfrwt>
<pdfrwt beam="2">  1       -1 0.14018079E+00 0.18992884E+04</pdfrwt>
<totfact> 0.11416954E+01</totfact>
</mgrwt>
</event>
<event>
12    7  0.1605494E-007  0.1807177E+04  0.7818608E-02  0.8702492E-01
         -1   -1    0    0    0  501 -0.00000000000E+00  0.00000000000E+00  0.44388919304E+03  0.44388919304E+03  0.00000000000E+00 0.  1.
          2   -1    0    0  501    0  0.00000000000E+00 -0.00000000000E+00 -0.18393606009E+04  0.18393606009E+04  0.00000000000E+00 0. -1.
         24    2    1    2    0    0  0.33826764568E+03  0.51077862223E+03 -0.15773429535E+03  0.63747826233E+03  0.78604236380E+02 0.  0.
        254    2    1    2    0    0 -0.33826764568E+03 -0.51077862223E+03 -0.12377371125E+04  0.16457715316E+04  0.89512623329E+03 0.  0.
         23    2    4    4    0    0 -0.48042777024E+03  0.12057056810E+02 -0.82459976122E+03  0.95865836758E+03  0.90027131975E+02 0.  0.
         23    2    4    4    0    0  0.14216012456E+03 -0.52283567904E+03 -0.41313735125E+03  0.68711316400E+03  0.88743342598E+02 0.  0.
          2    1    3    3  502    0  0.17958277580E+03  0.21500838409E+03 -0.47148007923E+02  0.28408011765E+03  0.00000000000E+00 0. -1.
         -1    1    3    3    0  502  0.15868486988E+03  0.29577023814E+03 -0.11058628743E+03  0.35339814468E+03  0.00000000000E+00 0.  1.
         13    1    5    5    0    0 -0.43436265659E+03 -0.16630610272E+01 -0.68593277108E+03  0.81189743789E+03  0.00000000000E+00 0. -1.
        -13    1    5    5    0    0 -0.46065113648E+02  0.13720117837E+02 -0.13866699014E+03  0.14676092969E+03  0.00000000000E+00 0.  1.
          1    1    6    6  503    0  0.21019775356E+02 -0.12359958327E+02 -0.18487649622E+02  0.30600534545E+02  0.00000000000E+00 0. -1.
         -1    1    6    6    0  503  0.12114034920E+03 -0.51047572071E+03 -0.39464970162E+03  0.65651262945E+03  0.00000000000E+00 0.  1.
<mgrwt>
<rscale>  0 0.18071771E+04</rscale>
<asrwt>0</asrwt>
<pdfrwt beam="1">  1        2 0.28297855E+00 0.18071771E+04</pdfrwt>
<pdfrwt beam="2">  1       -1 0.68290645E-01 0.18071771E+04</pdfrwt>
<totfact> 0.19138193E+01</totfact>
</mgrwt>
</event>
<event>
12    7  0.1605494E-007  0.1590597E+04  0.7818608E-02  0.8826346E-01
         -1   -1    0    0    0  501 -0.00000000000E+00  0.00000000000E+00  0.40595703498E+03  0.40595703498E+03  0.00000000000E+00 0.  1.
          2   -1    0    0  501    0  0.00000000000E+00 -0.00000000000E+00 -0.15580459361E+04  0.15580459361E+04  0.00000000000E+00 0. -1.
         24    2    1    2    0    0  0.39304781051E+03  0.32516090116E+03 -0.18610919735E+03  0.54941791108E+03  0.83709107598E+02 0.  0.
        254    2    1    2    0    0 -0.39304781051E+03 -0.32516090116E+03 -0.96597970376E+03  0.14145850600E+04  0.89873127844E+03 0.  0.
         23    2    4    4    0    0  0.51144662422E+01 -0.52241172640E+03 -0.72917471698E+03  0.90161302886E+03  0.90940179647E+02 0.  0.
         23    2    4    4    0    0 -0.39816227675E+03  0.19725082524E+03 -0.23680498678E+03  0.51297203112E+03  0.98094934939E+02 0.  0.
          4    1    3    3  502    0  0.15454414130E+03  0.15874505620E+03 -0.44598144975E+02  0.22599309505E+03  0.00000000000E+00 0. -1.
         -1    1    3    3    0  502  0.23850366921E+03  0.16641584496E+03 -0.14151105237E+03  0.32342481603E+03  0.00000000000E+00 0.  1.
         13    1    5    5    0    0  0.35603913536E+02 -0.44673339123E+03 -0.60146389475E+03  0.75006478266E+03  0.00000000000E+00 0.  1.
        -13    1    5    5    0    0 -0.30489447293E+02 -0.75678335169E+02 -0.12771082223E+03  0.15154824619E+03  0.00000000000E+00 0. -1.
          1    1    6    6  503    0 -0.10711724123E+03  0.77282886855E+01 -0.47669123870E+02  0.11749968164E+03  0.00000000000E+00 0. -1.
         -1    1    6    6    0  503 -0.29104503552E+03  0.18952253656E+03 -0.18913586291E+03  0.39547234948E+03  0.00000000000E+00 0.  1.
<mgrwt>
<rscale>  0 0.15905970E+04</rscale>
<asrwt>0</asrwt>
<pdfrwt beam="1">  1        2 0.23969938E+00 0.15905970E+04</pdfrwt>
<pdfrwt beam="2">  1       -1 0.62454928E-01 0.15905970E+04</pdfrwt>
<totfact> 0.33471078E+01</totfact>
</mgrwt>
</event>
<event>
12    7  0.1605494E-007  0.1448490E+04  0.7818608E-02  0.8919448E-01
          2   -1    0    0  501    0  0.00000000000E+00  0.00000000000E+00  0.33294172651E+04  0.33294172651E+04  0.00000000000E+00 0. -1.
         -1   -1    0    0    0  501 -0.00000000000E+00 -0.00000000000E+00 -0.15754441337E+03  0.15754441337E+03  0.00000000000E+00 0.  1.
         24    2    1    2    0    0 -0.33373722329E+03 -0.29043557652E+03  0.90978321450E+03  0.10147973076E+04  0.79841842779E+02 0.  0.
        254    2    1    2    0    0  0.33373722329E+03  0.29043557652E+03  0.22620896373E+04  0.24721643709E+04  0.89376383418E+03 0.  0.
         23    2    4    4    0    0  0.28220655392E+02 -0.29887658663E+03  0.91200459655E+03  0.96456519077E+03  0.92249681254E+02 0.  0.
         23    2    4    4    0    0  0.30551656790E+03  0.58931216314E+03  0.13500850407E+04  0.15075991801E+04  0.97449842520E+02 0.  0.
          2    1    3    3  502    0 -0.31490316055E+03 -0.28314206296E+03  0.89378302450E+03  0.98903059772E+03  0.00000000000E+00 0. -1.
         -1    1    3    3    0  502 -0.18834062739E+02 -0.72935135611E+01  0.16000190003E+02  0.25766709908E+02  0.00000000000E+00 0.  1.
         13    1    5    5    0    0 -0.32864337278E+02 -0.11544955408E+03  0.38094989563E+03  0.39941392963E+03  0.00000000000E+00 0.  1.
        -13    1    5    5    0    0  0.61084992670E+02 -0.18342703255E+03  0.53105470093E+03  0.56515126115E+03  0.00000000000E+00 0. -1.
          1    1    6    6  503    0  0.12821800008E+02  0.10745111772E+02  0.11664962741E+02  0.20394296708E+02  0.00000000000E+00 0. -1.
         -1    1    6    6    0  503  0.29269476789E+03  0.57856705137E+03  0.13384200780E+04  0.14872048834E+04  0.00000000000E+00 0.  1.
<mgrwt>
<rscale>  0 0.14484904E+04</rscale>
<asrwt>0</asrwt>
<pdfrwt beam="1">  1        2 0.51221799E+00 0.14484904E+04</pdfrwt>
<pdfrwt beam="2">  1       -1 0.24237605E-01 0.14484904E+04</pdfrwt>
<totfact> 0.17590519E+01</totfact>
</mgrwt>
</event>
<event>
12    7  0.1605494E-007  0.2683317E+04  0.7818608E-02  0.8340438E-01
         -1   -1    0    0    0  501 -0.00000000000E+00  0.00000000000E+00  0.12489788932E+04  0.12489788932E+04  0.00000000000E+00 0.  1.
          2   -1    0    0  501    0  0.00000000000E+00 -0.00000000000E+00 -0.14412153815E+04  0.14412153815E+04  0.00000000000E+00 0. -1.
         24    2    1    2    0    0  0.10269473697E+04 -0.53782707636E+03  0.17994754181E+03  0.11758960466E+04  0.80445821534E+02 0.  0.
        254    2    1    2    0    0 -0.10269473697E+04  0.53782707636E+03 -0.37218403012E+03  0.15142982282E+04  0.90038842021E+03 0.  0.
         23    2    4    4    0    0 -0.33974808448E+03  0.67203993297E+03 -0.24411067158E+03  0.79685752111E+03  0.91243939858E+02 0.  0.
         23    2    4    4    0    0 -0.68719928526E+03 -0.13421285660E+03 -0.12807335854E+03  0.71744070705E+03  0.89791059832E+02 0.  0.
          4    1    3    3  502    0  0.12622734693E+03 -0.65441735462E+02  0.49177148404E+02  0.15044718601E+03  0.00000000000E+00 0. -1.
         -3    1    3    3    0  502  0.90072002282E+03 -0.47238534090E+03  0.13077039340E+03  0.10254488605E+04  0.00000000000E+00 0.  1.
         13    1    5    5    0    0 -0.27473232295E+03  0.47684225042E+03 -0.14863294911E+03  0.57004222179E+03  0.00000000000E+00 0.  1.
        -13    1    5    5    0    0 -0.65015761537E+02  0.19519768254E+03 -0.95477722477E+02  0.22681529932E+03  0.00000000000E+00 0. -1.
          3    1    6    6  503    0 -0.60451230133E+03 -0.12844575659E+03 -0.84379338891E+02  0.62374137884E+03  0.00000000000E+00 0. -1.
         -3    1    6    6    0  503 -0.82686983932E+02 -0.57671000077E+01 -0.43694019647E+02  0.93699328211E+02  0.00000000000E+00 0.  1.
<mgrwt>
<rscale>  0 0.26833170E+04</rscale>
<asrwt>0</asrwt>
<pdfrwt beam="1">  1        2 0.22172544E+00 0.26833170E+04</pdfrwt>
<pdfrwt beam="2">  1       -1 0.19215060E+00 0.26833170E+04</pdfrwt>
<totfact> 0.23408241E+00</totfact>
</mgrwt>
</event>
<event>
12    7  0.1605494E-007  0.1998369E+04  0.7818608E-02  0.8607384E-01
         -1   -1    0    0    0  501 -0.00000000000E+00  0.00000000000E+00  0.31664543671E+03  0.31664543671E+03  0.00000000000E+00 0.  1.
          2   -1    0    0  501    0  0.00000000000E+00 -0.00000000000E+00 -0.31529580315E+04  0.31529580315E+04  0.00000000000E+00 0. -1.
         24    2    1    2    0    0  0.51223695441E+03 -0.87035356760E+02 -0.88812675367E+02  0.53305106881E+03  0.79334102754E+02 0.  0.
        254    2    1    2    0    0 -0.51223695441E+03  0.87035356760E+02 -0.27474999194E+04  0.29365523994E+04  0.89700743385E+03 0.  0.
         23    2    4    4    0    0  0.11832150542E+03  0.71605619396E+02 -0.62312529803E+02  0.17659855410E+03  0.90425961793E+02 0.  0.
         23    2    4    4    0    0 -0.63055845983E+03  0.15429737365E+02 -0.26851873896E+04  0.27599538453E+04  0.96290512236E+02 0.  0.
          2    1    3    3  502    0  0.17336688349E+03  0.77655612013E+01 -0.22805110809E+02  0.17503272068E+03  0.00000000000E+00 0. -1.
         -1    1    3    3    0  502  0.33887007093E+03 -0.94800917962E+02 -0.66007564558E+02  0.35801834813E+03  0.00000000000E+00 0.  1.
         13    1    5    5    0    0  0.11013861037E+03  0.21946050322E+02 -0.28175356567E+02  0.11578425341E+03  0.00000000000E+00 0. -1.
        -13    1    5    5    0    0  0.81828950430E+01  0.49659569073E+02 -0.34137173235E+02  0.60814300689E+02  0.00000000000E+00 0.  1.
          3    1    6    6  503    0 -0.45825585117E+03 -0.77146527092E+01 -0.21030217034E+04  0.21523843119E+04  0.00000000000E+00 0. -1.
         -3    1    6    6    0  503 -0.17230260866E+03  0.23144390074E+02 -0.58216568624E+03  0.60756953345E+03  0.00000000000E+00 0.  1.
<mgrwt>
<rscale>  0 0.19983691E+04</rscale>
<asrwt>0</asrwt>
<pdfrwt beam="1">  1        2 0.48507048E+00 0.19983691E+04</pdfrwt>
<pdfrwt beam="2">  1       -1 0.48714681E-01 0.19983691E+04</pdfrwt>
<totfact> 0.62264571E+00</totfact>
</mgrwt>
</event>
<event>
12    7  0.1605494E-007  0.2553910E+04  0.7818608E-02  0.8384028E-01
          2   -1    0    0  501    0  0.00000000000E+00  0.00000000000E+00  0.19014577476E+04  0.19014577476E+04  0.00000000000E+00 0. -1.
         -1   -1    0    0    0  501 -0.00000000000E+00 -0.00000000000E+00 -0.85755987237E+03  0.85755987237E+03  0.00000000000E+00 0.  1.
         24    2    1    2    0    0  0.15396321430E+03 -0.23764068697E+03  0.16298081686E+04  0.16560582616E+04  0.77952111288E+02 0.  0.
        254    2    1    2    0    0 -0.15396321430E+03  0.23764068697E+03 -0.58591029342E+03  0.11029593584E+04  0.89053394483E+03 0.  0.
         23    2    4    4    0    0  0.13399560919E+03 -0.28389661582E+03 -0.26921684541E+03  0.42283195000E+03  0.88074038932E+02 0.  0.
         23    2    4    4    0    0 -0.28795882349E+03  0.52153730280E+03 -0.31669344801E+03  0.68012740840E+03  0.85773593925E+02 0.  0.
          2    1    3    3  502    0  0.10270627670E+03 -0.15974923146E+03  0.12810210626E+04  0.12950225323E+04  0.00000000000E+00 0. -1.
         -1    1    3    3    0  502  0.51256937593E+02 -0.77891455517E+02  0.34878710601E+03  0.36103572927E+03  0.00000000000E+00 0.  1.
         13    1    5    5    0    0  0.27869855842E+02 -0.10165493077E+03 -0.14092851698E+03  0.17598664925E+03  0.00000000000E+00 0. -1.
        -13    1    5    5    0    0  0.10612575335E+03 -0.18224168505E+03 -0.12828832843E+03  0.24684530076E+03  0.00000000000E+00 0.  1.
          2    1    6    6  503    0 -0.62239083258E+02  0.19682864294E+03 -0.10721669758E+03  0.23261693491E+03  0.00000000000E+00 0. -1.
         -2    1    6    6    0  503 -0.22571974023E+03  0.32470865985E+03 -0.20947675043E+03  0.44751047349E+03  0.00000000000E+00 0.  1.
<mgrwt>
<rscale>  0 0.25539098E+04</rscale>
<asrwt>0</asrwt>
<pdfrwt beam="1">  1        2 0.29253196E+00 0.25539098E+04</pdfrwt>
<pdfrwt beam="2">  1       -1 0.13193229E+00 0.25539098E+04</pdfrwt>
<totfact> 0.37413386E+00</totfact>
</mgrwt>
</event>
<event>
12    7  0.1605494E-007  0.2424825E+04  0.7818608E-02  0.8430268E-01
          2   -1    0    0  501    0  0.00000000000E+00  0.00000000000E+00  0.14291216313E+04  0.14291216313E+04  0.00000000000E+00 0. -1.
         -1   -1    0    0    0  501 -0.00000000000E+00 -0.00000000000E+00 -0.10285646506E+04  0.10285646506E+04  0.00000000000E+00 0.  1.
         24    2    1    2    0    0  0.81243671840E+03  0.97745826032E+02  0.82691579140E+03  0.11661944742E+04  0.81315174847E+02 0.  0.
        254    2    1    2    0    0 -0.81243671840E+03 -0.97745826032E+02 -0.42635881061E+03  0.12914918077E+04  0.90363797292E+03 0.  0.
         23    2    4    4    0    0 -0.83411214868E+03 -0.37318921000E+03 -0.39273440032E+03  0.99882388672E+03  0.91627421930E+02 0.  0.
         23    2    4    4    0    0  0.21675430275E+02  0.27544338397E+03 -0.33624410283E+02  0.29266792100E+03  0.90471149904E+02 0.  0.
          4    1    3    3  502    0  0.44936602623E+03  0.92088541312E+02  0.44117114964E+03  0.63642918557E+03  0.00000000000E+00 0. -1.
         -3    1    3    3    0  502  0.36307069217E+03  0.56572847207E+01  0.38574464176E+03  0.52976528862E+03  0.00000000000E+00 0.  1.
         13    1    5    5    0    0 -0.52007397443E+03 -0.26737522752E+03 -0.28368514135E+03  0.64995669901E+03  0.00000000000E+00 0. -1.
        -13    1    5    5    0    0 -0.31403817425E+03 -0.10581398248E+03 -0.10904925897E+03  0.34886718771E+03  0.00000000000E+00 0.  1.
          2    1    6    6  503    0 -0.29736274272E+02  0.16066269346E+03 -0.39172836484E+01  0.16343834369E+03  0.00000000000E+00 0. -1.
         -2    1    6    6    0  503  0.51411704547E+02  0.11478069051E+03 -0.29707126635E+02  0.12922957731E+03  0.00000000000E+00 0.  1.
<mgrwt>
<rscale>  0 0.24248249E+04</rscale>
<asrwt>0</asrwt>
<pdfrwt beam="1">  1        2 0.21986487E+00 0.24248249E+04</pdfrwt>
<pdfrwt beam="2">  1       -1 0.15824072E+00 0.24248249E+04</pdfrwt>
<totfact> 0.42911605E+00</totfact>
</mgrwt>
</event>
<event>
12    7  0.1605494E-007  0.9729624E+03  0.7818608E-02  0.9338707E-01
         -1   -1    0    0    0  501 -0.00000000000E+00  0.00000000000E+00  0.26762624991E+03  0.26762624991E+03  0.00000000000E+00 0.  1.
          2   -1    0    0  501    0  0.00000000000E+00 -0.00000000000E+00 -0.88430773866E+03  0.88430773866E+03  0.00000000000E+00 0. -1.
         24    2    1    2    0    0 -0.45263798661E+02  0.75808861273E+02  0.16861325057E+02  0.11967795274E+03  0.79010842119E+02 0.  0.
        254    2    1    2    0    0  0.45263798661E+02 -0.75808861273E+02 -0.63354281380E+03  0.10322560358E+04  0.81017296405E+03 0.  0.
         23    2    4    4    0    0  0.33643743829E+03  0.19844335501E+03 -0.33759098898E+03  0.52553581595E+03  0.98235955594E+02 0.  0.
         23    2    4    4    0    0 -0.29117363963E+03 -0.27425221628E+03 -0.29595182482E+03  0.50672021988E+03  0.95820311388E+02 0.  0.
          4    1    3    3  502    0 -0.38715761694E+02  0.19051743109E+02  0.39234415999E+02  0.58319966717E+02  0.00000000000E+00 0. -1.
         -3    1    3    3    0  502 -0.65480369674E+01  0.56757118164E+02 -0.22373090942E+02  0.61357986022E+02  0.00000000000E+00 0.  1.
         13    1    5    5    0    0  0.14229441003E+03  0.34731147990E+02 -0.96759982428E+02  0.17554613629E+03  0.00000000000E+00 0. -1.
        -13    1    5    5    0    0  0.19414302826E+03  0.16371220702E+03 -0.24083100655E+03  0.34998967966E+03  0.00000000000E+00 0.  1.
          2    1    6    6  503    0 -0.20519308453E+03 -0.16155242100E+03 -0.23880939495E+03  0.35388319230E+03  0.00000000000E+00 0. -1.
         -2    1    6    6    0  503 -0.85980555097E+02 -0.11269979528E+03 -0.57142429865E+02  0.15283702759E+03  0.00000000000E+00 0.  1.
<mgrwt>
<rscale>  0 0.97296241E+03</rscale>
<asrwt>0</asrwt>
<pdfrwt beam="1">  1        2 0.13604735E+00 0.97296241E+03</pdfrwt>
<pdfrwt beam="2">  1       -1 0.41173268E-01 0.97296241E+03</pdfrwt>
<totfact> 0.19774831E+02</totfact>
</mgrwt>
</event>
<event>
12    7  0.1605494E-007  0.1529468E+04  0.7818608E-02  0.8865090E-01
         -1   -1    0    0    0  501 -0.00000000000E+00  0.00000000000E+00  0.47766875499E+03  0.47766875499E+03  0.00000000000E+00 0.  1.
          2   -1    0    0  501    0  0.00000000000E+00 -0.00000000000E+00 -0.12243166130E+04  0.12243166130E+04  0.00000000000E+00 0. -1.
         24    2    1    2    0    0  0.12085040177E+03  0.91709464350E+02 -0.76503190901E+03  0.78416736463E+03  0.81419828625E+02 0.  0.
        254    2    1    2    0    0 -0.12085040177E+03 -0.91709464350E+02  0.18384050980E+02  0.91781800337E+03  0.90500633618E+03 0.  0.
         23    2    4    4    0    0 -0.15186747489E+02  0.29455214512E+03 -0.27433449640E+03  0.41304078024E+03  0.91387453898E+02 0.  0.
         23    2    4    4    0    0 -0.10566365428E+03 -0.38626160947E+03  0.29271854738E+03  0.50477722313E+03  0.93557780160E+02 0.  0.
          2    1    3    3  502    0  0.13138663718E+03  0.72441063816E+02 -0.67877467145E+03  0.69515840695E+03  0.00000000000E+00 0. -1.
         -1    1    3    3    0  502 -0.10536235411E+02  0.19268400533E+02 -0.86257237555E+02  0.89008957675E+02  0.00000000000E+00 0.  1.
         13    1    5    5    0    0  0.15449437972E+02  0.12913266507E+02 -0.22782570438E+01  0.20263959156E+02  0.00000000000E+00 0. -1.
        -13    1    5    5    0    0 -0.30636185460E+02  0.28163887862E+03 -0.27205623936E+03  0.39277682108E+03  0.00000000000E+00 0.  1.
          1    1    6    6  503    0 -0.83222450737E+02 -0.17674606959E+03  0.10111903451E+03  0.21997774561E+03  0.00000000000E+00 0. -1.
         -1    1    6    6    0  503 -0.22441203540E+02 -0.20951553989E+03  0.19159951287E+03  0.28479947753E+03  0.00000000000E+00 0.  1.
<mgrwt>
<rscale>  0 0.15294676E+04</rscale>
<asrwt>0</asrwt>
<pdfrwt beam="1">  1        2 0.18835640E+00 0.15294676E+04</pdfrwt>
<pdfrwt beam="2">  1       -1 0.73487501E-01 0.15294676E+04</pdfrwt>
<totfact> 0.37569603E+01</totfact>
</mgrwt>
</event>
<event>
12    7  0.1605494E-007  0.2549872E+04  0.7818608E-02  0.8385431E-01
         -1   -1    0    0    0  501 -0.00000000000E+00  0.00000000000E+00  0.11350602846E+04  0.11350602846E+04  0.00000000000E+00 0.  1.
          2   -1    0    0  501    0  0.00000000000E+00 -0.00000000000E+00 -0.14320487038E+04  0.14320487038E+04  0.00000000000E+00 0. -1.
         24    2    1    2    0    0 -0.50791996981E+03  0.34408659126E+03 -0.10691623732E+04  0.12352568788E+04  0.79831688608E+02 0.  0.
        254    2    1    2    0    0  0.50791996981E+03 -0.34408659126E+03  0.77217395394E+03  0.13318521096E+04  0.89509728442E+03 0.  0.
         23    2    4    4    0    0 -0.19333856936E+02  0.20751586143E+03  0.43815707191E+03  0.49382979321E+03  0.91921783205E+02 0.  0.
         23    2    4    4    0    0  0.52725382675E+03 -0.55160245269E+03  0.33401688203E+03  0.83802231635E+03  0.91936182116E+02 0.  0.
          4    1    3    3  502    0 -0.40195521195E+03  0.30872542089E+03 -0.88556560328E+03  0.10203459294E+04  0.00000000000E+00 0. -1.
         -3    1    3    3    0  502 -0.10596475786E+03  0.35361170366E+02 -0.18359676987E+03  0.21491094943E+03  0.00000000000E+00 0.  1.
         13    1    5    5    0    0 -0.14059245677E+02  0.17388681429E+03  0.42099200102E+03  0.45570665071E+03  0.00000000000E+00 0. -1.
        -13    1    5    5    0    0 -0.52746112586E+01  0.33629047146E+02  0.17165070886E+02  0.38123142505E+02  0.00000000000E+00 0.  1.
          2    1    6    6  503    0  0.34672929617E+03 -0.33229381631E+03  0.16672265183E+03  0.50836682407E+03  0.00000000000E+00 0. -1.
         -2    1    6    6    0  503  0.18052453058E+03 -0.21930863638E+03  0.16729423020E+03  0.32965549228E+03  0.00000000000E+00 0.  1.
<mgrwt>
<rscale>  0 0.25498718E+04</rscale>
<asrwt>0</asrwt>
<pdfrwt beam="1">  1        2 0.22031519E+00 0.25498718E+04</pdfrwt>
<pdfrwt beam="2">  1       -1 0.17462466E+00 0.25498718E+04</pdfrwt>
<totfact> 0.31950747E+00</totfact>
</mgrwt>
</event>
<event>
12    7  0.1605494E-007  0.1619938E+04  0.7818608E-02  0.8808392E-01
          2   -1    0    0  501    0  0.00000000000E+00  0.00000000000E+00  0.40563323652E+04  0.40563323652E+04  0.00000000000E+00 0. -1.
         -1   -1    0    0    0  501 -0.00000000000E+00 -0.00000000000E+00 -0.16173473215E+03  0.16173473215E+03  0.00000000000E+00 0.  1.
         24    2    1    2    0    0 -0.48474145353E+03 -0.17308620261E+03  0.78281066162E+03  0.94010366058E+03  0.77905393829E+02 0.  0.
        254    2    1    2    0    0  0.48474145353E+03  0.17308620261E+03  0.31117869714E+04  0.32779634368E+04  0.89268865060E+03 0.  0.
         23    2    4    4    0    0  0.31607978923E+03  0.24626938648E+03  0.30360689319E+04  0.30637385676E+04  0.90688519856E+02 0.  0.
         23    2    4    4    0    0  0.16866166430E+03 -0.73183183863E+02  0.75718039559E+02  0.21422486917E+03  0.79727897559E+02 0.  0.
          4    1    3    3  502    0 -0.91375948638E+02 -0.55038774471E+01  0.16635452115E+03  0.18987807499E+03  0.00000000000E+00 0. -1.
         -3    1    3    3    0  502 -0.39336550489E+03 -0.16758232517E+03  0.61645614047E+03  0.75022558559E+03  0.00000000000E+00 0.  1.
         13    1    5    5    0    0  0.14387626454E+02 -0.34872591885E+01  0.22900662030E+03  0.22948463328E+03  0.00000000000E+00 0.  1.
        -13    1    5    5    0    0  0.30169216277E+03  0.24975664567E+03  0.28070623116E+04  0.28342539343E+04  0.00000000000E+00 0. -1.
          1    1    6    6  503    0  0.73502161457E+02 -0.72096862283E+02  0.55388442075E+02  0.11691195322E+03  0.00000000000E+00 0. -1.
         -1    1    6    6    0  503  0.95159502848E+02 -0.10863215801E+01  0.20329597484E+02  0.97312915950E+02  0.00000000000E+00 0.  1.
<mgrwt>
<rscale>  0 0.16199381E+04</rscale>
<asrwt>0</asrwt>
<pdfrwt beam="1">  1        2 0.62405106E+00 0.16199381E+04</pdfrwt>
<pdfrwt beam="2">  1       -1 0.24882270E-01 0.16199381E+04</pdfrwt>
<totfact> 0.48355871E+00</totfact>
</mgrwt>
</event>
<event>
12    7  0.1605494E-007  0.1309339E+04  0.7818608E-02  0.9022192E-01
          2   -1    0    0  501    0  0.00000000000E+00  0.00000000000E+00  0.10768459229E+04  0.10768459229E+04  0.00000000000E+00 0. -1.
         -1   -1    0    0    0  501 -0.00000000000E+00 -0.00000000000E+00 -0.39800715425E+03  0.39800715425E+03  0.00000000000E+00 0.  1.
         24    2    1    2    0    0 -0.28115793977E+03 -0.14819219347E+03  0.30229115871E+03  0.44547123543E+03  0.77807221153E+02 0.  0.
        254    2    1    2    0    0  0.28115793977E+03  0.14819219347E+03  0.37654760995E+03  0.10293818417E+04  0.90378546138E+03 0.  0.
         23    2    4    4    0    0  0.87742811691E+02  0.36108216796E+03  0.55855154477E+03  0.67731143187E+03  0.93229901582E+02 0.  0.
         23    2    4    4    0    0  0.19341512808E+03 -0.21288997449E+03 -0.18200393483E+03  0.35207040985E+03  0.89981043482E+02 0.  0.
          4    1    3    3  502    0 -0.19380723464E+03 -0.10753290549E+03  0.25588273204E+03  0.33852701889E+03  0.00000000000E+00 0. -1.
         -3    1    3    3    0  502 -0.87350705134E+02 -0.40659287980E+02  0.46408426664E+02  0.10694421654E+03  0.00000000000E+00 0.  1.
         13    1    5    5    0    0  0.10715448329E+02  0.58057144199E+02  0.16137249446E+03  0.17183286879E+03  0.00000000000E+00 0.  1.
        -13    1    5    5    0    0  0.77027363363E+02  0.30302502376E+03  0.39717905031E+03  0.50547856308E+03  0.00000000000E+00 0. -1.
          4    1    6    6  503    0  0.85263477607E+02 -0.13201602322E+03 -0.54485845448E+02  0.16633339519E+03  0.00000000000E+00 0. -1.
         -4    1    6    6    0  503  0.10815165047E+03 -0.80873951270E+02 -0.12751808938E+03  0.18573701466E+03  0.00000000000E+00 0.  1.
<mgrwt>
<rscale>  0 0.13093393E+04</rscale>
<asrwt>0</asrwt>
<pdfrwt beam="1">  1        2 0.16566860E+00 0.13093393E+04</pdfrwt>
<pdfrwt beam="2">  1       -1 0.61231870E-01 0.13093393E+04</pdfrwt>
<totfact> 0.68055816E+01</totfact>
</mgrwt>
</event>
<event>
12    7  0.2423211E-007  0.2077635E+04  0.7818608E-02  0.8571160E-01
         -1   -1    0    0    0  501 -0.00000000000E+00  0.00000000000E+00  0.75945911530E+03  0.75945911530E+03  0.00000000000E+00 0.  1.
          2   -1    0    0  501    0  0.00000000000E+00 -0.00000000000E+00 -0.14209349166E+04  0.14209349166E+04  0.00000000000E+00 0. -1.
         24    2    1    2    0    0  0.12616161913E+03  0.69009032924E+03  0.24160906536E+03  0.74629362268E+03  0.80235990266E+02 0.  0.
        254    2    1    2    0    0 -0.12616161913E+03 -0.69009032924E+03 -0.90308486667E+03  0.14341004092E+04  0.86541336404E+03 0.  0.
         23    2    4    4    0    0  0.18093299372E+02 -0.84360794153E+03 -0.54476942635E+03  0.10085961755E+04  0.92145487240E+02 0.  0.
         23    2    4    4    0    0 -0.14425491850E+03  0.15351761228E+03 -0.35831544032E+03  0.42550423374E+03  0.91031639364E+02 0.  0.
          4    1    3    3  502    0 -0.58406690682E+01  0.10832168818E+03  0.52239522615E+02  0.12040211488E+03  0.00000000000E+00 0. -1.
         -3    1    3    3    0  502  0.13200228820E+03  0.58176864106E+03  0.18936954275E+03  0.62589150780E+03  0.00000000000E+00 0.  1.
         13    1    5    5    0    0  0.40087892671E+02 -0.77948188413E+03 -0.51047884793E+03  0.93262409416E+03  0.00000000000E+00 0.  1.
        -13    1    5    5    0    0 -0.21994593299E+02 -0.64126057393E+02 -0.34290578420E+02  0.75972081316E+02  0.00000000000E+00 0. -1.
          4    1    6    6  503    0 -0.21354083043E+02  0.71637812208E+01 -0.39193515998E+01  0.22862150838E+02  0.00000000000E+00 0. -1.
         -4    1    6    6    0  503 -0.12290083546E+03  0.14635383106E+03 -0.35439608872E+03  0.40264208290E+03  0.00000000000E+00 0.  1.
<mgrwt>
<rscale>  0 0.20776352E+04</rscale>
<asrwt>0</asrwt>
<pdfrwt beam="1">  1        2 0.21860537E+00 0.20776352E+04</pdfrwt>
<pdfrwt beam="2">  1       -1 0.11683987E+00 0.20776352E+04</pdfrwt>
<totfact> 0.97843459E+00</totfact>
</mgrwt>
</event>
<event>
12    7  0.1605494E-007  0.1134682E+04  0.7818608E-02  0.9172033E-01
          2   -1    0    0  501    0  0.00000000000E+00  0.00000000000E+00  0.30177044266E+03  0.30177044266E+03  0.00000000000E+00 0. -1.
         -1   -1    0    0    0  501 -0.00000000000E+00 -0.00000000000E+00 -0.10666241089E+04  0.10666241089E+04  0.00000000000E+00 0.  1.
         24    2    1    2    0    0 -0.12891483788E+03  0.10438856548E+03 -0.14881090356E+02  0.18549131574E+03  0.81667455806E+02 0.  0.
        254    2    1    2    0    0  0.12891483788E+03 -0.10438856548E+03 -0.74997257584E+03  0.11829032358E+04  0.89960279716E+03 0.  0.
         23    2    4    4    0    0 -0.32619284691E+03  0.12015290142E+03 -0.14477933734E+03  0.38807355177E+03  0.93816480251E+02 0.  0.
         23    2    4    4    0    0  0.45510768478E+03 -0.22454146690E+03 -0.60519323850E+03  0.79482968400E+03  0.89182372351E+02 0.  0.
          4    1    3    3  502    0 -0.13976352712E+03  0.87746558452E+02 -0.13578671550E+02  0.16558285646E+03  0.00000000000E+00 0. -1.
         -3    1    3    3    0  502  0.10848689243E+02  0.16642007024E+02 -0.13024188060E+01  0.19908459278E+02  0.00000000000E+00 0.  1.
         13    1    5    5    0    0 -0.36195947686E+02  0.48171663262E+02 -0.35410213530E+02  0.69889476980E+02  0.00000000000E+00 0.  1.
        -13    1    5    5    0    0 -0.28999689922E+03  0.71981238159E+02 -0.10936912381E+03  0.31818407479E+03  0.00000000000E+00 0. -1.
          1    1    6    6  503    0  0.41929689129E+03 -0.19094497259E+03 -0.50716355662E+03  0.68518956411E+03  0.00000000000E+00 0. -1.
         -1    1    6    6    0  503  0.35810793496E+02 -0.33596494303E+02 -0.98029681877E+02  0.10964011989E+03  0.00000000000E+00 0.  1.
<mgrwt>
<rscale>  0 0.11346817E+04</rscale>
<asrwt>0</asrwt>
<pdfrwt beam="1">  1        2 0.46426223E-01 0.11346817E+04</pdfrwt>
<pdfrwt beam="2">  1       -1 0.16409601E+00 0.11346817E+04</pdfrwt>
<totfact> 0.33709433E+01</totfact>
</mgrwt>
</event>
<event>
12    7  0.1605494E-007  0.1297291E+04  0.7818608E-02  0.9031716E-01
          2   -1    0    0  501    0  0.00000000000E+00  0.00000000000E+00  0.23652866385E+04  0.23652866385E+04  0.00000000000E+00 0. -1.
         -1   -1    0    0    0  501 -0.00000000000E+00 -0.00000000000E+00 -0.17788167096E+03  0.17788167096E+03  0.00000000000E+00 0.  1.
         24    2    1    2    0    0 -0.35516594689E+02 -0.20368511213E+03  0.75897439876E+02  0.23380330546E+03  0.78450690629E+02 0.  0.
        254    2    1    2    0    0  0.35516594689E+02  0.20368511213E+03  0.21115075276E+04  0.23093650040E+04  0.91211492087E+03 0.  0.
         23    2    4    4    0    0 -0.51482792259E+02 -0.23840235856E+03  0.16310455756E+03  0.30762955831E+03  0.92448288152E+02 0.  0.
         23    2    4    4    0    0  0.86999386947E+02  0.44208747069E+03  0.19484029701E+04  0.20017354457E+04  0.87523914141E+02 0.  0.
          4    1    3    3  502    0 -0.23046232215E+02 -0.70809446573E+01  0.70305454701E+01  0.25113684839E+02  0.00000000000E+00 0. -1.
         -3    1    3    3    0  502 -0.12470362473E+02 -0.19660416747E+03  0.68866894406E+02  0.20868962062E+03  0.00000000000E+00 0.  1.
         13    1    5    5    0    0 -0.51017740485E+02 -0.18580966728E+03  0.16687126704E+03  0.25490010212E+03  0.00000000000E+00 0. -1.
        -13    1    5    5    0    0 -0.46505177404E+00 -0.52592691279E+02 -0.37667094805E+01  0.52729456184E+02  0.00000000000E+00 0.  1.
          4    1    6    6  503    0  0.90046369864E+02  0.41294960706E+03  0.17063179628E+04  0.17578841591E+04  0.00000000000E+00 0. -1.
         -4    1    6    6    0  503 -0.30469829167E+01  0.29137863631E+02  0.24208500731E+03  0.24385128658E+03  0.00000000000E+00 0.  1.
<mgrwt>
<rscale>  0 0.12972912E+04</rscale>
<asrwt>0</asrwt>
<pdfrwt beam="1">  1        2 0.36389023E+00 0.12972912E+04</pdfrwt>
<pdfrwt beam="2">  1       -1 0.27366413E-01 0.12972912E+04</pdfrwt>
<totfact> 0.55870915E+01</totfact>
</mgrwt>
</event>
<event>
12    7  0.1605494E-007  0.2904841E+04  0.7818608E-02  0.8271439E-01
          2   -1    0    0  501    0  0.00000000000E+00  0.00000000000E+00  0.12566027316E+04  0.12566027316E+04  0.00000000000E+00 0. -1.
         -1   -1    0    0    0  501 -0.00000000000E+00 -0.00000000000E+00 -0.16787531333E+04  0.16787531333E+04  0.00000000000E+00 0.  1.
         24    2    1    2    0    0  0.11584954153E+03  0.12162254775E+04  0.29476742900E+03  0.12592655187E+04  0.78970127426E+02 0.  0.
        254    2    1    2    0    0 -0.11584954153E+03 -0.12162254775E+04 -0.71691783071E+03  0.16760903463E+04  0.89592530072E+03 0.  0.
         23    2    4    4    0    0  0.46471001549E+02 -0.12322548647E+04 -0.38374356275E+03  0.12945550093E+04  0.89453588949E+02 0.  0.
         23    2    4    4    0    0 -0.16232054308E+03  0.16029387196E+02 -0.33317426797E+03  0.38153533698E+03  0.89214463915E+02 0.  0.
          2    1    3    3  502    0  0.49635224804E+02  0.46612617053E+03  0.74095883459E+02  0.47458135482E+03  0.00000000000E+00 0. -1.
         -1    1    3    3    0  502  0.66214316722E+02  0.75009930696E+03  0.22067154554E+03  0.78468416389E+03  0.00000000000E+00 0.  1.
         13    1    5    5    0    0  0.35960519683E+02 -0.28234280271E+03 -0.11800718708E+03  0.30811736955E+03  0.00000000000E+00 0.  1.
        -13    1    5    5    0    0  0.10510481867E+02 -0.94991206198E+03 -0.26573637566E+03  0.98643763973E+03  0.00000000000E+00 0. -1.
          4    1    6    6  503    0 -0.10626711729E+03  0.76394000222E+00 -0.29085468468E+03  0.30966067142E+03  0.00000000000E+00 0. -1.
         -4    1    6    6    0  503 -0.56053425786E+02  0.15265447194E+02 -0.42319583285E+02  0.71874665563E+02  0.00000000000E+00 0.  1.
<mgrwt>
<rscale>  0 0.29048413E+04</rscale>
<asrwt>0</asrwt>
<pdfrwt beam="1">  1        2 0.19332350E+00 0.29048413E+04</pdfrwt>
<pdfrwt beam="2">  1       -1 0.25826971E+00 0.29048413E+04</pdfrwt>
<totfact> 0.10608428E+00</totfact>
</mgrwt>
</event>
<event>
12    7  0.1605494E-007  0.2170128E+04  0.7818608E-02  0.8530965E-01
         -1   -1    0    0    0  501 -0.00000000000E+00  0.00000000000E+00  0.51928469433E+03  0.51928469433E+03  0.00000000000E+00 0.  1.
          2   -1    0    0  501    0  0.00000000000E+00 -0.00000000000E+00 -0.22672810606E+04  0.22672810606E+04  0.00000000000E+00 0. -1.
         24    2    1    2    0    0 -0.34023855979E+03 -0.71627366470E+03 -0.18642722433E+03  0.81839300983E+03  0.78751306336E+02 0.  0.
        254    2    1    2    0    0  0.34023855979E+03  0.71627366470E+03 -0.15615691420E+04  0.19681727451E+04  0.89799528353E+03 0.  0.
         23    2    4    4    0    0  0.23057413507E+03  0.20569891369E+03 -0.31105692927E+01  0.32190548047E+03  0.90205254031E+02 0.  0.
         23    2    4    4    0    0  0.10966442472E+03  0.51057475101E+03 -0.15584585727E+04  0.16462672647E+04  0.93219748746E+02 0.  0.
          2    1    3    3  502    0 -0.17057132720E+03 -0.34644474255E+03 -0.13083947977E+03  0.40772234028E+03  0.00000000000E+00 0. -1.
         -1    1    3    3    0  502 -0.16966723259E+03 -0.36982892216E+03 -0.55587744559E+02  0.41067066954E+03  0.00000000000E+00 0.  1.
         13    1    5    5    0    0  0.18106478153E+03  0.17893654356E+03  0.30450852876E+02  0.25637861879E+03  0.00000000000E+00 0.  1.
        -13    1    5    5    0    0  0.49509353546E+02  0.26762370131E+02 -0.33561422168E+02  0.65526861679E+02  0.00000000000E+00 0. -1.
          4    1    6    6  503    0  0.67740436375E+02  0.26725078050E+03 -0.67991001408E+03  0.73368206577E+03  0.00000000000E+00 0. -1.
         -4    1    6    6    0  503  0.41923988342E+02  0.24332397051E+03 -0.87854855861E+03  0.91258519890E+03  0.00000000000E+00 0.  1.
<mgrwt>
<rscale>  0 0.21701284E+04</rscale>
<asrwt>0</asrwt>
<pdfrwt beam="1">  1        2 0.34881246E+00 0.21701284E+04</pdfrwt>
<pdfrwt beam="2">  1       -1 0.79889954E-01 0.21701284E+04</pdfrwt>
<totfact> 0.77188470E+00</totfact>
</mgrwt>
</event>
<event>
12    7  0.1605494E-007  0.1113511E+04  0.7818608E-02  0.9192122E-01
          2   -1    0    0  501    0  0.00000000000E+00  0.00000000000E+00  0.63964858556E+03  0.63964858556E+03  0.00000000000E+00 0. -1.
         -1   -1    0    0    0  501 -0.00000000000E+00 -0.00000000000E+00 -0.48460506839E+03  0.48460506839E+03  0.00000000000E+00 0.  1.
         24    2    1    2    0    0  0.17688959777E+03 -0.54256801598E+02  0.40024804880E+02  0.20553641467E+03  0.80059368161E+02 0.  0.
        254    2    1    2    0    0 -0.17688959777E+03  0.54256801598E+02  0.11501871229E+03  0.91871723929E+03  0.89251237037E+03 0.  0.
         23    2    4    4    0    0  0.14160506103E+03  0.77172577779E+02 -0.32056066886E+03  0.37080977615E+03  0.93451311377E+02 0.  0.
         23    2    4    4    0    0 -0.31849465880E+03 -0.22915776181E+02  0.43557938115E+03  0.54790746313E+03  0.92245381388E+02 0.  0.
          2    1    3    3  502    0  0.88431977133E+02 -0.38521057228E+02  0.59865876110E+02  0.11352536964E+03  0.00000000000E+00 0. -1.
         -1    1    3    3    0  502  0.88457620636E+02 -0.15735744369E+02 -0.19841071230E+02  0.92011045027E+02  0.00000000000E+00 0.  1.
         13    1    5    5    0    0  0.13253206833E+03  0.38313925882E+02 -0.28788593660E+03  0.31923505219E+03  0.00000000000E+00 0. -1.
        -13    1    5    5    0    0  0.90729927003E+01  0.38858651896E+02 -0.32674732263E+02  0.51574723966E+02  0.00000000000E+00 0.  1.
          4    1    6    6  503    0 -0.30554022752E+03 -0.24722267464E+01  0.38240252029E+03  0.48948200178E+03  0.00000000000E+00 0. -1.
         -4    1    6    6    0  503 -0.12954431278E+02 -0.20443549435E+02  0.53176860865E+02  0.58425461356E+02  0.00000000000E+00 0.  1.
<mgrwt>
<rscale>  0 0.11135115E+04</rscale>
<asrwt>0</asrwt>
<pdfrwt beam="1">  1        2 0.98407475E-01 0.11135115E+04</pdfrwt>
<pdfrwt beam="2">  1       -1 0.74554626E-01 0.11135115E+04</pdfrwt>
<totfact> 0.94154334E+01</totfact>
</mgrwt>
</event>
<event>
12    7  0.1605494E-007  0.3262253E+04  0.7818608E-02  0.8172567E-01
          2   -1    0    0  501    0  0.00000000000E+00  0.00000000000E+00  0.20942154646E+04  0.20942154646E+04  0.00000000000E+00 0. -1.
         -1   -1    0    0    0  501 -0.00000000000E+00 -0.00000000000E+00 -0.12704395743E+04  0.12704395743E+04  0.00000000000E+00 0.  1.
         24    2    1    2    0    0 -0.88691200745E+03  0.64448810851E+03  0.14476866587E+04  0.18177907468E+04  0.81170846987E+02 0.  0.
        254    2    1    2    0    0  0.88691200745E+03 -0.64448810851E+03 -0.62391076841E+03  0.15468642921E+04  0.89529138284E+03 0.  0.
         23    2    4    4    0    0  0.51623747596E+03  0.39465879810E+02  0.29657737962E+02  0.52665244085E+03  0.91785210020E+02 0.  0.
         23    2    4    4    0    0  0.37067453149E+03 -0.68395398832E+03 -0.65356850637E+03  0.10202118512E+04  0.92129053103E+02 0.  0.
          2    1    3    3  502    0 -0.70592441117E+03  0.52769737678E+03  0.11116832938E+04  0.14186731623E+04  0.00000000000E+00 0. -1.
         -1    1    3    3    0  502 -0.18098759628E+03  0.11679073173E+03  0.33600336488E+03  0.39911758448E+03  0.00000000000E+00 0.  1.
         13    1    5    5    0    0  0.43498022551E+03  0.66475997005E+02  0.29580191470E+02  0.44102363031E+03  0.00000000000E+00 0.  1.
        -13    1    5    5    0    0  0.81257250454E+02 -0.27010117195E+02  0.77546492415E-01  0.85628810547E+02  0.00000000000E+00 0. -1.
          1    1    6    6  503    0  0.53820446913E+02 -0.17305293172E+03 -0.13040401724E+03  0.22326926657E+03  0.00000000000E+00 0. -1.
         -1    1    6    6    0  503  0.31685408458E+03 -0.51090105660E+03 -0.52316448913E+03  0.79694258466E+03  0.00000000000E+00 0.  1.
<mgrwt>
<rscale>  0 0.32622533E+04</rscale>
<asrwt>0</asrwt>
<pdfrwt beam="1">  1        2 0.32218699E+00 0.32622533E+04</pdfrwt>
<pdfrwt beam="2">  1       -1 0.19545224E+00 0.32622533E+04</pdfrwt>
<totfact> 0.91279205E-01</totfact>
</mgrwt>
</event>
<event>
12    7  0.1605494E-007  0.1571301E+04  0.7818608E-02  0.8838376E-01
         -1   -1    0    0    0  501 -0.00000000000E+00  0.00000000000E+00  0.23730625596E+03  0.23730625596E+03  0.00000000000E+00 0.  1.
          2   -1    0    0  501    0  0.00000000000E+00 -0.00000000000E+00 -0.26010543245E+04  0.26010543245E+04  0.00000000000E+00 0. -1.
         24    2    1    2    0    0  0.45947152385E+03  0.63065738545E+02 -0.12070800277E+04  0.12955549160E+04  0.79554876453E+02 0.  0.
        254    2    1    2    0    0 -0.45947152385E+03 -0.63065738545E+02 -0.11566680409E+04  0.15428056645E+04  0.90954768603E+03 0.  0.
         23    2    4    4    0    0 -0.52001642734E+03  0.23095401017E+03 -0.10731573065E+04  0.12177066366E+04  0.85941891056E+02 0.  0.
         23    2    4    4    0    0  0.60544903490E+02 -0.29401974872E+03 -0.83510734304E+02  0.32509902795E+03  0.92747168472E+02 0.  0.
          2    1    3    3  502    0  0.46028231552E+03  0.58561418159E+02 -0.12031621147E+04  0.12895302726E+04  0.00000000000E+00 0. -1.
         -1    1    3    3    0  502 -0.81079166691E+00  0.45043203857E+01 -0.39179129684E+01  0.60246433332E+01  0.00000000000E+00 0.  1.
         13    1    5    5    0    0 -0.20383382689E+03  0.13505711112E+03 -0.43079006624E+03  0.49534708379E+03  0.00000000000E+00 0. -1.
        -13    1    5    5    0    0 -0.31618260045E+03  0.95896899052E+02 -0.64236724031E+03  0.72235955279E+03  0.00000000000E+00 0.  1.
          2    1    6    6  503    0  0.33152578497E+02 -0.27917185075E+03 -0.85585861814E+02  0.29387234550E+03  0.00000000000E+00 0. -1.
         -2    1    6    6    0  503  0.27392324993E+02 -0.14847897969E+02  0.20751275100E+01  0.31226682450E+02  0.00000000000E+00 0.  1.
<mgrwt>
<rscale>  0 0.15713007E+04</rscale>
<asrwt>0</asrwt>
<pdfrwt beam="1">  1        2 0.40016222E+00 0.15713007E+04</pdfrwt>
<pdfrwt beam="2">  1       -1 0.36508653E-01 0.15713007E+04</pdfrwt>
<totfact> 0.23989745E+01</totfact>
</mgrwt>
</event>
<event>
12    7  0.1605494E-007  0.1738281E+04  0.7818608E-02  0.8739828E-01
         -1   -1    0    0    0  501 -0.00000000000E+00  0.00000000000E+00  0.97513704077E+03  0.97513704077E+03  0.00000000000E+00 0.  1.
          2   -1    0    0  501    0  0.00000000000E+00 -0.00000000000E+00 -0.77466568919E+03  0.77466568919E+03  0.00000000000E+00 0. -1.
         24    2    1    2    0    0 -0.40623616827E+03 -0.21847446730E+03 -0.36192850214E+03  0.59165955033E+03  0.79434662183E+02 0.  0.
        254    2    1    2    0    0  0.40623616827E+03  0.21847446730E+03  0.56239985372E+03  0.11581431796E+04  0.90124531165E+03 0.  0.
         23    2    4    4    0    0  0.22577933744E+03 -0.28853500448E+03  0.61957305167E+01  0.37763411564E+03  0.91325682022E+02 0.  0.
         23    2    4    4    0    0  0.18045683083E+03  0.50700947178E+03  0.55620412320E+03  0.78050906398E+03  0.10103514254E+03 0.  0.
          2    1    3    3  502    0 -0.32085264761E+03 -0.19728118183E+03 -0.31986797603E+03  0.49414755719E+03  0.00000000000E+00 0. -1.
         -1    1    3    3    0  502 -0.85383520661E+02 -0.21193285469E+02 -0.42060526112E+02  0.97511993141E+02  0.00000000000E+00 0.  1.
         13    1    5    5    0    0  0.78071138748E+02 -0.45118262844E+02  0.20779160019E+02  0.92533960461E+02  0.00000000000E+00 0. -1.
        -13    1    5    5    0    0  0.14770819869E+03 -0.24341674163E+03 -0.14583429503E+02  0.28510015518E+03  0.00000000000E+00 0.  1.
          4    1    6    6  503    0  0.11838195791E+02  0.13026545305E+02 -0.18971845921E+00  0.17603117771E+02  0.00000000000E+00 0. -1.
         -4    1    6    6    0  503  0.16861863504E+03  0.49398292647E+03  0.55639384166E+03  0.76290594621E+03  0.00000000000E+00 0.  1.
<mgrwt>
<rscale>  0 0.17382810E+04</rscale>
<asrwt>0</asrwt>
<pdfrwt beam="1">  1        2 0.11917934E+00 0.17382810E+04</pdfrwt>
<pdfrwt beam="2">  1       -1 0.15002108E+00 0.17382810E+04</pdfrwt>
<totfact> 0.13579353E+01</totfact>
</mgrwt>
</event>
<event>
12    7  0.1605494E-007  0.1598359E+04  0.7818608E-02  0.8821557E-01
         -1   -1    0    0    0  501 -0.00000000000E+00  0.00000000000E+00  0.25225280574E+03  0.25225280574E+03  0.00000000000E+00 0.  1.
          2   -1    0    0  501    0  0.00000000000E+00 -0.00000000000E+00 -0.25319357871E+04  0.25319357871E+04  0.00000000000E+00 0. -1.
         24    2    1    2    0    0 -0.24670829197E+02  0.46224341205E+03 -0.12491424019E+04  0.13345166194E+04  0.79374085313E+02 0.  0.
        254    2    1    2    0    0  0.24670829197E+02 -0.46224341205E+03 -0.10305405795E+04  0.14496719735E+04  0.90843674680E+03 0.  0.
         23    2    4    4    0    0  0.27400009949E+03  0.12619494425E+03 -0.58779669944E+03  0.66695980434E+03  0.91264463242E+02 0.  0.
         23    2    4    4    0    0 -0.24932927030E+03 -0.58843835630E+03 -0.44274388010E+03  0.78271216919E+03  0.90506420943E+02 0.  0.
          4    1    3    3  502    0 -0.28606370336E+02  0.27654952225E+03 -0.64241443072E+03  0.69999590247E+03  0.00000000000E+00 0. -1.
         -3    1    3    3    0  502  0.39355411390E+01  0.18569388980E+03 -0.60672797114E+03  0.63452071688E+03  0.00000000000E+00 0.  1.
         13    1    5    5    0    0  0.17289078270E+03  0.78162565786E+02 -0.26980623078E+03  0.32984240419E+03  0.00000000000E+00 0.  1.
        -13    1    5    5    0    0  0.10110931679E+03  0.48032378469E+02 -0.31799046866E+03  0.33711740015E+03  0.00000000000E+00 0. -1.
          3    1    6    6  503    0 -0.21130574079E+03 -0.54784471757E+03 -0.38281808026E+03  0.70095194788E+03  0.00000000000E+00 0. -1.
         -3    1    6    6    0  503 -0.38023529507E+02 -0.40593638730E+02 -0.59925799843E+02  0.81760221308E+02  0.00000000000E+00 0.  1.
<mgrwt>
<rscale>  0 0.15983590E+04</rscale>
<asrwt>0</asrwt>
<pdfrwt beam="1">  1        2 0.38952858E+00 0.15983590E+04</pdfrwt>
<pdfrwt beam="2">  1       -1 0.38808125E-01 0.15983590E+04</pdfrwt>
<totfact> 0.23505129E+01</totfact>
</mgrwt>
</event>
<event>
12    7  0.1605494E-007  0.1625426E+04  0.7818608E-02  0.8805078E-01
          2   -1    0    0  501    0  0.00000000000E+00  0.00000000000E+00  0.55823845531E+03  0.55823845531E+03  0.00000000000E+00 0. -1.
         -3   -1    0    0    0  501 -0.00000000000E+00 -0.00000000000E+00 -0.11831910540E+04  0.11831910540E+04  0.00000000000E+00 0.  1.
         24    2    1    2    0    0  0.40701569069E+03  0.17406159969E+03 -0.59152225573E+03  0.74313823763E+03  0.79979048863E+02 0.  0.
        254    2    1    2    0    0 -0.40701569069E+03 -0.17406159969E+03 -0.33430342922E+02  0.99829127164E+03  0.89415248266E+03 0.  0.
         23    2    4    4    0    0 -0.65431745438E+03 -0.21470722232E+03  0.97263167275E+02  0.70131684320E+03  0.90303202720E+02 0.  0.
         23    2    4    4    0    0  0.24730176369E+03  0.40645622629E+02 -0.13069351020E+03  0.29697442844E+03  0.91119638814E+02 0.  0.
          4    1    3    3  502    0  0.89737929688E+01  0.93704534819E+01 -0.21918676360E+01  0.13158215777E+02  0.00000000000E+00 0. -1.
         -3    1    3    3    0  502  0.39804189772E+03  0.16469114621E+03 -0.58933038809E+03  0.72998002186E+03  0.00000000000E+00 0.  1.
         13    1    5    5    0    0 -0.24055925563E+03 -0.12186507742E+03  0.54511544469E+02  0.27512062999E+03  0.00000000000E+00 0. -1.
        -13    1    5    5    0    0 -0.41375819875E+03 -0.92842144900E+02  0.42751622806E+02  0.42619621321E+03  0.00000000000E+00 0.  1.
          4    1    6    6  503    0 -0.26335027598E+01 -0.77494171219E+01  0.38338552319E+01  0.90380998255E+01  0.00000000000E+00 0. -1.
         -4    1    6    6    0  503  0.24993526645E+03  0.48395039751E+02 -0.13452736543E+03  0.28793632862E+03  0.00000000000E+00 0.  1.
<mgrwt>
<rscale>  0 0.16254264E+04</rscale>
<asrwt>0</asrwt>
<pdfrwt beam="1">  1        2 0.85882839E-01 0.16254264E+04</pdfrwt>
<pdfrwt beam="2">  1       -3 0.18202939E+00 0.16254264E+04</pdfrwt>
<totfact> 0.62164795E+00</totfact>
</mgrwt>
</event>
<event>
12    7  0.1605494E-007  0.1433755E+04  0.7818608E-02  0.8929741E-01
          2   -1    0    0  501    0  0.00000000000E+00  0.00000000000E+00  0.40935232273E+04  0.40935232273E+04  0.00000000000E+00 0. -1.
         -1   -1    0    0    0  501 -0.00000000000E+00 -0.00000000000E+00 -0.12554299712E+03  0.12554299712E+03  0.00000000000E+00 0.  1.
         24    2    1    2    0    0  0.34128206667E+03 -0.16027132030E+03  0.82122787508E+03  0.90722336934E+03  0.80490210073E+02 0.  0.
        254    2    1    2    0    0 -0.34128206667E+03  0.16027132030E+03  0.31467523551E+04  0.33118428551E+04  0.96129723152E+03 0.  0.
         23    2    4    4    0    0  0.39116071782E+02 -0.25752451754E+03  0.29782832892E+03  0.40594483114E+03  0.90777465359E+02 0.  0.
         23    2    4    4    0    0 -0.38039813846E+03  0.41779583783E+03  0.28489240262E+04  0.29058980240E+04  0.92839176972E+02 0.  0.
          2    1    3    3  502    0  0.19842198424E+03 -0.13228064008E+03  0.54781027120E+03  0.59746593610E+03  0.00000000000E+00 0. -1.
         -1    1    3    3    0  502  0.14286008243E+03 -0.27990680214E+02  0.27341760388E+03  0.30975743324E+03  0.00000000000E+00 0.  1.
         13    1    5    5    0    0  0.19366250106E+01 -0.12139735221E+02  0.63284470405E+02  0.64467417213E+02  0.00000000000E+00 0.  1.
        -13    1    5    5    0    0  0.37179446772E+02 -0.24538478232E+03  0.23454385851E+03  0.34147741393E+03  0.00000000000E+00 0. -1.
          2    1    6    6  503    0 -0.32373200291E+03  0.34339373082E+03  0.25258199192E+04  0.25695306825E+04  0.00000000000E+00 0. -1.
         -2    1    6    6    0  503 -0.56666135551E+02  0.74402107011E+02  0.32310410699E+03  0.33636734146E+03  0.00000000000E+00 0.  1.
<mgrwt>
<rscale>  0 0.14337548E+04</rscale>
<asrwt>0</asrwt>
<pdfrwt beam="1">  1        2 0.62977270E+00 0.14337548E+04</pdfrwt>
<pdfrwt beam="2">  1       -1 0.19314310E-01 0.14337548E+04</pdfrwt>
<totfact> 0.70716850E+00</totfact>
</mgrwt>
</event>
<event>
12    7  0.1605494E-007  0.1790889E+04  0.7818608E-02  0.8711160E-01
         -1   -1    0    0    0  501 -0.00000000000E+00  0.00000000000E+00  0.12714177345E+04  0.12714177345E+04  0.00000000000E+00 0.  1.
          2   -1    0    0  501    0  0.00000000000E+00 -0.00000000000E+00 -0.63065081402E+03  0.63065081402E+03  0.00000000000E+00 0. -1.
         24    2    1    2    0    0 -0.63967542787E+03  0.18314154215E+03  0.32094136504E+03  0.74331469413E+03  0.82388696093E+02 0.  0.
        254    2    1    2    0    0  0.63967542787E+03 -0.18314154215E+03  0.31982555542E+03  0.11587538544E+04  0.89313864077E+03 0.  0.
         23    2    4    4    0    0  0.41834696297E+03 -0.26959214838E+03  0.59781317297E+03  0.78323244359E+03  0.91533398420E+02 0.  0.
         23    2    4    4    0    0  0.22132846489E+03  0.86450606230E+02 -0.27798761754E+03  0.37552141077E+03  0.85318331873E+02 0.  0.
          4    1    3    3  502    0 -0.24351501348E+03  0.41328330786E+02  0.86965617851E+02  0.26185990797E+03  0.00000000000E+00 0. -1.
         -3    1    3    3    0  502 -0.39616041439E+03  0.14181321136E+03  0.23397574718E+03  0.48145478616E+03  0.00000000000E+00 0.  1.
         13    1    5    5    0    0  0.11533551429E+03 -0.12248408064E+03  0.22227810644E+03  0.27876905759E+03  0.00000000000E+00 0. -1.
        -13    1    5    5    0    0  0.30301144868E+03 -0.14710806774E+03  0.37553506653E+03  0.50446338601E+03  0.00000000000E+00 0.  1.
          2    1    6    6  503    0  0.47174291553E+02  0.65537787347E+01 -0.14604452019E+02  0.49816220430E+02  0.00000000000E+00 0. -1.
         -2    1    6    6    0  503  0.17415417334E+03  0.79896827495E+02 -0.26338316553E+03  0.32570519034E+03  0.00000000000E+00 0.  1.
<mgrwt>
<rscale>  0 0.17908888E+04</rscale>
<asrwt>0</asrwt>
<pdfrwt beam="1">  1        2 0.97023202E-01 0.17908888E+04</pdfrwt>
<pdfrwt beam="2">  1       -1 0.19560273E+00 0.17908888E+04</pdfrwt>
<totfact> 0.81292357E+00</totfact>
</mgrwt>
</event>
<event>
12    7  0.1605494E-007  0.1724416E+04  0.7818608E-02  0.8747560E-01
         -1   -1    0    0    0  501 -0.00000000000E+00  0.00000000000E+00  0.57933094062E+03  0.57933094062E+03  0.00000000000E+00 0.  1.
          2   -1    0    0  501    0  0.00000000000E+00 -0.00000000000E+00 -0.12832086970E+04  0.12832086970E+04  0.00000000000E+00 0. -1.
         24    2    1    2    0    0  0.27424661309E+03 -0.56313379183E+03 -0.23348693016E+03  0.67310634364E+03  0.78899499328E+02 0.  0.
        254    2    1    2    0    0 -0.27424661309E+03  0.56313379183E+03 -0.47039082620E+03  0.11894332940E+04  0.89507159441E+03 0.  0.
         23    2    4    4    0    0 -0.20717104337E+03  0.54911853161E+03  0.10475823143E+03  0.60296493703E+03  0.90229846908E+02 0.  0.
         23    2    4    4    0    0 -0.67075569725E+02  0.14015260227E+02 -0.57514905763E+03  0.58646835693E+03  0.91940935499E+02 0.  0.
          2    1    3    3  502    0  0.13852260385E+03 -0.24188901782E+03 -0.14065830352E+03  0.31222358506E+03  0.00000000000E+00 0. -1.
         -1    1    3    3    0  502  0.13572400924E+03 -0.32124477401E+03 -0.92828626647E+02  0.36088275858E+03  0.00000000000E+00 0.  1.
         13    1    5    5    0    0 -0.14331580900E+03  0.47402428517E+03  0.88407110984E+02  0.50304498935E+03  0.00000000000E+00 0. -1.
        -13    1    5    5    0    0 -0.63855234372E+02  0.75094246438E+02  0.16351120447E+02  0.99919947682E+02  0.00000000000E+00 0.  1.
          3    1    6    6  503    0 -0.83857238173E+02 -0.74030381772E+00 -0.52375885926E+03  0.53042994552E+03  0.00000000000E+00 0. -1.
         -3    1    6    6    0  503  0.16781668448E+02  0.14755564044E+02 -0.51390198364E+02  0.56038411416E+02  0.00000000000E+00 0.  1.
<mgrwt>
<rscale>  0 0.17244158E+04</rscale>
<asrwt>0</asrwt>
<pdfrwt beam="1">  1        2 0.19741672E+00 0.17244158E+04</pdfrwt>
<pdfrwt beam="2">  1       -1 0.89127838E-01 0.17244158E+04</pdfrwt>
<totfact> 0.22597821E+01</totfact>
</mgrwt>
</event>
<event>
12    7  0.1605494E-007  0.1154307E+04  0.7818608E-02  0.9153820E-01
          2   -1    0    0  501    0  0.00000000000E+00  0.00000000000E+00  0.66965819352E+03  0.66965819352E+03  0.00000000000E+00 0. -1.
         -1   -1    0    0    0  501 -0.00000000000E+00 -0.00000000000E+00 -0.49742675040E+03  0.49742675040E+03  0.00000000000E+00 0.  1.
         24    2    1    2    0    0 -0.92416759017E+02  0.11347684944E+03  0.19491421557E+03  0.25655170394E+03  0.80058557683E+02 0.  0.
        254    2    1    2    0    0  0.92416759017E+02 -0.11347684944E+03 -0.22682772453E+02  0.91053323998E+03  0.89840882689E+03 0.  0.
         23    2    4    4    0    0  0.10982141254E+03 -0.45240842275E+03  0.17824847292E+03  0.50553959635E+03  0.84045474290E+02 0.  0.
         23    2    4    4    0    0 -0.17404653527E+02  0.33893157331E+03 -0.20093124537E+03  0.40499364363E+03  0.92026912732E+02 0.  0.
          4    1    3    3  502    0 -0.60085964902E+02  0.76093972421E+02  0.18079165354E+03  0.20514930613E+03  0.00000000000E+00 0. -1.
         -3    1    3    3    0  502 -0.32330794115E+02  0.37382877018E+02  0.14122562030E+02  0.51402397809E+02  0.00000000000E+00 0.  1.
         13    1    5    5    0    0  0.60218351783E+01 -0.20012283380E+03  0.71654118200E+02  0.21264929758E+03  0.00000000000E+00 0.  1.
        -13    1    5    5    0    0  0.10379957737E+03 -0.25228558896E+03  0.10659435472E+03  0.29289029877E+03  0.00000000000E+00 0. -1.
          4    1    6    6  503    0 -0.47093845268E+02  0.99207066582E+02 -0.70081339599E+02  0.13027381349E+03  0.00000000000E+00 0. -1.
         -4    1    6    6    0  503  0.29689191742E+02  0.23972450673E+03 -0.13084990577E+03  0.27471983014E+03  0.00000000000E+00 0.  1.
<mgrwt>
<rscale>  0 0.11543065E+04</rscale>
<asrwt>0</asrwt>
<pdfrwt beam="1">  1        2 0.10302434E+00 0.11543065E+04</pdfrwt>
<pdfrwt beam="2">  1       -1 0.76527192E-01 0.11543065E+04</pdfrwt>
<totfact> 0.83976712E+01</totfact>
</mgrwt>
</event>
<event>
12    7  0.1605494E-007  0.1408479E+04  0.7818608E-02  0.8947704E-01
          2   -1    0    0  501    0  0.00000000000E+00  0.00000000000E+00  0.17661118557E+04  0.17661118557E+04  0.00000000000E+00 0. -1.
         -1   -1    0    0    0  501 -0.00000000000E+00 -0.00000000000E+00 -0.28081649463E+03  0.28081649463E+03  0.00000000000E+00 0.  1.
         24    2    1    2    0    0 -0.38879326605E+03 -0.12794420797E+03  0.39981519922E+03  0.57789384379E+03  0.81112126666E+02 0.  0.
        254    2    1    2    0    0  0.38879326605E+03  0.12794420797E+03  0.10854801619E+04  0.14690345065E+04  0.90125760775E+03 0.  0.
         23    2    4    4    0    0  0.32840263756E+03 -0.13182040890E+02 -0.26723382605E+02  0.34248562932E+03  0.92521395121E+02 0.  0.
         23    2    4    4    0    0  0.60390628495E+02  0.14112624886E+03  0.11122035445E+04  0.11265488772E+04  0.92477036652E+02 0.  0.
          4    1    3    3  502    0 -0.13891128828E+03 -0.57534297094E+01  0.12806770438E+03  0.18902588413E+03  0.00000000000E+00 0. -1.
         -3    1    3    3    0  502 -0.24988197777E+03 -0.12219077826E+03  0.27174749483E+03  0.38886795967E+03  0.00000000000E+00 0.  1.
         13    1    5    5    0    0  0.23097385665E+03 -0.81809400169E+01  0.24297615997E+02  0.23239239312E+03  0.00000000000E+00 0.  1.
        -13    1    5    5    0    0  0.97428780904E+02 -0.50011008729E+01 -0.51020998601E+02  0.11009323620E+03  0.00000000000E+00 0. -1.
          3    1    6    6  503    0  0.43074316965E+02  0.15104810067E+03  0.10328129273E+04  0.10446882159E+04  0.00000000000E+00 0. -1.
         -3    1    6    6    0  503  0.17316311530E+02 -0.99218518129E+01  0.79390617150E+02  0.81860661370E+02  0.00000000000E+00 0.  1.
<mgrwt>
<rscale>  0 0.14084791E+04</rscale>
<asrwt>0</asrwt>
<pdfrwt beam="1">  1        2 0.27170951E+00 0.14084791E+04</pdfrwt>
<pdfrwt beam="2">  1       -1 0.43202539E-01 0.14084791E+04</pdfrwt>
<totfact> 0.52764110E+01</totfact>
</mgrwt>
</event>
<event>
12    7  0.1605494E-007  0.1373557E+04  0.7818608E-02  0.8973185E-01
         -1   -1    0    0    0  501 -0.00000000000E+00  0.00000000000E+00  0.88248479661E+03  0.88248479661E+03  0.00000000000E+00 0.  1.
          2   -1    0    0  501    0  0.00000000000E+00 -0.00000000000E+00 -0.53447381842E+03  0.53447381842E+03  0.00000000000E+00 0. -1.
         24    2    1    2    0    0 -0.22760363221E+03 -0.23520809996E+03 -0.13493456791E+03  0.36295916237E+03  0.80035943472E+02 0.  0.
        254    2    1    2    0    0  0.22760363221E+03  0.23520809996E+03  0.48294554610E+03  0.10539994527E+04  0.87781101726E+03 0.  0.
         23    2    4    4    0    0 -0.15165921215E+03  0.45198740748E+03  0.30735334427E+03  0.57460290942E+03  0.91702192651E+02 0.  0.
         23    2    4    4    0    0  0.37926284436E+03 -0.21677930751E+03  0.17559220183E+03  0.47939654324E+03  0.90304213891E+02 0.  0.
          2    1    3    3  502    0 -0.18919907214E+03 -0.21509207384E+03 -0.14082626367E+03  0.31920671307E+03  0.00000000000E+00 0. -1.
         -3    1    3    3    0  502 -0.38404560064E+02 -0.20116026123E+02  0.58916957610E+01  0.43752449299E+02  0.00000000000E+00 0.  1.
         13    1    5    5    0    0 -0.65271762483E+02  0.12969161042E+03  0.51226639289E+02  0.15396261028E+03  0.00000000000E+00 0. -1.
        -13    1    5    5    0    0 -0.86387449666E+02  0.32229579705E+03  0.25612670498E+03  0.42064029914E+03  0.00000000000E+00 0.  1.
          3    1    6    6  503    0  0.30250285879E+02  0.73258522168E+01  0.87701467386E+01  0.32336718761E+02  0.00000000000E+00 0. -1.
         -3    1    6    6    0  503  0.34901255848E+03 -0.22410515973E+03  0.16682205510E+03  0.44705982448E+03  0.00000000000E+00 0.  1.
<mgrwt>
<rscale>  0 0.13735575E+04</rscale>
<asrwt>0</asrwt>
<pdfrwt beam="1">  1        2 0.82226741E-01 0.13735575E+04</pdfrwt>
<pdfrwt beam="2">  1       -1 0.13576689E+00 0.13735575E+04</pdfrwt>
<totfact> 0.28828496E+01</totfact>
</mgrwt>
</event>
<event>
12    7  0.1605494E-007  0.1947539E+04  0.7818608E-02  0.8631549E-01
          2   -1    0    0  501    0  0.00000000000E+00  0.00000000000E+00  0.21379156802E+04  0.21379156802E+04  0.00000000000E+00 0. -1.
         -1   -1    0    0    0  501 -0.00000000000E+00 -0.00000000000E+00 -0.44352858412E+03  0.44352858412E+03  0.00000000000E+00 0.  1.
         24    2    1    2    0    0  0.43448845581E+03 -0.53017470262E+03  0.11196553724E+04  0.13152613681E+04  0.80117912668E+02 0.  0.
        254    2    1    2    0    0 -0.43448845581E+03  0.53017470262E+03  0.57473172370E+03  0.12661828962E+04  0.89612339494E+03 0.  0.
         23    2    4    4    0    0 -0.38806420295E+03  0.15864067422E+02 -0.10066974019E+03  0.41125509856E+03  0.90282142491E+02 0.  0.
         23    2    4    4    0    0 -0.46424252861E+02  0.51431063520E+03  0.67540146389E+03  0.85492779768E+03  0.89798446960E+02 0.  0.
          2    1    3    3  502    0  0.26026811806E+03 -0.29706025677E+03  0.71490486344E+03  0.81674552537E+03  0.00000000000E+00 0. -1.
         -1    1    3    3    0  502  0.17422033775E+03 -0.23311444586E+03  0.40475050892E+03  0.49851584270E+03  0.00000000000E+00 0.  1.
         13    1    5    5    0    0  0.39203208021E+01 -0.45717397559E+01 -0.31895091705E+01  0.68148872578E+01  0.00000000000E+00 0.  1.
        -13    1    5    5    0    0 -0.39198452375E+03  0.20435807177E+02 -0.97480231022E+02  0.40444021130E+03  0.00000000000E+00 0. -1.
          3    1    6    6  503    0 -0.54424348587E+02  0.41920914776E+03  0.59647782933E+03  0.73108420866E+03  0.00000000000E+00 0. -1.
         -3    1    6    6    0  503  0.80000957262E+01  0.95101487447E+02  0.78923634565E+02  0.12384358901E+03  0.00000000000E+00 0.  1.
<mgrwt>
<rscale>  0 0.19475387E+04</rscale>
<asrwt>0</asrwt>
<pdfrwt beam="1">  1        2 0.32891010E+00 0.19475387E+04</pdfrwt>
<pdfrwt beam="2">  1       -1 0.68235168E-01 0.19475387E+04</pdfrwt>
<totfact> 0.12923636E+01</totfact>
</mgrwt>
</event>
<event>
12    7  0.1605494E-007  0.2410466E+04  0.7818608E-02  0.8435595E-01
          2   -1    0    0  501    0  0.00000000000E+00  0.00000000000E+00  0.16691592316E+04  0.16691592316E+04  0.00000000000E+00 0. -1.
         -1   -1    0    0    0  501 -0.00000000000E+00 -0.00000000000E+00 -0.87025078014E+03  0.87025078014E+03  0.00000000000E+00 0.  1.
         24    2    1    2    0    0 -0.67823219550E+03 -0.33547658598E+03  0.10718145563E+04  0.13144363451E+04  0.80081280095E+02 0.  0.
        254    2    1    2    0    0  0.67823219550E+03  0.33547658598E+03 -0.27290610482E+03  0.12249736667E+04  0.92387190197E+03 0.  0.
         23    2    4    4    0    0 -0.14093627986E+03  0.28825792867E+03  0.54239422595E+02  0.33696171851E+03  0.87439215226E+02 0.  0.
         23    2    4    4    0    0  0.81916847536E+03  0.47218657315E+02 -0.32714552742E+03  0.88801194817E+03  0.90963901384E+02 0.  0.
          2    1    3    3  502    0 -0.27303105435E+03 -0.15886382020E+03  0.39003502231E+03  0.50190735065E+03  0.00000000000E+00 0. -1.
         -1    1    3    3    0  502 -0.40520114115E+03 -0.17661276578E+03  0.68177953398E+03  0.81252899442E+03  0.00000000000E+00 0.  1.
         13    1    5    5    0    0 -0.34345624352E+02  0.29128930868E+02 -0.16521404340E+02  0.47969504135E+02  0.00000000000E+00 0.  1.
        -13    1    5    5    0    0 -0.10659065550E+03  0.25912899780E+03  0.70760826935E+02  0.28899221438E+03  0.00000000000E+00 0. -1.
          1    1    6    6  503    0  0.76701409243E+03  0.26138730655E+02 -0.28912088291E+03  0.82011263627E+03  0.00000000000E+00 0. -1.
         -1    1    6    6    0  503  0.52154382928E+02  0.21079926660E+02 -0.38024644507E+02  0.67899311900E+02  0.00000000000E+00 0.  1.
<mgrwt>
<rscale>  0 0.24104664E+04</rscale>
<asrwt>0</asrwt>
<pdfrwt beam="1">  1        2 0.25679373E+00 0.24104664E+04</pdfrwt>
<pdfrwt beam="2">  1       -1 0.13388474E+00 0.24104664E+04</pdfrwt>
<totfact> 0.49114528E+00</totfact>
</mgrwt>
</event>
<event>
12    7  0.1605494E-007  0.1182275E+04  0.7818608E-02  0.9128514E-01
          2   -1    0    0  501    0  0.00000000000E+00  0.00000000000E+00  0.11053181337E+04  0.11053181337E+04  0.00000000000E+00 0. -1.
         -1   -1    0    0    0  501 -0.00000000000E+00 -0.00000000000E+00 -0.31614744932E+03  0.31614744932E+03  0.00000000000E+00 0.  1.
         24    2    1    2    0    0 -0.69134564130E+02 -0.21866097692E+03  0.90905024064E+02  0.25909403299E+03  0.79207220299E+02 0.  0.
        254    2    1    2    0    0  0.69134564130E+02  0.21866097692E+03  0.69826566029E+03  0.11623715500E+04  0.90052233571E+03 0.  0.
         23    2    4    4    0    0  0.17853874322E+03 -0.27310381385E+03  0.51908084253E+03  0.61960679662E+03  0.89475613287E+02 0.  0.
         23    2    4    4    0    0 -0.10940417909E+03  0.49176479077E+03  0.17918481776E+03  0.54276475338E+03  0.93190636615E+02 0.  0.
          2    1    3    3  502    0 -0.33032569721E+02 -0.18109580274E+02  0.51953691672E+01  0.38027613925E+02  0.00000000000E+00 0. -1.
         -1    1    3    3    0  502 -0.36101994409E+02 -0.20055139665E+03  0.85709654897E+02  0.22106641907E+03  0.00000000000E+00 0.  1.
         13    1    5    5    0    0  0.14388885860E+03 -0.24823236757E+03  0.49053034066E+03  0.56828102823E+03  0.00000000000E+00 0. -1.
        -13    1    5    5    0    0  0.34649884620E+02 -0.24871446276E+02  0.28550501867E+02  0.51325768391E+02  0.00000000000E+00 0.  1.
          3    1    6    6  503    0 -0.41395243177E+02  0.20589841032E+03  0.26692646129E+02  0.21170786213E+03  0.00000000000E+00 0. -1.
         -3    1    6    6    0  503 -0.68008935909E+02  0.28586638045E+03  0.15249217163E+03  0.33105689125E+03  0.00000000000E+00 0.  1.
<mgrwt>
<rscale>  0 0.11822749E+04</rscale>
<asrwt>0</asrwt>
<pdfrwt beam="1">  1        2 0.17004894E+00 0.11822749E+04</pdfrwt>
<pdfrwt beam="2">  1       -1 0.48638069E-01 0.11822749E+04</pdfrwt>
<totfact> 0.10299594E+02</totfact>
</mgrwt>
</event>
<event>
12    7  0.1605494E-007  0.2669719E+04  0.7818608E-02  0.8344897E-01
          2   -1    0    0  501    0  0.00000000000E+00  0.00000000000E+00  0.37366359805E+04  0.37366359805E+04  0.00000000000E+00 0. -1.
         -1   -1    0    0    0  501 -0.00000000000E+00 -0.00000000000E+00 -0.47685949326E+03  0.47685949326E+03  0.00000000000E+00 0.  1.
         24    2    1    2    0    0 -0.35150717775E+03 -0.11133957811E+04  0.11628201875E+04  0.16497357236E+04  0.79181486713E+02 0.  0.
        254    2    1    2    0    0  0.35150717775E+03  0.11133957811E+04  0.20969562997E+04  0.25637597501E+04  0.90134947277E+03 0.  0.
         23    2    4    4    0    0  0.14068380556E+03  0.76658860115E+03  0.19825388434E+04  0.21321880536E+04  0.91189986578E+02 0.  0.
         23    2    4    4    0    0  0.21082337219E+03  0.34680717998E+03  0.11441745623E+03  0.43157169649E+03  0.91875244628E+02 0.  0.
          2    1    3    3  502    0 -0.12213624398E+03 -0.46780122140E+03  0.52428938833E+03  0.71318623623E+03  0.00000000000E+00 0. -1.
         -1    1    3    3    0  502 -0.22937093377E+03 -0.64559455973E+03  0.63853079920E+03  0.93654948739E+03  0.00000000000E+00 0.  1.
         13    1    5    5    0    0 -0.10106357259E+02  0.21074742580E+02  0.76506858183E+02  0.79997391088E+02  0.00000000000E+00 0.  1.
        -13    1    5    5    0    0  0.15079016282E+03  0.74551385857E+03  0.19060319853E+04  0.20521906625E+04  0.00000000000E+00 0. -1.
          2    1    6    6  503    0  0.14669083515E+02  0.60487650678E+01  0.22930963710E+02  0.27885456186E+02  0.00000000000E+00 0.  1.
         -2    1    6    6    0  503  0.19615428867E+03  0.34075841491E+03  0.91486492520E+02  0.40368624030E+03  0.00000000000E+00 0. -1.
<mgrwt>
<rscale>  0 0.26697193E+04</rscale>
<asrwt>0</asrwt>
<pdfrwt beam="1">  1        2 0.57486705E+00 0.26697193E+04</pdfrwt>
<pdfrwt beam="2">  1       -1 0.73363001E-01 0.26697193E+04</pdfrwt>
<totfact> 0.10271782E+00</totfact>
</mgrwt>
</event>
<event>
12    7  0.1605494E-007  0.2121287E+04  0.7818608E-02  0.8551924E-01
          2   -1    0    0  501    0  0.00000000000E+00  0.00000000000E+00  0.17051124232E+04  0.17051124232E+04  0.00000000000E+00 0. -1.
         -1   -1    0    0    0  501 -0.00000000000E+00 -0.00000000000E+00 -0.65976004962E+03  0.65976004962E+03  0.00000000000E+00 0.  1.
         24    2    1    2    0    0 -0.63170990166E+03 -0.25682747231E+03 -0.16661892379E+03  0.70647100910E+03  0.79508933683E+02 0.  0.
        254    2    1    2    0    0  0.63170990166E+03  0.25682747231E+03  0.12119712973E+04  0.16584014637E+04  0.90355035213E+03 0.  0.
         23    2    4    4    0    0 -0.56322660888E+02 -0.24387204862E+03  0.38522770715E+03  0.46840947172E+03  0.91439754050E+02 0.  0.
         23    2    4    4    0    0  0.68803256255E+03  0.50069952093E+03  0.82674359017E+03  0.11899919920E+04  0.92125781714E+02 0.  0.
          4    1    3    3  502    0 -0.19987277349E+03 -0.52164570753E+02 -0.25170010747E+02  0.20809564500E+03  0.00000000000E+00 0. -1.
         -3    1    3    3    0  502 -0.43183712817E+03 -0.20466290156E+03 -0.14144891304E+03  0.49837536410E+03  0.00000000000E+00 0.  1.
         13    1    5    5    0    0 -0.28148402860E+02 -0.23533319553E+03  0.34448650197E+03  0.41814470646E+03  0.00000000000E+00 0. -1.
        -13    1    5    5    0    0 -0.28174258029E+02 -0.85388530833E+01  0.40741205179E+02  0.50264765262E+02  0.00000000000E+00 0.  1.
          4    1    6    6  503    0  0.37421596927E+03  0.30538279905E+03  0.51937982120E+03  0.70926133708E+03  0.00000000000E+00 0. -1.
         -4    1    6    6    0  503  0.31381659328E+03  0.19531672188E+03  0.30736376898E+03  0.48073065488E+03  0.00000000000E+00 0.  1.
<mgrwt>
<rscale>  0 0.21212874E+04</rscale>
<asrwt>0</asrwt>
<pdfrwt beam="1">  1        2 0.26232499E+00 0.21212874E+04</pdfrwt>
<pdfrwt beam="2">  1       -1 0.10150155E+00 0.21212874E+04</pdfrwt>
<totfact> 0.94005735E+00</totfact>
</mgrwt>
</event>
<event>
12    7  0.1605494E-007  0.2309273E+04  0.7818608E-02  0.8474274E-01
          2   -1    0    0  501    0  0.00000000000E+00  0.00000000000E+00  0.21841338586E+04  0.21841338586E+04  0.00000000000E+00 0. -1.
         -1   -1    0    0    0  501 -0.00000000000E+00 -0.00000000000E+00 -0.61039562935E+03  0.61039562935E+03  0.00000000000E+00 0.  1.
         24    2    1    2    0    0  0.28333627480E+03  0.69553032660E+03 -0.87428709496E+02  0.76039632584E+03  0.80727400963E+02 0.  0.
        254    2    1    2    0    0 -0.28333627480E+03 -0.69553032660E+03  0.16611669387E+04  0.20341331621E+04  0.90231936861E+03 0.  0.
         23    2    4    4    0    0 -0.20991163710E+03 -0.79170181202E+03  0.76165181452E+03  0.11220300374E+04  0.89349110967E+02 0.  0.
         23    2    4    4    0    0 -0.73424637696E+02  0.96171485421E+02  0.89951512423E+03  0.91210312475E+03  0.90357730334E+02 0.  0.
          2    1    3    3  502    0  0.92478209682E+02  0.16740464443E+03  0.48440981233E+01  0.19131126347E+03  0.00000000000E+00 0. -1.
         -1    1    3    3    0  502  0.19085806512E+03  0.52812568217E+03 -0.92272807620E+02  0.56908506237E+03  0.00000000000E+00 0.  1.
         13    1    5    5    0    0 -0.92122392956E+02 -0.23701717032E+03  0.19573177465E+03  0.32089655953E+03  0.00000000000E+00 0. -1.
        -13    1    5    5    0    0 -0.11778924415E+03 -0.55468464170E+03  0.56592003987E+03  0.80113347783E+03  0.00000000000E+00 0.  1.
          4    1    6    6  503    0 -0.73730346229E+02  0.88984714120E+02  0.52712768240E+03  0.53964621453E+03  0.00000000000E+00 0.  1.
         -4    1    6    6    0  503  0.30570853294E+00  0.71867713007E+01  0.37238744182E+03  0.37245691021E+03  0.00000000000E+00 0. -1.
<mgrwt>
<rscale>  0 0.23092733E+04</rscale>
<asrwt>0</asrwt>
<pdfrwt beam="1">  1        2 0.33602059E+00 0.23092733E+04</pdfrwt>
<pdfrwt beam="2">  1       -1 0.93907021E-01 0.23092733E+04</pdfrwt>
<totfact> 0.59706660E+00</totfact>
</mgrwt>
</event>
<event>
12    7  0.1605494E-007  0.1292146E+04  0.7818608E-02  0.9035817E-01
          2   -1    0    0  501    0  0.00000000000E+00  0.00000000000E+00  0.12874951948E+04  0.12874951948E+04  0.00000000000E+00 0. -1.
         -1   -1    0    0    0  501 -0.00000000000E+00 -0.00000000000E+00 -0.32420344272E+03  0.32420344272E+03  0.00000000000E+00 0.  1.
         24    2    1    2    0    0  0.32409022533E+03  0.32332608814E+02  0.25543494967E+03  0.42077786417E+03  0.75677775570E+02 0.  0.
        254    2    1    2    0    0 -0.32409022533E+03 -0.32332608814E+02  0.70785680238E+03  0.11909207733E+04  0.90063930844E+03 0.  0.
         23    2    4    4    0    0  0.28569645688E+02 -0.66472920188E+02 -0.18910450186E+03  0.22186613997E+03  0.90714925290E+02 0.  0.
         23    2    4    4    0    0 -0.35265987102E+03  0.34140311374E+02  0.89696130423E+03  0.96905463334E+03  0.94830140891E+02 0.  0.
          2    1    3    3  502    0  0.21503432405E+03  0.40048978733E+02  0.20717146892E+03  0.30127014249E+03  0.00000000000E+00 0. -1.
         -1    1    3    3    0  502  0.10905590128E+03 -0.77163699195E+01  0.48263480749E+02  0.11950772168E+03  0.00000000000E+00 0.  1.
         13    1    5    5    0    0  0.16910196572E+02 -0.81088583459E+02 -0.18503830071E+03  0.20273254757E+03  0.00000000000E+00 0. -1.
        -13    1    5    5    0    0  0.11659449116E+02  0.14615663271E+02 -0.40662011537E+01  0.19133592406E+02  0.00000000000E+00 0.  1.
          2    1    6    6  503    0 -0.26817406608E+03  0.57565092073E+02  0.74108522219E+03  0.79021413306E+03  0.00000000000E+00 0. -1.
         -2    1    6    6    0  503 -0.84485804940E+02 -0.23424780699E+02  0.15587608205E+03  0.17884050028E+03  0.00000000000E+00 0.  1.
<mgrwt>
<rscale>  0 0.12921461E+04</rscale>
<asrwt>0</asrwt>
<pdfrwt beam="1">  1        2 0.19807618E+00 0.12921461E+04</pdfrwt>
<pdfrwt beam="2">  1       -1 0.49877453E-01 0.12921461E+04</pdfrwt>
<totfact> 0.75771188E+01</totfact>
</mgrwt>
</event>
<event>
12    7  0.1605494E-007  0.2703084E+04  0.7818608E-02  0.8334005E-01
         -1   -1    0    0    0  501 -0.00000000000E+00  0.00000000000E+00  0.69967856054E+03  0.69967856054E+03  0.00000000000E+00 0.  1.
          2   -1    0    0  501    0  0.00000000000E+00 -0.00000000000E+00 -0.26107221757E+04  0.26107221757E+04  0.00000000000E+00 0. -1.
         24    2    1    2    0    0 -0.17417935964E+02 -0.21546721970E+03 -0.23291800015E+04  0.23406048998E+04  0.81377579276E+02 0.  0.
        254    2    1    2    0    0  0.17417935964E+02  0.21546721970E+03  0.41813638641E+03  0.96979583636E+03  0.84790118489E+03 0.  0.
         23    2    4    4    0    0 -0.15046539027E+03  0.42735855377E+03  0.52125028760E+00  0.46249781677E+03  0.92891289497E+02 0.  0.
         23    2    4    4    0    0  0.16788332623E+03 -0.21189133407E+03  0.41761513612E+03  0.50729801959E+03  0.99328395160E+02 0.  0.
          4    1    3    3  502    0 -0.52056744587E+01 -0.11035556402E+03 -0.15971084930E+04  0.16009250413E+04  0.00000000000E+00 0. -1.
         -3    1    3    3    0  502 -0.12212261505E+02 -0.10511165568E+03 -0.73207150852E+03  0.73967985851E+03  0.00000000000E+00 0.  1.
         13    1    5    5    0    0 -0.77823795035E+02  0.32239879790E+03  0.24720590357E+02  0.33257876593E+03  0.00000000000E+00 0. -1.
        -13    1    5    5    0    0 -0.72641595235E+02  0.10495975587E+03 -0.24199340069E+02  0.12991905084E+03  0.00000000000E+00 0.  1.
          4    1    6    6  503    0  0.12761873527E+03 -0.20804829407E+03  0.38248748189E+03  0.45372602753E+03  0.00000000000E+00 0. -1.
         -4    1    6    6    0  503  0.40264590964E+02 -0.38430400076E+01  0.35127654227E+02  0.53571992062E+02  0.00000000000E+00 0.  1.
<mgrwt>
<rscale>  0 0.27030844E+04</rscale>
<asrwt>0</asrwt>
<pdfrwt beam="1">  1        2 0.40164957E+00 0.27030844E+04</pdfrwt>
<pdfrwt beam="2">  1       -1 0.10764285E+00 0.27030844E+04</pdfrwt>
<totfact> 0.24015720E+00</totfact>
</mgrwt>
</event>
<event>
12    7  0.1605494E-007  0.2826202E+04  0.7818608E-02  0.8295180E-01
         -1   -1    0    0    0  501 -0.00000000000E+00  0.00000000000E+00  0.99349365490E+03  0.99349365490E+03  0.00000000000E+00 0.  1.
          2   -1    0    0  501    0  0.00000000000E+00 -0.00000000000E+00 -0.20099320346E+04  0.20099320346E+04  0.00000000000E+00 0. -1.
         24    2    1    2    0    0  0.61982159907E+03  0.71023005238E+03 -0.13621143065E+04  0.16583211169E+04  0.77897374055E+02 0.  0.
        254    2    1    2    0    0 -0.61982159907E+03 -0.71023005238E+03  0.34567592675E+03  0.13451045726E+04  0.89510274436E+03 0.  0.
         23    2    4    4    0    0 -0.98589282183E+02 -0.62975148199E+03 -0.94979223912E+02  0.65074238977E+03  0.90209917613E+02 0.  0.
         23    2    4    4    0    0 -0.52123231688E+03 -0.80478570394E+02  0.44065515066E+03  0.69436218285E+03  0.99004801471E+02 0.  0.
          4    1    3    3  502    0  0.33742432896E+03  0.42452601517E+03 -0.73057397745E+03  0.90984386126E+03  0.00000000000E+00 0. -1.
         -3    1    3    3    0  502  0.28239727010E+03  0.28570403721E+03 -0.63154032900E+03  0.74847725563E+03  0.00000000000E+00 0.  1.
         13    1    5    5    0    0 -0.11110501005E+03 -0.59852241397E+03 -0.80244458263E+02  0.61401349852E+03  0.00000000000E+00 0.  1.
        -13    1    5    5    0    0  0.12515727871E+02 -0.31229068022E+02 -0.14734765649E+02  0.36728891249E+02  0.00000000000E+00 0. -1.
          3    1    6    6  503    0 -0.12768258871E+03 -0.29357062884E+02  0.58715732786E+02  0.14356955762E+03  0.00000000000E+00 0. -1.
         -3    1    6    6    0  503 -0.39354972818E+03 -0.51121507510E+02  0.38193941787E+03  0.55079262522E+03  0.00000000000E+00 0.  1.
<mgrwt>
<rscale>  0 0.28262022E+04</rscale>
<asrwt>0</asrwt>
<pdfrwt beam="1">  1        2 0.30922031E+00 0.28262022E+04</pdfrwt>
<pdfrwt beam="2">  1       -1 0.15284518E+00 0.28262022E+04</pdfrwt>
<totfact> 0.21604746E+00</totfact>
</mgrwt>
</event>
<event>
12    7  0.1605494E-007  0.2189738E+04  0.7818608E-02  0.8522712E-01
          2   -1    0    0  501    0  0.00000000000E+00  0.00000000000E+00  0.12728707956E+04  0.12728707956E+04  0.00000000000E+00 0. -1.
         -1   -1    0    0    0  501 -0.00000000000E+00 -0.00000000000E+00 -0.94175916029E+03  0.94175916029E+03  0.00000000000E+00 0.  1.
         24    2    1    2    0    0 -0.49652262684E+03 -0.46413116064E+02 -0.61145393007E+03  0.79322656513E+03  0.81508151180E+02 0.  0.
        254    2    1    2    0    0  0.49652262684E+03  0.46413116064E+02  0.94256556543E+03  0.14214033908E+04  0.93982384412E+03 0.  0.
         23    2    4    4    0    0  0.59042669863E+03 -0.31703009654E+03  0.63429268189E+03  0.92725469181E+03  0.91445550034E+02 0.  0.
         23    2    4    4    0    0 -0.93904071790E+02  0.36344321260E+03  0.30827288354E+03  0.49414869900E+03  0.90784483888E+02 0.  0.
          4    1    3    3  502    0 -0.12883448165E+03  0.87829879983E+01 -0.20578374473E+03  0.24294529041E+03  0.00000000000E+00 0. -1.
         -1    1    3    3    0  502 -0.36768814520E+03 -0.55196104062E+02 -0.40567018535E+03  0.55028127471E+03  0.00000000000E+00 0.  1.
         13    1    5    5    0    0  0.20784137836E+03 -0.15796288019E+03  0.26963602946E+03  0.37530507386E+03  0.00000000000E+00 0.  1.
        -13    1    5    5    0    0  0.38258532027E+03 -0.15906721634E+03  0.36465665243E+03  0.55194961796E+03  0.00000000000E+00 0. -1.
          4    1    6    6  503    0 -0.83266664466E+02  0.14549377127E+03  0.12346026293E+03  0.20819272661E+03  0.00000000000E+00 0. -1.
         -4    1    6    6    0  503 -0.10637407323E+02  0.21794944133E+03  0.18481262061E+03  0.28595597239E+03  0.00000000000E+00 0.  1.
<mgrwt>
<rscale>  0 0.21897376E+04</rscale>
<asrwt>0</asrwt>
<pdfrwt beam="1">  1        2 0.19582628E+00 0.21897376E+04</pdfrwt>
<pdfrwt beam="2">  1       -1 0.14488602E+00 0.21897376E+04</pdfrwt>
<totfact> 0.68462683E+00</totfact>
</mgrwt>
</event>
<event>
12    7  0.1605494E-007  0.2464250E+04  0.7818608E-02  0.8415833E-01
         -1   -1    0    0    0  501 -0.00000000000E+00  0.00000000000E+00  0.11413548850E+04  0.11413548850E+04  0.00000000000E+00 0.  1.
          2   -1    0    0  501    0  0.00000000000E+00 -0.00000000000E+00 -0.13301140935E+04  0.13301140935E+04  0.00000000000E+00 0. -1.
         24    2    1    2    0    0  0.55985014725E+03 -0.88926937373E+03  0.99662613613E+02  0.10588973869E+04  0.84254572888E+02 0.  0.
        254    2    1    2    0    0 -0.55985014725E+03  0.88926937373E+03 -0.28842182216E+03  0.14125715915E+04  0.89885435261E+03 0.  0.
         23    2    4    4    0    0 -0.70170833318E+03  0.74353274836E+03  0.26873182751E+02  0.10266331675E+04  0.89543061569E+02 0.  0.
         23    2    4    4    0    0  0.14185818593E+03  0.14573662537E+03 -0.31529500491E+03  0.38593842403E+03  0.90413594856E+02 0.  0.
          4    1    3    3  502    0  0.51349168077E+03 -0.84973389445E+03  0.10096812907E+03  0.99795589116E+03  0.00000000000E+00 0. -1.
         -3    1    3    3    0  502  0.46358466482E+02 -0.39535479282E+02 -0.13055154603E+01  0.60941495774E+02  0.00000000000E+00 0.  1.
         13    1    5    5    0    0 -0.27455257508E+03  0.22882093475E+03  0.79490134026E+01  0.35749310969E+03  0.00000000000E+00 0.  1.
        -13    1    5    5    0    0 -0.42715575810E+03  0.51471181361E+03  0.18924169348E+02  0.66914005779E+03  0.00000000000E+00 0. -1.
          3    1    6    6  503    0  0.82998312208E+02  0.44637422605E+02 -0.20286224755E+03  0.22368350589E+03  0.00000000000E+00 0. -1.
         -3    1    6    6    0  503  0.58859873722E+02  0.10109920277E+03 -0.11243275736E+03  0.16225491814E+03  0.00000000000E+00 0.  1.
<mgrwt>
<rscale>  0 0.24642502E+04</rscale>
<asrwt>0</asrwt>
<pdfrwt beam="1">  1        2 0.20463294E+00 0.24642502E+04</pdfrwt>
<pdfrwt beam="2">  1       -1 0.17559306E+00 0.24642502E+04</pdfrwt>
<totfact> 0.36242926E+00</totfact>
</mgrwt>
</event>
<event>
12    7  0.2015491E-007  0.2732014E+04  0.7818608E-02  0.8324692E-01
         -1   -1    0    0    0  501 -0.00000000000E+00  0.00000000000E+00  0.89430947181E+03  0.89430947181E+03  0.00000000000E+00 0.  1.
          2   -1    0    0  501    0  0.00000000000E+00 -0.00000000000E+00 -0.20864985253E+04  0.20864985253E+04  0.00000000000E+00 0. -1.
         24    2    1    2    0    0 -0.40468720012E+03 -0.48691382192E+03  0.60122030456E+03  0.87675087247E+03  0.79808757877E+02 0.  0.
        254    2    1    2    0    0  0.40468720012E+03  0.48691382192E+03 -0.17934093581E+04  0.21040571247E+04  0.89993469671E+03 0.  0.
         23    2    4    4    0    0  0.77389341463E+02 -0.24435469594E+03 -0.64423402906E+03  0.69973243931E+03  0.94285072119E+02 0.  0.
         23    2    4    4    0    0  0.32729785866E+03  0.73126851785E+03 -0.11491753290E+04  0.14043246854E+04  0.98215842018E+02 0.  0.
          2    1    3    3  502    0 -0.45727497765E+02 -0.55878781506E+02  0.36947512737E+02  0.81108328622E+02  0.00000000000E+00 0. -1.
         -3    1    3    3    0  502 -0.35895970236E+03 -0.43103504041E+03  0.56427279183E+03  0.79564254384E+03  0.00000000000E+00 0.  1.
         13    1    5    5    0    0  0.44898141814E+02 -0.23446355782E+03 -0.55039991216E+03  0.59994088575E+03  0.00000000000E+00 0. -1.
        -13    1    5    5    0    0  0.32491199649E+02 -0.98911381115E+01 -0.93834116902E+02  0.99791553564E+02  0.00000000000E+00 0.  1.
          1    1    6    6  503    0  0.29469112847E+03  0.58660694673E+03 -0.89311978211E+03  0.11084283993E+04  0.00000000000E+00 0. -1.
         -1    1    6    6    0  503  0.32606730193E+02  0.14466157112E+03 -0.25605554693E+03  0.29589628610E+03  0.00000000000E+00 0.  1.
<mgrwt>
<rscale>  0 0.27320142E+04</rscale>
<asrwt>0</asrwt>
<pdfrwt beam="1">  1        2 0.32099977E+00 0.27320142E+04</pdfrwt>
<pdfrwt beam="2">  1       -1 0.13758607E+00 0.27320142E+04</pdfrwt>
<totfact> 0.26100660E+00</totfact>
</mgrwt>
</event>
<event>
12    7  0.1605494E-007  0.2702825E+04  0.7818608E-02  0.8334089E-01
          2   -1    0    0  501    0  0.00000000000E+00  0.00000000000E+00  0.26316927644E+04  0.26316927644E+04  0.00000000000E+00 0. -1.
         -1   -1    0    0    0  501 -0.00000000000E+00 -0.00000000000E+00 -0.69396974427E+03  0.69396974427E+03  0.00000000000E+00 0.  1.
         24    2    1    2    0    0  0.79804105392E+03 -0.46237995977E+03 -0.81912473728E+02  0.92942958371E+03  0.80404892852E+02 0.  0.
        254    2    1    2    0    0 -0.79804105392E+03  0.46237995977E+03  0.20196354939E+04  0.23962329250E+04  0.90129903565E+03 0.  0.
         23    2    4    4    0    0 -0.25554717402E+03  0.59730641147E+03  0.69692383959E+03  0.95700349293E+03  0.89852879494E+02 0.  0.
         23    2    4    4    0    0 -0.54249387990E+03 -0.13492645170E+03  0.13227116543E+04  0.14392294320E+04  0.96490831604E+02 0.  0.
          4    1    3    3  502    0  0.42630519614E+03 -0.22536399779E+03 -0.71079381074E+01  0.48226089883E+03  0.00000000000E+00 0. -1.
         -3    1    3    3    0  502  0.37173585777E+03 -0.23701596198E+03 -0.74804535621E+02  0.44716868488E+03  0.00000000000E+00 0.  1.
         13    1    5    5    0    0 -0.15588857163E+03  0.39957057088E+03  0.51657164661E+03  0.67141950669E+03  0.00000000000E+00 0. -1.
        -13    1    5    5    0    0 -0.99658602391E+02  0.19773584059E+03  0.18035219298E+03  0.28558398625E+03  0.00000000000E+00 0.  1.
          4    1    6    6  503    0 -0.27136396662E+03 -0.93731662333E+02  0.57225811409E+03  0.64023696866E+03  0.00000000000E+00 0. -1.
         -4    1    6    6    0  503 -0.27112991328E+03 -0.41194789370E+02  0.75045354019E+03  0.79899246337E+03  0.00000000000E+00 0.  1.
<mgrwt>
<rscale>  0 0.27028246E+04</rscale>
<asrwt>0</asrwt>
<pdfrwt beam="1">  1        2 0.40487580E+00 0.27028246E+04</pdfrwt>
<pdfrwt beam="2">  1       -1 0.10676458E+00 0.27028246E+04</pdfrwt>
<totfact> 0.23795407E+00</totfact>
</mgrwt>
</event>
<event>
12    7  0.1605494E-007  0.1450836E+04  0.7818608E-02  0.8917821E-01
          2   -1    0    0  501    0  0.00000000000E+00  0.00000000000E+00  0.62834486153E+03  0.62834486153E+03  0.00000000000E+00 0. -1.
         -1   -1    0    0    0  501 -0.00000000000E+00 -0.00000000000E+00 -0.83748843054E+03  0.83748843054E+03  0.00000000000E+00 0.  1.
         24    2    1    2    0    0 -0.27374318940E+03 -0.41840865141E+02 -0.41589321303E+03  0.50583057496E+03  0.78812525569E+02 0.  0.
        254    2    1    2    0    0  0.27374318940E+03  0.41840865141E+02  0.20674964402E+03  0.96000271710E+03  0.89564156324E+03 0.  0.
         23    2    4    4    0    0  0.27489250441E+03  0.41209323335E+03 -0.41834240957E+02  0.50547360373E+03  0.91469876963E+02 0.  0.
         23    2    4    4    0    0 -0.11493150108E+01 -0.37025236821E+03  0.24858388497E+03  0.45452911337E+03  0.87832966162E+02 0.  0.
          4    1    3    3  502    0 -0.12641148295E+02 -0.21406988597E+02 -0.50298086482E+02  0.56106642163E+02  0.00000000000E+00 0. -1.
         -3    1    3    3    0  502 -0.26110204110E+03 -0.20433876544E+02 -0.36559512655E+03  0.44972393280E+03  0.00000000000E+00 0.  1.
         13    1    5    5    0    0  0.26070258234E+03  0.34993896166E+03 -0.15951400161E+02  0.43666641787E+03  0.00000000000E+00 0. -1.
        -13    1    5    5    0    0  0.14189922069E+02  0.62154271695E+02 -0.25882840796E+02  0.68807185860E+02  0.00000000000E+00 0.  1.
          4    1    6    6  503    0  0.14615428284E+02 -0.26134752224E+03  0.12831221981E+03  0.29151357409E+03  0.00000000000E+00 0. -1.
         -4    1    6    6    0  503 -0.15764743295E+02 -0.10890484597E+03  0.12027166516E+03  0.16301553928E+03  0.00000000000E+00 0.  1.
<mgrwt>
<rscale>  0 0.14508364E+04</rscale>
<asrwt>0</asrwt>
<pdfrwt beam="1">  1        2 0.96668441E-01 0.14508364E+04</pdfrwt>
<pdfrwt beam="2">  1       -1 0.12884437E+00 0.14508364E+04</pdfrwt>
<totfact> 0.26950534E+01</totfact>
</mgrwt>
</event>
<event>
12    7  0.1605494E-007  0.1483480E+04  0.7818608E-02  0.8895513E-01
         -1   -1    0    0    0  501 -0.00000000000E+00  0.00000000000E+00  0.10715448696E+04  0.10715448696E+04  0.00000000000E+00 0.  1.
          2   -1    0    0  501    0  0.00000000000E+00 -0.00000000000E+00 -0.51344407599E+03  0.51344407599E+03  0.00000000000E+00 0. -1.
         24    2    1    2    0    0 -0.35168757921E+03  0.25199867159E+03  0.34194644743E+03  0.55826227846E+03  0.86844198393E+02 0.  0.
        254    2    1    2    0    0  0.35168757921E+03 -0.25199867159E+03  0.21615434615E+03  0.10267266671E+04  0.90568066321E+03 0.  0.
         23    2    4    4    0    0  0.19333253457E+03  0.62660932058E+02  0.51024266568E+03  0.55752714046E+03  0.95838787216E+02 0.  0.
         23    2    4    4    0    0  0.15835504464E+03 -0.31465960364E+03 -0.29408831953E+03  0.46919952663E+03  0.97843087542E+02 0.  0.
          2    1    3    3  502    0 -0.31794533726E+02 -0.24682410321E+01  0.17401860891E+02  0.36329180435E+02  0.00000000000E+00 0. -1.
         -1    1    3    3    0  502 -0.31989304548E+03  0.25446691262E+03  0.32454458654E+03  0.52193309803E+03  0.00000000000E+00 0.  1.
         13    1    5    5    0    0  0.88259118221E+02  0.42779264799E+01  0.11889588826E+03  0.14813576492E+03  0.00000000000E+00 0. -1.
        -13    1    5    5    0    0  0.10507341635E+03  0.58383005579E+02  0.39134677743E+03  0.40939137554E+03  0.00000000000E+00 0.  1.
          2    1    6    6  503    0 -0.11721483364E+02 -0.35259672310E+02 -0.43106492148E+02  0.56910520371E+02  0.00000000000E+00 0. -1.
         -2    1    6    6    0  503  0.17007652800E+03 -0.27939993133E+03 -0.25098182738E+03  0.41228900626E+03  0.00000000000E+00 0.  1.
<mgrwt>
<rscale>  0 0.14834802E+04</rscale>
<asrwt>0</asrwt>
<pdfrwt beam="1">  1        2 0.78991396E-01 0.14834802E+04</pdfrwt>
<pdfrwt beam="2">  1       -1 0.16485306E+00 0.14834802E+04</pdfrwt>
<totfact> 0.17737669E+01</totfact>
</mgrwt>
</event>
<event>
12    7  0.1605494E-007  0.1761455E+04  0.7818608E-02  0.8727070E-01
          2   -1    0    0  501    0  0.00000000000E+00  0.00000000000E+00  0.97683635222E+03  0.97683635222E+03  0.00000000000E+00 0. -1.
         -1   -1    0    0    0  501 -0.00000000000E+00 -0.00000000000E+00 -0.79407449461E+03  0.79407449461E+03  0.00000000000E+00 0.  1.
         24    2    1    2    0    0 -0.63733155734E+03 -0.82366043373E+02  0.14045850314E+03  0.66272007856E+03  0.80583077275E+02 0.  0.
        254    2    1    2    0    0  0.63733155734E+03  0.82366043373E+02  0.42303354470E+02  0.11081907683E+04  0.90184340436E+03 0.  0.
         23    2    4    4    0    0  0.76168659209E+03  0.64934800330E+02  0.28157342803E+03  0.82049112685E+03  0.97668321435E+02 0.  0.
         23    2    4    4    0    0 -0.12435503475E+03  0.17431243043E+02 -0.23927007355E+03  0.28769964141E+03  0.98756734800E+02 0.  0.
          2    1    3    3  502    0 -0.12416152661E+03  0.60483448876E+01  0.38495737969E+01  0.12436834961E+03  0.00000000000E+00 0. -1.
         -1    1    3    3    0  502 -0.51317003073E+03 -0.88414388261E+02  0.13660892934E+03  0.53835172895E+03  0.00000000000E+00 0.  1.
         13    1    5    5    0    0  0.90807402611E+02 -0.19749711619E+02  0.51333433897E+02  0.10616570498E+03  0.00000000000E+00 0.  1.
        -13    1    5    5    0    0  0.67087918948E+03  0.84684511950E+02  0.23023999413E+03  0.71432542188E+03  0.00000000000E+00 0. -1.
          1    1    6    6  503    0 -0.13606354329E+03  0.10768936356E+02 -0.23774997912E+03  0.27414286489E+03  0.00000000000E+00 0. -1.
         -1    1    6    6    0  503  0.11708508536E+02  0.66623066871E+01 -0.15200944390E+01  0.13556776521E+02  0.00000000000E+00 0.  1.
<mgrwt>
<rscale>  0 0.17614549E+04</rscale>
<asrwt>0</asrwt>
<pdfrwt beam="1">  1        2 0.15028252E+00 0.17614549E+04</pdfrwt>
<pdfrwt beam="2">  1       -1 0.12216531E+00 0.17614549E+04</pdfrwt>
<totfact> 0.16690895E+01</totfact>
</mgrwt>
</event>
<event>
12    7  0.1605494E-007  0.1276621E+04  0.7818608E-02  0.9048313E-01
          2   -1    0    0  501    0  0.00000000000E+00  0.00000000000E+00  0.23608191913E+04  0.23608191913E+04  0.00000000000E+00 0. -1.
         -1   -1    0    0    0  501 -0.00000000000E+00 -0.00000000000E+00 -0.17258435224E+03  0.17258435224E+03  0.00000000000E+00 0.  1.
         24    2    1    2    0    0 -0.10491984400E+03 -0.15977304563E+03  0.10112082501E+04  0.10320936117E+04  0.78354951004E+02 0.  0.
        254    2    1    2    0    0  0.10491984400E+03  0.15977304563E+03  0.11770265889E+04  0.15013099319E+04  0.91214270852E+03 0.  0.
         23    2    4    4    0    0  0.27785908929E+03 -0.12364683175E+01 -0.35525386146E+01  0.29386107641E+03  0.95574627105E+02 0.  0.
         23    2    4    4    0    0 -0.17293924529E+03  0.16100951395E+03  0.11805791276E+04  0.12074488555E+04  0.91288641130E+02 0.  0.
          2    1    3    3  502    0 -0.65124176854E+02 -0.14436303885E+03  0.68291699847E+03  0.70104027858E+03  0.00000000000E+00 0. -1.
         -1    1    3    3    0  502 -0.39795667145E+02 -0.15410006784E+02  0.32829125166E+03  0.33105333309E+03  0.00000000000E+00 0.  1.
         13    1    5    5    0    0  0.22726700289E+03  0.36155631793E+02 -0.11716522915E+02  0.23042308309E+03  0.00000000000E+00 0.  1.
        -13    1    5    5    0    0  0.50592086397E+02 -0.37392100111E+02  0.81639843000E+01  0.63437993319E+02  0.00000000000E+00 0. -1.
          1    1    6    6  503    0 -0.56541998132E+02  0.19955679277E+02  0.16548820554E+03  0.17601583128E+03  0.00000000000E+00 0. -1.
         -1    1    6    6    0  503 -0.11639724716E+03  0.14105383467E+03  0.10150909220E+04  0.10314330242E+04  0.00000000000E+00 0.  1.
<mgrwt>
<rscale>  0 0.12766212E+04</rscale>
<asrwt>0</asrwt>
<pdfrwt beam="1">  1        2 0.36320293E+00 0.12766212E+04</pdfrwt>
<pdfrwt beam="2">  1       -1 0.26551441E-01 0.12766212E+04</pdfrwt>
<totfact> 0.59318340E+01</totfact>
</mgrwt>
</event>
<event>
12    7  0.1605494E-007  0.2825965E+04  0.7818608E-02  0.8295252E-01
          2   -1    0    0  501    0  0.00000000000E+00  0.00000000000E+00  0.17502512355E+04  0.17502512355E+04  0.00000000000E+00 0. -1.
         -1   -1    0    0    0  501 -0.00000000000E+00 -0.00000000000E+00 -0.11407041628E+04  0.11407041628E+04  0.00000000000E+00 0.  1.
         24    2    1    2    0    0 -0.77720290070E+03 -0.64565236079E+03 -0.51171633997E+03  0.11367835050E+04  0.97528482438E+02 0.  0.
        254    2    1    2    0    0  0.77720290070E+03  0.64565236079E+03  0.11212634126E+04  0.17541718933E+04  0.89385461398E+03 0.  0.
         23    2    4    4    0    0  0.31538890285E+03 -0.22174460153E+02  0.82157911598E+03  0.88387292294E+03  0.79228993333E+02 0.  0.
         23    2    4    4    0    0  0.46181399785E+03  0.66782682094E+03  0.29968429663E+03  0.87029897035E+03  0.91349815350E+02 0.  0.
          4    1    3    3  502    0 -0.79627778302E+02 -0.10310007214E+03 -0.83884144558E+02  0.15494114257E+03  0.00000000000E+00 0. -1.
         -3    1    3    3    0  502 -0.69757512240E+03 -0.54255228865E+03 -0.42783219541E+03  0.98184236247E+03  0.00000000000E+00 0.  1.
         13    1    5    5    0    0  0.24863687316E+02 -0.21560699611E+02  0.12213056965E+03  0.12648692722E+03  0.00000000000E+00 0.  1.
        -13    1    5    5    0    0  0.29052521553E+03 -0.61376054223E+00  0.69944854633E+03  0.75738599572E+03  0.00000000000E+00 0. -1.
          2    1    6    6  503    0  0.35065696301E+03  0.56832113396E+03  0.23992442305E+03  0.70958646110E+03  0.00000000000E+00 0. -1.
         -2    1    6    6    0  503  0.11115703484E+03  0.99505686986E+02  0.59759873578E+02  0.16071250924E+03  0.00000000000E+00 0.  1.
<mgrwt>
<rscale>  0 0.28259645E+04</rscale>
<asrwt>0</asrwt>
<pdfrwt beam="1">  1        2 0.26926942E+00 0.28259645E+04</pdfrwt>
<pdfrwt beam="2">  1       -1 0.17549295E+00 0.28259645E+04</pdfrwt>
<totfact> 0.20387704E+00</totfact>
</mgrwt>
</event>
<event>
12    7  0.1605494E-007  0.3413833E+04  0.7818608E-02  0.8134520E-01
          2   -1    0    0  501    0  0.00000000000E+00  0.00000000000E+00  0.17005973121E+04  0.17005973121E+04  0.00000000000E+00 0. -1.
         -1   -1    0    0    0  501 -0.00000000000E+00 -0.00000000000E+00 -0.17132589499E+04  0.17132589499E+04  0.00000000000E+00 0.  1.
         24    2    1    2    0    0 -0.41820710212E+02  0.50165839041E+03  0.14995118861E+04  0.15837906593E+04  0.80292237288E+02 0.  0.
        254    2    1    2    0    0  0.41820710212E+02 -0.50165839041E+03 -0.15121735239E+04  0.18300656028E+04  0.89947831081E+03 0.  0.
         23    2    4    4    0    0  0.29916169509E+03 -0.63022566879E+03 -0.12272838490E+04  0.14147348875E+04  0.92558319524E+02 0.  0.
         23    2    4    4    0    0 -0.25734098488E+03  0.12856727838E+03 -0.28488967487E+03  0.41533071524E+03  0.92647442519E+02 0.  0.
          4    1    3    3  502    0  0.70442420648E+01  0.27388144815E+03  0.89280203780E+03  0.93389300655E+03  0.00000000000E+00 0. -1.
         -3    1    3    3    0  502 -0.48864952276E+02  0.22777694226E+03  0.60670984832E+03  0.64989765274E+03  0.00000000000E+00 0.  1.
         13    1    5    5    0    0  0.23486281384E+03 -0.47438849361E+03 -0.84770669207E+03  0.99940563335E+03  0.00000000000E+00 0.  1.
        -13    1    5    5    0    0  0.64298881251E+02 -0.15583717518E+03 -0.37957715692E+03  0.41532925416E+03  0.00000000000E+00 0. -1.
          4    1    6    6  503    0 -0.47319564899E+02  0.28417820918E+02 -0.11592219239E+02  0.56401181857E+02  0.00000000000E+00 0. -1.
         -4    1    6    6    0  503 -0.21002141998E+03  0.10014945747E+03 -0.27329745563E+03  0.35892953339E+03  0.00000000000E+00 0.  1.
<mgrwt>
<rscale>  0 0.34138328E+04</rscale>
<asrwt>0</asrwt>
<pdfrwt beam="1">  1        2 0.26163035E+00 0.34138328E+04</pdfrwt>
<pdfrwt beam="2">  1       -1 0.26357830E+00 0.34138328E+04</pdfrwt>
<totfact> 0.52488034E-01</totfact>
</mgrwt>
</event>
<event>
12    7  0.1605494E-007  0.2047335E+04  0.7818608E-02  0.8584804E-01
         -1   -1    0    0    0  501 -0.00000000000E+00  0.00000000000E+00  0.50885354986E+03  0.50885354986E+03  0.00000000000E+00 0.  1.
          2   -1    0    0  501    0  0.00000000000E+00 -0.00000000000E+00 -0.20593246579E+04  0.20593246579E+04  0.00000000000E+00 0. -1.
         24    2    1    2    0    0 -0.29548208086E+03  0.25155209886E+03 -0.15152122783E+04  0.15661694288E+04  0.80189230856E+02 0.  0.
        254    2    1    2    0    0  0.29548208086E+03 -0.25155209886E+03 -0.35258829722E+02  0.10020087790E+04  0.92314153276E+03 0.  0.
         23    2    4    4    0    0 -0.31442917311E+03  0.10932104823E+02  0.28160854225E+02  0.32878458985E+03  0.91219827864E+02 0.  0.
         23    2    4    4    0    0  0.60991125396E+03 -0.26248420368E+03 -0.63419683946E+02  0.67322418912E+03  0.91208868018E+02 0.  0.
          4    1    3    3  502    0 -0.29188525480E+03  0.22259793852E+03 -0.14036831214E+04  0.14508870216E+04  0.00000000000E+00 0. -1.
         -3    1    3    3    0  502 -0.35968260535E+01  0.28954160337E+02 -0.11152915691E+03  0.11528240716E+03  0.00000000000E+00 0.  1.
         13    1    5    5    0    0 -0.18566127475E+03  0.25854207964E+01 -0.28501290763E+02  0.18785397764E+03  0.00000000000E+00 0.  1.
        -13    1    5    5    0    0 -0.12876789836E+03  0.83466840263E+01  0.56662144988E+02  0.14093061221E+03  0.00000000000E+00 0. -1.
          2    1    6    6  503    0  0.21177090441E+03 -0.95975099722E+02 -0.65891657416E+02  0.24166060134E+03  0.00000000000E+00 0. -1.
         -2    1    6    6    0  503  0.39814034956E+03 -0.16650910396E+03  0.24719734702E+01  0.43156358778E+03  0.00000000000E+00 0.  1.
<mgrwt>
<rscale>  0 0.20473345E+04</rscale>
<asrwt>0</asrwt>
<pdfrwt beam="1">  1        2 0.31681917E+00 0.20473345E+04</pdfrwt>
<pdfrwt beam="2">  1       -1 0.78285163E-01 0.20473345E+04</pdfrwt>
<totfact> 0.10655393E+01</totfact>
</mgrwt>
</event>
<event>
12    7  0.1605494E-007  0.1131129E+04  0.7818608E-02  0.9175371E-01
          2   -1    0    0  501    0  0.00000000000E+00  0.00000000000E+00  0.35506368564E+03  0.35506368564E+03  0.00000000000E+00 0. -1.
         -1   -1    0    0    0  501 -0.00000000000E+00 -0.00000000000E+00 -0.90086179032E+03  0.90086179032E+03  0.00000000000E+00 0.  1.
         24    2    1    2    0    0  0.10879618020E+03  0.88558991664E+02  0.48030972170E+02  0.16780320621E+03  0.78559772761E+02 0.  0.
        254    2    1    2    0    0 -0.10879618020E+03 -0.88558991664E+02 -0.59382907684E+03  0.10881222697E+04  0.90094272714E+03 0.  0.
         23    2    4    4    0    0  0.18521464308E+03 -0.40910666276E+03 -0.22397113064E+03  0.50982865756E+03  0.89941465314E+02 0.  0.
         23    2    4    4    0    0 -0.29401082328E+03  0.32054767110E+03 -0.36985794620E+03  0.57829361219E+03  0.91844585461E+02 0.  0.
          2    1    3    3  502    0  0.10358408595E+03  0.42719483379E+02  0.47408267122E+02  0.12166413158E+03  0.00000000000E+00 0. -1.
         -1    1    3    3    0  502  0.52120942552E+01  0.45839508285E+02  0.62270504863E+00  0.46139074632E+02  0.00000000000E+00 0.  1.
         13    1    5    5    0    0  0.28334090058E+02 -0.17454690851E+02 -0.32479813209E+02  0.46501883383E+02  0.00000000000E+00 0.  1.
        -13    1    5    5    0    0  0.15688055302E+03 -0.39165197191E+03 -0.19149131743E+03  0.46332677418E+03  0.00000000000E+00 0. -1.
          2    1    6    6  503    0 -0.25344593192E+03  0.26908508941E+03 -0.35185717554E+03  0.51033821896E+03  0.00000000000E+00 0. -1.
         -2    1    6    6    0  503 -0.40564891358E+02  0.51462581683E+02 -0.18000770661E+02  0.67955393228E+02  0.00000000000E+00 0.  1.
<mgrwt>
<rscale>  0 0.11311292E+04</rscale>
<asrwt>0</asrwt>
<pdfrwt beam="1">  1        2 0.54625183E-01 0.11311292E+04</pdfrwt>
<pdfrwt beam="2">  1       -1 0.13859412E+00 0.11311292E+04</pdfrwt>
<totfact> 0.44420269E+01</totfact>
</mgrwt>
</event>
<event>
12    7  0.1605494E-007  0.1665846E+04  0.7818608E-02  0.8781087E-01
         -1   -1    0    0    0  501 -0.00000000000E+00  0.00000000000E+00  0.56428463871E+03  0.56428463871E+03  0.00000000000E+00 0.  1.
          2   -1    0    0  501    0  0.00000000000E+00 -0.00000000000E+00 -0.12294510114E+04  0.12294510114E+04  0.00000000000E+00 0. -1.
         24    2    1    2    0    0  0.11506223216E+03 -0.45037176346E+03  0.15356795866E+03  0.49591289095E+03  0.79198705057E+02 0.  0.
        254    2    1    2    0    0 -0.11506223216E+03  0.45037176346E+03 -0.81873433134E+03  0.12978227592E+04  0.89327709377E+03 0.  0.
         23    2    4    4    0    0 -0.36088140563E+03  0.53651331436E+03 -0.78268811763E+03  0.10193029587E+04  0.91081868245E+02 0.  0.
         23    2    4    4    0    0  0.24581917347E+03 -0.86141550894E+02 -0.36046213715E+02  0.27851980045E+03  0.91796061384E+02 0.  0.
          2    1    3    3  502    0 -0.71678376823E+01 -0.56231308684E+02  0.34274595417E+01  0.56789835818E+02  0.00000000000E+00 0. -1.
         -1    1    3    3    0  502  0.12223006984E+03 -0.39414045478E+03  0.15014049912E+03  0.43912305513E+03  0.00000000000E+00 0.  1.
         13    1    5    5    0    0 -0.36548911975E+03  0.53471968365E+03 -0.77924894614E+03  0.10132799992E+04  0.00000000000E+00 0. -1.
        -13    1    5    5    0    0  0.46077141173E+01  0.17936307112E+01 -0.34391714886E+01  0.60229594921E+01  0.00000000000E+00 0.  1.
          1    1    6    6  503    0  0.22547933378E+03 -0.10203408447E+03 -0.44289954350E+02  0.25142291942E+03  0.00000000000E+00 0. -1.
         -1    1    6    6    0  503  0.20339839686E+02  0.15892533571E+02  0.82437406346E+01  0.27096881027E+02  0.00000000000E+00 0.  1.
<mgrwt>
<rscale>  0 0.16658455E+04</rscale>
<asrwt>0</asrwt>
<pdfrwt beam="1">  1        2 0.18914631E+00 0.16658455E+04</pdfrwt>
<pdfrwt beam="2">  1       -1 0.86813021E-01 0.16658455E+04</pdfrwt>
<totfact> 0.25876983E+01</totfact>
</mgrwt>
</event>
<event>
12    7  0.1605494E-007  0.1897749E+04  0.7818608E-02  0.8655978E-01
          2   -1    0    0  501    0  0.00000000000E+00  0.00000000000E+00  0.53888717361E+03  0.53888717361E+03  0.00000000000E+00 0. -1.
         -1   -1    0    0    0  501 -0.00000000000E+00 -0.00000000000E+00 -0.16707811728E+04  0.16707811728E+04  0.00000000000E+00 0.  1.
         24    2    1    2    0    0 -0.37722344391E+03  0.63341568013E+03 -0.44942870061E+03  0.86711573269E+03  0.79941143802E+02 0.  0.
        254    2    1    2    0    0  0.37722344391E+03 -0.63341568013E+03 -0.68246529855E+03  0.13425526137E+04  0.89060411314E+03 0.  0.
         23    2    4    4    0    0 -0.32553734006E+02 -0.18909118921E+03  0.18446454353E+03  0.28155536722E+03  0.91820659770E+02 0.  0.
         23    2    4    4    0    0  0.40977717792E+03 -0.44432449092E+03 -0.86692984208E+03  0.10609972465E+04  0.93841446857E+02 0.  0.
          2    1    3    3  502    0 -0.26521602061E+03  0.47723543551E+03 -0.36778997259E+03  0.65830286528E+03  0.00000000000E+00 0. -1.
         -1    1    3    3    0  502 -0.11200742330E+03  0.15618024461E+03 -0.81638728027E+02  0.20881286741E+03  0.00000000000E+00 0.  1.
         13    1    5    5    0    0 -0.26359506979E+02 -0.19572961447E+03  0.18715253617E+03  0.27208634178E+03  0.00000000000E+00 0. -1.
        -13    1    5    5    0    0 -0.61942270265E+01  0.66384252630E+01 -0.26879926411E+01  0.94690254444E+01  0.00000000000E+00 0.  1.
          4    1    6    6  503    0  0.40310558831E+03 -0.40588121338E+03 -0.79914845805E+03  0.98278783707E+03  0.00000000000E+00 0. -1.
         -4    1    6    6    0  503  0.66715896035E+01 -0.38443277547E+02 -0.67781384030E+02  0.78209409392E+02  0.00000000000E+00 0.  1.
<mgrwt>
<rscale>  0 0.18977487E+04</rscale>
<asrwt>0</asrwt>
<pdfrwt beam="1">  1        2 0.82905719E-01 0.18977487E+04</pdfrwt>
<pdfrwt beam="2">  1       -1 0.25704326E+00 0.18977487E+04</pdfrwt>
<totfact> 0.37858132E+00</totfact>
</mgrwt>
</event>
<event>
12    7  0.1605494E-007  0.1484016E+04  0.7818608E-02  0.8895152E-01
          2   -1    0    0  501    0  0.00000000000E+00  0.00000000000E+00  0.13682990363E+04  0.13682990363E+04  0.00000000000E+00 0. -1.
         -1   -1    0    0    0  501 -0.00000000000E+00 -0.00000000000E+00 -0.40237996718E+03  0.40237996718E+03  0.00000000000E+00 0.  1.
         24    2    1    2    0    0  0.16493549635E+03  0.41929174680E+03  0.87176354647E+02  0.46565884254E+03  0.78924989350E+02 0.  0.
        254    2    1    2    0    0 -0.16493549635E+03 -0.41929174680E+03  0.87874271446E+03  0.13050201609E+04  0.85315858744E+03 0.  0.
         23    2    4    4    0    0  0.40199454841E+02 -0.31144421321E+03 -0.60652988067E+02  0.33308970797E+03  0.93040176702E+02 0.  0.
         23    2    4    4    0    0 -0.20513495119E+03 -0.10784753359E+03  0.93939570252E+03  0.97193045296E+03  0.92049338784E+02 0.  0.
          4    1    3    3  502    0  0.69675641646E+01  0.16452176688E+02  0.21569792008E+02  0.28008516480E+02  0.00000000000E+00 0. -1.
         -3    1    3    3    0  502  0.15796793218E+03  0.40283957011E+03  0.65606562640E+02  0.43765032607E+03  0.00000000000E+00 0.  1.
         13    1    5    5    0    0  0.54585318681E+02 -0.99407599329E+02 -0.36808956289E+02  0.11923224012E+03  0.00000000000E+00 0.  1.
        -13    1    5    5    0    0 -0.14385863840E+02 -0.21203661388E+03 -0.23844031778E+02  0.21385746785E+03  0.00000000000E+00 0. -1.
          4    1    6    6  503    0 -0.10859005817E+03 -0.43989720053E+02  0.64577149836E+03  0.65631373923E+03  0.00000000000E+00 0. -1.
         -4    1    6    6    0  503 -0.96544893014E+02 -0.63857813534E+02  0.29362420417E+03  0.31561671373E+03  0.00000000000E+00 0.  1.
<mgrwt>
<rscale>  0 0.14840163E+04</rscale>
<asrwt>0</asrwt>
<pdfrwt beam="1">  1        2 0.21050754E+00 0.14840163E+04</pdfrwt>
<pdfrwt beam="2">  1       -1 0.61904611E-01 0.14840163E+04</pdfrwt>
<totfact> 0.44035472E+01</totfact>
</mgrwt>
</event>
<event>
12    7  0.1605494E-007  0.2270698E+04  0.7818608E-02  0.8489565E-01
          2   -1    0    0  501    0  0.00000000000E+00  0.00000000000E+00  0.28968805113E+04  0.28968805113E+04  0.00000000000E+00 0. -1.
         -1   -1    0    0    0  501 -0.00000000000E+00 -0.00000000000E+00 -0.44496734182E+03  0.44496734182E+03  0.00000000000E+00 0.  1.
         24    2    1    2    0    0 -0.71890654558E+03  0.32792454935E+03  0.24655054071E+03  0.83161018400E+03  0.80169805149E+02 0.  0.
        254    2    1    2    0    0  0.71890654558E+03 -0.32792454935E+03  0.22053626288E+04  0.25102376692E+04  0.90183573878E+03 0.  0.
         23    2    4    4    0    0  0.28317672396E+03 -0.48047121316E+03  0.55041873374E+03  0.78943913048E+03  0.95977677644E+02 0.  0.
         23    2    4    4    0    0  0.43572982162E+03  0.15254666381E+03  0.16549438951E+04  0.17207985387E+04  0.95798501041E+02 0.  0.
          4    1    3    3  502    0 -0.60751871095E+01 -0.44749101429E+01  0.39849312278E+01  0.85330179944E+01  0.00000000000E+00 0. -1.
         -3    1    3    3    0  502 -0.71283135847E+03  0.33239945949E+03  0.24256560948E+03  0.82307716600E+03  0.00000000000E+00 0.  1.
         13    1    5    5    0    0  0.10292562454E+03 -0.26871172429E+03  0.27358146417E+03  0.39704721697E+03  0.00000000000E+00 0.  1.
        -13    1    5    5    0    0  0.18025109943E+03 -0.21175948887E+03  0.27683726957E+03  0.39239191351E+03  0.00000000000E+00 0. -1.
          1    1    6    6  503    0  0.24222077437E+03  0.13374617096E+03  0.10058733150E+04  0.10432353845E+04  0.00000000000E+00 0. -1.
         -1    1    6    6    0  503  0.19350904724E+03  0.18800492852E+02  0.64907058009E+03  0.67756315413E+03  0.00000000000E+00 0.  1.
<mgrwt>
<rscale>  0 0.22706979E+04</rscale>
<asrwt>0</asrwt>
<pdfrwt beam="1">  1        2 0.44567391E+00 0.22706979E+04</pdfrwt>
<pdfrwt beam="2">  1       -1 0.68456516E-01 0.22706979E+04</pdfrwt>
<totfact> 0.45093677E+00</totfact>
</mgrwt>
</event>
<event>
12    7  0.1605494E-007  0.1497915E+04  0.7818608E-02  0.8885840E-01
         -1   -1    0    0    0  501 -0.00000000000E+00  0.00000000000E+00  0.79553806170E+03  0.79553806170E+03  0.00000000000E+00 0.  1.
          2   -1    0    0  501    0  0.00000000000E+00 -0.00000000000E+00 -0.70510451173E+03  0.70510451173E+03  0.00000000000E+00 0. -1.
         24    2    1    2    0    0  0.14433853580E+03 -0.36732455135E+03  0.27857384617E+03  0.48967101910E+03  0.80083582838E+02 0.  0.
        254    2    1    2    0    0 -0.14433853580E+03  0.36732455135E+03 -0.18814029619E+03  0.10109715543E+04  0.91154033025E+03 0.  0.
         23    2    4    4    0    0  0.32466190800E+02  0.53244748534E+03  0.17125716557E+03  0.56763506426E+03  0.91247856043E+02 0.  0.
         23    2    4    4    0    0 -0.17680472660E+03 -0.16512293399E+03 -0.35939746176E+03  0.44333649007E+03  0.94102142518E+02 0.  0.
          2    1    3    3  502    0  0.20762556321E+02 -0.67838818997E+02  0.16191735802E+02  0.72769233994E+02  0.00000000000E+00 0. -1.
         -1    1    3    3    0  502  0.12357597948E+03 -0.29948573235E+03  0.26238211036E+03  0.41690178511E+03  0.00000000000E+00 0.  1.
         13    1    5    5    0    0  0.42044780836E+01  0.14227131528E+03  0.45754944304E+01  0.14240695185E+03  0.00000000000E+00 0.  1.
        -13    1    5    5    0    0  0.28261712717E+02  0.39017617006E+03  0.16668167114E+03  0.42522811241E+03  0.00000000000E+00 0. -1.
          1    1    6    6  503    0  0.10915402023E+01  0.64216849512E+01  0.74468284995E+00  0.65562222486E+01  0.00000000000E+00 0. -1.
         -1    1    6    6    0  503 -0.17789626680E+03 -0.17154461894E+03 -0.36014214461E+03  0.43678026782E+03  0.00000000000E+00 0.  1.
<mgrwt>
<rscale>  0 0.14979152E+04</rscale>
<asrwt>0</asrwt>
<pdfrwt beam="1">  1        2 0.10847762E+00 0.14979152E+04</pdfrwt>
<pdfrwt beam="2">  1       -1 0.12239047E+00 0.14979152E+04</pdfrwt>
<totfact> 0.26430983E+01</totfact>
</mgrwt>
</event>
<event>
12    7  0.1605494E-007  0.1354774E+04  0.7818608E-02  0.8987222E-01
         -1   -1    0    0    0  501 -0.00000000000E+00  0.00000000000E+00  0.61240352152E+03  0.61240352152E+03  0.00000000000E+00 0.  1.
          2   -1    0    0  501    0  0.00000000000E+00 -0.00000000000E+00 -0.74926590345E+03  0.74926590345E+03  0.00000000000E+00 0. -1.
         24    2    1    2    0    0 -0.48069967854E+02  0.13618000523E+03 -0.38272386755E+03  0.41706715041E+03  0.81312566845E+02 0.  0.
        254    2    1    2    0    0  0.48069967854E+02 -0.13618000523E+03  0.24586148562E+03  0.94460227457E+03  0.90053865623E+03 0.  0.
         23    2    4    4    0    0  0.37945446090E+03 -0.32407679015E+03  0.59014474289E+02  0.51102012743E+03  0.92991443936E+02 0.  0.
         23    2    4    4    0    0 -0.33138449305E+03  0.18789678492E+03  0.18684701133E+03  0.43358214714E+03  0.89223251767E+02 0.  0.
          4    1    3    3  502    0 -0.63741654410E+02  0.11492822904E+03 -0.35606726707E+03  0.37954630154E+03  0.00000000000E+00 0. -1.
         -3    1    3    3    0  502  0.15671686556E+02  0.21251776186E+02 -0.26656600480E+02  0.37520848867E+02  0.00000000000E+00 0.  1.
         13    1    5    5    0    0  0.22702083521E+03 -0.16067052731E+03  0.71617543845E+02  0.28719775513E+03  0.00000000000E+00 0. -1.
        -13    1    5    5    0    0  0.15243362569E+03 -0.16340626284E+03 -0.12603069556E+02  0.22382237230E+03  0.00000000000E+00 0.  1.
          1    1    6    6  503    0 -0.29952935569E+03  0.13590064549E+03  0.14401552236E+03  0.35906446643E+03  0.00000000000E+00 0. -1.
         -1    1    6    6    0  503 -0.31855137354E+02  0.51996139430E+02  0.42831488969E+02  0.74517680713E+02  0.00000000000E+00 0.  1.
<mgrwt>
<rscale>  0 0.13547739E+04</rscale>
<asrwt>0</asrwt>
<pdfrwt beam="1">  1        2 0.11527168E+00 0.13547739E+04</pdfrwt>
<pdfrwt beam="2">  1       -1 0.94215927E-01 0.13547739E+04</pdfrwt>
<totfact> 0.45694213E+01</totfact>
</mgrwt>
</event>
<event>
12    7  0.1605494E-007  0.1947714E+04  0.7818608E-02  0.8631464E-01
          2   -1    0    0  501    0  0.00000000000E+00  0.00000000000E+00  0.14624128018E+04  0.14624128018E+04  0.00000000000E+00 0. -1.
         -1   -1    0    0    0  501 -0.00000000000E+00 -0.00000000000E+00 -0.64851543305E+03  0.64851543305E+03  0.00000000000E+00 0.  1.
         24    2    1    2    0    0  0.55049450673E+03 -0.28205172791E+03  0.80716367614E+03  0.10199984029E+04  0.79285324646E+02 0.  0.
        254    2    1    2    0    0 -0.55049450673E+03  0.28205172791E+03  0.67336925619E+01  0.10909298319E+04  0.89860178964E+03 0.  0.
         23    2    4    4    0    0  0.47784606260E+02 -0.23892212548E+03  0.11526827887E+03  0.28458363353E+03  0.91290293701E+02 0.  0.
         23    2    4    4    0    0 -0.59827911299E+03  0.52097385339E+03 -0.10853458630E+03  0.80634619836E+03  0.95198646184E+02 0.  0.
          2    1    3    3  502    0  0.49065297616E+03 -0.26826248414E+03  0.75426361736E+03  0.93894552978E+03  0.00000000000E+00 0. -1.
         -1    1    3    3    0  502  0.59841530566E+02 -0.13789243772E+02  0.52900058774E+02  0.81052873130E+02  0.00000000000E+00 0.  1.
         13    1    5    5    0    0  0.41125161130E+00  0.71798226566E+01 -0.25775065821E+01  0.76395367300E+01  0.00000000000E+00 0.  1.
        -13    1    5    5    0    0  0.47373354649E+02 -0.24610194813E+03  0.11784578545E+03  0.27694409680E+03  0.00000000000E+00 0. -1.
          1    1    6    6  503    0 -0.44035008869E+03  0.38849458283E+03 -0.37922508319E+02  0.58845081199E+03  0.00000000000E+00 0. -1.
         -1    1    6    6    0  503 -0.15792902430E+03  0.13247927056E+03 -0.70612077985E+02  0.21789538637E+03  0.00000000000E+00 0.  1.
<mgrwt>
<rscale>  0 0.19477138E+04</rscale>
<asrwt>0</asrwt>
<pdfrwt beam="1">  1        2 0.22498658E+00 0.19477138E+04</pdfrwt>
<pdfrwt beam="2">  1       -1 0.99771606E-01 0.19477138E+04</pdfrwt>
<totfact> 0.13580298E+01</totfact>
</mgrwt>
</event>
<event>
12    7  0.1605494E-007  0.3496382E+04  0.7818608E-02  0.8114648E-01
         -1   -1    0    0    0  501 -0.00000000000E+00  0.00000000000E+00  0.15618301997E+04  0.15618301997E+04  0.00000000000E+00 0.  1.
          2   -1    0    0  501    0  0.00000000000E+00 -0.00000000000E+00 -0.19567889167E+04  0.19567889167E+04  0.00000000000E+00 0. -1.
         24    2    1    2    0    0 -0.84677642660E+03 -0.13844663292E+04 -0.31785404887E+03  0.16562809170E+04  0.91967093823E+02 0.  0.
        254    2    1    2    0    0  0.84677642660E+03  0.13844663292E+04 -0.77104668055E+02  0.18623381994E+04  0.91026430547E+03 0.  0.
         23    2    4    4    0    0  0.95219685187E+03  0.13003692892E+04  0.10493672130E+03  0.16176961767E+04  0.91049830084E+02 0.  0.
         23    2    4    4    0    0 -0.10542042527E+03  0.84097039963E+02 -0.18204138935E+03  0.24464202270E+03  0.92330242282E+02 0.  0.
          4    1    3    3  502    0 -0.76146786356E+03 -0.12801871644E+04 -0.30910671975E+03  0.15212690253E+04  0.00000000000E+00 0. -1.
         -3    1    3    3    0  502 -0.85308563041E+02 -0.10427916483E+03 -0.87473291263E+01  0.13501189175E+03  0.00000000000E+00 0.  1.
         13    1    5    5    0    0  0.10403777009E+03  0.19494524297E+03  0.15044654591E+02  0.22148103078E+03  0.00000000000E+00 0. -1.
        -13    1    5    5    0    0  0.84815908179E+03  0.11054240462E+04  0.89892066708E+02  0.13962151459E+04  0.00000000000E+00 0.  1.
          2    1    6    6  503    0 -0.11580757281E+03  0.85961445096E+02 -0.13892216713E+03  0.20025017474E+03  0.00000000000E+00 0.  1.
         -2    1    6    6    0  503  0.10387147539E+02 -0.18644051333E+01 -0.43119222223E+02  0.44391847964E+02  0.00000000000E+00 0. -1.
<mgrwt>
<rscale>  0 0.34963821E+04</rscale>
<asrwt>0</asrwt>
<pdfrwt beam="1">  1        2 0.30104445E+00 0.34963821E+04</pdfrwt>
<pdfrwt beam="2">  1       -1 0.24028157E+00 0.34963821E+04</pdfrwt>
<totfact> 0.53303553E-01</totfact>
</mgrwt>
</event>
<event>
12    7  0.1605494E-007  0.2436575E+04  0.7818608E-02  0.8425936E-01
         -1   -1    0    0    0  501 -0.00000000000E+00  0.00000000000E+00  0.46899049070E+03  0.46899049070E+03  0.00000000000E+00 0.  1.
          2   -1    0    0  501    0  0.00000000000E+00 -0.00000000000E+00 -0.31647214475E+04  0.31647214475E+04  0.00000000000E+00 0. -1.
         24    2    1    2    0    0 -0.78500901278E+03 -0.66882251816E+03 -0.18384575567E+04  0.21093662475E+04  0.77052366533E+02 0.  0.
        254    2    1    2    0    0  0.78500901278E+03  0.66882251816E+03 -0.85727340014E+03  0.15243456908E+04  0.72467191987E+03 0.  0.
         23    2    4    4    0    0  0.41990466133E+03  0.47352058667E+03 -0.86653748300E+02  0.64518076595E+03  0.90596236378E+02 0.  0.
         23    2    4    4    0    0  0.36510435145E+03  0.19530193149E+03 -0.77061965184E+03  0.87916492483E+03  0.87362951818E+02 0.  0.
          4    1    3    3  502    0 -0.48762647349E+03 -0.39389615335E+03 -0.11850445993E+04  0.13406209231E+04  0.00000000000E+00 0. -1.
         -3    1    3    3    0  502 -0.29738253929E+03 -0.27492636481E+03 -0.65341295743E+03  0.76874532433E+03  0.00000000000E+00 0.  1.
         13    1    5    5    0    0  0.88543250257E+02  0.65023308424E+02  0.10260849789E+02  0.11033232909E+03  0.00000000000E+00 0. -1.
        -13    1    5    5    0    0  0.33136141107E+03  0.40849727825E+03 -0.96914598090E+02  0.53484843686E+03  0.00000000000E+00 0.  1.
          1    1    6    6  503    0  0.41039017031E+01  0.21447810398E+02 -0.51785166161E+02  0.56201014353E+02  0.00000000000E+00 0. -1.
         -1    1    6    6    0  503  0.36100044975E+03  0.17385412109E+03 -0.71883448568E+03  0.82296391047E+03  0.00000000000E+00 0.  1.
<mgrwt>
<rscale>  0 0.24365749E+04</rscale>
<asrwt>0</asrwt>
<pdfrwt beam="1">  1        2 0.48688022E+00 0.24365749E+04</pdfrwt>
<pdfrwt beam="2">  1       -1 0.72152384E-01 0.24365749E+04</pdfrwt>
<totfact> 0.27037609E+00</totfact>
</mgrwt>
</event>
<event>
12    7  0.1605494E-007  0.1383797E+04  0.7818608E-02  0.8965631E-01
          2   -1    0    0  501    0  0.00000000000E+00  0.00000000000E+00  0.78882713356E+03  0.78882713356E+03  0.00000000000E+00 0. -1.
         -1   -1    0    0    0  501 -0.00000000000E+00 -0.00000000000E+00 -0.60688044878E+03  0.60688044878E+03  0.00000000000E+00 0.  1.
         24    2    1    2    0    0 -0.25627220915E+03 -0.28794737384E+03  0.15062865663E+03  0.42137902788E+03  0.79260063431E+02 0.  0.
        254    2    1    2    0    0  0.25627220915E+03  0.28794737384E+03  0.31318028149E+02  0.97432855446E+03  0.89428528886E+03 0.  0.
         23    2    4    4    0    0  0.21987151048E+03 -0.68615572819E+02  0.38769975057E+03  0.46041607193E+03  0.92845488549E+02 0.  0.
         23    2    4    4    0    0  0.36400698674E+02  0.35656294666E+03 -0.35638172242E+03  0.51391248253E+03  0.92929875893E+02 0.  0.
          2    1    3    3  502    0 -0.20581259043E+03 -0.26298482543E+03  0.10872568874E+03  0.35119953898E+03  0.00000000000E+00 0. -1.
         -1    1    3    3    0  502 -0.50459618720E+02 -0.24962548404E+02  0.41902967886E+02  0.70179488897E+02  0.00000000000E+00 0.  1.
         13    1    5    5    0    0  0.19294995673E+02 -0.39782115143E+02  0.90286835392E+02  0.10053171733E+03  0.00000000000E+00 0.  1.
        -13    1    5    5    0    0  0.20057651480E+03 -0.28833457676E+02  0.29741291518E+03  0.35988435460E+03  0.00000000000E+00 0. -1.
          2    1    6    6  503    0  0.16178115824E+02  0.29290333706E+03 -0.33143963571E+03  0.44261306851E+03  0.00000000000E+00 0. -1.
         -2    1    6    6    0  503  0.20222582849E+02  0.63659609592E+02 -0.24942086713E+02  0.71299414024E+02  0.00000000000E+00 0.  1.
<mgrwt>
<rscale>  0 0.13837973E+04</rscale>
<asrwt>0</asrwt>
<pdfrwt beam="1">  1        2 0.12135802E+00 0.13837973E+04</pdfrwt>
<pdfrwt beam="2">  1       -1 0.93366223E-01 0.13837973E+04</pdfrwt>
<totfact> 0.43488082E+01</totfact>
</mgrwt>
</event>
<event>
12    7  0.1605494E-007  0.1226650E+04  0.7818608E-02  0.9089844E-01
          2   -1    0    0  501    0  0.00000000000E+00  0.00000000000E+00  0.59820963660E+03  0.59820963660E+03  0.00000000000E+00 0. -1.
         -1   -1    0    0    0  501 -0.00000000000E+00 -0.00000000000E+00 -0.62882267539E+03  0.62882267539E+03  0.00000000000E+00 0.  1.
         24    2    1    2    0    0  0.43082279932E+02 -0.10056247695E+03 -0.23292012800E+03  0.26838464623E+03  0.76220979342E+02 0.  0.
        254    2    1    2    0    0 -0.43082279932E+02  0.10056247695E+03  0.20230708921E+03  0.95864766576E+03  0.93064939376E+03 0.  0.
         23    2    4    4    0    0  0.32850469715E+03 -0.82309152200E+01 -0.19797805686E+03  0.39447188746E+03  0.91813261500E+02 0.  0.
         23    2    4    4    0    0 -0.37158697708E+03  0.10879339217E+03  0.40028514607E+03  0.56417577829E+03  0.90295220999E+02 0.  0.
          2    1    3    3  502    0 -0.11760412449E+02 -0.16540216535E+02 -0.74893673451E+01  0.21632768829E+02  0.00000000000E+00 0. -1.
         -1    1    3    3    0  502  0.54842692381E+02 -0.84022260413E+02 -0.22543076066E+03  0.24675187740E+03  0.00000000000E+00 0.  1.
         13    1    5    5    0    0  0.29465658124E+02 -0.26129588021E+02 -0.38579840102E+02  0.55130612559E+02  0.00000000000E+00 0.  1.
        -13    1    5    5    0    0  0.29903903902E+03  0.17898672801E+02 -0.15939821676E+03  0.33934127490E+03  0.00000000000E+00 0. -1.
          3    1    6    6  503    0 -0.21795132288E+03  0.18832199663E+02  0.23812332352E+03  0.32335761642E+03  0.00000000000E+00 0. -1.
         -3    1    6    6    0  503 -0.15363565419E+03  0.89961192505E+02  0.16216182255E+03  0.24081816188E+03  0.00000000000E+00 0.  1.
<mgrwt>
<rscale>  0 0.12266504E+04</rscale>
<asrwt>0</asrwt>
<pdfrwt beam="1">  1        2 0.92032252E-01 0.12266504E+04</pdfrwt>
<pdfrwt beam="2">  1       -1 0.96741950E-01 0.12266504E+04</pdfrwt>
<totfact> 0.57621934E+01</totfact>
</mgrwt>
</event>
<event>
12    7  0.1605494E-007  0.2321584E+04  0.7818608E-02  0.8469459E-01
          2   -1    0    0  501    0  0.00000000000E+00  0.00000000000E+00  0.27120195927E+04  0.27120195927E+04  0.00000000000E+00 0. -1.
         -1   -1    0    0    0  501 -0.00000000000E+00 -0.00000000000E+00 -0.49683942906E+03  0.49683942906E+03  0.00000000000E+00 0.  1.
         24    2    1    2    0    0 -0.76576468052E+03  0.60844071413E+03  0.13428747129E+04  0.16633158069E+04  0.81922709587E+02 0.  0.
        254    2    1    2    0    0  0.76576468052E+03 -0.60844071413E+03  0.87230545074E+03  0.15455432149E+04  0.81926270578E+03 0.  0.
         23    2    4    4    0    0  0.91082843390E+03 -0.54272499738E+03  0.61177617840E+03  0.12276187007E+04  0.92837077748E+02 0.  0.
         23    2    4    4    0    0 -0.14506375338E+03 -0.65715716743E+02  0.26052927234E+03  0.31792451419E+03  0.88535004394E+02 0.  0.
          4    1    3    3  502    0 -0.12781686210E+02  0.89315734111E+01  0.44082162731E+02  0.46758759361E+02  0.00000000000E+00 0. -1.
         -3    1    3    3    0  502 -0.75298299431E+03  0.59950914072E+03  0.12987925501E+04  0.16165570475E+04  0.00000000000E+00 0.  1.
         13    1    5    5    0    0  0.79757425446E+03 -0.44844091875E+03  0.50032895242E+03  0.10428580966E+04  0.00000000000E+00 0.  1.
        -13    1    5    5    0    0  0.11325417944E+03 -0.94284078638E+02  0.11144722598E+03  0.18476060409E+03  0.00000000000E+00 0. -1.
          2    1    6    6  503    0  0.81434842224E+01 -0.14419545581E+02  0.86568904579E+01  0.18686395651E+02  0.00000000000E+00 0. -1.
         -2    1    6    6    0  503 -0.15320723760E+03 -0.51296171162E+02  0.25187238188E+03  0.29923811854E+03  0.00000000000E+00 0.  1.
<mgrwt>
<rscale>  0 0.23215842E+04</rscale>
<asrwt>0</asrwt>
<pdfrwt beam="1">  1        2 0.41723377E+00 0.23215842E+04</pdfrwt>
<pdfrwt beam="2">  1       -1 0.76436837E-01 0.23215842E+04</pdfrwt>
<totfact> 0.46212318E+00</totfact>
</mgrwt>
</event>
<event>
12    7  0.1605494E-007  0.1987987E+04  0.7818608E-02  0.8612258E-01
         -1   -1    0    0    0  501 -0.00000000000E+00  0.00000000000E+00  0.22537817688E+04  0.22537817688E+04  0.00000000000E+00 0.  1.
          2   -1    0    0  501    0  0.00000000000E+00 -0.00000000000E+00 -0.43838454488E+03  0.43838454488E+03  0.00000000000E+00 0. -1.
         24    2    1    2    0    0 -0.18191453243E+03 -0.74228077710E+03  0.54376304323E+03  0.94129431302E+03  0.79265928202E+02 0.  0.
        254    2    1    2    0    0  0.18191453243E+03  0.74228077710E+03  0.12716341807E+04  0.17508720006E+04  0.92974492414E+03 0.  0.
         23    2    4    4    0    0  0.39452811796E+03  0.32169198295E+02  0.70285325345E+03  0.81198784457E+03  0.92920776285E+02 0.  0.
         23    2    4    4    0    0 -0.21261358553E+03  0.71011157881E+03  0.56878092721E+03  0.93888415605E+03  0.92351092088E+02 0.  0.
          4    1    3    3  502    0 -0.17959324335E+03 -0.64277334670E+03  0.45317557182E+03  0.80670899783E+03  0.00000000000E+00 0. -1.
         -3    1    3    3    0  502 -0.23212890811E+01 -0.99507430409E+02  0.90587471409E+02  0.13458531519E+03  0.00000000000E+00 0.  1.
         13    1    5    5    0    0  0.32746443746E+03  0.16340062313E+02  0.63821906946E+03  0.71751204593E+03  0.00000000000E+00 0.  1.
        -13    1    5    5    0    0  0.67063680502E+02  0.15829135982E+02  0.64634183995E+02  0.94475798642E+02  0.00000000000E+00 0. -1.
          1    1    6    6  503    0  0.17701539517E+01  0.31998415759E+02  0.75718454521E+01  0.32929696319E+02  0.00000000000E+00 0. -1.
         -1    1    6    6    0  503 -0.21438373948E+03  0.67811316305E+03  0.56120908175E+03  0.90595445973E+03  0.00000000000E+00 0.  1.
<mgrwt>
<rscale>  0 0.19879870E+04</rscale>
<asrwt>0</asrwt>
<pdfrwt beam="1">  1        2 0.67443777E-01 0.19879870E+04</pdfrwt>
<pdfrwt beam="2">  1       -1 0.34673565E+00 0.19879870E+04</pdfrwt>
<totfact> 0.12455972E+00</totfact>
</mgrwt>
</event>
<event>
12    7  0.1605494E-007  0.3002060E+04  0.7818608E-02  0.8243143E-01
          2   -1    0    0  501    0  0.00000000000E+00  0.00000000000E+00  0.20885726979E+04  0.20885726979E+04  0.00000000000E+00 0. -1.
         -1   -1    0    0    0  501 -0.00000000000E+00 -0.00000000000E+00 -0.10787710121E+04  0.10787710121E+04  0.00000000000E+00 0.  1.
         24    2    1    2    0    0  0.35096391673E+03  0.63832395179E+03  0.16684568602E+04  0.18224410781E+04  0.83126714492E+02 0.  0.
        254    2    1    2    0    0 -0.35096391673E+03 -0.63832395179E+03 -0.65865517444E+03  0.13449026318E+04  0.91885978906E+03 0.  0.
         23    2    4    4    0    0  0.69606903317E+02 -0.40269694468E+02 -0.59257368730E+03  0.60476416721E+03  0.90162929037E+02 0.  0.
         23    2    4    4    0    0 -0.42057082004E+03 -0.59805425732E+03 -0.66081487141E+02  0.74013846460E+03  0.94284009644E+02 0.  0.
          2    1    3    3  502    0  0.16939383621E+03  0.39217892918E+03  0.98762299248E+03  0.10760565782E+04  0.00000000000E+00 0. -1.
         -1    1    3    3    0  502  0.18157008051E+03  0.24614502261E+03  0.68083386772E+03  0.74638449993E+03  0.00000000000E+00 0.  1.
         13    1    5    5    0    0  0.25850297301E+01 -0.12103564035E+02 -0.60935478937E+01  0.13795287854E+02  0.00000000000E+00 0.  1.
        -13    1    5    5    0    0  0.67021873586E+02 -0.28166130433E+02 -0.58648013941E+03  0.59096887935E+03  0.00000000000E+00 0. -1.
          1    1    6    6  503    0 -0.30076037423E+03 -0.39080710731E+03 -0.53525843783E+01  0.49316898523E+03  0.00000000000E+00 0. -1.
         -1    1    6    6    0  503 -0.11981044582E+03 -0.20724715001E+03 -0.60728902763E+02  0.24696947938E+03  0.00000000000E+00 0.  1.
<mgrwt>
<rscale>  0 0.30020604E+04</rscale>
<asrwt>0</asrwt>
<pdfrwt beam="1">  1        2 0.32131888E+00 0.30020604E+04</pdfrwt>
<pdfrwt beam="2">  1       -1 0.16596477E+00 0.30020604E+04</pdfrwt>
<totfact> 0.15299088E+00</totfact>
</mgrwt>
</event>
<event>
12    7  0.1605494E-007  0.1614117E+04  0.7818608E-02  0.8811922E-01
         -1   -1    0    0    0  501 -0.00000000000E+00  0.00000000000E+00  0.33403497979E+03  0.33403497979E+03  0.00000000000E+00 0.  1.
          2   -1    0    0  501    0  0.00000000000E+00 -0.00000000000E+00 -0.19499246662E+04  0.19499246662E+04  0.00000000000E+00 0. -1.
         24    2    1    2    0    0 -0.37419288127E+03  0.40510610951E+03 -0.36101876490E+03  0.66319799109E+03  0.73251310058E+02 0.  0.
        254    2    1    2    0    0  0.37419288127E+03 -0.40510610951E+03 -0.12548709215E+04  0.16207616549E+04  0.86489076765E+03 0.  0.
         23    2    4    4    0    0  0.23042087740E+03  0.23306655232E+03 -0.60501661080E+03  0.69411883485E+03  0.91334872849E+02 0.  0.
         23    2    4    4    0    0  0.14377200387E+03 -0.63817266183E+03 -0.64985431067E+03  0.92664282001E+03  0.91769032758E+02 0.  0.
          4    1    3    3  502    0 -0.25534987076E+03  0.28949097388E+03 -0.21270575593E+03  0.44074064830E+03  0.00000000000E+00 0. -1.
         -1    1    3    3    0  502 -0.11884301050E+03  0.11561513563E+03 -0.14831300898E+03  0.22245734279E+03  0.00000000000E+00 0.  1.
         13    1    5    5    0    0  0.69565286285E+02  0.10244263677E+03 -0.15271003618E+03  0.19660665816E+03  0.00000000000E+00 0. -1.
        -13    1    5    5    0    0  0.16085559112E+03  0.13062391555E+03 -0.45230657463E+03  0.49751217669E+03  0.00000000000E+00 0.  1.
          1    1    6    6  503    0  0.20794055489E+02 -0.11035012626E+03 -0.67034617383E+02  0.13077913838E+03  0.00000000000E+00 0. -1.
         -1    1    6    6    0  503  0.12297794838E+03 -0.52782253557E+03 -0.58281969329E+03  0.79586368163E+03  0.00000000000E+00 0.  1.
<mgrwt>
<rscale>  0 0.16141165E+04</rscale>
<asrwt>0</asrwt>
<pdfrwt beam="1">  1        2 0.29998841E+00 0.16141165E+04</pdfrwt>
<pdfrwt beam="2">  1       -1 0.51389997E-01 0.16141165E+04</pdfrwt>
<totfact> 0.29608710E+01</totfact>
</mgrwt>
</event>
<event>
12    7  0.1605494E-007  0.2181636E+04  0.7818608E-02  0.8526111E-01
         -1   -1    0    0    0  501 -0.00000000000E+00  0.00000000000E+00  0.72794585456E+03  0.72794585456E+03  0.00000000000E+00 0.  1.
          2   -1    0    0  501    0  0.00000000000E+00 -0.00000000000E+00 -0.16345772270E+04  0.16345772270E+04  0.00000000000E+00 0. -1.
         24    2    1    2    0    0  0.80854566251E+03  0.19885056494E+03 -0.75262897306E+03  0.11251425191E+04  0.78788842885E+02 0.  0.
        254    2    1    2    0    0 -0.80854566251E+03 -0.19885056494E+03 -0.15400239943E+03  0.12373805625E+04  0.90227838375E+03 0.  0.
         23    2    4    4    0    0 -0.42632794374E+03 -0.68773960833E+02  0.36591372516E+03  0.57284496339E+03  0.88165324906E+02 0.  0.
         23    2    4    4    0    0 -0.38221771877E+03 -0.13007660411E+03 -0.51991612459E+03  0.66453559907E+03  0.91019109758E+02 0.  0.
          4    1    3    3  502    0  0.71745005334E+03  0.15762935578E+03 -0.68530427574E+03  0.10046011861E+04  0.00000000000E+00 0. -1.
         -3    1    3    3    0  502  0.91095609167E+02  0.41221209161E+02 -0.67324697323E+02  0.12054133301E+03  0.00000000000E+00 0.  1.
         13    1    5    5    0    0 -0.30164889464E+03 -0.61480424893E+02  0.30696235006E+03  0.43473875217E+03  0.00000000000E+00 0.  1.
        -13    1    5    5    0    0 -0.12467904910E+03 -0.72935359400E+01  0.58951375101E+02  0.13810621122E+03  0.00000000000E+00 0. -1.
          4    1    6    6  503    0 -0.19107890580E+03 -0.11221741987E+03 -0.26567559536E+03  0.34595869628E+03  0.00000000000E+00 0. -1.
         -4    1    6    6    0  503 -0.19113881296E+03 -0.17859184243E+02 -0.25424052923E+03  0.31857690278E+03  0.00000000000E+00 0.  1.
<mgrwt>
<rscale>  0 0.21816358E+04</rscale>
<asrwt>0</asrwt>
<pdfrwt beam="1">  1        2 0.25147342E+00 0.21816358E+04</pdfrwt>
<pdfrwt beam="2">  1       -1 0.11199167E+00 0.21816358E+04</pdfrwt>
<totfact> 0.81328484E+00</totfact>
</mgrwt>
</event>
<event>
12    7  0.1605494E-007  0.2400084E+04  0.7818608E-02  0.8439472E-01
         -3   -1    0    0    0  501 -0.00000000000E+00  0.00000000000E+00  0.16928650894E+04  0.16928650894E+04  0.00000000000E+00 0.  1.
          2   -1    0    0  501    0  0.00000000000E+00 -0.00000000000E+00 -0.85068873530E+03  0.85068873530E+03  0.00000000000E+00 0. -1.
         24    2    1    2    0    0  0.34424004054E+03 -0.47365810679E+03  0.12584093194E+04  0.13901775859E+04  0.78399602132E+02 0.  0.
        254    2    1    2    0    0 -0.34424004054E+03  0.47365810679E+03 -0.41623296527E+03  0.11533762388E+04  0.90231572037E+03 0.  0.
         23    2    4    4    0    0 -0.48941171103E+02 -0.17497676374E+03 -0.38197821591E+03  0.43413223804E+03  0.97730939819E+02 0.  0.
         23    2    4    4    0    0 -0.29529886943E+03  0.64863487053E+03 -0.34254749363E+02  0.71924400077E+03  0.90608648753E+02 0.  0.
          4    1    3    3  502    0  0.97085258215E+02 -0.15683561120E+03  0.31995221299E+03  0.36931338306E+03  0.00000000000E+00 0. -1.
         -3    1    3    3    0  502  0.24715478232E+03 -0.31682249558E+03  0.93845710637E+03  0.10208642028E+04  0.00000000000E+00 0.  1.
         13    1    5    5    0    0  0.27167334614E+02 -0.51600433364E+02 -0.14559769070E+03  0.15684181945E+03  0.00000000000E+00 0.  1.
        -13    1    5    5    0    0 -0.76108505717E+02 -0.12337633038E+03 -0.23638052521E+03  0.27729041858E+03  0.00000000000E+00 0. -1.
          4    1    6    6  503    0 -0.16308252450E+02  0.79349594626E+02  0.18455250619E+02  0.83083774232E+02  0.00000000000E+00 0. -1.
         -4    1    6    6    0  503 -0.27899061698E+03  0.56928527590E+03 -0.52709999982E+02  0.63616022653E+03  0.00000000000E+00 0.  1.
<mgrwt>
<rscale>  0 0.24000844E+04</rscale>
<asrwt>0</asrwt>
<pdfrwt beam="1">  1        2 0.13087519E+00 0.24000844E+04</pdfrwt>
<pdfrwt beam="2">  1       -3 0.26044078E+00 0.24000844E+04</pdfrwt>
<totfact> 0.11368387E+00</totfact>
</mgrwt>
</event>
<event>
12    7  0.1605494E-007  0.1855140E+04  0.7818608E-02  0.8677514E-01
          2   -1    0    0  501    0  0.00000000000E+00  0.00000000000E+00  0.20723506434E+04  0.20723506434E+04  0.00000000000E+00 0. -1.
         -1   -1    0    0    0  501 -0.00000000000E+00 -0.00000000000E+00 -0.41517403799E+03  0.41517403799E+03  0.00000000000E+00 0.  1.
         24    2    1    2    0    0  0.62417156174E+03 -0.23805723928E+03  0.94161694861E+03  0.11574105493E+04  0.81824898391E+02 0.  0.
        254    2    1    2    0    0 -0.62417156174E+03  0.23805723928E+03  0.71555965682E+03  0.13301141321E+04  0.90050907514E+03 0.  0.
         23    2    4    4    0    0  0.14038922929E+03 -0.15051230020E+03  0.29343337538E+03  0.36977378584E+03  0.90919847621E+02 0.  0.
         23    2    4    4    0    0 -0.76456079103E+03  0.38856953948E+03  0.42212628144E+03  0.96034034631E+03  0.92322765732E+02 0.  0.
          4    1    3    3  502    0  0.61638350962E+03 -0.24361454770E+03  0.93353628736E+03  0.11448871903E+04  0.00000000000E+00 0. -1.
         -3    1    3    3    0  502  0.77880521139E+01  0.55573084234E+01  0.80806612518E+01  0.12523358931E+02  0.00000000000E+00 0.  1.
         13    1    5    5    0    0  0.93838839631E+02 -0.34749626858E+02  0.12343225172E+03  0.15889866316E+03  0.00000000000E+00 0. -1.
        -13    1    5    5    0    0  0.46550389664E+02 -0.11576267334E+03  0.17000112365E+03  0.21087512267E+03  0.00000000000E+00 0.  1.
          1    1    6    6  503    0 -0.23252978218E+03  0.74874033149E+02  0.13693975344E+03  0.28005127479E+03  0.00000000000E+00 0. -1.
         -1    1    6    6    0  503 -0.53203100885E+03  0.31369550633E+03  0.28518652800E+03  0.68028907152E+03  0.00000000000E+00 0.  1.
<mgrwt>
<rscale>  0 0.18551401E+04</rscale>
<asrwt>0</asrwt>
<pdfrwt beam="1">  1        2 0.31882317E+00 0.18551401E+04</pdfrwt>
<pdfrwt beam="2">  1       -1 0.63872930E-01 0.18551401E+04</pdfrwt>
<totfact> 0.16199934E+01</totfact>
</mgrwt>
</event>
<event>
12    7  0.1605494E-007  0.1506835E+04  0.7818608E-02  0.8879920E-01
         -1   -1    0    0    0  501 -0.00000000000E+00  0.00000000000E+00  0.35999179814E+03  0.35999179814E+03  0.00000000000E+00 0.  1.
          2   -1    0    0  501    0  0.00000000000E+00 -0.00000000000E+00 -0.15768085171E+04  0.15768085171E+04  0.00000000000E+00 0. -1.
         24    2    1    2    0    0  0.22703551653E+03 -0.82296636736E+02 -0.92376059376E+03  0.95799940306E+03  0.78175184575E+02 0.  0.
        254    2    1    2    0    0 -0.22703551653E+03  0.82296636736E+02 -0.29305612521E+03  0.97880091220E+03  0.90213716863E+03 0.  0.
         23    2    4    4    0    0  0.94470716443E+02  0.32806594072E+03 -0.41636559614E+03  0.54590778483E+03  0.90016788227E+02 0.  0.
         23    2    4    4    0    0 -0.32150623297E+03 -0.24576930399E+03  0.12330947093E+03  0.43289312737E+03  0.91773773356E+02 0.  0.
          4    1    3    3  502    0  0.19000739034E+03 -0.63877382057E+02 -0.85115485194E+03  0.87444137042E+03  0.00000000000E+00 0. -1.
         -3    1    3    3    0  502  0.37028126196E+02 -0.18419254678E+02 -0.72605741820E+02  0.83558032635E+02  0.00000000000E+00 0.  1.
         13    1    5    5    0    0  0.10658860341E+03  0.32255809858E+03 -0.39902845660E+03  0.52405015649E+03  0.00000000000E+00 0.  1.
        -13    1    5    5    0    0 -0.12117886965E+02  0.55078421490E+01 -0.17337139539E+02  0.21857628349E+02  0.00000000000E+00 0. -1.
          2    1    6    6  503    0 -0.16634346673E+03 -0.13282269421E+03  0.11226883252E+03  0.24065807233E+03  0.00000000000E+00 0. -1.
         -2    1    6    6    0  503 -0.15516276625E+03 -0.11294660978E+03  0.11040638409E+02  0.19223505504E+03  0.00000000000E+00 0.  1.
<mgrwt>
<rscale>  0 0.15068353E+04</rscale>
<asrwt>0</asrwt>
<pdfrwt beam="1">  1        2 0.24258592E+00 0.15068353E+04</pdfrwt>
<pdfrwt beam="2">  1       -1 0.55383354E-01 0.15068353E+04</pdfrwt>
<totfact> 0.41672408E+01</totfact>
</mgrwt>
</event>
<event>
12    7  0.1605494E-007  0.1414065E+04  0.7818608E-02  0.8943700E-01
          2   -1    0    0  501    0  0.00000000000E+00  0.00000000000E+00  0.30957259744E+03  0.30957259744E+03  0.00000000000E+00 0. -1.
         -1   -1    0    0    0  501 -0.00000000000E+00 -0.00000000000E+00 -0.16147899852E+04  0.16147899852E+04  0.00000000000E+00 0.  1.
         24    2    1    2    0    0 -0.35433661459E+03 -0.88127700381E+02 -0.13757122322E+03  0.39833858927E+03  0.80167713121E+02 0.  0.
        254    2    1    2    0    0  0.35433661459E+03  0.88127700381E+02 -0.11676461646E+04  0.15260239934E+04  0.91215718754E+03 0.  0.
         23    2    4    4    0    0 -0.14394882602E+03 -0.24619188564E+03 -0.13502403464E+03  0.32821874191E+03  0.90356757012E+02 0.  0.
         23    2    4    4    0    0  0.49828544062E+03  0.33431958603E+03 -0.10326221299E+04  0.11978052515E+04  0.91493121883E+02 0.  0.
          4    1    3    3  502    0 -0.82604455196E+02 -0.49897094649E+02 -0.14472613525E+02  0.97584182197E+02  0.00000000000E+00 0. -1.
         -3    1    3    3    0  502 -0.27173215940E+03 -0.38230605731E+02 -0.12309860969E+03  0.30075440707E+03  0.00000000000E+00 0.  1.
         13    1    5    5    0    0  0.21501815070E+01  0.58143741540E+01  0.17083160522E+01  0.64302854563E+01  0.00000000000E+00 0. -1.
        -13    1    5    5    0    0 -0.14609900753E+03 -0.25200625980E+03 -0.13673235069E+03  0.32178845645E+03  0.00000000000E+00 0.  1.
          1    1    6    6  503    0  0.35280019529E+02  0.48956797563E+02 -0.14135190889E+03  0.15369388391E+03  0.00000000000E+00 0. -1.
         -1    1    6    6    0  503  0.46300542109E+03  0.28536278846E+03 -0.89127022103E+03  0.10441113676E+04  0.00000000000E+00 0.  1.
<mgrwt>
<rscale>  0 0.14140647E+04</rscale>
<asrwt>0</asrwt>
<pdfrwt beam="1">  1        2 0.47626554E-01 0.14140647E+04</pdfrwt>
<pdfrwt beam="2">  1       -1 0.24842922E+00 0.14140647E+04</pdfrwt>
<totfact> 0.84340937E+00</totfact>
</mgrwt>
</event>
<event>
12    7  0.1605494E-007  0.1181115E+04  0.7818608E-02  0.9129549E-01
         -1   -1    0    0    0  501 -0.00000000000E+00  0.00000000000E+00  0.77638515937E+03  0.77638515937E+03  0.00000000000E+00 0.  1.
          2   -1    0    0  501    0  0.00000000000E+00 -0.00000000000E+00 -0.44920760788E+03  0.44920760788E+03  0.00000000000E+00 0. -1.
         24    2    1    2    0    0  0.20432749712E+03  0.11049070035E+03  0.13298720819E+03  0.27928152004E+03  0.79716052018E+02 0.  0.
        254    2    1    2    0    0 -0.20432749712E+03 -0.11049070035E+03  0.19419034330E+03  0.94631124722E+03  0.89656966614E+03 0.  0.
         23    2    4    4    0    0  0.21048724055E+03  0.39567847348E+02  0.39069039687E+03  0.45477660050E+03  0.91171690645E+02 0.  0.
         23    2    4    4    0    0 -0.41481473767E+03 -0.15005854770E+03 -0.19650005357E+03  0.49153464672E+03  0.91679897185E+02 0.  0.
          4    1    3    3  502    0 -0.69304896632E+01  0.16348752597E+01  0.37242132911E+00  0.71304419030E+01  0.00000000000E+00 0. -1.
         -3    1    3    3    0  502  0.21125798678E+03  0.10885582509E+03  0.13261478686E+03  0.27215107814E+03  0.00000000000E+00 0.  1.
         13    1    5    5    0    0  0.86508673331E+02 -0.25205678466E+02  0.11980755159E+03  0.14990972686E+03  0.00000000000E+00 0. -1.
        -13    1    5    5    0    0  0.12397856722E+03  0.64773525814E+02  0.27088284528E+03  0.30486687364E+03  0.00000000000E+00 0.  1.
          2    1    6    6  503    0  0.33816713367E+01 -0.88360921457E+00  0.31512950746E+01  0.47060734079E+01  0.00000000000E+00 0. -1.
         -2    1    6    6    0  503 -0.41819640901E+03 -0.14917493848E+03 -0.19965134865E+03  0.48682857331E+03  0.00000000000E+00 0.  1.
<mgrwt>
<rscale>  0 0.11811149E+04</rscale>
<asrwt>0</asrwt>
<pdfrwt beam="1">  1        2 0.69108863E-01 0.11811149E+04</pdfrwt>
<pdfrwt beam="2">  1       -1 0.11944387E+00 0.11811149E+04</pdfrwt>
<totfact> 0.49341372E+01</totfact>
</mgrwt>
</event>
<event>
12    7  0.1605494E-007  0.1409619E+04  0.7818608E-02  0.8946885E-01
          2   -1    0    0  501    0  0.00000000000E+00  0.00000000000E+00  0.20382729532E+04  0.20382729532E+04  0.00000000000E+00 0. -1.
         -1   -1    0    0    0  501 -0.00000000000E+00 -0.00000000000E+00 -0.24371451451E+03  0.24371451451E+03  0.00000000000E+00 0.  1.
         24    2    1    2    0    0 -0.19329855868E+02  0.19695486227E+03  0.10978336894E+04  0.11186837279E+04  0.83961970053E+02 0.  0.
        254    2    1    2    0    0  0.19329855868E+02 -0.19695486227E+03  0.69672474926E+03  0.11633037398E+04  0.91032156605E+03 0.  0.
         23    2    4    4    0    0  0.34851391993E+03 -0.53686554850E+02  0.70440748984E+03  0.79306815141E+03  0.91776807950E+02 0.  0.
         23    2    4    4    0    0 -0.32918406406E+03 -0.14326830742E+03 -0.76827405806E+01  0.37023558836E+03  0.90152151625E+02 0.  0.
          4    1    3    3  502    0 -0.41964486374E+02  0.11155663878E+03  0.76931281913E+03  0.77849092188E+03  0.00000000000E+00 0. -1.
         -3    1    3    3    0  502  0.22634630507E+02  0.85398223491E+02  0.32852087030E+03  0.34019280607E+03  0.00000000000E+00 0.  1.
         13    1    5    5    0    0  0.25247621492E+03  0.33401252079E+01  0.49977174814E+03  0.55993499246E+03  0.00000000000E+00 0.  1.
        -13    1    5    5    0    0  0.96037705009E+02 -0.57026680058E+02  0.20463574170E+03  0.23313315895E+03  0.00000000000E+00 0. -1.
          1    1    6    6  503    0  0.21884680105E+01 -0.12918042123E+02 -0.53155668619E+01  0.14139323024E+02  0.00000000000E+00 0. -1.
         -1    1    6    6    0  503 -0.33137253207E+03 -0.13035026530E+03 -0.23671737187E+01  0.35609626533E+03  0.00000000000E+00 0.  1.
<mgrwt>
<rscale>  0 0.14096194E+04</rscale>
<asrwt>0</asrwt>
<pdfrwt beam="1">  1        2 0.31358044E+00 0.14096194E+04</pdfrwt>
<pdfrwt beam="2">  1       -1 0.37494542E-01 0.14096194E+04</pdfrwt>
<totfact> 0.48334934E+01</totfact>
</mgrwt>
</event>
<event>
12    7  0.1605494E-007  0.1831565E+04  0.7818608E-02  0.8689691E-01
         -1   -1    0    0    0  501 -0.00000000000E+00  0.00000000000E+00  0.18531360543E+03  0.18531360543E+03  0.00000000000E+00 0.  1.
          2   -1    0    0  501    0  0.00000000000E+00 -0.00000000000E+00 -0.45256117035E+04  0.45256117035E+04  0.00000000000E+00 0. -1.
         24    2    1    2    0    0  0.48238778015E+03  0.45569280328E+01 -0.29152361937E+04  0.29559294849E+04  0.78729403845E+02 0.  0.
        254    2    1    2    0    0 -0.48238778015E+03 -0.45569280328E+01 -0.14250619044E+04  0.17549958240E+04  0.90359845884E+03 0.  0.
         23    2    4    4    0    0  0.25592011337E+03  0.35529026199E+02 -0.31180758179E+03  0.41528687598E+03  0.92096716417E+02 0.  0.
         23    2    4    4    0    0 -0.73830789352E+03 -0.40085954232E+02 -0.11132543226E+04  0.13397089480E+04  0.93698715023E+02 0.  0.
          2    1    3    3  502    0  0.40753724642E+03 -0.12055844305E+01 -0.26082695099E+04  0.26399162671E+04  0.00000000000E+00 0. -1.
         -1    1    3    3    0  502  0.74850533734E+02  0.57625124633E+01 -0.30696668374E+03  0.31601321788E+03  0.00000000000E+00 0.  1.
         13    1    5    5    0    0  0.10706049269E+02  0.66161705274E+01  0.50705798584E+01  0.13568492307E+02  0.00000000000E+00 0. -1.
        -13    1    5    5    0    0  0.24521406410E+03  0.28912855672E+02 -0.31687816165E+03  0.40171838367E+03  0.00000000000E+00 0.  1.
          1    1    6    6  503    0 -0.52019489896E+02 -0.73569544951E+01 -0.42973030253E+02  0.67873657907E+02  0.00000000000E+00 0. -1.
         -1    1    6    6    0  503 -0.68628840362E+03 -0.32728999737E+02 -0.10702812924E+04  0.12718352901E+04  0.00000000000E+00 0.  1.
<mgrwt>
<rscale>  0 0.18315648E+04</rscale>
<asrwt>0</asrwt>
<pdfrwt beam="1">  1        2 0.69624798E+00 0.18315648E+04</pdfrwt>
<pdfrwt beam="2">  1       -1 0.28509784E-01 0.18315648E+04</pdfrwt>
<totfact> 0.14198276E+00</totfact>
</mgrwt>
</event>
<event>
12    7  0.1605494E-007  0.1295652E+04  0.7818608E-02  0.9033021E-01
         -1   -1    0    0    0  501 -0.00000000000E+00  0.00000000000E+00  0.13578366562E+03  0.13578366562E+03  0.00000000000E+00 0.  1.
          2   -1    0    0  501    0  0.00000000000E+00 -0.00000000000E+00 -0.30907862539E+04  0.30907862539E+04  0.00000000000E+00 0. -1.
         24    2    1    2    0    0  0.11499539118E+02  0.15692062444E+03 -0.53604393044E+02  0.18312840016E+03  0.76852184202E+02 0.  0.
        254    2    1    2    0    0 -0.11499539118E+02 -0.15692062444E+03 -0.29013981952E+04  0.30434415193E+04  0.90535543995E+03 0.  0.
         23    2    4    4    0    0 -0.33326089837E+03  0.18848317227E+03 -0.17883682031E+04  0.18311364749E+04  0.90615821689E+02 0.  0.
         23    2    4    4    0    0  0.32176135925E+03 -0.34540379672E+03 -0.11130299921E+04  0.12123050444E+04  0.89518726416E+02 0.  0.
          4    1    3    3  502    0  0.37192107720E+02  0.60696716991E+02 -0.42522889549E+02  0.82918878826E+02  0.00000000000E+00 0. -1.
         -3    1    3    3    0  502 -0.25692568601E+02  0.96223907453E+02 -0.11081503495E+02  0.10020952134E+03  0.00000000000E+00 0.  1.
         13    1    5    5    0    0 -0.30787854093E+03  0.16960820978E+03 -0.14808760892E+04  0.15220217253E+04  0.00000000000E+00 0. -1.
        -13    1    5    5    0    0 -0.25382357439E+02  0.18874962490E+02 -0.30749211395E+03  0.30911474960E+03  0.00000000000E+00 0.  1.
          3    1    6    6  503    0  0.20194767623E+03 -0.25747259421E+03 -0.83929148062E+03  0.90082472776E+03  0.00000000000E+00 0. -1.
         -3    1    6    6    0  503  0.11981368302E+03 -0.87931202510E+02 -0.27373851145E+03  0.31148031666E+03  0.00000000000E+00 0.  1.
<mgrwt>
<rscale>  0 0.12956516E+04</rscale>
<asrwt>0</asrwt>
<pdfrwt beam="1">  1        2 0.47550555E+00 0.12956516E+04</pdfrwt>
<pdfrwt beam="2">  1       -1 0.20889796E-01 0.12956516E+04</pdfrwt>
<totfact> 0.32809351E+01</totfact>
</mgrwt>
</event>
<event>
12    7  0.1605494E-007  0.1759893E+04  0.7818608E-02  0.8727923E-01
         -1   -1    0    0    0  501 -0.00000000000E+00  0.00000000000E+00  0.43439353080E+03  0.43439353080E+03  0.00000000000E+00 0.  1.
          2   -1    0    0  501    0  0.00000000000E+00 -0.00000000000E+00 -0.17824986990E+04  0.17824986990E+04  0.00000000000E+00 0. -1.
         24    2    1    2    0    0 -0.34301369061E+03  0.48363540567E+03 -0.73696632424E+03  0.94931473359E+03  0.80731052193E+02 0.  0.
        254    2    1    2    0    0  0.34301369061E+03 -0.48363540567E+03 -0.61113884399E+03  0.12675774962E+04  0.93898904401E+03 0.  0.
         23    2    4    4    0    0  0.45910981742E+03 -0.36393596896E+03 -0.80276600344E+03  0.99795146474E+03  0.90789072882E+02 0.  0.
         23    2    4    4    0    0 -0.11609612682E+03 -0.11969943671E+03  0.19162715944E+03  0.26962603149E+03  0.90393378139E+02 0.  0.
          4    1    3    3  502    0 -0.31778451192E+03  0.46923290926E+03 -0.71762883211E+03  0.91441656799E+03  0.00000000000E+00 0. -1.
         -3    1    3    3    0  502 -0.25229178688E+02  0.14402496414E+02 -0.19337492129E+02  0.34898165597E+02  0.00000000000E+00 0.  1.
         13    1    5    5    0    0  0.19555087536E+03 -0.18375203171E+03 -0.30119101903E+03  0.40338689116E+03  0.00000000000E+00 0. -1.
        -13    1    5    5    0    0  0.26355894206E+03 -0.18018393725E+03 -0.50157498440E+03  0.59456457358E+03  0.00000000000E+00 0.  1.
          4    1    6    6  503    0 -0.87398048435E+02 -0.46641193085E+02  0.58404745174E+02  0.11499971314E+03  0.00000000000E+00 0. -1.
         -4    1    6    6    0  503 -0.28698078381E+02 -0.73058243626E+02  0.13322241427E+03  0.15462631836E+03  0.00000000000E+00 0.  1.
<mgrwt>
<rscale>  0 0.17598931E+04</rscale>
<asrwt>0</asrwt>
<pdfrwt beam="1">  1        2 0.27423057E+00 0.17598931E+04</pdfrwt>
<pdfrwt beam="2">  1       -1 0.66829773E-01 0.17598931E+04</pdfrwt>
<totfact> 0.21591879E+01</totfact>
</mgrwt>
</event>
<event>
12    7  0.1605494E-007  0.2096978E+04  0.7818608E-02  0.8562576E-01
          2   -1    0    0  501    0  0.00000000000E+00  0.00000000000E+00  0.73168607049E+03  0.73168607049E+03  0.00000000000E+00 0. -1.
         -1   -1    0    0    0  501 -0.00000000000E+00 -0.00000000000E+00 -0.15024599510E+04  0.15024599510E+04  0.00000000000E+00 0.  1.
         24    2    1    2    0    0 -0.63154652931E+03 -0.56634854232E+03 -0.22591442234E+03  0.88206784427E+03  0.86050366630E+02 0.  0.
        254    2    1    2    0    0  0.63154652931E+03  0.56634854232E+03 -0.54485945820E+03  0.13520781773E+04  0.90091169275E+03 0.  0.
         23    2    4    4    0    0  0.84330705284E+03  0.34609681659E+03 -0.43822998168E+03  0.10160102468E+04  0.96340609154E+02 0.  0.
         23    2    4    4    0    0 -0.21176052353E+03  0.22025172573E+03 -0.10662947652E+03  0.33606793043E+03  0.90655758724E+02 0.  0.
          2    1    3    3  502    0 -0.95324351971E+02 -0.51375783088E+02 -0.15383273749E+02  0.10937480641E+03  0.00000000000E+00 0. -1.
         -1    1    3    3    0  502 -0.53622217733E+03 -0.51497275924E+03 -0.21053114859E+03  0.77269303785E+03  0.00000000000E+00 0.  1.
         13    1    5    5    0    0  0.25402275051E+03  0.92382318850E+02 -0.83553016648E+02  0.28291899406E+03  0.00000000000E+00 0. -1.
        -13    1    5    5    0    0  0.58928430233E+03  0.25371449774E+03 -0.35467696503E+03  0.73309125276E+03  0.00000000000E+00 0.  1.
          4    1    6    6  503    0 -0.80816893874E+02  0.38010618016E+02 -0.57888716329E+02  0.10642969931E+03  0.00000000000E+00 0. -1.
         -4    1    6    6    0  503 -0.13094362966E+03  0.18224110771E+03 -0.48740760188E+02  0.22963823112E+03  0.00000000000E+00 0.  1.
<mgrwt>
<rscale>  0 0.20969778E+04</rscale>
<asrwt>0</asrwt>
<pdfrwt beam="1">  1        2 0.11256709E+00 0.20969778E+04</pdfrwt>
<pdfrwt beam="2">  1       -1 0.23114768E+00 0.20969778E+04</pdfrwt>
<totfact> 0.37777912E+00</totfact>
</mgrwt>
</event>
<event>
12    7  0.1605494E-007  0.1208286E+04  0.7818608E-02  0.9105635E-01
         -1   -1    0    0    0  501 -0.00000000000E+00  0.00000000000E+00  0.37503254624E+03  0.37503254624E+03  0.00000000000E+00 0.  1.
          2   -1    0    0  501    0  0.00000000000E+00 -0.00000000000E+00 -0.97321819222E+03  0.97321819222E+03  0.00000000000E+00 0. -1.
         24    2    1    2    0    0  0.31861785023E+02 -0.23408861459E+03 -0.24216471610E+03  0.34793992016E+03  0.81275983503E+02 0.  0.
        254    2    1    2    0    0 -0.31861785023E+02  0.23408861459E+03 -0.35602092989E+03  0.10003108183E+04  0.90446568641E+03 0.  0.
         23    2    4    4    0    0 -0.24401606233E+03  0.39825997339E+03  0.76599332429E+02  0.48257430201E+03  0.94104485318E+02 0.  0.
         23    2    4    4    0    0  0.21215427730E+03 -0.16417135880E+03 -0.43262026232E+03  0.51773651630E+03  0.94494108354E+02 0.  0.
          2    1    3    3  502    0  0.16326121182E+02 -0.78630090649E+02 -0.32893471420E+02  0.86782566512E+02  0.00000000000E+00 0. -1.
         -1    1    3    3    0  502  0.15535663841E+02 -0.15545852394E+03 -0.20927124467E+03  0.26115735365E+03  0.00000000000E+00 0.  1.
         13    1    5    5    0    0 -0.18672428555E+03  0.27581925436E+03  0.94466762954E+02  0.34621696838E+03  0.00000000000E+00 0.  1.
        -13    1    5    5    0    0 -0.57291776780E+02  0.12244071902E+03 -0.17867430525E+02  0.13635733363E+03  0.00000000000E+00 0. -1.
          2    1    6    6  503    0 -0.32345008357E+01  0.19790407406E+00 -0.43271767572E+02  0.43392937565E+02  0.00000000000E+00 0. -1.
         -2    1    6    6    0  503  0.21538877814E+03 -0.16436926288E+03 -0.38934849474E+03  0.47434357873E+03  0.00000000000E+00 0.  1.
<mgrwt>
<rscale>  0 0.12082856E+04</rscale>
<asrwt>0</asrwt>
<pdfrwt beam="1">  1        2 0.14972587E+00 0.12082856E+04</pdfrwt>
<pdfrwt beam="2">  1       -1 0.57697316E-01 0.12082856E+04</pdfrwt>
<totfact> 0.89737869E+01</totfact>
</mgrwt>
</event>
<event>
12    7  0.1605494E-007  0.1321067E+04  0.7818608E-02  0.9013024E-01
          2   -1    0    0  501    0  0.00000000000E+00  0.00000000000E+00  0.21586823862E+04  0.21586823862E+04  0.00000000000E+00 0. -1.
         -1   -1    0    0    0  501 -0.00000000000E+00 -0.00000000000E+00 -0.20211610655E+03  0.20211610655E+03  0.00000000000E+00 0.  1.
         24    2    1    2    0    0  0.20040639142E+03 -0.28832037385E+03  0.47784958247E+03  0.59749829308E+03  0.73298206406E+02 0.  0.
        254    2    1    2    0    0 -0.20040639142E+03  0.28832037385E+03  0.14787166972E+04  0.17633001997E+04  0.89405434062E+03 0.  0.
         23    2    4    4    0    0 -0.20525396917E+03 -0.27468254713E+03  0.80911195875E+03  0.88380644872E+03  0.94191206834E+02 0.  0.
         23    2    4    4    0    0  0.48475777512E+01  0.56300292098E+03  0.66960473847E+03  0.87949375099E+03  0.90238374426E+02 0.  0.
          4    1    3    3  502    0  0.16167436344E+03 -0.19454776441E+03  0.38035702110E+03  0.45679196133E+03  0.00000000000E+00 0. -1.
         -3    1    3    3    0  502  0.38732027987E+02 -0.93772609434E+02  0.97492561365E+02  0.14070633175E+03  0.00000000000E+00 0.  1.
         13    1    5    5    0    0 -0.11042994671E+03 -0.16294879340E+03  0.34615793985E+03  0.39821150375E+03  0.00000000000E+00 0.  1.
        -13    1    5    5    0    0 -0.94824022464E+02 -0.11173375373E+03  0.46295401891E+03  0.48559494497E+03  0.00000000000E+00 0. -1.
          4    1    6    6  503    0 -0.29683052806E+02  0.38710378703E+03  0.41706189450E+03  0.56979913074E+03  0.00000000000E+00 0. -1.
         -4    1    6    6    0  503  0.34530630557E+02  0.17589913395E+03  0.25254284397E+03  0.30969462025E+03  0.00000000000E+00 0.  1.
<mgrwt>
<rscale>  0 0.13210670E+04</rscale>
<asrwt>0</asrwt>
<pdfrwt beam="1">  1        2 0.33210497E+00 0.13210670E+04</pdfrwt>
<pdfrwt beam="2">  1       -1 0.31094787E-01 0.13210670E+04</pdfrwt>
<totfact> 0.58276077E+01</totfact>
</mgrwt>
</event>
<event>
12    7  0.1605494E-007  0.2005082E+04  0.7818608E-02  0.8604248E-01
         -3   -1    0    0    0  501 -0.00000000000E+00  0.00000000000E+00  0.75089028364E+03  0.75089028364E+03  0.00000000000E+00 0.  1.
          2   -1    0    0  501    0  0.00000000000E+00 -0.00000000000E+00 -0.13385290046E+04  0.13385290046E+04  0.00000000000E+00 0. -1.
         24    2    1    2    0    0  0.54256923313E+03 -0.25636061175E+03 -0.65672871833E+03  0.89373072334E+03  0.85789628561E+02 0.  0.
        254    2    1    2    0    0 -0.54256923313E+03  0.25636061175E+03  0.69089997386E+02  0.11956885649E+04  0.10318893257E+04 0.  0.
         23    2    4    4    0    0 -0.25253977074E+02  0.57244583799E+03  0.25768167128E+02  0.58028640294E+03  0.87956297173E+02 0.  0.
         23    2    4    4    0    0 -0.51731525606E+03 -0.31608522624E+03  0.43321830259E+02  0.61540216194E+03  0.96530283050E+02 0.  0.
          2    1    3    3  502    0  0.35956262893E+03 -0.15701591272E+03 -0.48493020006E+03  0.62377606550E+03  0.00000000000E+00 0. -1.
         -1    1    3    3    0  502  0.18300660420E+03 -0.99344699036E+02 -0.17179851828E+03  0.26995465784E+03  0.00000000000E+00 0.  1.
         13    1    5    5    0    0  0.28595377467E+02  0.16692760768E+03  0.25092096906E+02  0.17120787116E+03  0.00000000000E+00 0. -1.
        -13    1    5    5    0    0 -0.53849354541E+02  0.40551823031E+03  0.67607022126E+00  0.40907853179E+03  0.00000000000E+00 0.  1.
          4    1    6    6  503    0 -0.31509039688E+03 -0.16419876965E+03 -0.15850123932E+02  0.35566054124E+03  0.00000000000E+00 0. -1.
         -4    1    6    6    0  503 -0.20222485917E+03 -0.15188645659E+03  0.59171954191E+02  0.25974162070E+03  0.00000000000E+00 0.  1.
<mgrwt>
<rscale>  0 0.20050820E+04</rscale>
<asrwt>0</asrwt>
<pdfrwt beam="1">  1        2 0.20592754E+00 0.20050820E+04</pdfrwt>
<pdfrwt beam="2">  1       -3 0.11552158E+00 0.20050820E+04</pdfrwt>
<totfact> 0.57386039E+00</totfact>
</mgrwt>
</event>
<event>
12    7  0.1605494E-007  0.1366849E+04  0.7818608E-02  0.8978171E-01
          2   -1    0    0  501    0  0.00000000000E+00  0.00000000000E+00  0.11000549700E+04  0.11000549700E+04  0.00000000000E+00 0. -1.
         -1   -1    0    0    0  501 -0.00000000000E+00 -0.00000000000E+00 -0.42458709071E+03  0.42458709071E+03  0.00000000000E+00 0.  1.
         24    2    1    2    0    0 -0.21320514955E+03 -0.13786493056E+03 -0.12321001704E+03  0.29260234293E+03  0.77280320364E+02 0.  0.
        254    2    1    2    0    0  0.21320514955E+03  0.13786493056E+03  0.79867789628E+03  0.12320397177E+04  0.90309042139E+03 0.  0.
         23    2    4    4    0    0 -0.31392241266E+03  0.13781798633E+03  0.51679425124E+03  0.62716216420E+03  0.93354183430E+02 0.  0.
         23    2    4    4    0    0  0.52712756221E+03  0.46944223829E-01  0.28188364504E+03  0.60487755354E+03  0.92493223431E+02 0.  0.
          2    1    3    3  502    0 -0.89292040240E+02 -0.30678542141E+02 -0.13385634294E+02  0.95359407525E+02  0.00000000000E+00 0. -1.
         -1    1    3    3    0  502 -0.12391310931E+03 -0.10718638842E+03 -0.10982438275E+03  0.19724293540E+03  0.00000000000E+00 0.  1.
         13    1    5    5    0    0 -0.71231678447E+02  0.72550709193E+02  0.18286489703E+03  0.20922984487E+03  0.00000000000E+00 0.  1.
        -13    1    5    5    0    0 -0.24269073422E+03  0.65267277140E+02  0.33392935421E+03  0.41793231934E+03  0.00000000000E+00 0. -1.
          4    1    6    6  503    0  0.35639062596E+03 -0.32378334918E+02  0.15651640003E+03  0.39058932182E+03  0.00000000000E+00 0. -1.
         -4    1    6    6    0  503  0.17073693626E+03  0.32425279141E+02  0.12536724501E+03  0.21428823172E+03  0.00000000000E+00 0.  1.
<mgrwt>
<rscale>  0 0.13668491E+04</rscale>
<asrwt>0</asrwt>
<pdfrwt beam="1">  1        2 0.16923922E+00 0.13668491E+04</pdfrwt>
<pdfrwt beam="2">  1       -1 0.65321092E-01 0.13668491E+04</pdfrwt>
<totfact> 0.57594732E+01</totfact>
</mgrwt>
</event>
<event>
12    7  0.1605494E-007  0.1837809E+04  0.7818608E-02  0.8686448E-01
         -1   -1    0    0    0  501 -0.00000000000E+00  0.00000000000E+00  0.14895352837E+04  0.14895352837E+04  0.00000000000E+00 0.  1.
          2   -1    0    0  501    0  0.00000000000E+00 -0.00000000000E+00 -0.56687842801E+03  0.56687842801E+03  0.00000000000E+00 0. -1.
         24    2    1    2    0    0 -0.51344742849E+03  0.30607593292E+03  0.80846711809E+03  0.10085854212E+04  0.79465289768E+02 0.  0.
        254    2    1    2    0    0  0.51344742849E+03 -0.30607593292E+03  0.11418973760E+03  0.10478282905E+04  0.85299126120E+03 0.  0.
         23    2    4    4    0    0 -0.42571739428E+02 -0.42618021187E+03 -0.67593416300E+02  0.44375411996E+03  0.94376496402E+02 0.  0.
         23    2    4    4    0    0  0.55601916791E+03  0.12010427894E+03  0.18178315390E+03  0.60407417055E+03  0.90984260028E+02 0.  0.
          4    1    3    3  502    0  0.28436255822E+00 -0.31470116726E+01  0.24702639714E+01  0.40108289194E+01  0.00000000000E+00 0. -1.
         -3    1    3    3    0  502 -0.51373179104E+03  0.30922294459E+03  0.80599685412E+03  0.10045745923E+04  0.00000000000E+00 0.  1.
         13    1    5    5    0    0  0.13089173760E+02 -0.81641379856E+01  0.41833937113E+01  0.15983754306E+02  0.00000000000E+00 0. -1.
        -13    1    5    5    0    0 -0.55660913188E+02 -0.41801607388E+03 -0.71776810011E+02  0.42777036566E+03  0.00000000000E+00 0.  1.
          1    1    6    6  503    0  0.86112578687E+02  0.50128323763E+02  0.16150012981E+02  0.10094081420E+03  0.00000000000E+00 0. -1.
         -1    1    6    6    0  503  0.46990658923E+03  0.69975955181E+02  0.16563314092E+03  0.50313335635E+03  0.00000000000E+00 0.  1.
<mgrwt>
<rscale>  0 0.18378089E+04</rscale>
<asrwt>0</asrwt>
<pdfrwt beam="1">  1        2 0.87212066E-01 0.18378089E+04</pdfrwt>
<pdfrwt beam="2">  1       -1 0.22915927E+00 0.18378089E+04</pdfrwt>
<totfact> 0.54587734E+00</totfact>
</mgrwt>
</event>
<event>
12    7  0.1605494E-007  0.1705653E+04  0.7818608E-02  0.8758147E-01
          2   -1    0    0  501    0  0.00000000000E+00  0.00000000000E+00  0.92103297764E+03  0.92103297764E+03  0.00000000000E+00 0. -1.
         -1   -1    0    0    0  501 -0.00000000000E+00 -0.00000000000E+00 -0.78967104569E+03  0.78967104569E+03  0.00000000000E+00 0.  1.
         24    2    1    2    0    0 -0.58265776796E+03 -0.19686981022E+03  0.45268975938E+02  0.62197649792E+03  0.80979547023E+02 0.  0.
        254    2    1    2    0    0  0.58265776796E+03  0.19686981022E+03  0.86092956010E+02  0.10887275254E+04  0.89424148348E+03 0.  0.
         23    2    4    4    0    0  0.56856958030E+03  0.43403975154E+03  0.27246557357E+03  0.77084245416E+03  0.91097347926E+02 0.  0.
         23    2    4    4    0    0  0.14088187665E+02 -0.23716994132E+03 -0.18637261756E+03  0.31788507125E+03  0.99338350350E+02 0.  0.
          4    1    3    3  502    0 -0.55931808414E+03 -0.20384487697E+03  0.37832900029E+02  0.59650715120E+03  0.00000000000E+00 0. -1.
         -3    1    3    3    0  502 -0.23339683824E+02  0.69750667495E+01  0.74360759090E+01  0.25469346715E+02  0.00000000000E+00 0.  1.
         13    1    5    5    0    0  0.27823343123E+03  0.21422782215E+03  0.85135690928E+02  0.36132462953E+03  0.00000000000E+00 0. -1.
        -13    1    5    5    0    0  0.29033614907E+03  0.21981192939E+03  0.18732988264E+03  0.40951782463E+03  0.00000000000E+00 0.  1.
          1    1    6    6  503    0  0.35379399875E+02 -0.83313522086E+02 -0.24992321818E+02  0.93901336773E+02  0.00000000000E+00 0. -1.
         -1    1    6    6    0  503 -0.21291212209E+02 -0.15385641924E+03 -0.16138029574E+03  0.22398373448E+03  0.00000000000E+00 0.  1.
<mgrwt>
<rscale>  0 0.17056530E+04</rscale>
<asrwt>0</asrwt>
<pdfrwt beam="1">  1        2 0.14169738E+00 0.17056530E+04</pdfrwt>
<pdfrwt beam="2">  1       -1 0.12148785E+00 0.17056530E+04</pdfrwt>
<totfact> 0.18504095E+01</totfact>
</mgrwt>
</event>
<event>
12    7  0.1605494E-007  0.2022895E+04  0.7818608E-02  0.8595991E-01
         -1   -1    0    0    0  501 -0.00000000000E+00  0.00000000000E+00  0.22533316026E+03  0.22533316026E+03  0.00000000000E+00 0.  1.
          2   -1    0    0  501    0  0.00000000000E+00 -0.00000000000E+00 -0.45400585820E+04  0.45400585820E+04  0.00000000000E+00 0. -1.
         24    2    1    2    0    0 -0.75774516729E+03 -0.26114086547E+03 -0.14661436834E+04  0.16727271169E+04  0.77887208455E+02 0.  0.
        254    2    1    2    0    0  0.75774516729E+03  0.26114086547E+03 -0.28485817383E+04  0.30926646253E+04  0.89876819840E+03 0.  0.
         23    2    4    4    0    0  0.94348514169E+03  0.27069154263E+03 -0.24947097776E+04  0.26824679676E+04  0.92840717837E+02 0.  0.
         23    2    4    4    0    0 -0.18573997440E+03 -0.95506771622E+01 -0.35387196073E+03  0.41019665770E+03  0.91898747940E+02 0.  0.
          4    1    3    3  502    0 -0.22151173502E+03 -0.10963438502E+03 -0.41517213326E+03  0.48317186110E+03  0.00000000000E+00 0. -1.
         -3    1    3    3    0  502 -0.53623343227E+03 -0.15150648045E+03 -0.10509715501E+04  0.11895552558E+04  0.00000000000E+00 0.  1.
         13    1    5    5    0    0  0.92738030396E+03  0.27163793594E+03 -0.24752243874E+04  0.26571708948E+04  0.00000000000E+00 0. -1.
        -13    1    5    5    0    0  0.16104837732E+02 -0.94639330460E+00 -0.19485390185E+02  0.25297072742E+02  0.00000000000E+00 0.  1.
          1    1    6    6  503    0 -0.10817304827E+03  0.36943452387E+02 -0.16421242447E+03  0.20007985255E+03  0.00000000000E+00 0. -1.
         -1    1    6    6    0  503 -0.77566926130E+02 -0.46494129549E+02 -0.18965953626E+03  0.21011680515E+03  0.00000000000E+00 0.  1.
<mgrwt>
<rscale>  0 0.20228947E+04</rscale>
<asrwt>0</asrwt>
<pdfrwt beam="1">  1        2 0.69847047E+00 0.20228947E+04</pdfrwt>
<pdfrwt beam="2">  1       -1 0.34666644E-01 0.20228947E+04</pdfrwt>
<totfact> 0.95180590E-01</totfact>
</mgrwt>
</event>
<event>
12    7  0.1605494E-007  0.2578841E+04  0.7818608E-02  0.8375424E-01
          2   -1    0    0  501    0  0.00000000000E+00  0.00000000000E+00  0.21307032417E+04  0.21307032417E+04  0.00000000000E+00 0. -1.
         -1   -1    0    0    0  501 -0.00000000000E+00 -0.00000000000E+00 -0.78030837432E+03  0.78030837432E+03  0.00000000000E+00 0.  1.
         24    2    1    2    0    0 -0.69120616804E+03  0.15141867794E+03  0.16071927450E+04  0.17579269874E+04  0.80902351702E+02 0.  0.
        254    2    1    2    0    0  0.69120616804E+03 -0.15141867794E+03 -0.25679787764E+03  0.11530846286E+04  0.87347892252E+03 0.  0.
         23    2    4    4    0    0  0.88820841389E+03 -0.14998429245E+03 -0.19617526985E+03  0.92620236722E+03  0.89199854563E+02 0.  0.
         23    2    4    4    0    0 -0.19700224585E+03 -0.14343854954E+01 -0.60622607794E+02  0.22688226143E+03  0.94807793149E+02 0.  0.
          4    1    3    3  502    0 -0.44592058335E+03  0.12781682032E+03  0.11095747069E+04  0.12026380737E+04  0.00000000000E+00 0. -1.
         -3    1    3    3    0  502 -0.24528558469E+03  0.23601857617E+02  0.49761803814E+03  0.55528891365E+03  0.00000000000E+00 0.  1.
         13    1    5    5    0    0  0.50406538999E+03 -0.12827091777E+03 -0.12458114871E+03  0.53484185358E+03  0.00000000000E+00 0.  1.
        -13    1    5    5    0    0  0.38414302390E+03 -0.21713374681E+02 -0.71594121140E+02  0.39136051363E+03  0.00000000000E+00 0. -1.
          4    1    6    6  503    0 -0.93139716709E+02 -0.24783029611E+02 -0.71309370697E+02  0.11989258415E+03  0.00000000000E+00 0. -1.
         -4    1    6    6    0  503 -0.10386252914E+03  0.23348644116E+02  0.10686762904E+02  0.10698967727E+03  0.00000000000E+00 0.  1.
<mgrwt>
<rscale>  0 0.25788413E+04</rscale>
<asrwt>0</asrwt>
<pdfrwt beam="1">  1        2 0.32780050E+00 0.25788413E+04</pdfrwt>
<pdfrwt beam="2">  1       -1 0.12004744E+00 0.25788413E+04</pdfrwt>
<totfact> 0.35208139E+00</totfact>
</mgrwt>
</event>
<event>
12    7  0.1605494E-007  0.2167213E+04  0.7818608E-02  0.8532200E-01
         -1   -1    0    0    0  501 -0.00000000000E+00  0.00000000000E+00  0.12972151239E+04  0.12972151239E+04  0.00000000000E+00 0.  1.
          2   -1    0    0  501    0  0.00000000000E+00 -0.00000000000E+00 -0.90517229009E+03  0.90517229009E+03  0.00000000000E+00 0. -1.
         24    2    1    2    0    0 -0.76354138619E+03 -0.79820624911E+02 -0.30005300539E+03  0.82822248195E+03  0.80956117639E+02 0.  0.
        254    2    1    2    0    0  0.76354138619E+03  0.79820624911E+02  0.69209583923E+03  0.13741649321E+04  0.90551964599E+03 0.  0.
         23    2    4    4    0    0  0.64244350451E+03  0.51665932327E+02 -0.14055431597E+02  0.65147420187E+03  0.93904502008E+02 0.  0.
         23    2    4    4    0    0  0.12109788168E+03  0.28154692584E+02  0.70615127083E+03  0.72269073020E+03  0.90415101387E+02 0.  0.
          4    1    3    3  502    0 -0.38905106518E+03 -0.51141155587E+02 -0.19523283785E+03  0.43828302509E+03  0.00000000000E+00 0. -1.
         -1    1    3    3    0  502 -0.37449032101E+03 -0.28679469324E+02 -0.10482016754E+03  0.38993945686E+03  0.00000000000E+00 0.  1.
         13    1    5    5    0    0  0.56381659080E+03  0.13715078680E+02 -0.99536413746E+01  0.56407120687E+03  0.00000000000E+00 0. -1.
        -13    1    5    5    0    0  0.78626913707E+02  0.37950853646E+02 -0.41017902227E+01  0.87402994998E+02  0.00000000000E+00 0.  1.
          4    1    6    6  503    0  0.10108376938E+03 -0.61902190652E+01  0.35088555556E+03  0.36520805077E+03  0.00000000000E+00 0.  1.
         -4    1    6    6    0  503  0.20014112295E+02  0.34344911650E+02  0.35526571527E+03  0.35748267943E+03  0.00000000000E+00 0. -1.
<mgrwt>
<rscale>  0 0.21672131E+04</rscale>
<asrwt>0</asrwt>
<pdfrwt beam="1">  1        2 0.13925728E+00 0.21672131E+04</pdfrwt>
<pdfrwt beam="2">  1       -1 0.19957156E+00 0.21672131E+04</pdfrwt>
<totfact> 0.46077353E+00</totfact>
</mgrwt>
</event>
<event>
12    7  0.1605494E-007  0.3483120E+04  0.7818608E-02  0.8117802E-01
         -1   -1    0    0    0  501 -0.00000000000E+00  0.00000000000E+00  0.11232518150E+04  0.11232518150E+04  0.00000000000E+00 0.  1.
          2   -1    0    0  501    0  0.00000000000E+00 -0.00000000000E+00 -0.27002234867E+04  0.27002234867E+04  0.00000000000E+00 0. -1.
         24    2    1    2    0    0 -0.12732478860E+04 -0.54980850122E+03 -0.16559211530E+04  0.21614696434E+04  0.80165996683E+02 0.  0.
        254    2    1    2    0    0  0.12732478860E+04  0.54980850122E+03  0.78949481313E+02  0.16620056583E+04  0.91245833898E+03 0.  0.
         23    2    4    4    0    0  0.70246821953E+03  0.13723939457E+03  0.46124376250E+03  0.85626852821E+03  0.90298023716E+02 0.  0.
         23    2    4    4    0    0  0.57077966644E+03  0.41256910665E+03 -0.38229428118E+03  0.80573713006E+03  0.84028030696E+02 0.  0.
          4    1    3    3  502    0 -0.28275984925E+03 -0.14464186820E+03 -0.33855928103E+03  0.46421631720E+03  0.00000000000E+00 0. -1.
         -3    1    3    3    0  502 -0.99048803672E+03 -0.40516663303E+03 -0.13173618720E+04  0.16972533262E+04  0.00000000000E+00 0.  1.
         13    1    5    5    0    0  0.22029113340E+03  0.15862383833E+02  0.10466739370E+03  0.24440757349E+03  0.00000000000E+00 0.  1.
        -13    1    5    5    0    0  0.48217708612E+03  0.12137701074E+03  0.35657636880E+03  0.61186095471E+03  0.00000000000E+00 0. -1.
          3    1    6    6  503    0  0.23439680349E+01  0.91979915382E+00 -0.11891281334E+02  0.12154949132E+02  0.00000000000E+00 0. -1.
         -3    1    6    6    0  503  0.56843569841E+03  0.41164930750E+03 -0.37040299985E+03  0.79358218093E+03  0.00000000000E+00 0.  1.
<mgrwt>
<rscale>  0 0.34831198E+04</rscale>
<asrwt>0</asrwt>
<pdfrwt beam="1">  1        2 0.41541899E+00 0.34831198E+04</pdfrwt>
<pdfrwt beam="2">  1       -1 0.17280797E+00 0.34831198E+04</pdfrwt>
<totfact> 0.58218370E-01</totfact>
</mgrwt>
</event>
<event>
12    7  0.1605494E-007  0.2460682E+04  0.7818608E-02  0.8417128E-01
          2   -1    0    0  501    0  0.00000000000E+00  0.00000000000E+00  0.15841699224E+04  0.15841699224E+04  0.00000000000E+00 0. -1.
         -1   -1    0    0    0  501 -0.00000000000E+00 -0.00000000000E+00 -0.95554110850E+03  0.95554110850E+03  0.00000000000E+00 0.  1.
         24    2    1    2    0    0 -0.94111709461E+03 -0.72220292856E+02  0.77509933776E+03  0.12239084211E+04  0.79092878464E+02 0.  0.
        254    2    1    2    0    0  0.94111709461E+03  0.72220292856E+02 -0.14647052388E+03  0.13158026098E+04  0.90496725745E+03 0.  0.
         23    2    4    4    0    0  0.53939647189E+03  0.38866132445E+03  0.19110575199E+03  0.69730419313E+03  0.87781263957E+02 0.  0.
         23    2    4    4    0    0  0.40172062271E+03 -0.31644103160E+03 -0.33757627587E+03  0.61849841664E+03  0.84072374542E+02 0.  0.
          4    1    3    3  502    0 -0.92594219858E+03 -0.81305975714E+02  0.76071067142E+03  0.12011079645E+04  0.00000000000E+00 0. -1.
         -3    1    3    3    0  502 -0.15174896024E+02  0.90856828576E+01  0.14388666343E+02  0.22800456606E+02  0.00000000000E+00 0.  1.
         13    1    5    5    0    0  0.67144959114E+01  0.23299763307E+02  0.11633582239E+02  0.26894305368E+02  0.00000000000E+00 0. -1.
        -13    1    5    5    0    0  0.53268197598E+03  0.36536156115E+03  0.17947216975E+03  0.67040988777E+03  0.00000000000E+00 0.  1.
          1    1    6    6  503    0  0.18745195360E+03 -0.17749480228E+03 -0.21132881506E+03  0.33362030487E+03  0.00000000000E+00 0. -1.
         -1    1    6    6    0  503  0.21426866911E+03 -0.13894622932E+03 -0.12624746081E+03  0.28487811177E+03  0.00000000000E+00 0.  1.
<mgrwt>
<rscale>  0 0.24606824E+04</rscale>
<asrwt>0</asrwt>
<pdfrwt beam="1">  1        2 0.24371845E+00 0.24606824E+04</pdfrwt>
<pdfrwt beam="2">  1       -1 0.14700632E+00 0.24606824E+04</pdfrwt>
<totfact> 0.42720139E+00</totfact>
</mgrwt>
</event>
<event>
12    7  0.1605494E-007  0.1769665E+04  0.7818608E-02  0.8722600E-01
          2   -1    0    0  501    0  0.00000000000E+00  0.00000000000E+00  0.35005169275E+04  0.35005169275E+04  0.00000000000E+00 0. -1.
         -1   -1    0    0    0  501 -0.00000000000E+00 -0.00000000000E+00 -0.22366084094E+03  0.22366084094E+03  0.00000000000E+00 0.  1.
         24    2    1    2    0    0  0.35418204797E+02  0.35286193066E+03  0.23798647407E+04  0.24074688127E+04  0.79899366276E+02 0.  0.
        254    2    1    2    0    0 -0.35418204797E+02 -0.35286193066E+03  0.89699134588E+03  0.13167089558E+04  0.89630519816E+03 0.  0.
         23    2    4    4    0    0  0.30991577863E+03 -0.31408373884E+03  0.84023502532E+03  0.95333968947E+03  0.90361943834E+02 0.  0.
         23    2    4    4    0    0 -0.34533398343E+03 -0.38778191812E+02  0.56756320553E+02  0.36336926628E+03  0.89758762695E+02 0.  0.
          2    1    3    3  502    0  0.55750154029E+02  0.32001330595E+03  0.21132106549E+04  0.21380308388E+04  0.00000000000E+00 0. -1.
         -3    1    3    3    0  502 -0.20331949232E+02  0.32848624707E+02  0.26665408586E+03  0.26943797396E+03  0.00000000000E+00 0.  1.
         13    1    5    5    0    0  0.20567917766E+03 -0.21910657548E+03  0.65397631958E+03  0.71971983585E+03  0.00000000000E+00 0. -1.
        -13    1    5    5    0    0  0.10423660097E+03 -0.94977163363E+02  0.18625870575E+03  0.23361985363E+03  0.00000000000E+00 0.  1.
          2    1    6    6  503    0 -0.32904202430E+03 -0.25704746701E+02  0.32930780485E+02  0.33168331894E+03  0.00000000000E+00 0. -1.
         -2    1    6    6    0  503 -0.16291959133E+02 -0.13073445111E+02  0.23825540068E+02  0.31685947342E+02  0.00000000000E+00 0.  1.
<mgrwt>
<rscale>  0 0.17696650E+04</rscale>
<asrwt>0</asrwt>
<pdfrwt beam="1">  1        2 0.53854102E+00 0.17696650E+04</pdfrwt>
<pdfrwt beam="2">  1       -1 0.34409363E-01 0.17696650E+04</pdfrwt>
<totfact> 0.70630830E+00</totfact>
</mgrwt>
</event>
<event>
12    7  0.1605494E-007  0.1091723E+04  0.7818608E-02  0.9213297E-01
         -1   -1    0    0    0  501 -0.00000000000E+00  0.00000000000E+00  0.98678381002E+02  0.98678381002E+02  0.00000000000E+00 0.  1.
          2   -1    0    0  501    0  0.00000000000E+00 -0.00000000000E+00 -0.30195564100E+04  0.30195564100E+04  0.00000000000E+00 0. -1.
         24    2    1    2    0    0  0.12087488242E+03  0.10675279661E+03 -0.46574271812E+03  0.49896170029E+03  0.77714876931E+02 0.  0.
        254    2    1    2    0    0 -0.12087488242E+03 -0.10675279661E+03 -0.24551353109E+04  0.26192730907E+04  0.89827347294E+03 0.  0.
         23    2    4    4    0    0  0.37181881597E+03 -0.14630647348E+03 -0.11575686402E+04  0.12278274948E+04  0.89108833007E+02 0.  0.
         23    2    4    4    0    0 -0.49269369839E+03  0.39553676864E+02 -0.12975666707E+04  0.13914455959E+04  0.90166555458E+02 0.  0.
          2    1    3    3  502    0  0.90994897630E+02  0.47731675234E+02 -0.35869337334E+03  0.37312105314E+03  0.00000000000E+00 0. -1.
         -1    1    3    3    0  502  0.29879984787E+02  0.59021121378E+02 -0.10704934477E+03  0.12584064715E+03  0.00000000000E+00 0.  1.
         13    1    5    5    0    0  0.37567674822E+03 -0.14057381688E+03 -0.11477400567E+04  0.12158130016E+04  0.00000000000E+00 0. -1.
        -13    1    5    5    0    0 -0.38579322514E+01 -0.57326565970E+01 -0.98285835325E+01  0.12014493213E+02  0.00000000000E+00 0.  1.
          3    1    6    6  503    0 -0.45693908946E+03  0.58662963411E+02 -0.11635963282E+04  0.12514755650E+04  0.00000000000E+00 0. -1.
         -3    1    6    6    0  503 -0.35754608927E+02 -0.19109286547E+02 -0.13397034250E+03  0.13997003094E+03  0.00000000000E+00 0.  1.
<mgrwt>
<rscale>  0 0.10917233E+04</rscale>
<asrwt>0</asrwt>
<pdfrwt beam="1">  1        2 0.46454714E+00 0.10917233E+04</pdfrwt>
<pdfrwt beam="2">  1       -1 0.15181289E-01 0.10917233E+04</pdfrwt>
<totfact> 0.63013883E+01</totfact>
</mgrwt>
</event>
<event>
12    7  0.1605494E-007  0.1848113E+04  0.7818608E-02  0.8681124E-01
         -1   -1    0    0    0  501 -0.00000000000E+00  0.00000000000E+00  0.56821518276E+03  0.56821518276E+03  0.00000000000E+00 0.  1.
          2   -1    0    0  501    0  0.00000000000E+00 -0.00000000000E+00 -0.15027413726E+04  0.15027413726E+04  0.00000000000E+00 0. -1.
         24    2    1    2    0    0  0.16561178217E+03  0.91194925998E+02 -0.11183825227E+04  0.11370118427E+04  0.79200292753E+02 0.  0.
        254    2    1    2    0    0 -0.16561178217E+03 -0.91194925998E+02  0.18385633284E+03  0.93394471271E+03  0.89593850143E+03 0.  0.
         23    2    4    4    0    0 -0.48999861868E+03  0.89256445393E-01  0.27977676079E+03  0.57175559873E+03  0.92362192066E+02 0.  0.
         23    2    4    4    0    0  0.32438683651E+03 -0.91284182444E+02 -0.95920427945E+02  0.36218911398E+03  0.91763849733E+02 0.  0.
          4    1    3    3  502    0  0.17451036474E+03  0.87169747907E+02 -0.10734086662E+04  0.10909897328E+04  0.00000000000E+00 0. -1.
         -3    1    3    3    0  502 -0.88985825754E+01  0.40251780917E+01 -0.44973856476E+02  0.46022109869E+02  0.00000000000E+00 0.  1.
         13    1    5    5    0    0 -0.39329896391E+03  0.96154972229E+01  0.26279535967E+03  0.47311513806E+03  0.00000000000E+00 0.  1.
        -13    1    5    5    0    0 -0.96699654772E+02 -0.95262407775E+01  0.16981401116E+02  0.98640460665E+02  0.00000000000E+00 0. -1.
          4    1    6    6  503    0  0.18502274660E+03 -0.27115616065E+02 -0.12176973234E+02  0.18739517623E+03  0.00000000000E+00 0. -1.
         -4    1    6    6    0  503  0.13936408991E+03 -0.64168566378E+02 -0.83743454710E+02  0.17479393775E+03  0.00000000000E+00 0.  1.
<mgrwt>
<rscale>  0 0.18481131E+04</rscale>
<asrwt>0</asrwt>
<pdfrwt beam="1">  1        2 0.23119098E+00 0.18481131E+04</pdfrwt>
<pdfrwt beam="2">  1       -1 0.87417720E-01 0.18481131E+04</pdfrwt>
<totfact> 0.17455597E+01</totfact>
</mgrwt>
</event>
<event>
12    7  0.1605494E-007  0.1752435E+04  0.7818608E-02  0.8732011E-01
          2   -1    0    0  501    0  0.00000000000E+00  0.00000000000E+00  0.26715557572E+04  0.26715557572E+04  0.00000000000E+00 0. -1.
         -3   -1    0    0    0  501 -0.00000000000E+00 -0.00000000000E+00 -0.28738198144E+03  0.28738198144E+03  0.00000000000E+00 0.  1.
         24    2    1    2    0    0 -0.36232011250E+02 -0.56341108954E+03  0.13997990183E+04  0.15114126540E+04  0.78651794631E+02 0.  0.
        254    2    1    2    0    0  0.36232011250E+02  0.56341108954E+03  0.98437475748E+03  0.14475250846E+04  0.89866033234E+03 0.  0.
         23    2    4    4    0    0 -0.37855432414E+03  0.20316048012E+03  0.19636516170E+03  0.48267807094E+03  0.99203258172E+02 0.  0.
         23    2    4    4    0    0  0.41478633539E+03  0.36025060942E+03  0.78800959578E+03  0.96484701366E+03  0.90235420480E+02 0.  0.
          4    1    3    3  502    0 -0.37009042611E+02 -0.56602268312E+03  0.13912773427E+04  0.15024659701E+04  0.00000000000E+00 0. -1.
         -3    1    3    3    0  502  0.77703136087E+00  0.26115935857E+01  0.85216755391E+01  0.89466838989E+01  0.00000000000E+00 0.  1.
         13    1    5    5    0    0 -0.30249738875E+03  0.12325476357E+03  0.17407398756E+03  0.37013262500E+03  0.00000000000E+00 0.  1.
        -13    1    5    5    0    0 -0.76056935385E+02  0.79905716546E+02  0.22291174137E+02  0.11254544594E+03  0.00000000000E+00 0. -1.
          1    1    6    6  503    0  0.28985705217E+03  0.19995061958E+03  0.53188636023E+03  0.63788749883E+03  0.00000000000E+00 0. -1.
         -1    1    6    6    0  503  0.12492928322E+03  0.16029998984E+03  0.25612323555E+03  0.32695951483E+03  0.00000000000E+00 0.  1.
<mgrwt>
<rscale>  0 0.17524349E+04</rscale>
<asrwt>0</asrwt>
<pdfrwt beam="1">  1        2 0.41100856E+00 0.17524349E+04</pdfrwt>
<pdfrwt beam="2">  1       -3 0.44212614E-01 0.17524349E+04</pdfrwt>
<totfact> 0.86185782E+00</totfact>
</mgrwt>
</event>
<event>
12    7  0.1605494E-007  0.2577475E+04  0.7818608E-02  0.8375893E-01
          2   -1    0    0  501    0  0.00000000000E+00  0.00000000000E+00  0.11349600444E+04  0.11349600444E+04  0.00000000000E+00 0. -1.
         -1   -1    0    0    0  501 -0.00000000000E+00 -0.00000000000E+00 -0.14633510591E+04  0.14633510591E+04  0.00000000000E+00 0.  1.
         24    2    1    2    0    0 -0.66800940336E+02 -0.15231414239E+03 -0.12780212123E+04  0.12912727496E+04  0.79907014477E+02 0.  0.
        254    2    1    2    0    0  0.66800940336E+02  0.15231414239E+03  0.94963019767E+03  0.13070383540E+04  0.88254732613E+03 0.  0.
         23    2    4    4    0    0 -0.49721426155E+02 -0.22435889230E+03  0.85669371876E+03  0.89159321669E+03  0.90582578368E+02 0.  0.
         23    2    4    4    0    0  0.11652236649E+03  0.37667303469E+03  0.92936478903E+02  0.41544513729E+03  0.92181538490E+02 0.  0.
          4    1    3    3  502    0 -0.13653933122E+01  0.93122273849E+01 -0.95847687184E+02  0.96308675707E+02  0.00000000000E+00 0. -1.
         -3    1    3    3    0  502 -0.65435547024E+02 -0.16162636977E+03 -0.11821735252E+04  0.11949640738E+04  0.00000000000E+00 0.  1.
         13    1    5    5    0    0 -0.14995152370E+02 -0.18282902570E+03  0.74798145525E+03  0.77014775507E+03  0.00000000000E+00 0. -1.
        -13    1    5    5    0    0 -0.34726273786E+02 -0.41529866602E+02  0.10871226351E+03  0.12144546162E+03  0.00000000000E+00 0.  1.
          1    1    6    6  503    0  0.12645900452E+03  0.35290950445E+03  0.70858539258E+02  0.38152055088E+03  0.00000000000E+00 0. -1.
         -1    1    6    6    0  503 -0.99366380291E+01  0.23763530232E+02  0.22077939645E+02  0.33924586414E+02  0.00000000000E+00 0.  1.
<mgrwt>
<rscale>  0 0.25774755E+04</rscale>
<asrwt>0</asrwt>
<pdfrwt beam="1">  1        2 0.17460924E+00 0.25774755E+04</pdfrwt>
<pdfrwt beam="2">  1       -1 0.22513093E+00 0.25774755E+04</pdfrwt>
<totfact> 0.21298117E+00</totfact>
</mgrwt>
</event>
<event>
12    7  0.1605494E-007  0.2575661E+04  0.7818608E-02  0.8376516E-01
          2   -1    0    0  501    0  0.00000000000E+00  0.00000000000E+00  0.30975431019E+04  0.30975431019E+04  0.00000000000E+00 0. -1.
         -1   -1    0    0    0  501 -0.00000000000E+00 -0.00000000000E+00 -0.53542668769E+03  0.53542668769E+03  0.00000000000E+00 0.  1.
         24    2    1    2    0    0  0.78507989290E+02  0.71667795762E+03  0.23463941346E+04  0.24560426543E+04  0.82397121773E+02 0.  0.
        254    2    1    2    0    0 -0.78507989290E+02 -0.71667795762E+03  0.21572227961E+03  0.11769271353E+04  0.90489257951E+03 0.  0.
         23    2    4    4    0    0 -0.27274569999E+03  0.86242754942E+02  0.16500950434E+03  0.34431387127E+03  0.97446784372E+02 0.  0.
         23    2    4    4    0    0  0.19423771070E+03 -0.80292071256E+03  0.50712775266E+02  0.83261326398E+03  0.90901610920E+02 0.  0.
          4    1    3    3  502    0  0.64153469053E+02  0.59082522849E+03  0.18177334696E+04  0.19124186478E+04  0.00000000000E+00 0. -1.
         -3    1    3    3    0  502  0.14354520237E+02  0.12585272913E+03  0.52866066503E+03  0.54362400649E+03  0.00000000000E+00 0.  1.
         13    1    5    5    0    0 -0.47578781203E+02  0.58332404564E+02  0.43309219443E+02  0.86845255090E+02  0.00000000000E+00 0. -1.
        -13    1    5    5    0    0 -0.22516691878E+03  0.27910350378E+02  0.12170028490E+03  0.25746861618E+03  0.00000000000E+00 0.  1.
          3    1    6    6  503    0  0.11275248712E+03 -0.55134800703E+03  0.71861296718E+02  0.56732864742E+03  0.00000000000E+00 0. -1.
         -3    1    6    6    0  503  0.81485223577E+02 -0.25157270552E+03 -0.21148521451E+02  0.26528461656E+03  0.00000000000E+00 0.  1.
<mgrwt>
<rscale>  0 0.25756609E+04</rscale>
<asrwt>0</asrwt>
<pdfrwt beam="1">  1        2 0.47654508E+00 0.25756609E+04</pdfrwt>
<pdfrwt beam="2">  1       -1 0.82373338E-01 0.25756609E+04</pdfrwt>
<totfact> 0.22303814E+00</totfact>
</mgrwt>
</event>
<event>
12    7  0.1605494E-007  0.2365271E+04  0.7818608E-02  0.8452621E-01
         -1   -1    0    0    0  501 -0.00000000000E+00  0.00000000000E+00  0.15755941926E+04  0.15755941926E+04  0.00000000000E+00 0.  1.
          2   -1    0    0  501    0  0.00000000000E+00 -0.00000000000E+00 -0.88768189032E+03  0.88768189032E+03  0.00000000000E+00 0. -1.
         24    2    1    2    0    0 -0.83541295422E+03 -0.48345003318E+03 -0.11058636269E+02  0.96854275666E+03  0.79460929852E+02 0.  0.
        254    2    1    2    0    0  0.83541295422E+03  0.48345003318E+03  0.69897093860E+03  0.14947333263E+04  0.90223533799E+03 0.  0.
         23    2    4    4    0    0  0.68844866729E+02 -0.13199061735E+03 -0.12036432030E+03  0.21178271013E+03  0.90571562685E+02 0.  0.
         23    2    4    4    0    0  0.76656808749E+03  0.61544065053E+03  0.81933525889E+03  0.12829506162E+04  0.90874583954E+02 0.  0.
          2    1    3    3  502    0 -0.22908125002E+02 -0.48321453494E+00  0.37453582539E+01  0.23217308109E+02  0.00000000000E+00 0. -1.
         -1    1    3    3    0  502 -0.81250482922E+03 -0.48296681865E+03 -0.14803994523E+02  0.94532544855E+03  0.00000000000E+00 0.  1.
         13    1    5    5    0    0  0.54363234950E+02 -0.45392801060E+02 -0.98469662844E+02  0.12129361979E+03  0.00000000000E+00 0. -1.
        -13    1    5    5    0    0  0.14481631779E+02 -0.86597816289E+02 -0.21894657452E+02  0.90489090336E+02  0.00000000000E+00 0.  1.
          2    1    6    6  503    0  0.69513011918E+03  0.53651970751E+03  0.75853405710E+03  0.11603590802E+04  0.00000000000E+00 0. -1.
         -2    1    6    6    0  503  0.71437968316E+02  0.78920943017E+02  0.60801201790E+02  0.12259153602E+03  0.00000000000E+00 0.  1.
<mgrwt>
<rscale>  0 0.23652708E+04</rscale>
<asrwt>0</asrwt>
<pdfrwt beam="1">  1        2 0.13656644E+00 0.23652708E+04</pdfrwt>
<pdfrwt beam="2">  1       -1 0.24239911E+00 0.23652708E+04</pdfrwt>
<totfact> 0.24036641E+00</totfact>
</mgrwt>
</event>
<event>
12    7  0.1605494E-007  0.1862932E+04  0.7818608E-02  0.8673531E-01
         -1   -1    0    0    0  501 -0.00000000000E+00  0.00000000000E+00  0.31781768746E+03  0.31781768746E+03  0.00000000000E+00 0.  1.
          2   -1    0    0  501    0  0.00000000000E+00 -0.00000000000E+00 -0.27299584811E+04  0.27299584811E+04  0.00000000000E+00 0. -1.
         24    2    1    2    0    0  0.27960661567E+03  0.11432568632E+03 -0.19626244457E+04  0.19874033708E+04  0.81407747750E+02 0.  0.
        254    2    1    2    0    0 -0.27960661567E+03 -0.11432568632E+03 -0.44951634792E+03  0.10603727977E+04  0.91163331499E+03 0.  0.
         23    2    4    4    0    0  0.19500850968E+03  0.26955274251E+03 -0.15944942812E+03  0.37886701971E+03  0.86192219194E+02 0.  0.
         23    2    4    4    0    0 -0.47461512536E+03 -0.38387842883E+03 -0.29006691979E+03  0.68150577801E+03  0.87687753771E+02 0.  0.
          4    1    3    3  502    0  0.27551681310E+03  0.12380737150E+03 -0.18752838403E+04  0.18994544641E+04  0.00000000000E+00 0. -1.
         -3    1    3    3    0  502  0.40898025706E+01 -0.94816851871E+01 -0.87340605406E+02  0.87948906712E+02  0.00000000000E+00 0.  1.
         13    1    5    5    0    0  0.37385202469E+02  0.10399536971E+03 -0.23760335612E+02  0.11303647125E+03  0.00000000000E+00 0. -1.
        -13    1    5    5    0    0  0.15762330722E+03  0.16555737280E+03 -0.13568909251E+03  0.26583054846E+03  0.00000000000E+00 0.  1.
          2    1    6    6  503    0 -0.72295380373E+02 -0.36734373851E+02 -0.67035759590E+02  0.10521325634E+03  0.00000000000E+00 0. -1.
         -2    1    6    6    0  503 -0.40231974498E+03 -0.34714405497E+03 -0.22303116020E+03  0.57629252167E+03  0.00000000000E+00 0.  1.
<mgrwt>
<rscale>  0 0.18629322E+04</rscale>
<asrwt>0</asrwt>
<pdfrwt beam="1">  1        2 0.41999360E+00 0.18629322E+04</pdfrwt>
<pdfrwt beam="2">  1       -1 0.48895030E-01 0.18629322E+04</pdfrwt>
<totfact> 0.11434697E+01</totfact>
</mgrwt>
</event>
<event>
12    7  0.1605494E-007  0.1103990E+04  0.7818608E-02  0.9201311E-01
          2   -1    0    0  501    0  0.00000000000E+00  0.00000000000E+00  0.19959835313E+04  0.19959835313E+04  0.00000000000E+00 0. -1.
         -1   -1    0    0    0  501 -0.00000000000E+00 -0.00000000000E+00 -0.15265592185E+03  0.15265592185E+03  0.00000000000E+00 0.  1.
         24    2    1    2    0    0 -0.50463101365E+02  0.89227119236E+02  0.63941542919E+02  0.14968904360E+03  0.88375819411E+02 0.  0.
        254    2    1    2    0    0  0.50463101365E+02 -0.89227119236E+02  0.17793860665E+04  0.19989504095E+04  0.90503036560E+03 0.  0.
         23    2    4    4    0    0 -0.25637161352E+03  0.10966100321E+03  0.15050404179E+04  0.15335887722E+04  0.94846839905E+02 0.  0.
         23    2    4    4    0    0  0.30683471489E+03 -0.19888812245E+03  0.27434564864E+03  0.46536163730E+03  0.87131458324E+02 0.  0.
          2    1    3    3  502    0 -0.53968031941E+02  0.85349430798E+02  0.82507371084E+02  0.13040145740E+03  0.00000000000E+00 0. -1.
         -1    1    3    3    0  502  0.35049305761E+01  0.38776884382E+01 -0.18565828165E+02  0.19287586200E+02  0.00000000000E+00 0.  1.
         13    1    5    5    0    0 -0.15193243549E+03  0.11398419848E+03  0.95529361787E+03  0.97399268929E+03  0.00000000000E+00 0. -1.
        -13    1    5    5    0    0 -0.10443917803E+03 -0.43231952666E+01  0.54974680002E+03  0.55959608295E+03  0.00000000000E+00 0.  1.
          2    1    6    6  503    0  0.27831205605E+03 -0.15750201611E+03  0.26248509100E+03  0.41371839290E+03  0.00000000000E+00 0.  1.
         -2    1    6    6    0  503  0.28522658830E+02 -0.41386106333E+02  0.11860557637E+02  0.51643244395E+02  0.00000000000E+00 0. -1.
<mgrwt>
<rscale>  0 0.11039904E+04</rscale>
<asrwt>0</asrwt>
<pdfrwt beam="1">  1        2 0.30707437E+00 0.11039904E+04</pdfrwt>
<pdfrwt beam="2">  1       -1 0.23485528E-01 0.11039904E+04</pdfrwt>
<totfact> 0.11862940E+02</totfact>
</mgrwt>
</event>
<event>
12    7  0.1605494E-007  0.1666731E+04  0.7818608E-02  0.8780570E-01
          2   -1    0    0  501    0  0.00000000000E+00  0.00000000000E+00  0.42609357821E+04  0.42609357821E+04  0.00000000000E+00 0. -1.
         -1   -1    0    0    0  501 -0.00000000000E+00 -0.00000000000E+00 -0.16299184825E+03  0.16299184825E+03  0.00000000000E+00 0.  1.
         24    2    1    2    0    0  0.17462398996E+03  0.26833381119E+03  0.17438649889E+03  0.37335472431E+03  0.80538978567E+02 0.  0.
        254    2    1    2    0    0 -0.17462398996E+03 -0.26833381119E+03  0.39235574349E+04  0.40505729060E+04  0.95411810042E+03 0.  0.
         23    2    4    4    0    0 -0.24386523863E+03 -0.23363634804E+02  0.36690193953E+04  0.36783586448E+04  0.92751726231E+02 0.  0.
         23    2    4    4    0    0  0.69241248670E+02 -0.24497017639E+03  0.25453803960E+03  0.37221426116E+03  0.94599708093E+02 0.  0.
          2    1    3    3  502    0  0.16292765223E+03  0.22400257163E+03  0.11904026262E+03  0.30148491850E+03  0.00000000000E+00 0. -1.
         -1    1    3    3    0  502  0.11696337733E+02  0.44331239561E+02  0.55346236273E+02  0.71869805809E+02  0.00000000000E+00 0.  1.
         13    1    5    5    0    0 -0.14641968135E+03 -0.30322334799E+02  0.27731564714E+04  0.27771847224E+04  0.00000000000E+00 0.  1.
        -13    1    5    5    0    0 -0.97445557289E+02  0.69586999952E+01  0.89586292391E+03  0.90117392249E+03  0.00000000000E+00 0. -1.
          1    1    6    6  503    0  0.26311858150E+02 -0.16778360117E+03  0.21869792144E+03  0.27689787205E+03  0.00000000000E+00 0. -1.
         -1    1    6    6    0  503  0.42929390520E+02 -0.77186575218E+02  0.35840118159E+02  0.95316389115E+02  0.00000000000E+00 0.  1.
<mgrwt>
<rscale>  0 0.16667307E+04</rscale>
<asrwt>0</asrwt>
<pdfrwt beam="1">  1        2 0.65552850E+00 0.16667307E+04</pdfrwt>
<pdfrwt beam="2">  1       -1 0.25075672E-01 0.16667307E+04</pdfrwt>
<totfact> 0.31837746E+00</totfact>
</mgrwt>
</event>
<event>
12    7  0.1605494E-007  0.1372348E+04  0.7818608E-02  0.8974081E-01
          2   -1    0    0  501    0  0.00000000000E+00  0.00000000000E+00  0.24971709861E+04  0.24971709861E+04  0.00000000000E+00 0. -1.
         -1   -1    0    0    0  501 -0.00000000000E+00 -0.00000000000E+00 -0.18854738306E+03  0.18854738306E+03  0.00000000000E+00 0.  1.
         24    2    1    2    0    0 -0.96200142117E+02  0.20915188009E+03  0.12459297564E+04  0.12695021148E+04  0.79345354143E+02 0.  0.
        254    2    1    2    0    0  0.96200142117E+02 -0.20915188009E+03  0.10626938466E+04  0.14162162544E+04  0.90738706803E+03 0.  0.
         23    2    4    4    0    0 -0.36872664012E+02  0.98073343027E+02  0.10612009692E+04  0.10701667876E+04  0.90174731360E+02 0.  0.
         23    2    4    4    0    0  0.13307280613E+03 -0.30722522312E+03  0.14928773953E+01  0.34604946680E+03  0.87477399003E+02 0.  0.
          2    1    3    3  502    0 -0.79054254374E+02  0.17123032208E+03  0.11433660211E+04  0.11588163170E+04  0.00000000000E+00 0. -1.
         -1    1    3    3    0  502 -0.17145887743E+02  0.37921558016E+02  0.10256373528E+03  0.11068579775E+03  0.00000000000E+00 0.  1.
         13    1    5    5    0    0 -0.42109713064E+01  0.43718523152E+02  0.13867854104E+03  0.14546745097E+03  0.00000000000E+00 0. -1.
        -13    1    5    5    0    0 -0.32661692705E+02  0.54354819875E+02  0.92252242821E+03  0.92469933663E+03  0.00000000000E+00 0.  1.
          1    1    6    6  503    0 -0.49135783769E+01 -0.66142682388E+02  0.14784981485E+02  0.67952876050E+02  0.00000000000E+00 0. -1.
         -1    1    6    6    0  503  0.13798638451E+03 -0.24108254073E+03 -0.13292104090E+02  0.27809659075E+03  0.00000000000E+00 0.  1.
<mgrwt>
<rscale>  0 0.13723484E+04</rscale>
<asrwt>0</asrwt>
<pdfrwt beam="1">  1        2 0.38418013E+00 0.13723484E+04</pdfrwt>
<pdfrwt beam="2">  1       -1 0.29007291E-01 0.13723484E+04</pdfrwt>
<totfact> 0.42176495E+01</totfact>
</mgrwt>
</event>
<event>
12    7  0.1605494E-007  0.1727506E+04  0.7818608E-02  0.8745830E-01
         -1   -1    0    0    0  501 -0.00000000000E+00  0.00000000000E+00  0.19464566713E+03  0.19464566713E+03  0.00000000000E+00 0.  1.
          2   -1    0    0  501    0  0.00000000000E+00 -0.00000000000E+00 -0.38329626134E+04  0.38329626134E+04  0.00000000000E+00 0. -1.
         24    2    1    2    0    0 -0.17481808221E+03  0.58618244352E+03 -0.96492651963E+03  0.11454028468E+04  0.81812433117E+02 0.  0.
        254    2    1    2    0    0  0.17481808221E+03 -0.58618244352E+03 -0.26733904267E+04  0.28822054337E+04  0.88652161281E+03 0.  0.
         23    2    4    4    0    0  0.23212242967E+03  0.11541583010E+03 -0.13787351603E+04  0.14058099725E+04  0.90495305890E+02 0.  0.
         23    2    4    4    0    0 -0.57304347452E+02 -0.70159827363E+03 -0.12946552664E+04  0.14763954613E+04  0.89929825045E+02 0.  0.
          2    1    3    3  502    0 -0.16167242754E+03  0.56046670878E+03 -0.88066637470E+03  0.10563305207E+04  0.00000000000E+00 0. -1.
         -1    1    3    3    0  502 -0.13145654675E+02  0.25715734748E+02 -0.84260144930E+02  0.89072326084E+02  0.00000000000E+00 0.  1.
         13    1    5    5    0    0  0.57326153871E+02  0.87161076070E+01 -0.50889636847E+03  0.51218919579E+03  0.00000000000E+00 0. -1.
        -13    1    5    5    0    0  0.17479627580E+03  0.10669972250E+03 -0.86983879180E+03  0.89362077669E+03  0.00000000000E+00 0.  1.
          3    1    6    6  503    0 -0.58132067175E+01 -0.13089567974E+01 -0.42693369809E+01  0.73303464102E+01  0.00000000000E+00 0. -1.
         -3    1    6    6    0  503 -0.51491140735E+02 -0.70028931683E+03 -0.12903859294E+04  0.14690651148E+04  0.00000000000E+00 0.  1.
<mgrwt>
<rscale>  0 0.17275064E+04</rscale>
<asrwt>0</asrwt>
<pdfrwt beam="1">  1        2 0.58968658E+00 0.17275064E+04</pdfrwt>
<pdfrwt beam="2">  1       -1 0.29945486E-01 0.17275064E+04</pdfrwt>
<totfact> 0.51999815E+00</totfact>
</mgrwt>
</event>
<event>
12    7  0.1605494E-007  0.1407810E+04  0.7818608E-02  0.8948185E-01
         -3   -1    0    0    0  501 -0.00000000000E+00  0.00000000000E+00  0.15566950068E+04  0.15566950068E+04  0.00000000000E+00 0.  1.
          2   -1    0    0  501    0  0.00000000000E+00 -0.00000000000E+00 -0.31829111490E+03  0.31829111490E+03  0.00000000000E+00 0. -1.
         24    2    1    2    0    0  0.22660419732E+03  0.26114801500E+03  0.63096693109E+03  0.72335904677E+03  0.74708061288E+02 0.  0.
        254    2    1    2    0    0 -0.22660419732E+03 -0.26114801500E+03  0.60743696081E+03  0.11516270749E+04  0.91526909180E+03 0.  0.
         23    2    4    4    0    0  0.23045659682E+01 -0.44916233925E+02 -0.23145563090E+03  0.25098444231E+03  0.86015708528E+02 0.  0.
         23    2    4    4    0    0 -0.22890876329E+03 -0.21623178108E+03  0.83889259171E+03  0.90064263263E+03  0.90889857610E+02 0.  0.
          4    1    3    3  502    0  0.81779498174E+01  0.44339554074E+02  0.64642581399E+02  0.78813312636E+02  0.00000000000E+00 0. -1.
         -3    1    3    3    0  502  0.21842624750E+03  0.21680846093E+03  0.56632434969E+03  0.64454573413E+03  0.00000000000E+00 0.  1.
         13    1    5    5    0    0  0.24040588006E+02 -0.42013190511E+02 -0.22180574226E+03  0.22702608958E+03  0.00000000000E+00 0. -1.
        -13    1    5    5    0    0 -0.21736022038E+02 -0.29030434139E+01 -0.96498886399E+01  0.23958352737E+02  0.00000000000E+00 0.  1.
          2    1    6    6  503    0 -0.17853174661E+03 -0.16657104138E+03  0.73859372910E+03  0.77790757359E+03  0.00000000000E+00 0. -1.
         -2    1    6    6    0  503 -0.50377016676E+02 -0.49660739698E+02  0.10029886261E+03  0.12273505904E+03  0.00000000000E+00 0.  1.
<mgrwt>
<rscale>  0 0.14078099E+04</rscale>
<asrwt>0</asrwt>
<pdfrwt beam="1">  1        2 0.48967865E-01 0.14078099E+04</pdfrwt>
<pdfrwt beam="2">  1       -3 0.23949154E+00 0.14078099E+04</pdfrwt>
<totfact> 0.52477674E+00</totfact>
</mgrwt>
</event>
<event>
12    7  0.1605494E-007  0.2037456E+04  0.7818608E-02  0.8589306E-01
          2   -1    0    0  501    0  0.00000000000E+00  0.00000000000E+00  0.28910467078E+04  0.28910467078E+04  0.00000000000E+00 0. -1.
         -1   -1    0    0    0  501 -0.00000000000E+00 -0.00000000000E+00 -0.35897267772E+03  0.35897267772E+03  0.00000000000E+00 0.  1.
         24    2    1    2    0    0  0.18197058211E+03 -0.80317919691E+03  0.10838992928E+04  0.13635692120E+04  0.79203560038E+02 0.  0.
        254    2    1    2    0    0 -0.18197058211E+03  0.80317919691E+03  0.14481747374E+04  0.18864501736E+04  0.88502772407E+03 0.  0.
         23    2    4    4    0    0 -0.31445809428E+03  0.94067036535E+03  0.12217826452E+04  0.15766506291E+04  0.96590604576E+02 0.  0.
         23    2    4    4    0    0  0.13248751217E+03 -0.13749116845E+03  0.22639209219E+03  0.30979954448E+03  0.90915433624E+02 0.  0.
          2    1    3    3  502    0  0.18621670210E+03 -0.79505619908E+03  0.10605888568E+04  0.13385214764E+04  0.00000000000E+00 0. -1.
         -1    1    3    3    0  502 -0.42461199869E+01 -0.81229978207E+01  0.23310436006E+02  0.25047735533E+02  0.00000000000E+00 0.  1.
         13    1    5    5    0    0 -0.98084081513E+02  0.20122631985E+03  0.23257716659E+03  0.32280746160E+03  0.00000000000E+00 0. -1.
        -13    1    5    5    0    0 -0.21637401277E+03  0.73944404551E+03  0.98920547859E+03  0.12538431675E+04  0.00000000000E+00 0.  1.
          3    1    6    6  503    0  0.89152116145E+02 -0.64434933937E+02  0.18518134547E+03  0.21538823374E+03  0.00000000000E+00 0. -1.
         -3    1    6    6    0  503  0.43335396025E+02 -0.73056234511E+02  0.41210746717E+02  0.94411310735E+02  0.00000000000E+00 0.  1.
<mgrwt>
<rscale>  0 0.20374560E+04</rscale>
<asrwt>0</asrwt>
<pdfrwt beam="1">  1        2 0.44477640E+00 0.20374560E+04</pdfrwt>
<pdfrwt beam="2">  1       -1 0.55226568E-01 0.20374560E+04</pdfrwt>
<totfact> 0.71217491E+00</totfact>
</mgrwt>
</event>
<event>
12    7  0.1605494E-007  0.1746826E+04  0.7818608E-02  0.8735099E-01
          2   -1    0    0  501    0  0.00000000000E+00  0.00000000000E+00  0.38075172775E+03  0.38075172775E+03  0.00000000000E+00 0. -1.
         -1   -1    0    0    0  501 -0.00000000000E+00 -0.00000000000E+00 -0.20035380289E+04  0.20035380289E+04  0.00000000000E+00 0.  1.
         24    2    1    2    0    0 -0.51860854062E+03 -0.37159076715E+03 -0.55429303619E+03  0.84896985333E+03  0.80464434737E+02 0.  0.
        254    2    1    2    0    0  0.51860854062E+03  0.37159076715E+03 -0.10684932649E+04  0.15353199033E+04  0.89916340653E+03 0.  0.
         23    2    4    4    0    0 -0.17872326995E+03  0.67926159526E+02  0.11013149134E+02  0.21158961015E+03  0.89960565240E+02 0.  0.
         23    2    4    4    0    0  0.69733181057E+03  0.30366460762E+03 -0.10795064141E+04  0.13237302932E+04  0.91890930158E+02 0.  0.
          4    1    3    3  502    0 -0.61854326226E+02 -0.19424243140E+02 -0.74313556178E+02  0.98619285772E+02  0.00000000000E+00 0. -1.
         -3    1    3    3    0  502 -0.45675421439E+03 -0.35216652401E+03 -0.47997948002E+03  0.75035056756E+03  0.00000000000E+00 0.  1.
         13    1    5    5    0    0 -0.17421683101E+01  0.29442106676E+02 -0.43915995967E+01  0.29818768301E+02  0.00000000000E+00 0. -1.
        -13    1    5    5    0    0 -0.17698110164E+03  0.38484052849E+02  0.15404748731E+02  0.18177084185E+03  0.00000000000E+00 0.  1.
          4    1    6    6  503    0  0.38132053784E+02  0.11068846652E+02 -0.27731538746E+02  0.48431509714E+02  0.00000000000E+00 0. -1.
         -4    1    6    6    0  503  0.65919975679E+03  0.29259576097E+03 -0.10517748753E+04  0.12752987834E+04  0.00000000000E+00 0.  1.
<mgrwt>
<rscale>  0 0.17468263E+04</rscale>
<asrwt>0</asrwt>
<pdfrwt beam="1">  1        2 0.58577189E-01 0.17468263E+04</pdfrwt>
<pdfrwt beam="2">  1       -1 0.30823662E+00 0.17468263E+04</pdfrwt>
<totfact> 0.26656111E+00</totfact>
</mgrwt>
</event>
<event>
12    7  0.1605494E-007  0.1730695E+04  0.7818608E-02  0.8744049E-01
          2   -1    0    0  501    0  0.00000000000E+00  0.00000000000E+00  0.67607545479E+03  0.67607545479E+03  0.00000000000E+00 0. -1.
         -1   -1    0    0    0  501 -0.00000000000E+00 -0.00000000000E+00 -0.11076073598E+04  0.11076073598E+04  0.00000000000E+00 0.  1.
         24    2    1    2    0    0  0.19753003398E+03 -0.10828310695E+03  0.44899265889E+03  0.50819975244E+03  0.77001526382E+02 0.  0.
        254    2    1    2    0    0 -0.19753003398E+03  0.10828310695E+03 -0.88052456388E+03  0.12754830621E+04  0.89486881085E+03 0.  0.
         23    2    4    4    0    0  0.15531675015E+03  0.15192217259E+03  0.78180548363E+02  0.24882202317E+03  0.92717644860E+02 0.  0.
         23    2    4    4    0    0 -0.35284678414E+03 -0.43639065638E+02 -0.95870511224E+03  0.10266610390E+04  0.92261452324E+02 0.  0.
          2    1    3    3  502    0  0.13247897867E+03 -0.10953132946E+03  0.30294787411E+03  0.34831768021E+03  0.00000000000E+00 0. -1.
         -1    1    3    3    0  502  0.65051055315E+02  0.12482225113E+01  0.14604478478E+03  0.15988207223E+03  0.00000000000E+00 0.  1.
         13    1    5    5    0    0  0.82416763885E+02  0.32895136412E+02  0.62125148455E+02  0.10832426801E+03  0.00000000000E+00 0. -1.
        -13    1    5    5    0    0  0.72899986269E+02  0.11902703617E+03  0.16055399908E+02  0.14049775516E+03  0.00000000000E+00 0.  1.
          1    1    6    6  503    0  0.45082289919E+01  0.74893589515E+00 -0.32743982234E+01  0.56219851782E+01  0.00000000000E+00 0. -1.
         -1    1    6    6    0  503 -0.35735501313E+03 -0.44388001533E+02 -0.95543071402E+03  0.10210390538E+04  0.00000000000E+00 0.  1.
<mgrwt>
<rscale>  0 0.17306948E+04</rscale>
<asrwt>0</asrwt>
<pdfrwt beam="1">  1        2 0.10401161E+00 0.17306948E+04</pdfrwt>
<pdfrwt beam="2">  1       -1 0.17040113E+00 0.17306948E+04</pdfrwt>
<totfact> 0.11341939E+01</totfact>
</mgrwt>
</event>
<event>
12    7  0.1605494E-007  0.1946788E+04  0.7818608E-02  0.8631911E-01
          2   -1    0    0  501    0  0.00000000000E+00  0.00000000000E+00  0.40828916628E+04  0.40828916628E+04  0.00000000000E+00 0. -1.
         -1   -1    0    0    0  501 -0.00000000000E+00 -0.00000000000E+00 -0.23206480901E+03  0.23206480901E+03  0.00000000000E+00 0.  1.
         24    2    1    2    0    0  0.60333281007E+03  0.14191042221E+03  0.52739808566E+03  0.81784677607E+03  0.81089831300E+02 0.  0.
        254    2    1    2    0    0 -0.60333281007E+03 -0.14191042221E+03  0.33234287682E+04  0.34971096958E+04  0.89467781886E+03 0.  0.
         23    2    4    4    0    0  0.14668382844E+03 -0.51532292694E+02  0.16385186151E+04  0.16483149165E+04  0.89594024384E+02 0.  0.
         23    2    4    4    0    0 -0.75001663851E+03 -0.90378129515E+02  0.16849101531E+04  0.18487947793E+04  0.91797318243E+02 0.  0.
          4    1    3    3  502    0  0.31469195302E+03  0.77347718449E+02  0.32835549449E+03  0.46133613083E+03  0.00000000000E+00 0. -1.
         -3    1    3    3    0  502  0.28864085704E+03  0.64562703760E+02  0.19904259116E+03  0.35651064524E+03  0.00000000000E+00 0.  1.
         13    1    5    5    0    0  0.10299152557E+03 -0.36149918076E+02  0.14532544058E+04  0.14573477412E+04  0.00000000000E+00 0.  1.
        -13    1    5    5    0    0  0.43692302869E+02 -0.15382374618E+02  0.18526420928E+03  0.19096717524E+03  0.00000000000E+00 0. -1.
          4    1    6    6  503    0 -0.24025274520E+03 -0.17472999624E+02  0.44084846450E+03  0.50236844640E+03  0.00000000000E+00 0. -1.
         -4    1    6    6    0  503 -0.50976389330E+03 -0.72905129891E+02  0.12440616886E+04  0.13464263329E+04  0.00000000000E+00 0.  1.
<mgrwt>
<rscale>  0 0.19467876E+04</rscale>
<asrwt>0</asrwt>
<pdfrwt beam="1">  1        2 0.62813713E+00 0.19467876E+04</pdfrwt>
<pdfrwt beam="2">  1       -1 0.35702281E-01 0.19467876E+04</pdfrwt>
<totfact> 0.23551321E+00</totfact>
</mgrwt>
</event>
<event>
12    7  0.1605494E-007  0.1228272E+04  0.7818608E-02  0.9088464E-01
          2   -1    0    0  501    0  0.00000000000E+00  0.00000000000E+00  0.12919243511E+04  0.12919243511E+04  0.00000000000E+00 0. -1.
         -1   -1    0    0    0  501 -0.00000000000E+00 -0.00000000000E+00 -0.29193909409E+03  0.29193909409E+03  0.00000000000E+00 0.  1.
         24    2    1    2    0    0  0.18497332542E+03 -0.35002969441E+02  0.21000360316E+01  0.20453460800E+03  0.79935328415E+02 0.  0.
        254    2    1    2    0    0 -0.18497332542E+03  0.35002969441E+02  0.99788522103E+03  0.13793288372E+04  0.93345208120E+03 0.  0.
         23    2    4    4    0    0  0.15835230019E+03  0.22584617789E+03  0.92558692098E+03  0.97003628727E+03  0.90428442873E+02 0.  0.
         23    2    4    4    0    0 -0.34332562561E+03 -0.19084320845E+03  0.72298300043E+02  0.40929254997E+03  0.89441220124E+02 0.  0.
          2    1    3    3  502    0 -0.82327385201E+01 -0.24208725589E+01 -0.28401072163E+00  0.85859926378E+01  0.00000000000E+00 0. -1.
         -1    1    3    3    0  502  0.19320606394E+03 -0.32582096883E+02  0.23840467532E+01  0.19594861536E+03  0.00000000000E+00 0.  1.
         13    1    5    5    0    0  0.80706582478E+02  0.12443569624E+03  0.34436903970E+03  0.37495043733E+03  0.00000000000E+00 0. -1.
        -13    1    5    5    0    0  0.77645717710E+02  0.10141048165E+03  0.58121788128E+03  0.59508584993E+03  0.00000000000E+00 0.  1.
          3    1    6    6  503    0 -0.79613351703E+02 -0.89377936510E+02  0.31800048461E+02  0.12384645488E+03  0.00000000000E+00 0. -1.
         -3    1    6    6    0  503 -0.26371227391E+03 -0.10146527194E+03  0.40498251582E+02  0.28544609509E+03  0.00000000000E+00 0.  1.
<mgrwt>
<rscale>  0 0.12282723E+04</rscale>
<asrwt>0</asrwt>
<pdfrwt beam="1">  1        2 0.19875759E+00 0.12282723E+04</pdfrwt>
<pdfrwt beam="2">  1       -1 0.44913708E-01 0.12282723E+04</pdfrwt>
<totfact> 0.92173173E+01</totfact>
</mgrwt>
</event>
<event>
12    7  0.1605494E-007  0.4386501E+04  0.7818608E-02  0.7930814E-01
         -1   -1    0    0    0  501 -0.00000000000E+00  0.00000000000E+00  0.13448681663E+04  0.13448681663E+04  0.00000000000E+00 0.  1.
          2   -1    0    0  501    0  0.00000000000E+00 -0.00000000000E+00 -0.35768169969E+04  0.35768169969E+04  0.00000000000E+00 0. -1.
         24    2    1    2    0    0  0.15901224135E+04  0.13762892016E+04 -0.11128178653E+04  0.23807214436E+04  0.82521113398E+02 0.  0.
        254    2    1    2    0    0 -0.15901224135E+04 -0.13762892016E+04 -0.11191309652E+04  0.25409637196E+04  0.88395772012E+03 0.  0.
         23    2    4    4    0    0 -0.14074548633E+04 -0.10830715804E+04 -0.12351027945E+04  0.21651188236E+04  0.91034974768E+02 0.  0.
         23    2    4    4    0    0 -0.18266755018E+03 -0.29321762115E+03  0.11597182927E+03  0.37584489608E+03  0.92010398735E+02 0.  0.
          4    1    3    3  502    0  0.15572434608E+03  0.15460557918E+03 -0.13948590280E+03  0.26001783430E+03  0.00000000000E+00 0. -1.
         -3    1    3    3    0  502  0.14343980674E+04  0.12216836224E+04 -0.97333196252E+03  0.21207036093E+04  0.00000000000E+00 0.  1.
         13    1    5    5    0    0 -0.94967546197E+03 -0.68960827502E+03 -0.84967777963E+03  0.14489290477E+04  0.00000000000E+00 0.  1.
        -13    1    5    5    0    0 -0.45777940134E+03 -0.39346330540E+03 -0.38542501486E+03  0.71618977587E+03  0.00000000000E+00 0. -1.
          3    1    6    6  503    0 -0.24307902480E+02 -0.21921345006E+02 -0.14365297252E+02  0.35746066287E+02  0.00000000000E+00 0. -1.
         -3    1    6    6    0  503 -0.15835964770E+03 -0.27129627615E+03  0.13033712652E+03  0.34009882979E+03  0.00000000000E+00 0.  1.
<mgrwt>
<rscale>  0 0.43865008E+04</rscale>
<asrwt>0</asrwt>
<pdfrwt beam="1">  1        2 0.55027953E+00 0.43865008E+04</pdfrwt>
<pdfrwt beam="2">  1       -1 0.20690280E+00 0.43865008E+04</pdfrwt>
<totfact> 0.83831965E-02</totfact>
</mgrwt>
</event>
<event>
12    7  0.1605494E-007  0.1232577E+04  0.7818608E-02  0.9084810E-01
         -1   -1    0    0    0  501 -0.00000000000E+00  0.00000000000E+00  0.80431056605E+03  0.80431056605E+03  0.00000000000E+00 0.  1.
          2   -1    0    0  501    0  0.00000000000E+00 -0.00000000000E+00 -0.47221982779E+03  0.47221982779E+03  0.00000000000E+00 0. -1.
         24    2    1    2    0    0 -0.16826466271E+03  0.40758834450E+02  0.30040817660E+03  0.35588585344E+03  0.80220875132E+02 0.  0.
        254    2    1    2    0    0  0.16826466271E+03 -0.40758834450E+02  0.31682561661E+02  0.92064454039E+03  0.90366382341E+03 0.  0.
         23    2    4    4    0    0  0.53271954467E+03 -0.65945376099E+02  0.14178497823E+02  0.54472767333E+03  0.91587675943E+02 0.  0.
         23    2    4    4    0    0 -0.36445488196E+03  0.25186541649E+02  0.17504063838E+02  0.37591686707E+03  0.86864122797E+02 0.  0.
          4    1    3    3  502    0 -0.55619472758E+02  0.51106493601E+02  0.14712562211E+03  0.16538242990E+03  0.00000000000E+00 0. -1.
         -3    1    3    3    0  502 -0.11264518995E+03 -0.10347659151E+02  0.15328255449E+03  0.19050342354E+03  0.00000000000E+00 0.  1.
         13    1    5    5    0    0  0.41928678761E+03 -0.13329109743E+02  0.10204093174E+02  0.41962268641E+03  0.00000000000E+00 0. -1.
        -13    1    5    5    0    0  0.11343275706E+03 -0.52616266356E+02  0.39744046493E+01  0.12510498692E+03  0.00000000000E+00 0.  1.
          4    1    6    6  503    0 -0.26638754551E+03 -0.20463953787E+02  0.74126616672E+01  0.26727522399E+03  0.00000000000E+00 0. -1.
         -4    1    6    6    0  503 -0.98067336449E+02  0.45650495435E+02  0.10091402171E+02  0.10864164307E+03  0.00000000000E+00 0.  1.
<mgrwt>
<rscale>  0 0.12325768E+04</rscale>
<asrwt>0</asrwt>
<pdfrwt beam="1">  1        2 0.72649204E-01 0.12325768E+04</pdfrwt>
<pdfrwt beam="2">  1       -1 0.12374009E+00 0.12325768E+04</pdfrwt>
<totfact> 0.42545524E+01</totfact>
</mgrwt>
</event>
<event>
12    7  0.1605494E-007  0.1278194E+04  0.7818608E-02  0.9047038E-01
         -1   -1    0    0    0  501 -0.00000000000E+00  0.00000000000E+00  0.41916291985E+03  0.41916291985E+03  0.00000000000E+00 0.  1.
          2   -1    0    0  501    0  0.00000000000E+00 -0.00000000000E+00 -0.97443056845E+03  0.97443056845E+03  0.00000000000E+00 0. -1.
         24    2    1    2    0    0 -0.81293163746E+02  0.26834924077E+03  0.17293659792E+02  0.29203904649E+03  0.79798750080E+02 0.  0.
        254    2    1    2    0    0  0.81293163746E+02 -0.26834924077E+03 -0.57256130839E+03  0.11015544418E+04  0.89831834163E+03 0.  0.
         23    2    4    4    0    0 -0.40012491404E+01  0.24242347280E+03 -0.51000687088E+03  0.57219131988E+03  0.92253715609E+02 0.  0.
         23    2    4    4    0    0  0.85294412886E+02 -0.51077271357E+03 -0.62554437515E+02  0.52936312193E+03  0.90268241392E+02 0.  0.
          2    1    3    3  502    0  0.13661661017E+02  0.32455339357E+02 -0.91415489230E+01  0.36380735990E+02  0.00000000000E+00 0. -1.
         -1    1    3    3    0  502 -0.94954824762E+02  0.23589390141E+03  0.26435208715E+02  0.25565831050E+03  0.00000000000E+00 0.  1.
         13    1    5    5    0    0 -0.37291635789E+00  0.14459484051E+03 -0.19793314116E+03  0.24512310242E+03  0.00000000000E+00 0. -1.
        -13    1    5    5    0    0 -0.36283327825E+01  0.97828632292E+02 -0.31207372972E+03  0.32706821746E+03  0.00000000000E+00 0.  1.
          4    1    6    6  503    0  0.26214530378E+02 -0.31484440462E+03 -0.19647562151E+01  0.31593996422E+03  0.00000000000E+00 0.  1.
         -4    1    6    6    0  503  0.59079882508E+02 -0.19592830895E+03 -0.60589681300E+02  0.21342315771E+03  0.00000000000E+00 0. -1.
<mgrwt>
<rscale>  0 0.12781943E+04</rscale>
<asrwt>0</asrwt>
<pdfrwt beam="1">  1        2 0.14991239E+00 0.12781943E+04</pdfrwt>
<pdfrwt beam="2">  1       -1 0.64486604E-01 0.12781943E+04</pdfrwt>
<totfact> 0.71466888E+01</totfact>
</mgrwt>
</event>
<event>
12    7  0.1605494E-007  0.1830748E+04  0.7818608E-02  0.8690117E-01
          2   -1    0    0  501    0  0.00000000000E+00  0.00000000000E+00  0.17856530606E+04  0.17856530606E+04  0.00000000000E+00 0. -1.
         -1   -1    0    0    0  501 -0.00000000000E+00 -0.00000000000E+00 -0.46924539587E+03  0.46924539587E+03  0.00000000000E+00 0.  1.
         24    2    1    2    0    0  0.53104699115E+03 -0.40383062929E+03  0.82468303058E+03  0.10636834849E+04  0.78932700228E+02 0.  0.
        254    2    1    2    0    0 -0.53104699115E+03  0.40383062929E+03  0.49172463415E+03  0.11912149716E+04  0.85563421431E+03 0.  0.
         23    2    4    4    0    0  0.13779955016E+03  0.36358347522E+03  0.25973582685E+03  0.47605389076E+03  0.89347342882E+02 0.  0.
         23    2    4    4    0    0 -0.66884654130E+03  0.40247154063E+02  0.23198880730E+03  0.71516108081E+03  0.93064684857E+02 0.  0.
          2    1    3    3  502    0  0.24245566316E+03 -0.18309388534E+03  0.43829034591E+03  0.53329780307E+03  0.00000000000E+00 0. -1.
         -1    1    3    3    0  502  0.28859132798E+03 -0.22073674395E+03  0.38639268467E+03  0.53038568182E+03  0.00000000000E+00 0.  1.
         13    1    5    5    0    0  0.13081648593E+03  0.32769335527E+03  0.19880071813E+03  0.40499088090E+03  0.00000000000E+00 0. -1.
        -13    1    5    5    0    0  0.69830642224E+01  0.35890119950E+02  0.60935108718E+02  0.71063009860E+02  0.00000000000E+00 0.  1.
          3    1    6    6  503    0 -0.40706987898E+03 -0.18910679478E+02  0.12507388003E+03  0.42627101196E+03  0.00000000000E+00 0. -1.
         -3    1    6    6    0  503 -0.26177666232E+03  0.59157833541E+02  0.10691492727E+03  0.28889006885E+03  0.00000000000E+00 0.  1.
<mgrwt>
<rscale>  0 0.18307479E+04</rscale>
<asrwt>0</asrwt>
<pdfrwt beam="1">  1        2 0.27471585E+00 0.18307479E+04</pdfrwt>
<pdfrwt beam="2">  1       -1 0.72191600E-01 0.18307479E+04</pdfrwt>
<totfact> 0.18248682E+01</totfact>
</mgrwt>
</event>
<event>
12    7  0.2929437E-007  0.2124812E+04  0.7818608E-02  0.8550392E-01
          2   -1    0    0  501    0  0.00000000000E+00  0.00000000000E+00  0.19465008745E+04  0.19465008745E+04  0.00000000000E+00 0. -1.
         -1   -1    0    0    0  501 -0.00000000000E+00 -0.00000000000E+00 -0.57986425416E+03  0.57986425416E+03  0.00000000000E+00 0.  1.
         24    2    1    2    0    0  0.57323357416E+03 -0.71857662896E+02  0.13313772322E+04  0.14535648767E+04  0.80779094113E+02 0.  0.
        254    2    1    2    0    0 -0.57323357416E+03  0.71857662896E+02  0.35259388144E+02  0.10728002520E+04  0.90327011572E+03 0.  0.
         23    2    4    4    0    0 -0.74843220093E+03  0.97908853967E+01  0.22966395308E+03  0.78855972137E+03  0.93990861190E+02 0.  0.
         23    2    4    4    0    0  0.17519862678E+03  0.62066777499E+02 -0.19440456494E+03  0.28424053062E+03  0.91938570186E+02 0.  0.
          4    1    3    3  502    0  0.43235893624E+03 -0.41119722492E+02  0.91295503221E+03  0.10109955352E+04  0.00000000000E+00 0. -1.
         -3    1    3    3    0  502  0.14087463792E+03 -0.30737940403E+02  0.41842220004E+03  0.44256934154E+03  0.00000000000E+00 0.  1.
         13    1    5    5    0    0 -0.66892495926E+03 -0.85866228279E+01  0.22856572981E+03  0.70694881289E+03  0.00000000000E+00 0. -1.
        -13    1    5    5    0    0 -0.79507241675E+02  0.18377508225E+02  0.10982232715E+01  0.81610908472E+02  0.00000000000E+00 0.  1.
          2    1    6    6  503    0  0.16745052665E+03  0.81392285822E+02 -0.16954084391E+03  0.25181040650E+03  0.00000000000E+00 0. -1.
         -2    1    6    6    0  503  0.77481001235E+01 -0.19325508323E+02 -0.24863721025E+02  0.32430124124E+02  0.00000000000E+00 0.  1.
<mgrwt>
<rscale>  0 0.21248118E+04</rscale>
<asrwt>0</asrwt>
<pdfrwt beam="1">  1        2 0.29946167E+00 0.21248118E+04</pdfrwt>
<pdfrwt beam="2">  1       -1 0.89209886E-01 0.21248118E+04</pdfrwt>
<totfact> 0.92262739E+00</totfact>
</mgrwt>
</event>
<event>
12    7  0.1605494E-007  0.1351451E+04  0.7818608E-02  0.8989730E-01
         -1   -1    0    0    0  501 -0.00000000000E+00  0.00000000000E+00  0.26981803823E+03  0.26981803823E+03  0.00000000000E+00 0.  1.
          2   -1    0    0  501    0  0.00000000000E+00 -0.00000000000E+00 -0.16922709482E+04  0.16922709482E+04  0.00000000000E+00 0. -1.
         24    2    1    2    0    0  0.13942607302E+03  0.31317438679E+03 -0.20741949050E+03  0.41062161018E+03  0.89830035786E+02 0.  0.
        254    2    1    2    0    0 -0.13942607302E+03 -0.31317438679E+03 -0.12150334195E+04  0.15514673762E+04  0.90179098617E+03 0.  0.
         23    2    4    4    0    0 -0.29624887336E+03 -0.29214550292E+03 -0.12278343575E+03  0.44405689374E+03  0.94859701343E+02 0.  0.
         23    2    4    4    0    0  0.15682280034E+03 -0.21028883872E+02 -0.10922499837E+04  0.11074104825E+04  0.91172063589E+02 0.  0.
          4    1    3    3  502    0  0.61330607917E+02  0.23857473511E+03 -0.14739647426E+03  0.28706282992E+03  0.00000000000E+00 0. -1.
         -3    1    3    3    0  502  0.78095465099E+02  0.74599651686E+02 -0.60023016246E+02  0.12355878026E+03  0.00000000000E+00 0.  1.
         13    1    5    5    0    0 -0.17892011225E+03 -0.21819143792E+03 -0.11634966645E+03  0.30521657070E+03  0.00000000000E+00 0. -1.
        -13    1    5    5    0    0 -0.11732876111E+03 -0.73954064999E+02 -0.64337693075E+01  0.13884032303E+03  0.00000000000E+00 0.  1.
          1    1    6    6  503    0  0.48802144503E+02  0.10583266116E+02 -0.61688643400E+03  0.61890429574E+03  0.00000000000E+00 0. -1.
         -1    1    6    6    0  503  0.10802065584E+03 -0.31612149988E+02 -0.47536354970E+03  0.48850618676E+03  0.00000000000E+00 0.  1.
<mgrwt>
<rscale>  0 0.13514514E+04</rscale>
<asrwt>0</asrwt>
<pdfrwt beam="1">  1        2 0.26034938E+00 0.13514514E+04</pdfrwt>
<pdfrwt beam="2">  1       -1 0.41510467E-01 0.13514514E+04</pdfrwt>
<totfact> 0.62698994E+01</totfact>
</mgrwt>
</event>
<event>
12    7  0.1605494E-007  0.2363472E+04  0.7818608E-02  0.8453307E-01
         -1   -1    0    0    0  501 -0.00000000000E+00  0.00000000000E+00  0.52619940018E+03  0.52619940018E+03  0.00000000000E+00 0.  1.
          2   -1    0    0  501    0  0.00000000000E+00 -0.00000000000E+00 -0.26539372627E+04  0.26539372627E+04  0.00000000000E+00 0. -1.
         24    2    1    2    0    0 -0.20018833258E+03  0.61581177885E+02 -0.22441985638E+04  0.22553517590E+04  0.79478003336E+02 0.  0.
        254    2    1    2    0    0  0.20018833258E+03 -0.61581177885E+02  0.11646070126E+03  0.92478490392E+03  0.89319449932E+03 0.  0.
         23    2    4    4    0    0 -0.15662318941E+03  0.33225000628E+03  0.51172346863E+02  0.38163079808E+03  0.90014259023E+02 0.  0.
         23    2    4    4    0    0  0.35681152199E+03 -0.39383118416E+03  0.65288354399E+02  0.54315410584E+03  0.91303612369E+02 0.  0.
          4    1    3    3  502    0 -0.15643526375E+03  0.15995825537E+02 -0.14034320051E+04  0.14122143078E+04  0.00000000000E+00 0. -1.
         -3    1    3    3    0  502 -0.43753068829E+02  0.45585352349E+02 -0.84076655872E+03  0.84313745121E+03  0.00000000000E+00 0.  1.
         13    1    5    5    0    0 -0.71077561806E+00  0.90065052331E+02  0.87507647841E+01  0.90491959520E+02  0.00000000000E+00 0.  1.
        -13    1    5    5    0    0 -0.15591241379E+03  0.24218495395E+03  0.42421582078E+02  0.29113883856E+03  0.00000000000E+00 0. -1.
          1    1    6    6  503    0  0.30032531107E+03 -0.31524630599E+03  0.18851914873E+02  0.43581064765E+03  0.00000000000E+00 0. -1.
         -1    1    6    6    0  503  0.56486210918E+02 -0.78584878172E+02  0.46436439526E+02  0.10734345819E+03  0.00000000000E+00 0.  1.
<mgrwt>
<rscale>  0 0.23634722E+04</rscale>
<asrwt>0</asrwt>
<pdfrwt beam="1">  1        2 0.40829804E+00 0.23634722E+04</pdfrwt>
<pdfrwt beam="2">  1       -1 0.80953754E-01 0.23634722E+04</pdfrwt>
<totfact> 0.44135578E+00</totfact>
</mgrwt>
</event>
<event>
12    7  0.1631765E-007  0.3244851E+04  0.7818608E-02  0.8177071E-01
         -1   -1    0    0    0  501 -0.00000000000E+00  0.00000000000E+00  0.13541403083E+04  0.13541403083E+04  0.00000000000E+00 0.  1.
          2   -1    0    0  501    0  0.00000000000E+00 -0.00000000000E+00 -0.19438645052E+04  0.19438645052E+04  0.00000000000E+00 0. -1.
         24    2    1    2    0    0 -0.40367962049E+03 -0.91801634109E+03 -0.13962967457E+04  0.17208987933E+04  0.78337833859E+02 0.  0.
        254    2    1    2    0    0  0.40367962049E+03  0.91801634109E+03  0.80657254882E+03  0.15771060202E+04  0.91158811087E+03 0.  0.
         23    2    4    4    0    0  0.41456330323E+03  0.69362148477E+03  0.98395389516E+03  0.12765528843E+04  0.91915733105E+02 0.  0.
         23    2    4    4    0    0 -0.10883682740E+02  0.22439485632E+03 -0.17738134634E+03  0.30055313592E+03  0.91632632777E+02 0.  0.
          4    1    3    3  502    0 -0.35606777083E+03 -0.79028534821E+03 -0.12477921979E+04  0.15193158191E+04  0.00000000000E+00 0. -1.
         -3    1    3    3    0  502 -0.47611849660E+02 -0.12773099288E+03 -0.14850454780E+03  0.20158297420E+03  0.00000000000E+00 0.  1.
         13    1    5    5    0    0  0.78173386508E+02  0.76888988234E+02  0.15677004078E+03  0.19131084798E+03  0.00000000000E+00 0.  1.
        -13    1    5    5    0    0  0.33638991672E+03  0.61673249653E+03  0.82718385438E+03  0.10852420363E+04  0.00000000000E+00 0. -1.
          2    1    6    6  503    0  0.20078429947E+02  0.12642575864E+03 -0.51294631144E+02  0.13790487657E+03  0.00000000000E+00 0.  1.
         -2    1    6    6    0  503 -0.30962112686E+02  0.97969097686E+02 -0.12608671520E+03  0.16264825936E+03  0.00000000000E+00 0. -1.
<mgrwt>
<rscale>  0 0.32448515E+04</rscale>
<asrwt>0</asrwt>
<pdfrwt beam="1">  1        2 0.29905608E+00 0.32448515E+04</pdfrwt>
<pdfrwt beam="2">  1       -1 0.20832928E+00 0.32448515E+04</pdfrwt>
<totfact> 0.90421210E-01</totfact>
</mgrwt>
</event>
<event>
12    7  0.1605494E-007  0.2400524E+04  0.7818608E-02  0.8439307E-01
         -1   -1    0    0    0  501 -0.00000000000E+00  0.00000000000E+00  0.68324184740E+03  0.68324184740E+03  0.00000000000E+00 0.  1.
          2   -1    0    0  501    0  0.00000000000E+00 -0.00000000000E+00 -0.21085203533E+04  0.21085203533E+04  0.00000000000E+00 0. -1.
         24    2    1    2    0    0  0.68155784020E+03  0.72821771709E+03 -0.95084805732E+03  0.13803129073E+04  0.79558537287E+02 0.  0.
        254    2    1    2    0    0 -0.68155784020E+03 -0.72821771709E+03 -0.47443044857E+03  0.14114492934E+04  0.87879617904E+03 0.  0.
         23    2    4    4    0    0 -0.74016917862E+03 -0.83840110939E+03 -0.53742807922E+03  0.12441008941E+04  0.90505585873E+02 0.  0.
         23    2    4    4    0    0  0.58611338416E+02  0.11018339230E+03  0.62997630654E+02  0.16734839934E+03  0.91984326733E+02 0.  0.
          2    1    3    3  502    0  0.60073512052E+03  0.62498053662E+03 -0.79053902956E+03  0.11732158000E+04  0.00000000000E+00 0. -1.
         -1    1    3    3    0  502  0.80822719684E+02  0.10323718047E+03 -0.16030902776E+03  0.20709710725E+03  0.00000000000E+00 0.  1.
         13    1    5    5    0    0 -0.36197100588E+03 -0.47526921786E+03 -0.30083033032E+03  0.66888169819E+03  0.00000000000E+00 0. -1.
        -13    1    5    5    0    0 -0.37819817274E+03 -0.36313189153E+03 -0.23659774890E+03  0.57521919587E+03  0.00000000000E+00 0.  1.
          2    1    6    6  503    0  0.43523097828E+02  0.10341925650E+03  0.84327523634E+02  0.14036001533E+03  0.00000000000E+00 0.  1.
         -2    1    6    6    0  503  0.15088240588E+02  0.67641357932E+01 -0.21329892980E+02  0.26988384013E+02  0.00000000000E+00 0. -1.
<mgrwt>
<rscale>  0 0.24005244E+04</rscale>
<asrwt>0</asrwt>
<pdfrwt beam="1">  1        2 0.32438775E+00 0.24005244E+04</pdfrwt>
<pdfrwt beam="2">  1       -1 0.10511413E+00 0.24005244E+04</pdfrwt>
<totfact> 0.50490460E+00</totfact>
</mgrwt>
</event>
<event>
12    7  0.1605494E-007  0.2370527E+04  0.7818608E-02  0.8450621E-01
          2   -1    0    0  501    0  0.00000000000E+00  0.00000000000E+00  0.20715320362E+04  0.20715320362E+04  0.00000000000E+00 0. -1.
         -1   -1    0    0    0  501 -0.00000000000E+00 -0.00000000000E+00 -0.67816933389E+03  0.67816933389E+03  0.00000000000E+00 0.  1.
         24    2    1    2    0    0 -0.23119895142E+03 -0.58061224181E+03  0.15295646347E+04  0.16543057249E+04  0.81215326275E+02 0.  0.
        254    2    1    2    0    0  0.23119895142E+03  0.58061224181E+03 -0.13620193239E+03  0.10953956452E+04  0.88925649993E+03 0.  0.
         23    2    4    4    0    0  0.10441324383E+03 -0.19983207185E+02 -0.39772077029E+03  0.42158877739E+03  0.90850602919E+02 0.  0.
         23    2    4    4    0    0  0.12678570760E+03  0.60059544899E+03  0.26151883790E+03  0.67380686781E+03  0.93989805497E+02 0.  0.
          4    1    3    3  502    0 -0.15162510895E+03 -0.32312010777E+03  0.78074798276E+03  0.85846618471E+03  0.00000000000E+00 0. -1.
         -3    1    3    3    0  502 -0.79573842472E+02 -0.25749213403E+03  0.74881665195E+03  0.79583954019E+03  0.00000000000E+00 0.  1.
         13    1    5    5    0    0  0.27436891614E+02  0.35340688041E+02 -0.14081396349E+03  0.14775086993E+03  0.00000000000E+00 0. -1.
        -13    1    5    5    0    0  0.76976352214E+02 -0.55323895225E+02 -0.25690680680E+03  0.27383790746E+03  0.00000000000E+00 0.  1.
          4    1    6    6  503    0  0.45568343404E+02  0.11738008232E+03  0.89554624392E+02  0.15451403948E+03  0.00000000000E+00 0. -1.
         -4    1    6    6    0  503  0.81217364192E+02  0.48321536667E+03  0.17196421351E+03  0.51929282833E+03  0.00000000000E+00 0.  1.
<mgrwt>
<rscale>  0 0.23705269E+04</rscale>
<asrwt>0</asrwt>
<pdfrwt beam="1">  1        2 0.31869723E+00 0.23705269E+04</pdfrwt>
<pdfrwt beam="2">  1       -1 0.10433374E+00 0.23705269E+04</pdfrwt>
<totfact> 0.54017055E+00</totfact>
</mgrwt>
</event>
<event>
12    7  0.1605494E-007  0.1449283E+04  0.7818608E-02  0.8918898E-01
          2   -1    0    0  501    0  0.00000000000E+00  0.00000000000E+00  0.15159467133E+04  0.15159467133E+04  0.00000000000E+00 0. -1.
         -1   -1    0    0    0  501 -0.00000000000E+00 -0.00000000000E+00 -0.34638756108E+03  0.34638756108E+03  0.00000000000E+00 0.  1.
         24    2    1    2    0    0 -0.23945004182E+02 -0.20888253942E+03  0.88184404925E+03  0.91046458638E+03  0.84211384930E+02 0.  0.
        254    2    1    2    0    0  0.23945004182E+02  0.20888253942E+03  0.28771510294E+03  0.95186968796E+03  0.88264978553E+03 0.  0.
         23    2    4    4    0    0 -0.32378395989E+03  0.33705485183E+03  0.45381134107E+01  0.47677096115E+03  0.94063431251E+02 0.  0.
         23    2    4    4    0    0  0.34772896407E+03 -0.12817231241E+03  0.28317698953E+03  0.47509872681E+03  0.90476619626E+02 0.  0.
          2    1    3    3  502    0 -0.36418680488E+02 -0.21038320179E+03  0.81874557756E+03  0.84612749196E+03  0.00000000000E+00 0. -1.
         -1    1    3    3    0  502  0.12473676306E+02  0.15006623665E+01  0.63098471692E+02  0.64337094417E+02  0.00000000000E+00 0.  1.
         13    1    5    5    0    0 -0.29777592556E+03  0.33738403278E+03  0.10358699789E+02  0.45011752919E+03  0.00000000000E+00 0. -1.
        -13    1    5    5    0    0 -0.26008034324E+02 -0.32918095131E+00 -0.58205863780E+01  0.26653431961E+02  0.00000000000E+00 0.  1.
          3    1    6    6  503    0  0.16560802527E+03 -0.10171749523E+03  0.17559710155E+03  0.26192901508E+03  0.00000000000E+00 0. -1.
         -3    1    6    6    0  503  0.18212093880E+03 -0.26454817182E+02  0.10757988798E+03  0.21316971174E+03  0.00000000000E+00 0.  1.
<mgrwt>
<rscale>  0 0.14492827E+04</rscale>
<asrwt>0</asrwt>
<pdfrwt beam="1">  1        2 0.23322257E+00 0.14492827E+04</pdfrwt>
<pdfrwt beam="2">  1       -1 0.53290395E-01 0.14492827E+04</pdfrwt>
<totfact> 0.48797695E+01</totfact>
</mgrwt>
</event>
<event>
12    7  0.1605494E-007  0.1665542E+04  0.7818608E-02  0.8781265E-01
         -1   -1    0    0    0  501 -0.00000000000E+00  0.00000000000E+00  0.18013304481E+03  0.18013304481E+03  0.00000000000E+00 0.  1.
          2   -1    0    0  501    0  0.00000000000E+00 -0.00000000000E+00 -0.38499719407E+04  0.38499719407E+04  0.00000000000E+00 0. -1.
         24    2    1    2    0    0  0.12348981147E+03 -0.19442906300E+03 -0.25606641842E+04  0.25721144475E+04  0.75625871282E+02 0.  0.
        254    2    1    2    0    0 -0.12348981147E+03  0.19442906300E+03 -0.11091747116E+04  0.14579905380E+04  0.91783194211E+03 0.  0.
         23    2    4    4    0    0  0.24468365393E+02 -0.18192066704E+03 -0.10114002891E+04  0.10319378914E+04  0.90947440663E+02 0.  0.
         23    2    4    4    0    0 -0.14795817686E+03  0.37634973004E+03 -0.97774422559E+02  0.42605264662E+03  0.91816548533E+02 0.  0.
          4    1    3    3  502    0  0.11490941180E+03 -0.12205559709E+03 -0.19252151439E+04  0.19324997004E+04  0.00000000000E+00 0. -1.
         -3    1    3    3    0  502  0.85803996681E+01 -0.72373465912E+02 -0.63544904028E+03  0.63961474703E+03  0.00000000000E+00 0.  1.
         13    1    5    5    0    0  0.25785122573E+02 -0.19248648145E+03 -0.95948529441E+03  0.97894225993E+03  0.00000000000E+00 0. -1.
        -13    1    5    5    0    0 -0.13167571798E+01  0.10565814414E+02 -0.51914994674E+02  0.52995631478E+02  0.00000000000E+00 0.  1.
          4    1    6    6  503    0 -0.12099067733E+03  0.28881430430E+03 -0.35160059730E+02  0.31510105708E+03  0.00000000000E+00 0. -1.
         -4    1    6    6    0  503 -0.26967499532E+02  0.87535425742E+02 -0.62614362829E+02  0.11095158955E+03  0.00000000000E+00 0.  1.
<mgrwt>
<rscale>  0 0.16655416E+04</rscale>
<asrwt>0</asrwt>
<pdfrwt beam="1">  1        2 0.59230336E+00 0.16655416E+04</pdfrwt>
<pdfrwt beam="2">  1       -1 0.27712777E-01 0.16655416E+04</pdfrwt>
<totfact> 0.58163015E+00</totfact>
</mgrwt>
</event>
<event>
12    7  0.1605494E-007  0.2091419E+04  0.7818608E-02  0.8565033E-01
         -1   -1    0    0    0  501 -0.00000000000E+00  0.00000000000E+00  0.49995483254E+03  0.49995483254E+03  0.00000000000E+00 0.  1.
          2   -1    0    0  501    0  0.00000000000E+00 -0.00000000000E+00 -0.21872135510E+04  0.21872135510E+04  0.00000000000E+00 0. -1.
         24    2    1    2    0    0 -0.26002929829E+03  0.68767539079E+02 -0.17748046114E+04  0.17967538323E+04  0.77773484873E+02 0.  0.
        254    2    1    2    0    0  0.26002929829E+03 -0.68767539079E+02  0.87545892950E+02  0.89041455121E+03  0.84429235412E+03 0.  0.
         23    2    4    4    0    0  0.69242775683E+02  0.18542710949E+03 -0.30670150010E+03  0.37581855827E+03  0.89420376061E+02 0.  0.
         23    2    4    4    0    0  0.19078652260E+03 -0.25419464857E+03  0.39424739305E+03  0.51459599294E+03  0.91452788089E+02 0.  0.
          4    1    3    3  502    0 -0.15678014679E+03  0.41641483795E+02 -0.13008699193E+04  0.13109449167E+04  0.00000000000E+00 0. -1.
         -3    1    3    3    0  502 -0.10324915150E+03  0.27126055284E+02 -0.47393469206E+03  0.48580891562E+03  0.00000000000E+00 0.  1.
         13    1    5    5    0    0  0.66233056564E+02  0.12828453410E+03 -0.27451708893E+03  0.31016668355E+03  0.00000000000E+00 0.  1.
        -13    1    5    5    0    0  0.30097191192E+01  0.57142575390E+02 -0.32184411178E+02  0.65651874720E+02  0.00000000000E+00 0. -1.
          4    1    6    6  503    0  0.98703251667E+02 -0.10502315170E+03  0.11280610956E+03  0.18302298390E+03  0.00000000000E+00 0. -1.
         -4    1    6    6    0  503  0.92083270937E+02 -0.14917149686E+03  0.28144128350E+03  0.33157300904E+03  0.00000000000E+00 0.  1.
<mgrwt>
<rscale>  0 0.20914186E+04</rscale>
<asrwt>0</asrwt>
<pdfrwt beam="1">  1        2 0.33649439E+00 0.20914186E+04</pdfrwt>
<pdfrwt beam="2">  1       -1 0.76916128E-01 0.20914186E+04</pdfrwt>
<totfact> 0.93441023E+00</totfact>
</mgrwt>
</event>
<event>
12    7  0.1605494E-007  0.3268405E+04  0.7818608E-02  0.8170982E-01
          2   -1    0    0  501    0  0.00000000000E+00  0.00000000000E+00  0.10019083494E+04  0.10019083494E+04  0.00000000000E+00 0. -1.
         -1   -1    0    0    0  501 -0.00000000000E+00 -0.00000000000E+00 -0.26655312344E+04  0.26655312344E+04  0.00000000000E+00 0.  1.
         24    2    1    2    0    0  0.10872662249E+04  0.32705356049E+03 -0.18854781415E+04  0.22024028536E+04  0.80241089229E+02 0.  0.
        254    2    1    2    0    0 -0.10872662249E+04 -0.32705356049E+03  0.22185525640E+03  0.14650367302E+04  0.89888875330E+03 0.  0.
         23    2    4    4    0    0 -0.90614293481E+03 -0.60721578728E+02  0.49034272997E+03  0.10361971145E+04  0.92121326408E+02 0.  0.
         23    2    4    4    0    0 -0.18112329010E+03 -0.26633198176E+03 -0.26848747357E+03  0.42883961573E+03  0.89886160424E+02 0.  0.
          4    1    3    3  502    0  0.62910629509E+03  0.20732877584E+03 -0.10300118872E+04  0.12246160376E+04  0.00000000000E+00 0. -1.
         -3    1    3    3    0  502  0.45815992981E+03  0.11972478465E+03 -0.85546625423E+03  0.97778681597E+03  0.00000000000E+00 0.  1.
         13    1    5    5    0    0 -0.61287855229E+03  0.19911372107E+01  0.33475397305E+03  0.69834397467E+03  0.00000000000E+00 0. -1.
        -13    1    5    5    0    0 -0.29326438252E+03 -0.62712715939E+02  0.15558875691E+03  0.33785313980E+03  0.00000000000E+00 0.  1.
          2    1    6    6  503    0 -0.96109243725E+02 -0.69903907434E+02 -0.76667038214E+02  0.14142622724E+03  0.00000000000E+00 0. -1.
         -2    1    6    6    0  503 -0.85014046375E+02 -0.19642807432E+03 -0.19182043535E+03  0.28741338849E+03  0.00000000000E+00 0.  1.
<mgrwt>
<rscale>  0 0.32684051E+04</rscale>
<asrwt>0</asrwt>
<pdfrwt beam="1">  1        2 0.15413975E+00 0.32684051E+04</pdfrwt>
<pdfrwt beam="2">  1       -1 0.41008172E+00 0.32684051E+04</pdfrwt>
<totfact> 0.14609407E-01</totfact>
</mgrwt>
</event>
<event>
12    7  0.1605494E-007  0.1829364E+04  0.7818608E-02  0.8690838E-01
         -1   -1    0    0    0  501 -0.00000000000E+00  0.00000000000E+00  0.73687896263E+03  0.73687896263E+03  0.00000000000E+00 0.  1.
          2   -1    0    0  501    0  0.00000000000E+00 -0.00000000000E+00 -0.11353880326E+04  0.11353880326E+04  0.00000000000E+00 0. -1.
         24    2    1    2    0    0  0.49072420578E+03 -0.17679856138E+03 -0.59690888927E+03  0.79688429852E+03  0.81586676018E+02 0.  0.
        254    2    1    2    0    0 -0.49072420578E+03  0.17679856138E+03  0.19839981934E+03  0.10753826967E+04  0.91924832256E+03 0.  0.
         23    2    4    4    0    0 -0.58359385579E+03  0.79522404935E+02 -0.21295109322E+03  0.63298978347E+03  0.91773070518E+02 0.  0.
         23    2    4    4    0    0  0.92869650015E+02  0.97276156447E+02  0.41135091256E+03  0.44239291319E+03  0.91730550367E+02 0.  0.
          2    1    3    3  502    0  0.39236932680E+03 -0.17420812593E+03 -0.47587909550E+03  0.64090800688E+03  0.00000000000E+00 0. -1.
         -1    1    3    3    0  502  0.98354878977E+02 -0.25904354550E+01 -0.12102979377E+03  0.15597629164E+03  0.00000000000E+00 0.  1.
         13    1    5    5    0    0 -0.34922578093E+02  0.21862027658E+02 -0.32689585616E+02  0.52594141515E+02  0.00000000000E+00 0.  1.
        -13    1    5    5    0    0 -0.54867127770E+03  0.57660377277E+02 -0.18026150760E+03  0.58039564196E+03  0.00000000000E+00 0. -1.
          3    1    6    6  503    0  0.52863715051E+02  0.55675092582E+02  0.34934810273E+03  0.35768475672E+03  0.00000000000E+00 0. -1.
         -3    1    6    6    0  503  0.40005934964E+02  0.41601063865E+02  0.62002809824E+02  0.84708156474E+02  0.00000000000E+00 0.  1.
<mgrwt>
<rscale>  0 0.18293644E+04</rscale>
<asrwt>0</asrwt>
<pdfrwt beam="1">  1        2 0.17467508E+00 0.18293644E+04</pdfrwt>
<pdfrwt beam="2">  1       -1 0.11336599E+00 0.18293644E+04</pdfrwt>
<totfact> 0.15813591E+01</totfact>
</mgrwt>
</event>
<event>
12    7  0.1605494E-007  0.1582855E+04  0.7818608E-02  0.8831150E-01
          2   -1    0    0  501    0  0.00000000000E+00  0.00000000000E+00  0.21153193328E+04  0.21153193328E+04  0.00000000000E+00 0. -1.
         -1   -1    0    0    0  501 -0.00000000000E+00 -0.00000000000E+00 -0.29610547589E+03  0.29610547589E+03  0.00000000000E+00 0.  1.
         24    2    1    2    0    0 -0.36652820334E+03  0.28087109425E+03  0.22095651400E+03  0.51801631869E+03  0.79294576903E+02 0.  0.
        254    2    1    2    0    0  0.36652820334E+03 -0.28087109425E+03  0.15982573429E+04  0.18934084900E+04  0.90406729860E+03 0.  0.
         23    2    4    4    0    0  0.28230678572E+03  0.16001267707E+03  0.14203806411E+03  0.36625125070E+03  0.93080550581E+02 0.  0.
         23    2    4    4    0    0  0.84221417622E+02 -0.44088377132E+03  0.14562192788E+04  0.15271572393E+04  0.10081120271E+03 0.  0.
          2    1    3    3  502    0 -0.10496619968E+03  0.70166268085E+02  0.23580682633E+02  0.12844164763E+03  0.00000000000E+00 0. -1.
         -1    1    3    3    0  502 -0.26156200366E+03  0.21070482616E+03  0.19737583137E+03  0.38957467107E+03  0.00000000000E+00 0.  1.
         13    1    5    5    0    0  0.21629724363E+03  0.11827464272E+03  0.61526875278E+02  0.25408452352E+03  0.00000000000E+00 0. -1.
        -13    1    5    5    0    0  0.66009542086E+02  0.41738034354E+02  0.80511188832E+02  0.11216672718E+03  0.00000000000E+00 0.  1.
          1    1    6    6  503    0  0.33002377213E+02 -0.10295108466E+03  0.50370103031E+03  0.51517260280E+03  0.00000000000E+00 0. -1.
         -1    1    6    6    0  503  0.51219040410E+02 -0.33793268666E+03  0.95251824848E+03  0.10119846365E+04  0.00000000000E+00 0.  1.
<mgrwt>
<rscale>  0 0.15828552E+04</rscale>
<asrwt>0</asrwt>
<pdfrwt beam="1">  1        2 0.32543373E+00 0.15828552E+04</pdfrwt>
<pdfrwt beam="2">  1       -1 0.45554690E-01 0.15828552E+04</pdfrwt>
<totfact> 0.30172438E+01</totfact>
</mgrwt>
</event>
<event>
12    7  0.1605494E-007  0.2333316E+04  0.7818608E-02  0.8464900E-01
          2   -1    0    0  501    0  0.00000000000E+00  0.00000000000E+00  0.12168562738E+04  0.12168562738E+04  0.00000000000E+00 0. -1.
         -1   -1    0    0    0  501 -0.00000000000E+00 -0.00000000000E+00 -0.11185309237E+04  0.11185309237E+04  0.00000000000E+00 0.  1.
         24    2    1    2    0    0 -0.95806685095E+03  0.22591833564E+03 -0.97181371869E+02  0.99229000878E+03  0.79145797169E+02 0.  0.
        254    2    1    2    0    0  0.95806685095E+03 -0.22591833564E+03  0.19550672190E+03  0.13430971887E+04  0.89261189482E+03 0.  0.
         23    2    4    4    0    0  0.10954524435E+04 -0.27775670237E+03  0.25108122011E+03  0.11615478189E+04  0.94798285116E+02 0.  0.
         23    2    4    4    0    0 -0.13738559256E+03  0.51838366731E+02 -0.55574498213E+02  0.18154936979E+03  0.91157180245E+02 0.  0.
          4    1    3    3  502    0 -0.18025155027E+03  0.74397060109E+02 -0.14105092637E+02  0.19551086303E+03  0.00000000000E+00 0. -1.
         -3    1    3    3    0  502 -0.77781530069E+03  0.15152127553E+03 -0.83076279232E+02  0.79677914574E+03  0.00000000000E+00 0.  1.
         13    1    5    5    0    0  0.19556340301E+03 -0.24271116659E+02  0.17102891971E+02  0.19780455155E+03  0.00000000000E+00 0. -1.
        -13    1    5    5    0    0  0.89988904051E+03 -0.25348558571E+03  0.23397832814E+03  0.96374326739E+03  0.00000000000E+00 0.  1.
          4    1    6    6  503    0 -0.97617422195E+02  0.76205392284E+02 -0.53389121334E+02  0.13485852293E+03  0.00000000000E+00 0.  1.
         -4    1    6    6    0  503 -0.39768170365E+02 -0.24367025553E+02 -0.21853768795E+01  0.46690846861E+02  0.00000000000E+00 0. -1.
<mgrwt>
<rscale>  0 0.23333164E+04</rscale>
<asrwt>0</asrwt>
<pdfrwt beam="1">  1        2 0.18720866E+00 0.23333164E+04</pdfrwt>
<pdfrwt beam="2">  1       -1 0.17208168E+00 0.23333164E+04</pdfrwt>
<totfact> 0.45310250E+00</totfact>
</mgrwt>
</event>
<event>
12    7  0.1605494E-007  0.2347896E+04  0.7818608E-02  0.8459272E-01
         -1   -1    0    0    0  501 -0.00000000000E+00  0.00000000000E+00  0.81813467034E+03  0.81813467034E+03  0.00000000000E+00 0.  1.
          2   -1    0    0  501    0  0.00000000000E+00 -0.00000000000E+00 -0.16845075091E+04  0.16845075091E+04  0.00000000000E+00 0. -1.
         24    2    1    2    0    0  0.88587346371E+03 -0.28016225632E+03  0.49337019842E+01  0.93256551733E+03  0.79946351577E+02 0.  0.
        254    2    1    2    0    0 -0.88587346371E+03  0.28016225632E+03 -0.87130654079E+03  0.15700766622E+04  0.91798853666E+03 0.  0.
         23    2    4    4    0    0 -0.74139092673E+03  0.35617196007E+03 -0.10331422500E+04  0.13238010132E+04  0.92451297779E+02 0.  0.
         23    2    4    4    0    0 -0.14448253698E+03 -0.76009703753E+02  0.16183570924E+03  0.24627564892E+03  0.88364132498E+02 0.  0.
          2    1    3    3  502    0  0.41437948436E+03 -0.14990394428E+03 -0.33303776320E+02  0.44191706359E+03  0.00000000000E+00 0. -1.
         -1    1    3    3    0  502  0.47149397934E+03 -0.13025831203E+03  0.38237478305E+02  0.49064845374E+03  0.00000000000E+00 0.  1.
         13    1    5    5    0    0 -0.31466143303E+03  0.18538207089E+03 -0.40342057080E+03  0.54417505142E+03  0.00000000000E+00 0. -1.
        -13    1    5    5    0    0 -0.42672949370E+03  0.17078988918E+03 -0.62972167923E+03  0.77962596181E+03  0.00000000000E+00 0.  1.
          1    1    6    6  503    0 -0.46611682596E+02  0.42646522653E+01  0.87188642546E+01  0.47611498687E+02  0.00000000000E+00 0. -1.
         -1    1    6    6    0  503 -0.97870854380E+02 -0.80274356019E+02  0.15311684498E+03  0.19866415023E+03  0.00000000000E+00 0.  1.
<mgrwt>
<rscale>  0 0.23478961E+04</rscale>
<asrwt>0</asrwt>
<pdfrwt beam="1">  1        2 0.25915500E+00 0.23478961E+04</pdfrwt>
<pdfrwt beam="2">  1       -1 0.12586687E+00 0.23478961E+04</pdfrwt>
<totfact> 0.56583976E+00</totfact>
</mgrwt>
</event>
<event>
12    7  0.1605494E-007  0.2651054E+04  0.7818608E-02  0.8351063E-01
         -1   -1    0    0    0  501 -0.00000000000E+00  0.00000000000E+00  0.53311422052E+03  0.53311422052E+03  0.00000000000E+00 0.  1.
          2   -1    0    0  501    0  0.00000000000E+00 -0.00000000000E+00 -0.32957702000E+04  0.32957702000E+04  0.00000000000E+00 0. -1.
         24    2    1    2    0    0  0.65003737413E+03  0.31504248461E+03 -0.25639403904E+04  0.26649369418E+04  0.79361346879E+02 0.  0.
        254    2    1    2    0    0 -0.65003737413E+03 -0.31504248461E+03 -0.19871558911E+03  0.11639474787E+04  0.89077802680E+03 0.  0.
         23    2    4    4    0    0 -0.65160659253E+03 -0.57151899723E+03 -0.18847417702E+03  0.89158878553E+03  0.90459557022E+02 0.  0.
         23    2    4    4    0    0  0.15692183950E+01  0.25647651262E+03 -0.10241412086E+02  0.27235869321E+03  0.91058812171E+02 0.  0.
          2    1    3    3  502    0  0.56456386019E+03  0.24444542906E+03 -0.21308859813E+04  0.22179181647E+04  0.00000000000E+00 0. -1.
         -1    1    3    3    0  502  0.85473513946E+02  0.70597055555E+02 -0.43305440906E+03  0.44701877706E+03  0.00000000000E+00 0.  1.
         13    1    5    5    0    0 -0.50819723956E+03 -0.48758787120E+03 -0.13558130847E+03  0.71720893583E+03  0.00000000000E+00 0.  1.
        -13    1    5    5    0    0 -0.14340935297E+03 -0.83931126035E+02 -0.52892868549E+02  0.17437984970E+03  0.00000000000E+00 0. -1.
          2    1    6    6  503    0  0.35039578858E+02  0.46778952762E+02  0.90042533611E+01  0.59136444657E+02  0.00000000000E+00 0. -1.
         -2    1    6    6    0  503 -0.33470360463E+02  0.20969755986E+03 -0.19245665448E+02  0.21322224855E+03  0.00000000000E+00 0.  1.
<mgrwt>
<rscale>  0 0.26510541E+04</rscale>
<asrwt>0</asrwt>
<pdfrwt beam="1">  1        2 0.50704157E+00 0.26510541E+04</pdfrwt>
<pdfrwt beam="2">  1       -1 0.82017572E-01 0.26510541E+04</pdfrwt>
<totfact> 0.16604882E+00</totfact>
</mgrwt>
</event>
<event>
12    7  0.1605494E-007  0.2342349E+04  0.7818608E-02  0.8461408E-01
          2   -1    0    0  501    0  0.00000000000E+00  0.00000000000E+00  0.18946906504E+04  0.18946906504E+04  0.00000000000E+00 0. -1.
         -1   -1    0    0    0  501 -0.00000000000E+00 -0.00000000000E+00 -0.72394372975E+03  0.72394372975E+03  0.00000000000E+00 0.  1.
         24    2    1    2    0    0  0.31148499156E+03  0.78078913288E+03 -0.94352360348E+02  0.85035824710E+03  0.86903455236E+02 0.  0.
        254    2    1    2    0    0 -0.31148499156E+03 -0.78078913288E+03  0.12650992810E+04  0.17682761330E+04  0.90535612988E+03 0.  0.
         23    2    4    4    0    0 -0.54653888611E+03 -0.66560003476E+03  0.61502146135E+03  0.10622932012E+04  0.92126473551E+02 0.  0.
         23    2    4    4    0    0  0.23505389455E+03 -0.11518909812E+03  0.65007781962E+03  0.70598293181E+03  0.85392428066E+02 0.  0.
          4    1    3    3  502    0  0.85671842067E+02  0.13540072902E+03 -0.76040391675E+00  0.16022983541E+03  0.00000000000E+00 0. -1.
         -3    1    3    3    0  502  0.22581314949E+03  0.64538840386E+03 -0.93591956431E+02  0.69012841169E+03  0.00000000000E+00 0.  1.
         13    1    5    5    0    0 -0.40895367279E+03 -0.54341939716E+03  0.51306649771E+03  0.85193014900E+03  0.00000000000E+00 0. -1.
        -13    1    5    5    0    0 -0.13758521331E+03 -0.12218063760E+03  0.10195496363E+03  0.21036305221E+03  0.00000000000E+00 0.  1.
          2    1    6    6  503    0  0.18356425532E+03 -0.12592295607E+03  0.51687060832E+03  0.56276784951E+03  0.00000000000E+00 0. -1.
         -2    1    6    6    0  503  0.51489639225E+02  0.10733857955E+02  0.13320721130E+03  0.14321508229E+03  0.00000000000E+00 0.  1.
<mgrwt>
<rscale>  0 0.23423487E+04</rscale>
<asrwt>0</asrwt>
<pdfrwt beam="1">  1        2 0.29149087E+00 0.23423487E+04</pdfrwt>
<pdfrwt beam="2">  1       -1 0.11137596E+00 0.23423487E+04</pdfrwt>
<totfact> 0.58255520E+00</totfact>
</mgrwt>
</event>
<event>
12    7  0.1605494E-007  0.3167532E+04  0.7818608E-02  0.8197445E-01
         -1   -1    0    0    0  501 -0.00000000000E+00  0.00000000000E+00  0.65898185606E+03  0.65898185606E+03  0.00000000000E+00 0.  1.
          2   -1    0    0  501    0  0.00000000000E+00 -0.00000000000E+00 -0.38063483393E+04  0.38063483393E+04  0.00000000000E+00 0. -1.
         24    2    1    2    0    0  0.31444189436E+02 -0.11982849037E+04 -0.26240393271E+04  0.28859963263E+04  0.80727680237E+02 0.  0.
        254    2    1    2    0    0 -0.31444189436E+02  0.11982849037E+04 -0.52332715614E+03  0.15793338690E+04  0.88518286808E+03 0.  0.
         23    2    4    4    0    0  0.39296890249E+03  0.74580366918E+03 -0.40954006793E+03  0.94179427623E+03  0.92767021167E+02 0.  0.
         23    2    4    4    0    0 -0.42441309192E+03  0.45248123447E+03 -0.11378708821E+03  0.63753959274E+03  0.92970375493E+02 0.  0.
          2    1    3    3  502    0  0.32933359869E+02 -0.11294473653E+04 -0.24234709702E+04  0.26739385745E+04  0.00000000000E+00 0. -1.
         -1    1    3    3    0  502 -0.14891704324E+01 -0.68837538374E+02 -0.20056835689E+03  0.21205775181E+03  0.00000000000E+00 0.  1.
         13    1    5    5    0    0  0.28927878489E+03  0.48037452673E+03 -0.23788192255E+03  0.60912208168E+03  0.00000000000E+00 0.  1.
        -13    1    5    5    0    0  0.10369011759E+03  0.26542914245E+03 -0.17165814538E+03  0.33267219455E+03  0.00000000000E+00 0. -1.
          1    1    6    6  503    0 -0.12518715183E+03  0.12683779381E+03 -0.75813826609E+02  0.19366823494E+03  0.00000000000E+00 0. -1.
         -1    1    6    6    0  503 -0.29922594010E+03  0.32564344066E+03 -0.37973261598E+02  0.44387135779E+03  0.00000000000E+00 0.  1.
<mgrwt>
<rscale>  0 0.31675318E+04</rscale>
<asrwt>0</asrwt>
<pdfrwt beam="1">  1        2 0.58559205E+00 0.31675318E+04</pdfrwt>
<pdfrwt beam="2">  1       -1 0.10138182E+00 0.31675318E+04</pdfrwt>
<totfact> 0.42945800E-01</totfact>
</mgrwt>
</event>
<event>
12    7  0.1605494E-007  0.1790825E+04  0.7818608E-02  0.8711194E-01
          2   -1    0    0  501    0  0.00000000000E+00  0.00000000000E+00  0.48452614526E+03  0.48452614526E+03  0.00000000000E+00 0. -1.
         -1   -1    0    0    0  501 -0.00000000000E+00 -0.00000000000E+00 -0.16547369815E+04  0.16547369815E+04  0.00000000000E+00 0.  1.
         24    2    1    2    0    0  0.38748224923E+03  0.25356209793E+03 -0.10071169722E+04  0.11114242985E+04  0.80889707496E+02 0.  0.
        254    2    1    2    0    0 -0.38748224923E+03 -0.25356209793E+03 -0.16309386402E+03  0.10278388282E+04  0.90300432847E+03 0.  0.
         23    2    4    4    0    0  0.14800694619E+03  0.22259191731E+03  0.17888357047E+02  0.28302503728E+03  0.91268618040E+02 0.  0.
         23    2    4    4    0    0 -0.53548919542E+03 -0.47615401523E+03 -0.18098222107E+03  0.74481379089E+03  0.92313022492E+02 0.  0.
          2    1    3    3  502    0  0.12617653923E+03  0.39729990507E+02 -0.29646620960E+03  0.32464011556E+03  0.00000000000E+00 0. -1.
         -1    1    3    3    0  502  0.26130571000E+03  0.21383210742E+03 -0.71065076258E+03  0.78678418299E+03  0.00000000000E+00 0.  1.
         13    1    5    5    0    0  0.25994800331E+01  0.16378074687E+02  0.25693378357E+02  0.30580194870E+02  0.00000000000E+00 0.  1.
        -13    1    5    5    0    0  0.14540746615E+03  0.20621384262E+03 -0.78050213096E+01  0.25244484241E+03  0.00000000000E+00 0. -1.
          1    1    6    6  503    0 -0.34369904210E+03 -0.32666690802E+03 -0.77157196505E+02  0.48040975564E+03  0.00000000000E+00 0. -1.
         -1    1    6    6    0  503 -0.19179015331E+03 -0.14948710721E+03 -0.10382502456E+03  0.26440403525E+03  0.00000000000E+00 0.  1.
<mgrwt>
<rscale>  0 0.17908248E+04</rscale>
<asrwt>0</asrwt>
<pdfrwt beam="1">  1        2 0.74542484E-01 0.17908248E+04</pdfrwt>
<pdfrwt beam="2">  1       -1 0.25457492E+00 0.17908248E+04</pdfrwt>
<totfact> 0.44893680E+00</totfact>
</mgrwt>
</event>
<event>
12    7  0.1605494E-007  0.1691331E+04  0.7818608E-02  0.8766324E-01
          2   -1    0    0  501    0  0.00000000000E+00  0.00000000000E+00  0.45090085971E+03  0.45090085971E+03  0.00000000000E+00 0. -1.
         -1   -1    0    0    0  501 -0.00000000000E+00 -0.00000000000E+00 -0.15860470567E+04  0.15860470567E+04  0.00000000000E+00 0.  1.
         24    2    1    2    0    0  0.68511665227E+02 -0.25590434780E+03  0.24427345528E+03  0.36920067004E+03  0.80366226203E+02 0.  0.
        254    2    1    2    0    0 -0.68511665227E+02  0.25590434780E+03 -0.13794196523E+04  0.16677472464E+04  0.89911145983E+03 0.  0.
         23    2    4    4    0    0 -0.46617425165E+03  0.18583588031E+03 -0.89371154335E+03  0.10289615101E+04  0.90487895148E+02 0.  0.
         23    2    4    4    0    0  0.39766258643E+03  0.70068467489E+02 -0.48570810895E+03  0.63878573632E+03  0.95340060033E+02 0.  0.
          2    1    3    3  502    0  0.20164928064E+02 -0.19377260687E+03  0.14697162390E+03  0.24403914794E+03  0.00000000000E+00 0. -1.
         -1    1    3    3    0  502  0.48346737162E+02 -0.62131740925E+02  0.97301831380E+02  0.12516152210E+03  0.00000000000E+00 0.  1.
         13    1    5    5    0    0 -0.46121070867E+03  0.17103420684E+03 -0.88015130161E+03  0.10082828628E+04  0.00000000000E+00 0.  1.
        -13    1    5    5    0    0 -0.49635429835E+01  0.14801673470E+02 -0.13560241731E+02  0.20678647255E+02  0.00000000000E+00 0. -1.
          2    1    6    6  503    0  0.15003056150E+03 -0.12322389534E+02 -0.21793348539E+03  0.26486980712E+03  0.00000000000E+00 0. -1.
         -2    1    6    6    0  503  0.24763202492E+03  0.82390857023E+02 -0.26777462356E+03  0.37391592920E+03  0.00000000000E+00 0.  1.
<mgrwt>
<rscale>  0 0.16913308E+04</rscale>
<asrwt>0</asrwt>
<pdfrwt beam="1">  1        2 0.69369363E-01 0.16913308E+04</pdfrwt>
<pdfrwt beam="2">  1       -1 0.24400724E+00 0.16913308E+04</pdfrwt>
<totfact> 0.57650920E+00</totfact>
</mgrwt>
</event>
<event>
12    7  0.1605494E-007  0.1046523E+04  0.7818608E-02  0.9258941E-01
          2   -1    0    0  501    0  0.00000000000E+00  0.00000000000E+00  0.35972105101E+03  0.35972105101E+03  0.00000000000E+00 0. -1.
         -1   -1    0    0    0  501 -0.00000000000E+00 -0.00000000000E+00 -0.76115305943E+03  0.76115305943E+03  0.00000000000E+00 0.  1.
         24    2    1    2    0    0  0.11725995788E+03  0.32268978430E+02 -0.33286907928E+01  0.14618427069E+03  0.81040583193E+02 0.  0.
        254    2    1    2    0    0 -0.11725995788E+03 -0.32268978430E+02 -0.39810331763E+03  0.97468983976E+03  0.88133015807E+03 0.  0.
         23    2    4    4    0    0 -0.12868513847E+03 -0.23492073895E+03  0.19329623284E+03  0.34220807650E+03  0.89416528379E+02 0.  0.
         23    2    4    4    0    0  0.11425180588E+02  0.20265176052E+03 -0.59139955046E+03  0.63248176325E+03  0.95296808819E+02 0.  0.
          4    1    3    3  502    0  0.40863610037E+02  0.37088084265E+02  0.29866425387E+02  0.62748418189E+02  0.00000000000E+00 0. -1.
         -3    1    3    3    0  502  0.76396347840E+02 -0.48191058356E+01 -0.33195116180E+02  0.83435852501E+02  0.00000000000E+00 0.  1.
         13    1    5    5    0    0 -0.12080470816E+02 -0.30043821268E+01  0.37387707244E+02  0.39405643505E+02  0.00000000000E+00 0. -1.
        -13    1    5    5    0    0 -0.11660466765E+03 -0.23191635682E+03  0.15590852559E+03  0.30280243300E+03  0.00000000000E+00 0.  1.
          4    1    6    6  503    0 -0.34297594652E+02  0.71069198290E+02 -0.28829322696E+03  0.29889821120E+03  0.00000000000E+00 0. -1.
         -4    1    6    6    0  503  0.45722775241E+02  0.13158256223E+03 -0.30310632350E+03  0.33358355206E+03  0.00000000000E+00 0.  1.
<mgrwt>
<rscale>  0 0.10465233E+04</rscale>
<asrwt>0</asrwt>
<pdfrwt beam="1">  1        2 0.55341701E-01 0.10465233E+04</pdfrwt>
<pdfrwt beam="2">  1       -1 0.11710047E+00 0.10465233E+04</pdfrwt>
<totfact> 0.67183640E+01</totfact>
</mgrwt>
</event>
<event>
12    7  0.1605494E-007  0.1339339E+04  0.7818608E-02  0.8998937E-01
          2   -1    0    0  501    0  0.00000000000E+00  0.00000000000E+00  0.12224031860E+04  0.12224031860E+04  0.00000000000E+00 0. -1.
         -1   -1    0    0    0  501 -0.00000000000E+00 -0.00000000000E+00 -0.36686550418E+03  0.36686550418E+03  0.00000000000E+00 0.  1.
         24    2    1    2    0    0 -0.32762288068E+02  0.18384875663E+02  0.64100743755E+03  0.64743814864E+03  0.82911097852E+02 0.  0.
        254    2    1    2    0    0  0.32762288068E+02 -0.18384875663E+02  0.21453024424E+03  0.94183054151E+03  0.91630244573E+03 0.  0.
         23    2    4    4    0    0  0.47974437250E+02 -0.20477190369E+03  0.52135085902E+03  0.57120161491E+03  0.10115081564E+03 0.  0.
         23    2    4    4    0    0 -0.15212149182E+02  0.18638702802E+03 -0.30682061478E+03  0.37062892660E+03  0.90859110057E+02 0.  0.
          4    1    3    3  502    0 -0.32408548777E+02  0.39029772312E+02  0.59316201765E+03  0.59532748664E+03  0.00000000000E+00 0. -1.
         -3    1    3    3    0  502 -0.35373929128E+00 -0.20644896649E+02  0.47845419900E+02  0.52110662004E+02  0.00000000000E+00 0.  1.
         13    1    5    5    0    0  0.66541717740E+02 -0.20168390799E+03  0.49659734772E+03  0.54010473494E+03  0.00000000000E+00 0.  1.
        -13    1    5    5    0    0 -0.18567280490E+02 -0.30879956997E+01  0.24753511303E+02  0.31096879973E+02  0.00000000000E+00 0. -1.
          3    1    6    6  503    0 -0.20712532968E+02  0.11066016927E+03 -0.10098774968E+03  0.15123890924E+03  0.00000000000E+00 0. -1.
         -3    1    6    6    0  503  0.55003837867E+01  0.75726858755E+02 -0.20583286510E+03  0.21939001735E+03  0.00000000000E+00 0.  1.
<mgrwt>
<rscale>  0 0.13393395E+04</rscale>
<asrwt>0</asrwt>
<pdfrwt beam="1">  1        2 0.18806203E+00 0.13393395E+04</pdfrwt>
<pdfrwt beam="2">  1       -1 0.56440848E-01 0.13393395E+04</pdfrwt>
<totfact> 0.65020241E+01</totfact>
</mgrwt>
</event>
<event>
12    7  0.1605494E-007  0.2877057E+04  0.7818608E-02  0.8279737E-01
         -1   -1    0    0    0  501 -0.00000000000E+00  0.00000000000E+00  0.23603442608E+04  0.23603442608E+04  0.00000000000E+00 0.  1.
          2   -1    0    0  501    0  0.00000000000E+00 -0.00000000000E+00 -0.87672122890E+03  0.87672122890E+03  0.00000000000E+00 0. -1.
         24    2    1    2    0    0  0.75481724061E+03 -0.79175363740E+02  0.18401320236E+04  0.19921638992E+04  0.81322395201E+02 0.  0.
        254    2    1    2    0    0 -0.75481724061E+03  0.79175363740E+02 -0.35650899165E+03  0.12449015906E+04  0.92014319762E+03 0.  0.
         23    2    4    4    0    0  0.13655215417E+03  0.12219605171E+03 -0.27575325888E+03  0.34413079264E+03  0.93849756554E+02 0.  0.
         23    2    4    4    0    0 -0.89136939478E+03 -0.43020687965E+02 -0.80755732777E+02  0.90077079793E+03  0.92067173769E+02 0.  0.
          2    1    3    3  502    0  0.21771017860E+03 -0.29885781261E+02  0.44231272842E+03  0.49389415011E+03  0.00000000000E+00 0. -1.
         -1    1    3    3    0  502  0.53710706201E+03 -0.49289582480E+02  0.13978192952E+04  0.14982697490E+04  0.00000000000E+00 0.  1.
         13    1    5    5    0    0  0.77137214498E+01 -0.15346247589E+02 -0.27940170851E+02  0.32797285876E+02  0.00000000000E+00 0.  1.
        -13    1    5    5    0    0  0.12883843272E+03  0.13754229929E+03 -0.24781308803E+03  0.31133350677E+03  0.00000000000E+00 0. -1.
          3    1    6    6  503    0 -0.53288793060E+03  0.12007019732E+02 -0.73076546085E+02  0.53800919758E+03  0.00000000000E+00 0. -1.
         -3    1    6    6    0  503 -0.35848146418E+03 -0.55027707697E+02 -0.76791866929E+01  0.36276160034E+03  0.00000000000E+00 0.  1.
<mgrwt>
<rscale>  0 0.28770568E+04</rscale>
<asrwt>0</asrwt>
<pdfrwt beam="1">  1        2 0.13488019E+00 0.28770568E+04</pdfrwt>
<pdfrwt beam="2">  1       -1 0.36312988E+00 0.28770568E+04</pdfrwt>
<totfact> 0.38076527E-01</totfact>
</mgrwt>
</event>
<event>
12    7  0.1605494E-007  0.1135112E+04  0.7818608E-02  0.9171630E-01
          2   -1    0    0  501    0  0.00000000000E+00  0.00000000000E+00  0.81378907513E+03  0.81378907513E+03  0.00000000000E+00 0. -1.
         -1   -1    0    0    0  501 -0.00000000000E+00 -0.00000000000E+00 -0.39582691498E+03  0.39582691498E+03  0.00000000000E+00 0.  1.
         24    2    1    2    0    0  0.70720663440E+02  0.12066118623E+03  0.22620109355E+03  0.27505912927E+03  0.70214355906E+02 0.  0.
        254    2    1    2    0    0 -0.70720663440E+02 -0.12066118623E+03  0.19176106660E+03  0.93455686083E+03  0.90391575125E+03 0.  0.
         23    2    4    4    0    0 -0.18417018582E+03  0.34378639247E+03 -0.27389976808E+02  0.40111260914E+03  0.89629087860E+02 0.  0.
         23    2    4    4    0    0  0.11344952238E+03 -0.46444757870E+03  0.21915104341E+03  0.53344425169E+03  0.89180952817E+02 0.  0.
          4    1    3    3  502    0  0.72718526816E+02  0.64359702861E+02  0.11591124296E+03  0.15121366254E+03  0.00000000000E+00 0. -1.
         -3    1    3    3    0  502 -0.19978633764E+01  0.56301483372E+02  0.11028985059E+03  0.12384546674E+03  0.00000000000E+00 0.  1.
         13    1    5    5    0    0 -0.23102768339E+02  0.87151338452E+02 -0.38217871298E+02  0.97927010500E+02  0.00000000000E+00 0.  1.
        -13    1    5    5    0    0 -0.16106741748E+03  0.25663505402E+03  0.10827894490E+02  0.30318559864E+03  0.00000000000E+00 0. -1.
          1    1    6    6  503    0  0.12828888151E+03 -0.39611608649E+03  0.18486987765E+03  0.45556872452E+03  0.00000000000E+00 0. -1.
         -1    1    6    6    0  503 -0.14839359126E+02 -0.68331492208E+02  0.34281165763E+02  0.77875527174E+02  0.00000000000E+00 0.  1.
<mgrwt>
<rscale>  0 0.11351117E+04</rscale>
<asrwt>0</asrwt>
<pdfrwt beam="1">  1        2 0.12519832E+00 0.11351117E+04</pdfrwt>
<pdfrwt beam="2">  1       -1 0.60896449E-01 0.11351117E+04</pdfrwt>
<totfact> 0.10414027E+02</totfact>
</mgrwt>
</event>
<event>
12    7  0.1605494E-007  0.2032534E+04  0.7818608E-02  0.8591559E-01
          2   -1    0    0  501    0  0.00000000000E+00  0.00000000000E+00  0.42568590914E+03  0.42568590914E+03  0.00000000000E+00 0. -1.
         -1   -1    0    0    0  501 -0.00000000000E+00 -0.00000000000E+00 -0.24261983662E+04  0.24261983662E+04  0.00000000000E+00 0.  1.
         24    2    1    2    0    0  0.55579491666E+03  0.16940181326E+03 -0.15878342617E+04  0.16927169870E+04  0.80425067704E+02 0.  0.
        254    2    1    2    0    0 -0.55579491666E+03 -0.16940181326E+03 -0.41267819533E+03  0.11591672884E+04  0.91419940157E+03 0.  0.
         23    2    4    4    0    0 -0.39371001575E+03 -0.19088168798E+02 -0.68566136345E+03  0.79614491853E+03  0.91341618535E+02 0.  0.
         23    2    4    4    0    0 -0.16208490091E+03 -0.15031364446E+03  0.27298316812E+03  0.36302236985E+03  0.91650008852E+02 0.  0.
          2    1    3    3  502    0  0.18544799031E+03  0.32521502561E+02 -0.43000945797E+03  0.46942170719E+03  0.00000000000E+00 0. -1.
         -1    1    3    3    0  502  0.37034692635E+03  0.13688031070E+03 -0.11578248038E+04  0.12232952798E+04  0.00000000000E+00 0.  1.
         13    1    5    5    0    0 -0.33978558818E+03 -0.48223901385E+02 -0.58896688595E+03  0.68166104726E+03  0.00000000000E+00 0. -1.
        -13    1    5    5    0    0 -0.53924427572E+02  0.29135732587E+02 -0.96694477498E+02  0.11448387127E+03  0.00000000000E+00 0.  1.
          4    1    6    6  503    0 -0.16362746275E+03 -0.10617252818E+03  0.21891369585E+03  0.29320600018E+03  0.00000000000E+00 0. -1.
         -4    1    6    6    0  503  0.15425618427E+01 -0.44141116283E+02  0.54069472268E+02  0.69816369679E+02  0.00000000000E+00 0.  1.
<mgrwt>
<rscale>  0 0.20325338E+04</rscale>
<asrwt>0</asrwt>
<pdfrwt beam="1">  1        2 0.65490140E-01 0.20325338E+04</pdfrwt>
<pdfrwt beam="2">  1       -1 0.37326129E+00 0.20325338E+04</pdfrwt>
<totfact> 0.85379965E-01</totfact>
</mgrwt>
</event>
<event>
12    7  0.1605494E-007  0.1813028E+04  0.7818608E-02  0.8699402E-01
         -1   -1    0    0    0  501 -0.00000000000E+00  0.00000000000E+00  0.54601209183E+03  0.54601209183E+03  0.00000000000E+00 0.  1.
          2   -1    0    0  501    0  0.00000000000E+00 -0.00000000000E+00 -0.15050352137E+04  0.15050352137E+04  0.00000000000E+00 0. -1.
         24    2    1    2    0    0 -0.50008488182E+03  0.44344660914E+03 -0.50182427113E+03  0.83966728629E+03  0.80521850357E+02 0.  0.
        254    2    1    2    0    0  0.50008488182E+03 -0.44344660914E+03 -0.45719885076E+03  0.12113800193E+04  0.90093339252E+03 0.  0.
         23    2    4    4    0    0 -0.74667521399E+02  0.15513823782E+03 -0.30615496422E+03  0.36308615714E+03  0.91965122767E+02 0.  0.
         23    2    4    4    0    0  0.57475240322E+03 -0.59858484696E+03 -0.15104388654E+03  0.84829386212E+03  0.90244539085E+02 0.  0.
          2    1    3    3  502    0 -0.48877341673E+03  0.44487752989E+03 -0.49834747424E+03  0.82774734949E+03  0.00000000000E+00 0. -1.
         -1    1    3    3    0  502 -0.11311465087E+02 -0.14309207510E+01 -0.34767968846E+01  0.11919936795E+02  0.00000000000E+00 0.  1.
         13    1    5    5    0    0 -0.33011022645E+02  0.13495495021E+03 -0.27244111637E+03  0.30582139901E+03  0.00000000000E+00 0.  1.
        -13    1    5    5    0    0 -0.41656498754E+02  0.20183287608E+02 -0.33713847849E+02  0.57264758131E+02  0.00000000000E+00 0. -1.
          4    1    6    6  503    0  0.10767582719E+03 -0.69852429033E+02 -0.37570456599E+02  0.13373475544E+03  0.00000000000E+00 0. -1.
         -4    1    6    6    0  503  0.46707657603E+03 -0.52873241793E+03 -0.11347342994E+03  0.71455910669E+03  0.00000000000E+00 0.  1.
<mgrwt>
<rscale>  0 0.18130278E+04</rscale>
<asrwt>0</asrwt>
<pdfrwt beam="1">  1        2 0.23154388E+00 0.18130278E+04</pdfrwt>
<pdfrwt beam="2">  1       -1 0.84001861E-01 0.18130278E+04</pdfrwt>
<totfact> 0.19034778E+01</totfact>
</mgrwt>
</event>
<event>
12    7  0.1605494E-007  0.1593972E+04  0.7818608E-02  0.8824260E-01
         -1   -1    0    0    0  501 -0.00000000000E+00  0.00000000000E+00  0.61455726504E+03  0.61455726504E+03  0.00000000000E+00 0.  1.
          2   -1    0    0  501    0  0.00000000000E+00 -0.00000000000E+00 -0.10335685075E+04  0.10335685075E+04  0.00000000000E+00 0. -1.
         24    2    1    2    0    0 -0.30206447022E+03  0.29707871735E+03  0.18855127155E+03  0.47252606445E+03  0.90722605258E+02 0.  0.
        254    2    1    2    0    0  0.30206447022E+03 -0.29707871735E+03 -0.60756251404E+03  0.11755997081E+04  0.91290950088E+03 0.  0.
         23    2    4    4    0    0 -0.14469877648E+03 -0.13847719087E+03  0.15729266490E+03  0.27101811153E+03  0.92715511329E+02 0.  0.
         23    2    4    4    0    0  0.44676324670E+03 -0.15860152648E+03 -0.76485517893E+03  0.90458159659E+03  0.92263629589E+02 0.  0.
          2    1    3    3  502    0 -0.22279707575E+02  0.58401827068E+02  0.48054332883E+02  0.78844008545E+02  0.00000000000E+00 0. -1.
         -1    1    3    3    0  502 -0.27978476264E+03  0.23867689028E+03  0.14049693867E+03  0.39368205590E+03  0.00000000000E+00 0.  1.
         13    1    5    5    0    0 -0.10480676129E+03 -0.59231280048E+02  0.46438200461E+02  0.12903219834E+03  0.00000000000E+00 0.  1.
        -13    1    5    5    0    0 -0.39892015196E+02 -0.79245910821E+02  0.11085446443E+03  0.14198591319E+03  0.00000000000E+00 0. -1.
          4    1    6    6  503    0  0.44019091776E+03 -0.14792814788E+03 -0.76094223043E+03  0.89145042435E+03  0.00000000000E+00 0.  1.
         -4    1    6    6    0  503  0.65723289437E+01 -0.10673378604E+02 -0.39129485013E+01  0.13131172246E+02  0.00000000000E+00 0. -1.
<mgrwt>
<rscale>  0 0.15939724E+04</rscale>
<asrwt>0</asrwt>
<pdfrwt beam="1">  1        2 0.15901054E+00 0.15939724E+04</pdfrwt>
<pdfrwt beam="2">  1       -1 0.94547273E-01 0.15939724E+04</pdfrwt>
<totfact> 0.28405589E+01</totfact>
</mgrwt>
</event>
<event>
12    7  0.1605494E-007  0.2564826E+04  0.7818608E-02  0.8380248E-01
         -1   -1    0    0    0  501 -0.00000000000E+00  0.00000000000E+00  0.60805139748E+03  0.60805139748E+03  0.00000000000E+00 0.  1.
          2   -1    0    0  501    0  0.00000000000E+00 -0.00000000000E+00 -0.27046776453E+04  0.27046776453E+04  0.00000000000E+00 0. -1.
         24    2    1    2    0    0 -0.44327325594E+03  0.53863250799E+03 -0.20353288788E+04  0.21529639727E+04  0.77936288771E+02 0.  0.
        254    2    1    2    0    0  0.44327325594E+03 -0.53863250799E+03 -0.61297369067E+02  0.11597650700E+04  0.92448985508E+03 0.  0.
         23    2    4    4    0    0  0.48355269905E+03 -0.63743274783E+03  0.22957098229E+03  0.83674206772E+03  0.85385778807E+02 0.  0.
         23    2    4    4    0    0 -0.40279443101E+02  0.98800239850E+02 -0.29086835136E+03  0.32302300232E+03  0.91408649872E+02 0.  0.
          4    1    3    3  502    0 -0.38933062849E+03  0.42877277455E+03 -0.17061596966E+04  0.18017783828E+04  0.00000000000E+00 0. -1.
         -3    1    3    3    0  502 -0.53942627450E+02  0.10985973344E+03 -0.32916918219E+03  0.35118558996E+03  0.00000000000E+00 0.  1.
         13    1    5    5    0    0  0.74560318784E+02 -0.14858578222E+03  0.30631013168E+02  0.16904210950E+03  0.00000000000E+00 0. -1.
        -13    1    5    5    0    0  0.40899238026E+03 -0.48884696561E+03  0.19893996913E+03  0.66769995823E+03  0.00000000000E+00 0.  1.
          3    1    6    6  503    0  0.95029514969E+01 -0.42323900036E+01  0.56478157187E-01  0.10402999667E+02  0.00000000000E+00 0. -1.
         -3    1    6    6    0  503 -0.49782394598E+02  0.10303262985E+03 -0.29092482952E+03  0.31262000265E+03  0.00000000000E+00 0.  1.
<mgrwt>
<rscale>  0 0.25648259E+04</rscale>
<asrwt>0</asrwt>
<pdfrwt beam="1">  1        2 0.41610425E+00 0.25648259E+04</pdfrwt>
<pdfrwt beam="2">  1       -1 0.93546369E-01 0.25648259E+04</pdfrwt>
<totfact> 0.29498396E+00</totfact>
</mgrwt>
</event>
<event>
12    7  0.1605494E-007  0.4467671E+04  0.7818608E-02  0.7916321E-01
         -1   -1    0    0    0  501 -0.00000000000E+00  0.00000000000E+00  0.18548241980E+04  0.18548241980E+04  0.00000000000E+00 0.  1.
          2   -1    0    0  501    0  0.00000000000E+00 -0.00000000000E+00 -0.26902938250E+04  0.26902938250E+04  0.00000000000E+00 0. -1.
         24    2    1    2    0    0  0.74813435740E+03  0.60697220697E+03  0.15466890062E+04  0.18239190944E+04  0.79458820316E+02 0.  0.
        254    2    1    2    0    0 -0.74813435740E+03 -0.60697220697E+03 -0.23821586332E+04  0.27211989286E+04  0.89561352060E+03 0.  0.
         23    2    4    4    0    0 -0.75704954163E+03 -0.18474154285E+03 -0.19846821329E+04  0.21343749231E+04  0.96642109132E+02 0.  0.
         23    2    4    4    0    0  0.89151842304E+01 -0.42223066411E+03 -0.39747650031E+03  0.58682400553E+03  0.89535640624E+02 0.  0.
          2    1    3    3  502    0  0.54059022913E+02  0.53393204900E+02  0.87630915153E+02  0.11598443679E+03  0.00000000000E+00 0. -1.
         -1    1    3    3    0  502  0.69407533448E+03  0.55357900207E+03  0.14590580911E+04  0.17079346576E+04  0.00000000000E+00 0.  1.
         13    1    5    5    0    0 -0.61202247129E+03 -0.10939637016E+03 -0.15838655171E+04  0.17015196289E+04  0.00000000000E+00 0.  1.
        -13    1    5    5    0    0 -0.14502707034E+03 -0.75345172693E+02 -0.40081661582E+03  0.43285529418E+03  0.00000000000E+00 0. -1.
          2    1    6    6  503    0  0.38055691768E+02 -0.11638745846E+03 -0.88377502535E+02  0.15101277799E+03  0.00000000000E+00 0. -1.
         -2    1    6    6    0  503 -0.29140507537E+02 -0.30584320566E+03 -0.30909899778E+03  0.43581122754E+03  0.00000000000E+00 0.  1.
<mgrwt>
<rscale>  0 0.44676715E+04</rscale>
<asrwt>0</asrwt>
<pdfrwt beam="1">  1        2 0.41389135E+00 0.44676715E+04</pdfrwt>
<pdfrwt beam="2">  1       -1 0.28535757E+00 0.44676715E+04</pdfrwt>
<totfact> 0.95473932E-02</totfact>
</mgrwt>
</event>
<event>
12    7  0.1605494E-007  0.2374834E+04  0.7818608E-02  0.8448986E-01
          2   -1    0    0  501    0  0.00000000000E+00  0.00000000000E+00  0.12570216915E+04  0.12570216915E+04  0.00000000000E+00 0. -1.
         -1   -1    0    0    0  501 -0.00000000000E+00 -0.00000000000E+00 -0.11216667330E+04  0.11216667330E+04  0.00000000000E+00 0.  1.
         24    2    1    2    0    0  0.24464159236E+03 -0.15009745337E+03 -0.93141232156E+03  0.97795666947E+03  0.80570344320E+02 0.  0.
        254    2    1    2    0    0 -0.24464159236E+03  0.15009745337E+03  0.10667672800E+04  0.14007317550E+04  0.86120744622E+03 0.  0.
         23    2    4    4    0    0 -0.48042478489E+03  0.16556692591E+03  0.31165257066E+03  0.60331287955E+03  0.92944741393E+02 0.  0.
         23    2    4    4    0    0  0.23578319252E+03 -0.15469472535E+02  0.75511470938E+03  0.79741887543E+03  0.99225098171E+02 0.  0.
          2    1    3    3  502    0  0.15898746731E+03 -0.50649626052E+02 -0.52001766801E+03  0.54613256122E+03  0.00000000000E+00 0. -1.
         -1    1    3    3    0  502  0.85654125054E+02 -0.99447827318E+02 -0.41139465354E+03  0.43182410825E+03  0.00000000000E+00 0.  1.
         13    1    5    5    0    0 -0.46977893433E+03  0.16957679161E+03  0.28669316360E+03  0.57588323942E+03  0.00000000000E+00 0.  1.
        -13    1    5    5    0    0 -0.10645850557E+02 -0.40098657065E+01  0.24959407060E+02  0.27429640134E+02  0.00000000000E+00 0. -1.
          3    1    6    6  503    0  0.88356655349E+01 -0.23398971089E+02  0.12882511844E+03  0.13123068229E+03  0.00000000000E+00 0. -1.
         -3    1    6    6    0  503  0.22694752699E+03  0.79294985536E+01  0.62628959094E+03  0.66618819314E+03  0.00000000000E+00 0.  1.
<mgrwt>
<rscale>  0 0.23748342E+04</rscale>
<asrwt>0</asrwt>
<pdfrwt beam="1">  1        2 0.19338795E+00 0.23748342E+04</pdfrwt>
<pdfrwt beam="2">  1       -1 0.17256411E+00 0.23748342E+04</pdfrwt>
<totfact> 0.42397293E+00</totfact>
</mgrwt>
</event>
<event>
12    7  0.1605494E-007  0.2174901E+04  0.7818608E-02  0.8528948E-01
          2   -1    0    0  501    0  0.00000000000E+00  0.00000000000E+00  0.40588714587E+04  0.40588714587E+04  0.00000000000E+00 0. -1.
         -1   -1    0    0    0  501 -0.00000000000E+00 -0.00000000000E+00 -0.29134908972E+03  0.29134908972E+03  0.00000000000E+00 0.  1.
         24    2    1    2    0    0 -0.39070186695E+03  0.76813006781E+03  0.20274211067E+04  0.22044471489E+04  0.80493094530E+02 0.  0.
        254    2    1    2    0    0  0.39070186695E+03 -0.76813006781E+03  0.17401012623E+04  0.21457733996E+04  0.91308232346E+03 0.  0.
         23    2    4    4    0    0  0.19904277893E+03  0.38997928254E+02  0.10172077747E+04  0.10414778109E+04  0.93944172177E+02 0.  0.
         23    2    4    4    0    0  0.19165908803E+03 -0.80712799607E+03  0.72289348759E+03  0.11042955887E+04  0.93300293005E+02 0.  0.
          4    1    3    3  502    0 -0.16539528083E+03  0.33697880541E+03  0.98489305427E+03  0.10540040999E+04  0.00000000000E+00 0. -1.
         -3    1    3    3    0  502 -0.22530658613E+03  0.43115126240E+03  0.10425280525E+04  0.11504430490E+04  0.00000000000E+00 0.  1.
         13    1    5    5    0    0  0.11397570832E+03  0.32162946492E+02  0.78893364202E+03  0.79777265478E+03  0.00000000000E+00 0. -1.
        -13    1    5    5    0    0  0.85067070606E+02  0.68349817617E+01  0.22827413268E+03  0.24370515613E+03  0.00000000000E+00 0.  1.
          2    1    6    6  503    0  0.17513310941E+03 -0.71474844242E+03  0.59893984078E+03  0.94882341604E+03  0.00000000000E+00 0. -1.
         -2    1    6    6    0  503  0.16525978613E+02 -0.92379553641E+02  0.12395364681E+03  0.15547217261E+03  0.00000000000E+00 0.  1.
<mgrwt>
<rscale>  0 0.21749009E+04</rscale>
<asrwt>0</asrwt>
<pdfrwt beam="1">  1        2 0.62444172E+00 0.21749009E+04</pdfrwt>
<pdfrwt beam="2">  1       -1 0.44822940E-01 0.21749009E+04</pdfrwt>
<totfact> 0.15873071E+00</totfact>
</mgrwt>
</event>
<event>
12    7  0.1605494E-007  0.1430809E+04  0.7818608E-02  0.8931815E-01
         -3   -1    0    0    0  501 -0.00000000000E+00  0.00000000000E+00  0.20705750618E+03  0.20705750618E+03  0.00000000000E+00 0.  1.
          2   -1    0    0  501    0  0.00000000000E+00 -0.00000000000E+00 -0.24717942794E+04  0.24717942794E+04  0.00000000000E+00 0. -1.
         24    2    1    2    0    0  0.33990149455E+02  0.24729403639E+03 -0.39565084552E+02  0.26473517044E+03  0.78801293502E+02 0.  0.
        254    2    1    2    0    0 -0.33990149455E+02 -0.24729403639E+03 -0.22251716887E+04  0.24141166152E+04  0.90236373860E+03 0.  0.
         23    2    4    4    0    0 -0.34577978361E+03 -0.23661103948E+03 -0.50002457570E+03  0.65860934921E+03  0.90516605117E+02 0.  0.
         23    2    4    4    0    0  0.31178963415E+03 -0.10682996914E+02 -0.17251471130E+04  0.17555072659E+04  0.91358070034E+02 0.  0.
          2    1    3    3  502    0 -0.22249841585E+02  0.83294591967E+02 -0.29296499279E+02  0.91056737101E+02  0.00000000000E+00 0. -1.
         -1    1    3    3    0  502  0.56239991039E+02  0.16399944443E+03 -0.10268585273E+02  0.17367843334E+03  0.00000000000E+00 0.  1.
         13    1    5    5    0    0 -0.37634350223E+02 -0.64561149497E+02 -0.10522216833E+03  0.12905886660E+03  0.00000000000E+00 0.  1.
        -13    1    5    5    0    0 -0.30814543338E+03 -0.17204988998E+03 -0.39480240737E+03  0.52955048261E+03  0.00000000000E+00 0. -1.
          3    1    6    6  503    0  0.21322030852E+03 -0.47469111163E+02 -0.12386341051E+04  0.12577482509E+04  0.00000000000E+00 0. -1.
         -3    1    6    6    0  503  0.98569325632E+02  0.36786114249E+02 -0.48651300792E+03  0.49775901502E+03  0.00000000000E+00 0.  1.
<mgrwt>
<rscale>  0 0.14308089E+04</rscale>
<asrwt>0</asrwt>
<pdfrwt beam="1">  1        2 0.38027603E+00 0.14308089E+04</pdfrwt>
<pdfrwt beam="2">  1       -3 0.31855002E-01 0.14308089E+04</pdfrwt>
<totfact> 0.22070026E+01</totfact>
</mgrwt>
</event>
<event>
12    7  0.1605494E-007  0.2604239E+04  0.7818608E-02  0.8366763E-01
         -3   -1    0    0    0  501 -0.00000000000E+00  0.00000000000E+00  0.72271841674E+03  0.72271841674E+03  0.00000000000E+00 0.  1.
          2   -1    0    0  501    0  0.00000000000E+00 -0.00000000000E+00 -0.23460240390E+04  0.23460240390E+04  0.00000000000E+00 0. -1.
         24    2    1    2    0    0  0.64707449427E+03  0.68689116744E+03 -0.14815119625E+04  0.17583903580E+04  0.80833648623E+02 0.  0.
        254    2    1    2    0    0 -0.64707449427E+03 -0.68689116744E+03 -0.14179365975E+03  0.13103520978E+04  0.89799348622E+03 0.  0.
         23    2    4    4    0    0  0.46851266907E+02 -0.17656481514E+03  0.28069433837E+03  0.34654876692E+03  0.89087379054E+02 0.  0.
         23    2    4    4    0    0 -0.69392576118E+03 -0.51032635229E+03 -0.42248799812E+03  0.96380333090E+03  0.91950009413E+02 0.  0.
          4    1    3    3  502    0  0.47134543677E+03  0.45015682618E+03 -0.99250844177E+03  0.11873839716E+04  0.00000000000E+00 0. -1.
         -3    1    3    3    0  502  0.17572905750E+03  0.23673434126E+03 -0.48900352077E+03  0.57100638640E+03  0.00000000000E+00 0.  1.
         13    1    5    5    0    0 -0.14704652744E+02 -0.24089998666E+02  0.10224700834E+02  0.30018316995E+02  0.00000000000E+00 0. -1.
        -13    1    5    5    0    0  0.61555919651E+02 -0.15247481648E+03  0.27046963754E+03  0.31653044993E+03  0.00000000000E+00 0.  1.
          4    1    6    6  503    0 -0.47803828557E+02 -0.14999455601E+02 -0.40894827989E+02  0.64672843213E+02  0.00000000000E+00 0. -1.
         -4    1    6    6    0  503 -0.64612193262E+03 -0.49532689669E+03 -0.38159317013E+03  0.89913048769E+03  0.00000000000E+00 0.  1.
<mgrwt>
<rscale>  0 0.26042387E+04</rscale>
<asrwt>0</asrwt>
<pdfrwt beam="1">  1        2 0.36092678E+00 0.26042387E+04</pdfrwt>
<pdfrwt beam="2">  1       -3 0.11118745E+00 0.26042387E+04</pdfrwt>
<totfact> 0.16361265E+00</totfact>
</mgrwt>
</event>
<event>
12    7  0.1605494E-007  0.1295745E+04  0.7818608E-02  0.9032946E-01
          2   -1    0    0  501    0  0.00000000000E+00  0.00000000000E+00  0.16727345916E+04  0.16727345916E+04  0.00000000000E+00 0. -1.
         -1   -1    0    0    0  501 -0.00000000000E+00 -0.00000000000E+00 -0.25092973521E+03  0.25092973521E+03  0.00000000000E+00 0.  1.
         24    2    1    2    0    0 -0.15063771605E+03  0.52825366375E+02 -0.55196940941E+02  0.18671154831E+03  0.79575493413E+02 0.  0.
        254    2    1    2    0    0  0.15063771605E+03 -0.52825366375E+02  0.14770017973E+04  0.17369527785E+04  0.89999355809E+03 0.  0.
         23    2    4    4    0    0 -0.37037850608E+03 -0.30212293392E+02  0.66527238153E+03  0.76785699538E+03  0.94466942812E+02 0.  0.
         23    2    4    4    0    0  0.52101622213E+03 -0.22613072983E+02  0.81172941576E+03  0.96909578309E+03  0.90954590881E+02 0.  0.
          2    1    3    3  502    0 -0.30915961339E+02 -0.40103511402E+01  0.17297052869E+02  0.35652035281E+02  0.00000000000E+00 0. -1.
         -1    1    3    3    0  502 -0.11972175471E+03  0.56835717515E+02 -0.72493993810E+02  0.15105951303E+03  0.00000000000E+00 0.  1.
         13    1    5    5    0    0 -0.28337143325E+03 -0.25958063373E+02  0.41779349949E+03  0.50549440991E+03  0.00000000000E+00 0. -1.
        -13    1    5    5    0    0 -0.87007072827E+02 -0.42542300184E+01  0.24747888204E+03  0.26236258547E+03  0.00000000000E+00 0.  1.
          2    1    6    6  503    0  0.33031191700E+03  0.20369580202E+02  0.45974079796E+03  0.56646490061E+03  0.00000000000E+00 0.  1.
         -2    1    6    6    0  503  0.19070430513E+03 -0.42982653185E+02  0.35198861780E+03  0.40263088249E+03  0.00000000000E+00 0. -1.
<mgrwt>
<rscale>  0 0.12957451E+04</rscale>
<asrwt>0</asrwt>
<pdfrwt beam="1">  1        2 0.25734378E+00 0.12957451E+04</pdfrwt>
<pdfrwt beam="2">  1       -1 0.38604576E-01 0.12957451E+04</pdfrwt>
<totfact> 0.73720646E+01</totfact>
</mgrwt>
</event>
<event>
12    7  0.1605494E-007  0.1543192E+04  0.7818608E-02  0.8856228E-01
         -1   -1    0    0    0  501 -0.00000000000E+00  0.00000000000E+00  0.73195713064E+03  0.73195713064E+03  0.00000000000E+00 0.  1.
          2   -1    0    0  501    0  0.00000000000E+00 -0.00000000000E+00 -0.81338180538E+03  0.81338180538E+03  0.00000000000E+00 0. -1.
         24    2    1    2    0    0 -0.28405811649E+03 -0.32331879978E+03 -0.28852476307E+03  0.52464614671E+03  0.82358852123E+02 0.  0.
        254    2    1    2    0    0  0.28405811649E+03  0.32331879978E+03  0.20710008832E+03  0.10206927893E+04  0.90205280540E+03 0.  0.
         23    2    4    4    0    0  0.56804416015E+03  0.30681060485E+03  0.28446174782E+03  0.71149954896E+03  0.92229100975E+02 0.  0.
         23    2    4    4    0    0 -0.28398604366E+03  0.16508194923E+02 -0.77361659496E+02  0.30919324035E+03  0.93247198477E+02 0.  0.
          2    1    3    3  502    0 -0.21977523953E+03 -0.24022758138E+03 -0.17375242821E+03  0.36905332010E+03  0.00000000000E+00 0. -1.
         -1    1    3    3    0  502 -0.64282876960E+02 -0.83091218397E+02 -0.11477233486E+03  0.15559282661E+03  0.00000000000E+00 0.  1.
         13    1    5    5    0    0  0.23163619047E+03  0.13367983684E+03  0.16717057704E+03  0.31539122584E+03  0.00000000000E+00 0. -1.
        -13    1    5    5    0    0  0.33640796968E+03  0.17313076802E+03  0.11729117078E+03  0.39610832312E+03  0.00000000000E+00 0.  1.
          4    1    6    6  503    0  0.39128515068E+01  0.55707830173E+00  0.76254254569E+01  0.85888216042E+01  0.00000000000E+00 0. -1.
         -4    1    6    6    0  503 -0.28789889517E+03  0.15951116621E+02 -0.84987084953E+02  0.30060441874E+03  0.00000000000E+00 0.  1.
<mgrwt>
<rscale>  0 0.15431923E+04</rscale>
<asrwt>0</asrwt>
<pdfrwt beam="1">  1        2 0.12513566E+00 0.15431923E+04</pdfrwt>
<pdfrwt beam="2">  1       -1 0.11260879E+00 0.15431923E+04</pdfrwt>
<totfact> 0.26745406E+01</totfact>
</mgrwt>
</event>
<event>
12    7  0.1605494E-007  0.1410088E+04  0.7818608E-02  0.8946549E-01
         -1   -1    0    0    0  501 -0.00000000000E+00  0.00000000000E+00  0.49340432991E+03  0.49340432991E+03  0.00000000000E+00 0.  1.
          2   -1    0    0  501    0  0.00000000000E+00 -0.00000000000E+00 -0.10074632459E+04  0.10074632459E+04  0.00000000000E+00 0. -1.
         24    2    1    2    0    0 -0.14984453028E+03 -0.26152156229E+03 -0.50801464426E+03  0.59601426159E+03  0.79417947860E+02 0.  0.
        254    2    1    2    0    0  0.14984453028E+03  0.26152156229E+03 -0.60442716956E+01  0.90485331418E+03  0.85315653674E+03 0.  0.
         23    2    4    4    0    0  0.35177760844E+01 -0.10081398089E+03  0.34612597189E+03  0.37113892037E+03  0.88119670387E+02 0.  0.
         23    2    4    4    0    0  0.14632675419E+03  0.36233554317E+03 -0.35217024358E+03  0.53371439381E+03  0.90158798002E+02 0.  0.
          2    1    3    3  502    0 -0.12473327645E+03 -0.17950568167E+03 -0.41783153214E+03  0.47155473623E+03  0.00000000000E+00 0. -1.
         -1    1    3    3    0  502 -0.25111253828E+02 -0.82015880622E+02 -0.90183112114E+02  0.12445952536E+03  0.00000000000E+00 0.  1.
         13    1    5    5    0    0  0.23231463562E+02  0.38448292482E+00  0.12522644803E+03  0.12736369974E+03  0.00000000000E+00 0. -1.
        -13    1    5    5    0    0 -0.19713687477E+02 -0.10119846381E+03  0.22089952386E+03  0.24377522063E+03  0.00000000000E+00 0.  1.
          3    1    6    6  503    0  0.56372578121E+02  0.17828836156E+03 -0.11167393199E+03  0.21779732440E+03  0.00000000000E+00 0.  1.
         -3    1    6    6    0  503  0.89954176073E+02  0.18404718162E+03 -0.24049631160E+03  0.31591706941E+03  0.00000000000E+00 0. -1.
<mgrwt>
<rscale>  0 0.14100876E+04</rscale>
<asrwt>0</asrwt>
<pdfrwt beam="1">  1        2 0.15499434E+00 0.14100876E+04</pdfrwt>
<pdfrwt beam="2">  1       -1 0.75908359E-01 0.14100876E+04</pdfrwt>
<totfact> 0.48199379E+01</totfact>
</mgrwt>
</event>
<event>
12    7  0.1605494E-007  0.1398344E+04  0.7818608E-02  0.8955018E-01
          2   -1    0    0  501    0  0.00000000000E+00  0.00000000000E+00  0.35355275486E+04  0.35355275486E+04  0.00000000000E+00 0. -1.
         -1   -1    0    0    0  501 -0.00000000000E+00 -0.00000000000E+00 -0.13826558278E+03  0.13826558278E+03  0.00000000000E+00 0.  1.
         24    2    1    2    0    0 -0.15284272733E+03 -0.29496427974E+03  0.15898047091E+04  0.16263198224E+04  0.84097123786E+02 0.  0.
        254    2    1    2    0    0  0.15284272733E+03  0.29496427974E+03  0.18074572568E+04  0.20474733090E+04  0.90270725612E+03 0.  0.
         23    2    4    4    0    0 -0.34880757690E+03  0.21899107850E+03  0.58959130028E+03  0.72507289981E+03  0.92135717868E+02 0.  0.
         23    2    4    4    0    0  0.50165030424E+03  0.75973201245E+02  0.12178659565E+04  0.13224004092E+04  0.90113257093E+02 0.  0.
          4    1    3    3  502    0 -0.16223766796E+03 -0.26436591462E+03  0.14134222949E+04  0.14470566615E+04  0.00000000000E+00 0. -1.
         -3    1    3    3    0  502  0.93949406291E+01 -0.30598365122E+02  0.17638241414E+03  0.17926316095E+03  0.00000000000E+00 0.  1.
         13    1    5    5    0    0 -0.46547036373E+02  0.46243209602E+02  0.15439746833E+03  0.16776066063E+03  0.00000000000E+00 0. -1.
        -13    1    5    5    0    0 -0.30226054053E+03  0.17274786890E+03  0.43519383195E+03  0.55731223918E+03  0.00000000000E+00 0.  1.
          1    1    6    6  503    0  0.25185201803E+03 -0.11525676449E+01  0.65617293522E+03  0.70284684556E+03  0.00000000000E+00 0. -1.
         -1    1    6    6    0  503  0.24979828620E+03  0.77125768890E+02  0.56169302128E+03  0.61955356360E+03  0.00000000000E+00 0.  1.
<mgrwt>
<rscale>  0 0.13983444E+04</rscale>
<asrwt>0</asrwt>
<pdfrwt beam="1">  1        2 0.54392725E+00 0.13983444E+04</pdfrwt>
<pdfrwt beam="2">  1       -1 0.21271631E-01 0.13983444E+04</pdfrwt>
<totfact> 0.15973243E+01</totfact>
</mgrwt>
</event>
<event>
12    7  0.1605494E-007  0.1469145E+04  0.7818608E-02  0.8905235E-01
          2   -1    0    0  501    0  0.00000000000E+00  0.00000000000E+00  0.16566413448E+04  0.16566413448E+04  0.00000000000E+00 0. -1.
         -1   -1    0    0    0  501 -0.00000000000E+00 -0.00000000000E+00 -0.32571721979E+03  0.32571721979E+03  0.00000000000E+00 0.  1.
         24    2    1    2    0    0 -0.72413747877E+02  0.40576565025E+03  0.74973955534E+03  0.85935850817E+03  0.80610985172E+02 0.  0.
        254    2    1    2    0    0  0.72413747877E+02 -0.40576565025E+03  0.58118456963E+03  0.11230000564E+04  0.86802310386E+03 0.  0.
         23    2    4    4    0    0 -0.51800806525E+02 -0.56205086666E+03  0.80353819033E+02  0.57653622828E+03  0.85748387785E+02 0.  0.
         23    2    4    4    0    0  0.12421455440E+03  0.15628521641E+03  0.50083075060E+03  0.54646382809E+03  0.89089563248E+02 0.  0.
          2    1    3    3  502    0  0.90710288599E+01  0.68250644792E+02  0.84860076647E+02  0.10927793321E+03  0.00000000000E+00 0. -1.
         -1    1    3    3    0  502 -0.81484776737E+02  0.33751500546E+03  0.66487947869E+03  0.75008057496E+03  0.00000000000E+00 0.  1.
         13    1    5    5    0    0 -0.50403491086E+02 -0.31159018470E+03  0.76511395545E+01  0.31573326567E+03  0.00000000000E+00 0. -1.
        -13    1    5    5    0    0 -0.13973154391E+01 -0.25046068197E+03  0.72702679479E+02  0.26080296261E+03  0.00000000000E+00 0.  1.
          1    1    6    6  503    0  0.12455796928E+03  0.14781158550E+03  0.38964749961E+03  0.43495761457E+03  0.00000000000E+00 0.  1.
         -1    1    6    6    0  503 -0.34341488252E+00  0.84736309081E+01  0.11118325099E+03  0.11150621352E+03  0.00000000000E+00 0. -1.
<mgrwt>
<rscale>  0 0.14691448E+04</rscale>
<asrwt>0</asrwt>
<pdfrwt beam="1">  1        2 0.25486789E+00 0.14691448E+04</pdfrwt>
<pdfrwt beam="2">  1       -1 0.50110343E-01 0.14691448E+04</pdfrwt>
<totfact> 0.45719510E+01</totfact>
</mgrwt>
</event>
<event>
12    7  0.1605494E-007  0.2095902E+04  0.7818608E-02  0.8563051E-01
          2   -1    0    0  501    0  0.00000000000E+00  0.00000000000E+00  0.10772581930E+04  0.10772581930E+04  0.00000000000E+00 0. -1.
         -1   -1    0    0    0  501 -0.00000000000E+00 -0.00000000000E+00 -0.10194408440E+04  0.10194408440E+04  0.00000000000E+00 0.  1.
         24    2    1    2    0    0 -0.24266738392E+02 -0.35362546419E+03 -0.74676222892E+03  0.83052402025E+03  0.80476568965E+02 0.  0.
        254    2    1    2    0    0  0.24266738392E+02  0.35362546419E+03  0.80457957788E+03  0.12661750168E+04  0.91115916969E+03 0.  0.
         23    2    4    4    0    0 -0.42743503281E+03  0.18205798542E+03  0.29574757197E+03  0.55888263670E+03  0.95065019619E+02 0.  0.
         23    2    4    4    0    0  0.45170177120E+03  0.17156747877E+03  0.50883200591E+03  0.70729238010E+03  0.88784068576E+02 0.  0.
          4    1    3    3  502    0 -0.17377829329E+02 -0.10568981381E+02 -0.40196599621E+02  0.45049516542E+02  0.00000000000E+00 0. -1.
         -3    1    3    3    0  502 -0.68889090625E+01 -0.34305648281E+03 -0.70656562930E+03  0.78547450371E+03  0.00000000000E+00 0.  1.
         13    1    5    5    0    0 -0.66629046386E+02  0.28926704207E+02  0.89113491644E+01  0.73181938909E+02  0.00000000000E+00 0.  1.
        -13    1    5    5    0    0 -0.36080598642E+03  0.15313128121E+03  0.28683622280E+03  0.48570069779E+03  0.00000000000E+00 0. -1.
          3    1    6    6  503    0  0.44577568568E+03  0.15665956553E+03  0.47571644148E+03  0.67049557352E+03  0.00000000000E+00 0. -1.
         -3    1    6    6    0  503  0.59260855160E+01  0.14907913244E+02  0.33115564433E+02  0.36796806581E+02  0.00000000000E+00 0.  1.
<mgrwt>
<rscale>  0 0.20959017E+04</rscale>
<asrwt>0</asrwt>
<pdfrwt beam="1">  1        2 0.16573203E+00 0.20959017E+04</pdfrwt>
<pdfrwt beam="2">  1       -1 0.15683705E+00 0.20959017E+04</pdfrwt>
<totfact> 0.73094520E+00</totfact>
</mgrwt>
</event>
<event>
12    7  0.1605494E-007  0.1974834E+04  0.7818608E-02  0.8618478E-01
         -1   -1    0    0    0  501 -0.00000000000E+00  0.00000000000E+00  0.17409587780E+04  0.17409587780E+04  0.00000000000E+00 0.  1.
          2   -1    0    0  501    0  0.00000000000E+00 -0.00000000000E+00 -0.56003192965E+03  0.56003192965E+03  0.00000000000E+00 0. -1.
         24    2    1    2    0    0  0.13070892614E+03 -0.75955234540E+03  0.58936080379E+03  0.97553641335E+03  0.10159009773E+03 0.  0.
        254    2    1    2    0    0 -0.13070892614E+03  0.75955234540E+03  0.59156604453E+03  0.13254542943E+04  0.90159531520E+03 0.  0.
         23    2    4    4    0    0 -0.30565653297E+03 -0.25298530133E+02  0.36545624219E+03  0.48546374779E+03  0.89726549498E+02 0.  0.
         23    2    4    4    0    0  0.17494760683E+03  0.78485087553E+03  0.22610980234E+03  0.83999054648E+03  0.88661792863E+02 0.  0.
          2    1    3    3  502    0 -0.15170594129E+02 -0.14326058575E+03  0.10951222510E+03  0.18096040949E+03  0.00000000000E+00 0. -1.
         -1    1    3    3    0  502  0.14587952027E+03 -0.61629175964E+03  0.47984857869E+03  0.79457600386E+03  0.00000000000E+00 0.  1.
         13    1    5    5    0    0 -0.82511331549E+02  0.32387956236E+02  0.90375485137E+02  0.12658920909E+03  0.00000000000E+00 0. -1.
        -13    1    5    5    0    0 -0.22314520143E+03 -0.57686486369E+02  0.27508075705E+03  0.35887453870E+03  0.00000000000E+00 0.  1.
          2    1    6    6  503    0  0.30907354357E+01  0.98717411880E+00 -0.40172776752E+01  0.51638820856E+01  0.00000000000E+00 0. -1.
         -2    1    6    6    0  503  0.17185687139E+03  0.78386370141E+03  0.23012708001E+03  0.83482666440E+03  0.00000000000E+00 0.  1.
<mgrwt>
<rscale>  0 0.19748342E+04</rscale>
<asrwt>0</asrwt>
<pdfrwt beam="1">  1        2 0.86158759E-01 0.19748342E+04</pdfrwt>
<pdfrwt beam="2">  1       -1 0.26783981E+00 0.19748342E+04</pdfrwt>
<totfact> 0.30578975E+00</totfact>
</mgrwt>
</event>
<event>
12    7  0.1605494E-007  0.1371758E+04  0.7818608E-02  0.8974519E-01
          2   -1    0    0  501    0  0.00000000000E+00  0.00000000000E+00  0.11054788586E+04  0.11054788586E+04  0.00000000000E+00 0. -1.
         -1   -1    0    0    0  501 -0.00000000000E+00 -0.00000000000E+00 -0.42554379418E+03  0.42554379418E+03  0.00000000000E+00 0.  1.
         24    2    1    2    0    0 -0.30211937572E+02 -0.28849666876E+03 -0.96009798298E+02  0.31624758991E+03  0.81557143741E+02 0.  0.
        254    2    1    2    0    0  0.30211937572E+02  0.28849666876E+03  0.77594486275E+03  0.12147750629E+04  0.88850713804E+03 0.  0.
         23    2    4    4    0    0 -0.81443918915E+02  0.49096796982E+03  0.13001534807E+03  0.52260083922E+03  0.92330856748E+02 0.  0.
         23    2    4    4    0    0  0.11165585649E+03 -0.20247130106E+03  0.64592951468E+03  0.69217422368E+03  0.91752710843E+02 0.  0.
          4    1    3    3  502    0 -0.27118441494E+01 -0.99759186268E+02  0.59530249890E+01  0.99973435722E+02  0.00000000000E+00 0. -1.
         -3    1    3    3    0  502 -0.27500093422E+02 -0.18873748249E+03 -0.10196282329E+03  0.21627415418E+03  0.00000000000E+00 0.  1.
         13    1    5    5    0    0 -0.96317486625E+02  0.35030379783E+03  0.11098396613E+03  0.37987794059E+03  0.00000000000E+00 0. -1.
        -13    1    5    5    0    0  0.14873567710E+02  0.14066417198E+03  0.19031381933E+02  0.14272289863E+03  0.00000000000E+00 0.  1.
          1    1    6    6  503    0  0.12076520026E+03 -0.13695216901E+03  0.47075508241E+03  0.50492621026E+03  0.00000000000E+00 0. -1.
         -1    1    6    6    0  503 -0.91093437716E+01 -0.65519132044E+02  0.17517443227E+03  0.18724801342E+03  0.00000000000E+00 0.  1.
<mgrwt>
<rscale>  0 0.13717575E+04</rscale>
<asrwt>0</asrwt>
<pdfrwt beam="1">  1        2 0.17007367E+00 0.13717575E+04</pdfrwt>
<pdfrwt beam="2">  1       -1 0.65468276E-01 0.13717575E+04</pdfrwt>
<totfact> 0.56872168E+01</totfact>
</mgrwt>
</event>
<event>
12    7  0.1605494E-007  0.1194011E+04  0.7818608E-02  0.9118114E-01
          2   -1    0    0  501    0  0.00000000000E+00  0.00000000000E+00  0.46973953210E+03  0.46973953210E+03  0.00000000000E+00 0. -1.
         -1   -1    0    0    0  501 -0.00000000000E+00 -0.00000000000E+00 -0.75875205730E+03  0.75875205730E+03  0.00000000000E+00 0.  1.
         24    2    1    2    0    0 -0.38540066976E+01 -0.24460075751E+03 -0.69040384558E+02  0.26616610630E+03  0.78952121575E+02 0.  0.
        254    2    1    2    0    0  0.38540066976E+01  0.24460075751E+03 -0.21997214064E+03  0.96232548310E+03  0.90434407657E+03 0.  0.
         23    2    4    4    0    0 -0.24566376318E+03 -0.25090148945E+03 -0.16018408805E+03  0.39685882802E+03  0.92389097638E+02 0.  0.
         23    2    4    4    0    0  0.24951776988E+03  0.49550224697E+03 -0.59788052591E+02  0.56546665508E+03  0.91631504097E+02 0.  0.
          2    1    3    3  502    0 -0.22122756155E+01 -0.18709581378E+03 -0.15787743420E+02  0.18777377490E+03  0.00000000000E+00 0. -1.
         -1    1    3    3    0  502 -0.16417310822E+01 -0.57504943727E+02 -0.53252641137E+02  0.78392331399E+02  0.00000000000E+00 0.  1.
         13    1    5    5    0    0 -0.63388141750E+02 -0.80419874826E+02 -0.40720809317E+01  0.10247923997E+03  0.00000000000E+00 0.  1.
        -13    1    5    5    0    0 -0.18227562143E+03 -0.17048161463E+03 -0.15611200712E+03  0.29437958805E+03  0.00000000000E+00 0. -1.
          4    1    6    6  503    0  0.21827368258E+03  0.34256106558E+03 -0.42058606615E+02  0.40836308667E+03  0.00000000000E+00 0. -1.
         -4    1    6    6    0  503  0.31244087294E+02  0.15294118139E+03 -0.17729445976E+02  0.15710356842E+03  0.00000000000E+00 0.  1.
<mgrwt>
<rscale>  0 0.11940115E+04</rscale>
<asrwt>0</asrwt>
<pdfrwt beam="1">  1        2 0.72267621E-01 0.11940115E+04</pdfrwt>
<pdfrwt beam="2">  1       -1 0.11673108E+00 0.11940115E+04</pdfrwt>
<totfact> 0.49515331E+01</totfact>
</mgrwt>
</event>
<event>
12    7  0.1605494E-007  0.1480244E+04  0.7818608E-02  0.8897698E-01
         -1   -1    0    0    0  501 -0.00000000000E+00  0.00000000000E+00  0.78782286997E+03  0.78782286997E+03  0.00000000000E+00 0.  1.
          2   -1    0    0  501    0  0.00000000000E+00 -0.00000000000E+00 -0.69530934098E+03  0.69530934098E+03  0.00000000000E+00 0. -1.
         24    2    1    2    0    0 -0.42985944899E+01  0.28682877881E+03  0.39343418623E+03  0.49375341156E+03  0.81931350956E+02 0.  0.
        254    2    1    2    0    0  0.42985944899E+01 -0.28682877881E+03 -0.30092065725E+03  0.98937879939E+03  0.89779058831E+03 0.  0.
         23    2    4    4    0    0  0.13625483568E+03  0.26375460830E+03  0.52977946400E+02  0.31573594261E+03  0.93544903671E+02 0.  0.
         23    2    4    4    0    0 -0.13195624119E+03 -0.55058338711E+03 -0.35389860365E+03  0.67364285678E+03  0.89420137945E+02 0.  0.
          4    1    3    3  502    0 -0.40898211393E+02  0.10674731844E+03  0.14103573406E+03  0.18154539921E+03  0.00000000000E+00 0. -1.
         -3    1    3    3    0  502  0.36599616903E+02  0.18008146037E+03  0.25239845217E+03  0.31220801236E+03  0.00000000000E+00 0.  1.
         13    1    5    5    0    0  0.42496556068E+02  0.23717906370E+02  0.29641605553E+02  0.56983516388E+02  0.00000000000E+00 0.  1.
        -13    1    5    5    0    0  0.93758279614E+02  0.24003670194E+03  0.23336340847E+02  0.25875242622E+03  0.00000000000E+00 0. -1.
          3    1    6    6  503    0 -0.63315034194E+02 -0.24150618707E+03 -0.10471913004E+03  0.27073996407E+03  0.00000000000E+00 0. -1.
         -3    1    6    6    0  503 -0.68641206997E+02 -0.30907720004E+03 -0.24917947361E+03  0.40290289270E+03  0.00000000000E+00 0.  1.
<mgrwt>
<rscale>  0 0.14802440E+04</rscale>
<asrwt>0</asrwt>
<pdfrwt beam="1">  1        2 0.10697067E+00 0.14802440E+04</pdfrwt>
<pdfrwt beam="2">  1       -1 0.12120352E+00 0.14802440E+04</pdfrwt>
<totfact> 0.27597387E+01</totfact>
</mgrwt>
</event>
<event>
12    7  0.1605494E-007  0.1364667E+04  0.7818608E-02  0.8979799E-01
          2   -1    0    0  501    0  0.00000000000E+00  0.00000000000E+00  0.53861348583E+03  0.53861348583E+03  0.00000000000E+00 0. -1.
         -1   -1    0    0    0  501 -0.00000000000E+00 -0.00000000000E+00 -0.86440221700E+03  0.86440221700E+03  0.00000000000E+00 0.  1.
         24    2    1    2    0    0 -0.80840191446E+02  0.32926137594E+03 -0.25977393175E+03  0.43448826028E+03  0.79682886880E+02 0.  0.
        254    2    1    2    0    0  0.80840191446E+02 -0.32926137594E+03 -0.66014799429E+02  0.96852744256E+03  0.90484212048E+03 0.  0.
         23    2    4    4    0    0 -0.27512120362E+03  0.11801076673E+03 -0.20419995755E+03  0.37373537482E+03  0.91445557474E+02 0.  0.
         23    2    4    4    0    0  0.35596139507E+03 -0.44727214267E+03  0.13818515812E+03  0.59479206774E+03  0.89003266947E+02 0.  0.
          4    1    3    3  502    0 -0.23083834575E+02  0.18465897346E+03 -0.99482564777E+02  0.21101796272E+03  0.00000000000E+00 0. -1.
         -3    1    3    3    0  502 -0.57756356871E+02  0.14460240249E+03 -0.16029136697E+03  0.22347029755E+03  0.00000000000E+00 0.  1.
         13    1    5    5    0    0 -0.25861949525E+03  0.11522347761E+03 -0.21348825402E+03  0.35459516032E+03  0.00000000000E+00 0. -1.
        -13    1    5    5    0    0 -0.16501708367E+02  0.27872891187E+01  0.92882964718E+01  0.19140214497E+02  0.00000000000E+00 0.  1.
          3    1    6    6  503    0  0.28634184802E+03 -0.31303567252E+03  0.12844810877E+03  0.44326279209E+03  0.00000000000E+00 0. -1.
         -3    1    6    6    0  503  0.69619547044E+02 -0.13423647015E+03  0.97370493489E+01  0.15152927565E+03  0.00000000000E+00 0.  1.
<mgrwt>
<rscale>  0 0.13646665E+04</rscale>
<asrwt>0</asrwt>
<pdfrwt beam="1">  1        2 0.82863615E-01 0.13646665E+04</pdfrwt>
<pdfrwt beam="2">  1       -1 0.13298495E+00 0.13646665E+04</pdfrwt>
<totfact> 0.30143050E+01</totfact>
</mgrwt>
</event>
<event>
12    7  0.1605494E-007  0.1556313E+04  0.7818608E-02  0.8847845E-01
          2   -1    0    0  501    0  0.00000000000E+00  0.00000000000E+00  0.80388870074E+03  0.80388870074E+03  0.00000000000E+00 0. -1.
         -1   -1    0    0    0  501 -0.00000000000E+00 -0.00000000000E+00 -0.75324822000E+03  0.75324822000E+03  0.00000000000E+00 0.  1.
         24    2    1    2    0    0 -0.10808524345E+03  0.21973681035E+03 -0.47917574828E+03  0.54337923173E+03  0.75398316034E+02 0.  0.
        254    2    1    2    0    0  0.10808524345E+03 -0.21973681035E+03  0.52981622903E+03  0.10137576890E+04  0.82887437517E+03 0.  0.
         23    2    4    4    0    0 -0.85032607509E+02 -0.38584829344E+03  0.60930015139E+03  0.73180020357E+03  0.90417993637E+02 0.  0.
         23    2    4    4    0    0  0.19311785096E+03  0.16611148309E+03 -0.79483922362E+02  0.28195748544E+03  0.91075795403E+02 0.  0.
          2    1    3    3  502    0 -0.10512405704E+03  0.13733618910E+03 -0.34425923364E+03  0.38526187996E+03  0.00000000000E+00 0. -1.
         -1    1    3    3    0  502 -0.29611864053E+01  0.82400621249E+02 -0.13491651464E+03  0.15811735177E+03  0.00000000000E+00 0.  1.
         13    1    5    5    0    0 -0.86424131373E+02 -0.38998305224E+03  0.60755137405E+03  0.72710011940E+03  0.00000000000E+00 0.  1.
        -13    1    5    5    0    0  0.13915238640E+01  0.41347588036E+01  0.17487773372E+01  0.47000841698E+01  0.00000000000E+00 0. -1.
          2    1    6    6  503    0  0.15594035301E+03  0.84753183142E+02 -0.30863049168E+02  0.18014722744E+03  0.00000000000E+00 0. -1.
         -2    1    6    6    0  503  0.37177497946E+02  0.81358299946E+02 -0.48620873195E+02  0.10181025800E+03  0.00000000000E+00 0.  1.
<mgrwt>
<rscale>  0 0.15563132E+04</rscale>
<asrwt>0</asrwt>
<pdfrwt beam="1">  1        2 0.12367519E+00 0.15563132E+04</pdfrwt>
<pdfrwt beam="2">  1       -1 0.11588434E+00 0.15563132E+04</pdfrwt>
<totfact> 0.25339473E+01</totfact>
</mgrwt>
</event>
<event>
12    7  0.1605494E-007  0.1747122E+04  0.7818608E-02  0.8734936E-01
         -1   -1    0    0    0  501 -0.00000000000E+00  0.00000000000E+00  0.89671300652E+03  0.89671300652E+03  0.00000000000E+00 0.  1.
          2   -1    0    0  501    0  0.00000000000E+00 -0.00000000000E+00 -0.85100627736E+03  0.85100627736E+03  0.00000000000E+00 0. -1.
         24    2    1    2    0    0  0.40850807786E+03 -0.19467489734E+03 -0.43080470203E+03  0.62973210200E+03  0.78693479183E+02 0.  0.
        254    2    1    2    0    0 -0.40850807786E+03  0.19467489734E+03  0.47651143119E+03  0.11179871819E+04  0.90446394592E+03 0.  0.
         23    2    4    4    0    0  0.11602300784E+03  0.40073065337E+03  0.11894193522E+03  0.44369797175E+03  0.93135982732E+02 0.  0.
         23    2    4    4    0    0 -0.52453108569E+03 -0.20605575603E+03  0.35756949597E+03  0.67428921014E+03  0.96011249348E+02 0.  0.
          4    1    3    3  502    0  0.18534060246E+03 -0.11985497226E+03 -0.17137209980E+03  0.27943648632E+03  0.00000000000E+00 0. -1.
         -3    1    3    3    0  502  0.22316747540E+03 -0.74819925075E+02 -0.25943260223E+03  0.35029561568E+03  0.00000000000E+00 0.  1.
         13    1    5    5    0    0  0.35992314631E+02  0.24620955027E+03  0.37754705632E+02  0.25167440703E+03  0.00000000000E+00 0.  1.
        -13    1    5    5    0    0  0.80030693204E+02  0.15452110311E+03  0.81187229588E+02  0.19202356472E+03  0.00000000000E+00 0. -1.
          2    1    6    6  503    0 -0.29189057126E+03 -0.12099471542E+03  0.14405089948E+03  0.34726141218E+03  0.00000000000E+00 0. -1.
         -2    1    6    6    0  503 -0.23264051444E+03 -0.85061040615E+02  0.21351859649E+03  0.32702779795E+03  0.00000000000E+00 0.  1.
<mgrwt>
<rscale>  0 0.17471215E+04</rscale>
<asrwt>0</asrwt>
<pdfrwt beam="1">  1        2 0.13092404E+00 0.17471215E+04</pdfrwt>
<pdfrwt beam="2">  1       -1 0.13795585E+00 0.17471215E+04</pdfrwt>
<totfact> 0.14936545E+01</totfact>
</mgrwt>
</event>
<event>
12    7  0.2913539E-007  0.1426549E+04  0.7818608E-02  0.8934822E-01
          2   -1    0    0  501    0  0.00000000000E+00  0.00000000000E+00  0.20402652297E+04  0.20402652297E+04  0.00000000000E+00 0. -1.
         -1   -1    0    0    0  501 -0.00000000000E+00 -0.00000000000E+00 -0.24936011461E+03  0.24936011461E+03  0.00000000000E+00 0.  1.
         24    2    1    2    0    0  0.24348806880E+03  0.41876455020E+02  0.10978409594E+04  0.11280644113E+04  0.78958640748E+02 0.  0.
        254    2    1    2    0    0 -0.24348806880E+03 -0.41876455020E+02  0.69306415569E+03  0.11615609329E+04  0.89880242540E+03 0.  0.
         23    2    4    4    0    0 -0.57445491981E+03 -0.34866476162E+02  0.37094527701E+03  0.69068870765E+03  0.90754428485E+02 0.  0.
         23    2    4    4    0    0  0.33096685101E+03 -0.70099788571E+01  0.32211887869E+03  0.47087222529E+03  0.91498001464E+02 0.  0.
          2    1    3    3  502    0  0.21662409115E+03  0.18530338332E+02  0.83569622450E+03  0.86351464952E+03  0.00000000000E+00 0. -1.
         -1    1    3    3    0  502  0.26863977646E+02  0.23346116687E+02  0.26214473486E+03  0.26454976181E+03  0.00000000000E+00 0.  1.
         13    1    5    5    0    0 -0.43831628600E+03 -0.24439648307E+02  0.32649131373E+03  0.54709692096E+03  0.00000000000E+00 0. -1.
        -13    1    5    5    0    0 -0.13613863380E+03 -0.10426827855E+02  0.44453963278E+02  0.14359178669E+03  0.00000000000E+00 0.  1.
          3    1    6    6  503    0  0.31403463582E+03 -0.95749236777E+01  0.26428380663E+03  0.41055494408E+03  0.00000000000E+00 0. -1.
         -3    1    6    6    0  503  0.16932215190E+02  0.25649448206E+01  0.57835072059E+02  0.60317281216E+02  0.00000000000E+00 0.  1.
<mgrwt>
<rscale>  0 0.14265494E+04</rscale>
<asrwt>0</asrwt>
<pdfrwt beam="1">  1        2 0.31388695E+00 0.14265494E+04</pdfrwt>
<pdfrwt beam="2">  1       -1 0.38363096E-01 0.14265494E+04</pdfrwt>
<totfact> 0.46187844E+01</totfact>
</mgrwt>
</event>
<event>
12    7  0.1605494E-007  0.1834119E+04  0.7818608E-02  0.8688363E-01
          2   -1    0    0  501    0  0.00000000000E+00  0.00000000000E+00  0.83254374409E+03  0.83254374409E+03  0.00000000000E+00 0. -1.
         -1   -1    0    0    0  501 -0.00000000000E+00 -0.00000000000E+00 -0.10101545707E+04  0.10101545707E+04  0.00000000000E+00 0.  1.
         24    2    1    2    0    0  0.56890770250E+03  0.39473798114E+02 -0.46498067606E+03  0.74016134322E+03  0.80110112912E+02 0.  0.
        254    2    1    2    0    0 -0.56890770250E+03 -0.39473798114E+02  0.28736984945E+03  0.11025369716E+04  0.89877260115E+03 0.  0.
         23    2    4    4    0    0  0.15407224881E+03 -0.17660588383E+03 -0.93094650555E+02  0.26906341462E+03  0.93811572162E+02 0.  0.
         23    2    4    4    0    0 -0.72297995131E+03  0.13713208571E+03  0.38046450001E+03  0.83347355693E+03  0.91759007266E+02 0.  0.
          4    1    3    3  502    0  0.40540394718E+03  0.44361625024E+02 -0.28863504233E+03  0.49963036520E+03  0.00000000000E+00 0. -1.
         -3    1    3    3    0  502  0.16350375532E+03 -0.48878269102E+01 -0.17634563373E+03  0.24053097803E+03  0.00000000000E+00 0.  1.
         13    1    5    5    0    0  0.20890294712E+01 -0.32117084008E+02  0.12186276794E+02  0.34414771123E+02  0.00000000000E+00 0. -1.
        -13    1    5    5    0    0  0.15198321934E+03 -0.14448879982E+03 -0.10528092735E+03  0.23464864350E+03  0.00000000000E+00 0.  1.
          1    1    6    6  503    0 -0.12684624977E+03 -0.10291005987E+02  0.72939660297E+02  0.14668357076E+03  0.00000000000E+00 0. -1.
         -1    1    6    6    0  503 -0.59613370154E+03  0.14742309170E+03  0.30752483971E+03  0.68678998618E+03  0.00000000000E+00 0.  1.
<mgrwt>
<rscale>  0 0.18341187E+04</rscale>
<asrwt>0</asrwt>
<pdfrwt beam="1">  1        2 0.12808365E+00 0.18341187E+04</pdfrwt>
<pdfrwt beam="2">  1       -1 0.15540839E+00 0.18341187E+04</pdfrwt>
<totfact> 0.11115672E+01</totfact>
</mgrwt>
</event>
<event>
12    7  0.1605494E-007  0.2612228E+04  0.7818608E-02  0.8364060E-01
          2   -1    0    0  501    0  0.00000000000E+00  0.00000000000E+00  0.23326998563E+04  0.23326998563E+04  0.00000000000E+00 0. -1.
         -1   -1    0    0    0  501 -0.00000000000E+00 -0.00000000000E+00 -0.73131294053E+03  0.73131294053E+03  0.00000000000E+00 0.  1.
         24    2    1    2    0    0  0.55082266283E+03  0.25462020521E+03  0.18566586314E+04  0.19549234170E+04  0.79418121859E+02 0.  0.
        254    2    1    2    0    0 -0.55082266283E+03 -0.25462020521E+03 -0.25527171564E+03  0.11090893798E+04  0.89256851209E+03 0.  0.
         23    2    4    4    0    0 -0.69032790594E+03 -0.29364653711E+03  0.51869905666E+02  0.75752690149E+03  0.91518374652E+02 0.  0.
         23    2    4    4    0    0  0.13950524311E+03  0.39026331898E+02 -0.30714162131E+03  0.35156247830E+03  0.90969407894E+02 0.  0.
          4    1    3    3  502    0  0.46749673815E+03  0.23224812099E+03  0.15097527225E+04  0.15974497404E+04  0.00000000000E+00 0. -1.
         -1    1    3    3    0  502  0.83325924681E+02  0.22372084221E+02  0.34690590887E+03  0.35747367663E+03  0.00000000000E+00 0.  1.
         13    1    5    5    0    0 -0.19419257434E+03 -0.62960369837E+02  0.50851471884E+02  0.21038211971E+03  0.00000000000E+00 0. -1.
        -13    1    5    5    0    0 -0.49613533159E+03 -0.23068616727E+03  0.10184337819E+01  0.54714478178E+03  0.00000000000E+00 0.  1.
          3    1    6    6  503    0  0.35255024290E+02  0.22218224362E+02 -0.18710461735E+03  0.19168908176E+03  0.00000000000E+00 0. -1.
         -3    1    6    6    0  503  0.10425021882E+03  0.16808107535E+02 -0.12003700396E+03  0.15987339654E+03  0.00000000000E+00 0.  1.
<mgrwt>
<rscale>  0 0.26122279E+04</rscale>
<asrwt>0</asrwt>
<pdfrwt beam="1">  1        2 0.35887690E+00 0.26122279E+04</pdfrwt>
<pdfrwt beam="2">  1       -1 0.11250968E+00 0.26122279E+04</pdfrwt>
<totfact> 0.31569991E+00</totfact>
</mgrwt>
</event>
<event>
12    7  0.1605494E-007  0.1305490E+04  0.7818608E-02  0.9025223E-01
         -1   -1    0    0    0  501 -0.00000000000E+00  0.00000000000E+00  0.28365868402E+03  0.28365868402E+03  0.00000000000E+00 0.  1.
          2   -1    0    0  501    0  0.00000000000E+00 -0.00000000000E+00 -0.15020718582E+04  0.15020718582E+04  0.00000000000E+00 0. -1.
         24    2    1    2    0    0 -0.46933189383E+02 -0.16429647280E+03 -0.71936970194E+03  0.74379176071E+03  0.80853942315E+02 0.  0.
        254    2    1    2    0    0  0.46933189383E+02  0.16429647280E+03 -0.49904347220E+03  0.10419387815E+04  0.89855215873E+03 0.  0.
         23    2    4    4    0    0 -0.75169032953E+02 -0.10977628773E+03 -0.66701800726E+03  0.68631339584E+03  0.91716075128E+02 0.  0.
         23    2    4    4    0    0  0.12210222234E+03  0.27407276053E+03  0.16797453506E+03  0.35562538564E+03  0.90714605869E+02 0.  0.
          2    1    3    3  502    0 -0.64424252500E+02 -0.15756479218E+03 -0.65363084073E+03  0.67543350820E+03  0.00000000000E+00 0. -1.
         -1    1    3    3    0  502  0.17491063117E+02 -0.67316806218E+01 -0.65738861210E+02  0.68358252509E+02  0.00000000000E+00 0.  1.
         13    1    5    5    0    0 -0.41182474514E+02  0.19728638775E+00 -0.26351348097E+03  0.26671218529E+03  0.00000000000E+00 0.  1.
        -13    1    5    5    0    0 -0.33986558439E+02 -0.10997357411E+03 -0.40350452629E+03  0.41960121055E+03  0.00000000000E+00 0. -1.
          3    1    6    6  503    0  0.69029502635E+02  0.12463412456E+03  0.30392778693E+02  0.14567929927E+03  0.00000000000E+00 0. -1.
         -3    1    6    6    0  503  0.53072719700E+02  0.14943863597E+03  0.13758175637E+03  0.20994608637E+03  0.00000000000E+00 0.  1.
<mgrwt>
<rscale>  0 0.13054895E+04</rscale>
<asrwt>0</asrwt>
<pdfrwt beam="1">  1        2 0.23108798E+00 0.13054895E+04</pdfrwt>
<pdfrwt beam="2">  1       -1 0.43639797E-01 0.13054895E+04</pdfrwt>
<totfact> 0.73278124E+01</totfact>
</mgrwt>
</event>
<event>
12    7  0.1605494E-007  0.1714894E+04  0.7818608E-02  0.8752915E-01
          2   -1    0    0  501    0  0.00000000000E+00  0.00000000000E+00  0.25247196375E+04  0.25247196375E+04  0.00000000000E+00 0. -1.
         -1   -1    0    0    0  501 -0.00000000000E+00 -0.00000000000E+00 -0.29120680675E+03  0.29120680675E+03  0.00000000000E+00 0.  1.
         24    2    1    2    0    0  0.59202025401E+03 -0.16260673782E+03  0.67106498577E+03  0.91311742276E+03  0.80785396371E+02 0.  0.
        254    2    1    2    0    0 -0.59202025401E+03  0.16260673782E+03  0.15624478450E+04  0.19028090215E+04  0.89582920899E+03 0.  0.
         23    2    4    4    0    0 -0.60757723703E+03 -0.19294776397E+03  0.63087306940E+03  0.90151641559E+03  0.91389711191E+02 0.  0.
         23    2    4    4    0    0  0.15556983015E+02  0.35555450178E+03  0.93157477560E+03  0.10012926059E+04  0.89968309374E+02 0.  0.
          4    1    3    3  502    0  0.42709894691E+02 -0.25172871918E+02  0.30713345475E+02  0.58319106435E+02  0.00000000000E+00 0. -1.
         -1    1    3    3    0  502  0.54931035932E+03 -0.13743386590E+03  0.64035164030E+03  0.85479831632E+03  0.00000000000E+00 0.  1.
         13    1    5    5    0    0 -0.17367981399E+03 -0.97827383914E+02  0.17985223596E+03  0.26848035609E+03  0.00000000000E+00 0. -1.
        -13    1    5    5    0    0 -0.43389742304E+03 -0.95120380053E+02  0.45102083344E+03  0.63303605950E+03  0.00000000000E+00 0.  1.
          3    1    6    6  503    0 -0.28838017291E+02  0.25808607649E+03  0.67750764883E+03  0.72557333768E+03  0.00000000000E+00 0. -1.
         -3    1    6    6    0  503  0.44395000306E+02  0.97468425293E+02  0.25406712676E+03  0.27571926825E+03  0.00000000000E+00 0.  1.
<mgrwt>
<rscale>  0 0.17148942E+04</rscale>
<asrwt>0</asrwt>
<pdfrwt beam="1">  1        2 0.38841839E+00 0.17148942E+04</pdfrwt>
<pdfrwt beam="2">  1       -1 0.44801049E-01 0.17148942E+04</pdfrwt>
<totfact> 0.18029363E+01</totfact>
</mgrwt>
</event>
<event>
12    7  0.1605494E-007  0.2983981E+04  0.7818608E-02  0.8248320E-01
         -1   -1    0    0    0  501 -0.00000000000E+00  0.00000000000E+00  0.10381794039E+04  0.10381794039E+04  0.00000000000E+00 0.  1.
          2   -1    0    0  501    0  0.00000000000E+00 -0.00000000000E+00 -0.21441728186E+04  0.21441728186E+04  0.00000000000E+00 0. -1.
         24    2    1    2    0    0 -0.10153143493E+03  0.35415908911E+03 -0.18960471077E+04  0.19331264395E+04  0.79031030919E+02 0.  0.
        254    2    1    2    0    0  0.10153143493E+03 -0.35415908911E+03  0.79005369305E+03  0.12492257829E+04  0.89478652548E+03 0.  0.
         23    2    4    4    0    0  0.34480774199E+03 -0.46685011317E+03  0.24849670591E+03  0.63808352176E+03  0.92512489928E+02 0.  0.
         23    2    4    4    0    0 -0.24327630706E+03  0.11269102406E+03  0.54155698714E+03  0.61114226118E+03  0.91259326111E+02 0.  0.
          2    1    3    3  502    0 -0.98298099637E+02  0.32969596087E+03 -0.16285170760E+04  0.16644608166E+04  0.00000000000E+00 0. -1.
         -1    1    3    3    0  502 -0.32333352937E+01  0.24463128232E+02 -0.26753003169E+03  0.26866562295E+03  0.00000000000E+00 0.  1.
         13    1    5    5    0    0  0.21292179564E+03 -0.21376624660E+03  0.11321213602E+03  0.32225562367E+03  0.00000000000E+00 0.  1.
        -13    1    5    5    0    0  0.13188594634E+03 -0.25308386657E+03  0.13528456989E+03  0.31582789809E+03  0.00000000000E+00 0. -1.
          3    1    6    6  503    0 -0.60559833089E+02  0.72059198421E+02  0.21585477876E+03  0.23548525851E+03  0.00000000000E+00 0. -1.
         -3    1    6    6    0  503 -0.18271647397E+03  0.40631825641E+02  0.32570220838E+03  0.37565700267E+03  0.00000000000E+00 0.  1.
<mgrwt>
<rscale>  0 0.29839813E+04</rscale>
<asrwt>0</asrwt>
<pdfrwt beam="1">  1        2 0.32987274E+00 0.29839813E+04</pdfrwt>
<pdfrwt beam="2">  1       -1 0.15971991E+00 0.29839813E+04</pdfrwt>
<totfact> 0.15888516E+00</totfact>
</mgrwt>
</event>
<event>
12    7  0.1605494E-007  0.1415771E+04  0.7818608E-02  0.8942481E-01
          2   -1    0    0  501    0  0.00000000000E+00  0.00000000000E+00  0.28872726230E+03  0.28872726230E+03  0.00000000000E+00 0. -1.
         -1   -1    0    0    0  501 -0.00000000000E+00 -0.00000000000E+00 -0.17355537096E+04  0.17355537096E+04  0.00000000000E+00 0.  1.
         24    2    1    2    0    0  0.38876747863E+03 -0.89538535667E+02 -0.23684971098E+03  0.47072472919E+03  0.79540450539E+02 0.  0.
        254    2    1    2    0    0 -0.38876747863E+03  0.89538535667E+02 -0.12099767363E+04  0.15535562427E+04  0.88900843360E+03 0.  0.
         23    2    4    4    0    0  0.15064132995E+03 -0.20396416072E+03 -0.10462346743E+03  0.28573202662E+03  0.80015823157E+02 0.  0.
         23    2    4    4    0    0 -0.53940880858E+03  0.29350269638E+03 -0.11053532689E+04  0.12678242161E+04  0.92014663461E+02 0.  0.
          2    1    3    3  502    0 -0.14361068021E+01 -0.89239921174E+00  0.35397068370E+01  0.39227928306E+01  0.00000000000E+00 0. -1.
         -1    1    3    3    0  502  0.39020358543E+03 -0.88646136455E+02 -0.24038941782E+03  0.46680193636E+03  0.00000000000E+00 0.  1.
         13    1    5    5    0    0  0.14122544110E+03 -0.21072077265E+03 -0.95759401274E+02  0.27114153532E+03  0.00000000000E+00 0. -1.
        -13    1    5    5    0    0  0.94158888464E+01  0.67566119395E+01 -0.88640661525E+01  0.14590491302E+02  0.00000000000E+00 0.  1.
          1    1    6    6  503    0 -0.47942031721E+03  0.29034851307E+03 -0.10110307659E+04  0.11559971060E+04  0.00000000000E+00 0. -1.
         -1    1    6    6    0  503 -0.59988491366E+02  0.31541833096E+01 -0.94322502999E+02  0.11182711004E+03  0.00000000000E+00 0.  1.
<mgrwt>
<rscale>  0 0.14157707E+04</rscale>
<asrwt>0</asrwt>
<pdfrwt beam="1">  1        2 0.44419578E-01 0.14157707E+04</pdfrwt>
<pdfrwt beam="2">  1       -1 0.26700827E+00 0.14157707E+04</pdfrwt>
<totfact> 0.69057194E+00</totfact>
</mgrwt>
</event>
<event>
12    7  0.1605494E-007  0.1995646E+04  0.7818608E-02  0.8608659E-01
         -1   -1    0    0    0  501 -0.00000000000E+00  0.00000000000E+00  0.39072881972E+03  0.39072881972E+03  0.00000000000E+00 0.  1.
          2   -1    0    0  501    0  0.00000000000E+00 -0.00000000000E+00 -0.25481884581E+04  0.25481884581E+04  0.00000000000E+00 0. -1.
         24    2    1    2    0    0  0.72797934591E+03 -0.29030571991E+03 -0.10244597383E+04  0.12923129233E+04  0.79521049073E+02 0.  0.
        254    2    1    2    0    0 -0.72797934591E+03  0.29030571991E+03 -0.11329999001E+04  0.16466043545E+04  0.90187903159E+03 0.  0.
         23    2    4    4    0    0 -0.68028177680E+03  0.51151493063E+03 -0.55658743874E+03  0.10207211516E+04  0.87471550600E+02 0.  0.
         23    2    4    4    0    0 -0.47697569112E+02 -0.22120921073E+03 -0.57641246135E+03  0.62588320296E+03  0.90938908822E+02 0.  0.
          2    1    3    3  502    0  0.64977427200E+03 -0.28044976304E+03 -0.94213936977E+03  0.11783400469E+04  0.00000000000E+00 0. -1.
         -1    1    3    3    0  502  0.78205073913E+02 -0.98559568673E+01 -0.82320368503E+02  0.11397287634E+03  0.00000000000E+00 0.  1.
         13    1    5    5    0    0 -0.20457176099E+02  0.34775386163E+02 -0.38737346513E+02  0.55932151323E+02  0.00000000000E+00 0. -1.
        -13    1    5    5    0    0 -0.65982460070E+03  0.47673954447E+03 -0.51785009223E+03  0.96478900024E+03  0.00000000000E+00 0.  1.
          2    1    6    6  503    0 -0.37806155184E+01 -0.58765847585E+01 -0.11071903419E+03  0.11093931599E+03  0.00000000000E+00 0. -1.
         -2    1    6    6    0  503 -0.43916953594E+02 -0.21533262597E+03 -0.46569342717E+03  0.51494388697E+03  0.00000000000E+00 0.  1.
<mgrwt>
<rscale>  0 0.19956459E+04</rscale>
<asrwt>0</asrwt>
<pdfrwt beam="1">  1        2 0.39202901E+00 0.19956459E+04</pdfrwt>
<pdfrwt beam="2">  1       -1 0.60112124E-01 0.19956459E+04</pdfrwt>
<totfact> 0.96949113E+00</totfact>
</mgrwt>
</event>
<event>
12    7  0.1605494E-007  0.1121195E+04  0.7818608E-02  0.9184776E-01
         -1   -1    0    0    0  501 -0.00000000000E+00  0.00000000000E+00  0.91051592508E+02  0.91051592508E+02  0.00000000000E+00 0.  1.
          2   -1    0    0  501    0  0.00000000000E+00 -0.00000000000E+00 -0.34515575098E+04  0.34515575098E+04  0.00000000000E+00 0. -1.
         24    2    1    2    0    0  0.25226344627E+02 -0.17153269430E+03 -0.16901752339E+04  0.17008419429E+04  0.78173905940E+02 0.  0.
        254    2    1    2    0    0 -0.25226344627E+02  0.17153269430E+03 -0.16703306834E+04  0.18417671595E+04  0.75633447901E+03 0.  0.
         23    2    4    4    0    0  0.27577185881E+03 -0.80781840109E+02 -0.35219439452E+03  0.46336275365E+03  0.89935121796E+02 0.  0.
         23    2    4    4    0    0 -0.30099820344E+03  0.25231453441E+03 -0.13181362889E+04  0.13784044058E+04  0.90845402672E+02 0.  0.
          2    1    3    3  502    0  0.29033000558E+02 -0.17587344701E+03 -0.16771297013E+04  0.16865759453E+04  0.00000000000E+00 0. -1.
         -1    1    3    3    0  502 -0.38066559308E+01  0.43407527114E+01 -0.13045532644E+02  0.14265997527E+02  0.00000000000E+00 0.  1.
         13    1    5    5    0    0  0.62525403428E+00 -0.13389999720E+02 -0.38123351097E+02  0.40411297108E+02  0.00000000000E+00 0.  1.
        -13    1    5    5    0    0  0.27514660478E+03 -0.67391840389E+02 -0.31407104342E+03  0.42295145654E+03  0.00000000000E+00 0. -1.
          1    1    6    6  503    0 -0.27760499609E+03  0.24657694904E+03 -0.11475046831E+04  0.12060811430E+04  0.00000000000E+00 0. -1.
         -1    1    6    6    0  503 -0.23393207348E+02  0.57375853743E+01 -0.17063160576E+03  0.17232326285E+03  0.00000000000E+00 0.  1.
<mgrwt>
<rscale>  0 0.11211954E+04</rscale>
<asrwt>0</asrwt>
<pdfrwt beam="1">  1        2 0.53100873E+00 0.11211954E+04</pdfrwt>
<pdfrwt beam="2">  1       -1 0.14007940E-01 0.11211954E+04</pdfrwt>
<totfact> 0.37571237E+01</totfact>
</mgrwt>
</event>
<event>
12    7  0.1605494E-007  0.2319128E+04  0.7818608E-02  0.8470417E-01
         -1   -1    0    0    0  501 -0.00000000000E+00  0.00000000000E+00  0.52360392579E+03  0.52360392579E+03  0.00000000000E+00 0.  1.
          2   -1    0    0  501    0  0.00000000000E+00 -0.00000000000E+00 -0.25679494530E+04  0.25679494530E+04  0.00000000000E+00 0. -1.
         24    2    1    2    0    0 -0.37397971181E+03 -0.69537417795E+03 -0.52767290347E+02  0.79542562171E+03  0.80693621369E+02 0.  0.
        254    2    1    2    0    0  0.37397971181E+03  0.69537417795E+03 -0.19915782368E+04  0.22961277571E+04  0.82608276283E+03 0.  0.
         23    2    4    4    0    0 -0.20871159267E+03  0.15409289203E+03 -0.90975122893E+03  0.95032479986E+03  0.90359163348E+02 0.  0.
         23    2    4    4    0    0  0.58269130448E+03  0.54128128593E+03 -0.10818270079E+04  0.13458029572E+04  0.91221366622E+02 0.  0.
          2    1    3    3  502    0 -0.12985408762E+03 -0.24742472863E+03 -0.57338755981E+02  0.28525219254E+03  0.00000000000E+00 0. -1.
         -1    1    3    3    0  502 -0.24412562419E+03 -0.44794944932E+03  0.45714656339E+01  0.51017342917E+03  0.00000000000E+00 0.  1.
         13    1    5    5    0    0 -0.45920966134E+02  0.43153107171E+02 -0.11100832672E+03  0.12764706965E+03  0.00000000000E+00 0. -1.
        -13    1    5    5    0    0 -0.16279062654E+03  0.11093978486E+03 -0.79874290221E+03  0.82267773021E+03  0.00000000000E+00 0.  1.
          1    1    6    6  503    0  0.91143986787E+02  0.49425343401E+02 -0.16928325506E+03  0.19851174107E+03  0.00000000000E+00 0. -1.
         -1    1    6    6    0  503  0.49154731770E+03  0.49185594253E+03 -0.91254375285E+03  0.11472912161E+04  0.00000000000E+00 0.  1.
<mgrwt>
<rscale>  0 0.23191278E+04</rscale>
<asrwt>0</asrwt>
<pdfrwt beam="1">  1        2 0.39506915E+00 0.23191278E+04</pdfrwt>
<pdfrwt beam="2">  1       -1 0.80554450E-01 0.23191278E+04</pdfrwt>
<totfact> 0.50304091E+00</totfact>
</mgrwt>
</event>
<event>
12    7  0.1605494E-007  0.1558638E+04  0.7818608E-02  0.8846369E-01
          2   -1    0    0  501    0  0.00000000000E+00  0.00000000000E+00  0.88201761733E+03  0.88201761733E+03  0.00000000000E+00 0. -1.
         -1   -1    0    0    0  501 -0.00000000000E+00 -0.00000000000E+00 -0.68857792055E+03  0.68857792055E+03  0.00000000000E+00 0.  1.
         24    2    1    2    0    0  0.32895552807E+03 -0.20423602461E+03  0.34595572717E+03  0.52645560815E+03  0.86867997527E+02 0.  0.
        254    2    1    2    0    0 -0.32895552807E+03  0.20423602461E+03 -0.15251603040E+03  0.10441399297E+04  0.95762360044E+03 0.  0.
         23    2    4    4    0    0  0.20414071332E+03 -0.22587172171E+03  0.55731747479E+02  0.32267407028E+03  0.91219857759E+02 0.  0.
         23    2    4    4    0    0 -0.53309624139E+03  0.43010774632E+03 -0.20824777788E+03  0.72146585945E+03  0.89227648898E+02 0.  0.
          4    1    3    3  502    0  0.28694390141E+03 -0.14076805456E+03  0.26336655832E+03  0.41414296056E+03  0.00000000000E+00 0. -1.
         -3    1    3    3    0  502  0.42011626663E+02 -0.63467970052E+02  0.82589168858E+02  0.11231264760E+03  0.00000000000E+00 0.  1.
         13    1    5    5    0    0  0.13462575069E+03 -0.19642938102E+03  0.19488219133E+02  0.23893175838E+03  0.00000000000E+00 0. -1.
        -13    1    5    5    0    0  0.69514962636E+02 -0.29442340685E+02  0.36243528346E+02  0.83742311899E+02  0.00000000000E+00 0.  1.
          4    1    6    6  503    0 -0.49790310271E+03  0.37588497262E+03 -0.17103426023E+03  0.64687690522E+03  0.00000000000E+00 0. -1.
         -4    1    6    6    0  503 -0.35193138684E+02  0.54222773698E+02 -0.37213517642E+02  0.74588954230E+02  0.00000000000E+00 0.  1.
<mgrwt>
<rscale>  0 0.15586377E+04</rscale>
<asrwt>0</asrwt>
<pdfrwt beam="1">  1        2 0.13569502E+00 0.15586377E+04</pdfrwt>
<pdfrwt beam="2">  1       -1 0.10593506E+00 0.15586377E+04</pdfrwt>
<totfact> 0.27622116E+01</totfact>
</mgrwt>
</event>
<event>
12    7  0.1605494E-007  0.1225305E+04  0.7818608E-02  0.9090991E-01
         -1   -1    0    0    0  501 -0.00000000000E+00  0.00000000000E+00  0.22320675715E+03  0.22320675715E+03  0.00000000000E+00 0.  1.
          2   -1    0    0  501    0  0.00000000000E+00 -0.00000000000E+00 -0.16815927709E+04  0.16815927709E+04  0.00000000000E+00 0. -1.
         24    2    1    2    0    0  0.11346679500E+03  0.10899885300E+03 -0.67001025133E+03  0.69285592211E+03  0.79875705938E+02 0.  0.
        254    2    1    2    0    0 -0.11346679500E+03 -0.10899885300E+03 -0.78837576247E+03  0.12119436060E+04  0.90692640149E+03 0.  0.
         23    2    4    4    0    0  0.18475614545E+03 -0.15297086005E+03  0.95099449129E+02  0.27424588270E+03  0.92908458423E+02 0.  0.
         23    2    4    4    0    0 -0.29822294045E+03  0.43972007054E+02 -0.88347521160E+03  0.93769772328E+03  0.88758724241E+02 0.  0.
          2    1    3    3  502    0  0.27653890090E+02  0.32591786810E+02 -0.35464663378E+03  0.35721309754E+03  0.00000000000E+00 0. -1.
         -1    1    3    3    0  502  0.85812904906E+02  0.76407066186E+02 -0.31536361755E+03  0.33564282457E+03  0.00000000000E+00 0.  1.
         13    1    5    5    0    0  0.11707203804E+03 -0.10122180954E+03  0.10709555685E+03  0.18820514104E+03  0.00000000000E+00 0.  1.
        -13    1    5    5    0    0  0.67684107419E+02 -0.51749050508E+02 -0.11996107719E+02  0.86040741663E+02  0.00000000000E+00 0. -1.
          3    1    6    6  503    0 -0.92982135596E+02  0.38496732897E+02 -0.19758576286E+03  0.22173815564E+03  0.00000000000E+00 0. -1.
         -3    1    6    6    0  503 -0.20524080485E+03  0.54752741571E+01 -0.68588944874E+03  0.71595956764E+03  0.00000000000E+00 0.  1.
<mgrwt>
<rscale>  0 0.12253046E+04</rscale>
<asrwt>0</asrwt>
<pdfrwt beam="1">  1        2 0.25870657E+00 0.12253046E+04</pdfrwt>
<pdfrwt beam="2">  1       -1 0.34339502E-01 0.12253046E+04</pdfrwt>
<totfact> 0.90472614E+01</totfact>
</mgrwt>
</event>
<event>
12    7  0.1605494E-007  0.1581813E+04  0.7818608E-02  0.8831800E-01
         -1   -1    0    0    0  501 -0.00000000000E+00  0.00000000000E+00  0.57960068731E+03  0.57960068731E+03  0.00000000000E+00 0.  1.
          2   -1    0    0  501    0  0.00000000000E+00 -0.00000000000E+00 -0.10792481619E+04  0.10792481619E+04  0.00000000000E+00 0. -1.
         24    2    1    2    0    0  0.70840448984E+02  0.52221969764E+03 -0.24793152883E+03  0.58804142726E+03  0.81184329578E+02 0.  0.
        254    2    1    2    0    0 -0.70840448984E+02 -0.52221969764E+03 -0.25171594581E+03  0.10708074220E+04  0.89751648220E+03 0.  0.
         23    2    4    4    0    0 -0.10223656768E+03 -0.73496640605E+03 -0.33977614450E+03  0.82066176814E+03  0.86081214762E+02 0.  0.
         23    2    4    4    0    0  0.31396118696E+02  0.21274670840E+03  0.88060198688E+02  0.25014565386E+03  0.92581700924E+02 0.  0.
          2    1    3    3  502    0  0.62423913636E+02  0.39625124107E+03 -0.22433354966E+03  0.45960562719E+03  0.00000000000E+00 0. -1.
         -1    1    3    3    0  502  0.84165353485E+01  0.12596845657E+03 -0.23597979168E+02  0.12843580007E+03  0.00000000000E+00 0.  1.
         13    1    5    5    0    0 -0.28565832496E+01 -0.58185751626E+02 -0.53636900594E+02  0.79187491850E+02  0.00000000000E+00 0.  1.
        -13    1    5    5    0    0 -0.99379984431E+02 -0.67678065442E+03 -0.28613924390E+03  0.74147427629E+03  0.00000000000E+00 0. -1.
          4    1    6    6  503    0  0.20511074422E+01  0.96800361919E+02 -0.74199304140E+01  0.97105985793E+02  0.00000000000E+00 0. -1.
         -4    1    6    6    0  503  0.29345011254E+02  0.11594634648E+03  0.95480129102E+02  0.15303966807E+03  0.00000000000E+00 0.  1.
<mgrwt>
<rscale>  0 0.15818129E+04</rscale>
<asrwt>0</asrwt>
<pdfrwt beam="1">  1        2 0.16603818E+00 0.15818129E+04</pdfrwt>
<pdfrwt beam="2">  1       -1 0.89169338E-01 0.15818129E+04</pdfrwt>
<totfact> 0.30311960E+01</totfact>
</mgrwt>
</event>
<event>
12    7  0.1605494E-007  0.1097980E+04  0.7818608E-02  0.9207163E-01
         -1   -1    0    0    0  501 -0.00000000000E+00  0.00000000000E+00  0.16745020413E+03  0.16745020413E+03  0.00000000000E+00 0.  1.
          2   -1    0    0  501    0  0.00000000000E+00 -0.00000000000E+00 -0.17998780492E+04  0.17998780492E+04  0.00000000000E+00 0. -1.
         24    2    1    2    0    0 -0.32654689879E+02  0.23621535364E+02 -0.54013116824E+03  0.54780081381E+03  0.81974063033E+02 0.  0.
        254    2    1    2    0    0  0.32654689879E+02 -0.23621535364E+02 -0.10922966769E+04  0.14195274396E+04  0.90571618934E+03 0.  0.
         23    2    4    4    0    0  0.30141818923E+03 -0.22267162134E+03 -0.98366249810E+03  0.10565604416E+04  0.91063060244E+02 0.  0.
         23    2    4    4    0    0 -0.26876349935E+03  0.19905008598E+03 -0.10863417878E+03  0.36296699791E+03  0.89938320333E+02 0.  0.
          2    1    3    3  502    0 -0.20708101551E+02 -0.63813885511E+01 -0.47100527782E+03  0.47150346692E+03  0.00000000000E+00 0. -1.
         -1    1    3    3    0  502 -0.11946588328E+02  0.30002923915E+02 -0.69125890419E+02  0.76297346890E+02  0.00000000000E+00 0.  1.
         13    1    5    5    0    0  0.21713505795E+03 -0.20623116681E+03 -0.78183054999E+03  0.83722036314E+03  0.00000000000E+00 0.  1.
        -13    1    5    5    0    0  0.84283131279E+02 -0.16440454529E+02 -0.20183194811E+03  0.21934007851E+03  0.00000000000E+00 0. -1.
          3    1    6    6  503    0 -0.70047745871E+02  0.77703461616E+01 -0.20102605932E+02  0.73288332949E+02  0.00000000000E+00 0. -1.
         -3    1    6    6    0  503 -0.19871575348E+03  0.19127973982E+03 -0.88531572847E+02  0.28967866496E+03  0.00000000000E+00 0.  1.
<mgrwt>
<rscale>  0 0.10979799E+04</rscale>
<asrwt>0</asrwt>
<pdfrwt beam="1">  1        2 0.27690431E+00 0.10979799E+04</pdfrwt>
<pdfrwt beam="2">  1       -1 0.25761570E-01 0.10979799E+04</pdfrwt>
<totfact> 0.12994051E+02</totfact>
</mgrwt>
</event>
<event>
12    7  0.1605494E-007  0.1645075E+04  0.7818608E-02  0.8793325E-01
          2   -1    0    0  501    0  0.00000000000E+00  0.00000000000E+00  0.10915487072E+04  0.10915487072E+04  0.00000000000E+00 0. -1.
         -1   -1    0    0    0  501 -0.00000000000E+00 -0.00000000000E+00 -0.61982416717E+03  0.61982416717E+03  0.00000000000E+00 0.  1.
         24    2    1    2    0    0 -0.36889310560E+03 -0.17951367492E+03  0.63601193956E+03  0.76119592471E+03  0.81245096400E+02 0.  0.
        254    2    1    2    0    0  0.36889310560E+03  0.17951367492E+03 -0.16428739950E+03  0.95017694969E+03  0.84115313900E+03 0.  0.
         23    2    4    4    0    0  0.94729584157E+02  0.45338945960E+03 -0.26388225683E+03  0.53993225422E+03  0.85774690225E+02 0.  0.
         23    2    4    4    0    0  0.27416352144E+03 -0.27387578468E+03  0.99594857333E+02  0.41024469547E+03  0.90597972559E+02 0.  0.
          4    1    3    3  502    0 -0.31887000149E+03 -0.13305113229E+03  0.48520278280E+03  0.59565293762E+03  0.00000000000E+00 0. -1.
         -3    1    3    3    0  502 -0.50023104101E+02 -0.46462542629E+02  0.15080915676E+03  0.16554298709E+03  0.00000000000E+00 0.  1.
         13    1    5    5    0    0  0.27830891575E+02  0.29648247754E+03 -0.19513982333E+03  0.35602804477E+03  0.00000000000E+00 0. -1.
        -13    1    5    5    0    0  0.66898692582E+02  0.15690698206E+03 -0.68742433501E+02  0.18390420945E+03  0.00000000000E+00 0.  1.
          1    1    6    6  503    0  0.10162477617E+03 -0.64410723122E+02  0.64767503489E+02  0.13664247470E+03  0.00000000000E+00 0. -1.
         -1    1    6    6    0  503  0.17253874527E+03 -0.20946506156E+03  0.34827353844E+02  0.27360222077E+03  0.00000000000E+00 0.  1.
<mgrwt>
<rscale>  0 0.16450754E+04</rscale>
<asrwt>0</asrwt>
<pdfrwt beam="1">  1        2 0.16793057E+00 0.16450754E+04</pdfrwt>
<pdfrwt beam="2">  1       -1 0.95357564E-01 0.16450754E+04</pdfrwt>
<totfact> 0.25522976E+01</totfact>
</mgrwt>
</event>
<event>
12    7  0.1605494E-007  0.2942447E+04  0.7818608E-02  0.8260359E-01
         -1   -1    0    0    0  501 -0.00000000000E+00  0.00000000000E+00  0.63360635389E+03  0.63360635389E+03  0.00000000000E+00 0.  1.
          2   -1    0    0  501    0  0.00000000000E+00 -0.00000000000E+00 -0.34161575534E+04  0.34161575534E+04  0.00000000000E+00 0. -1.
         24    2    1    2    0    0  0.25484766851E+03 -0.27638231663E+03 -0.30262395702E+04  0.30504784650E+04  0.77190738531E+02 0.  0.
        254    2    1    2    0    0 -0.25484766851E+03  0.27638231663E+03  0.24368837060E+03  0.99928544237E+03  0.89322609359E+03 0.  0.
         23    2    4    4    0    0 -0.27716507959E+03  0.57276183471E+03  0.24460497537E+03  0.68800051378E+03  0.92932837785E+02 0.  0.
         23    2    4    4    0    0  0.22317411085E+02 -0.29637951808E+03 -0.91660476742E+00  0.31128492859E+03  0.92512599282E+02 0.  0.
          2    1    3    3  502    0  0.22935237075E+03 -0.26304213129E+03 -0.26074099601E+04  0.26306615846E+04  0.00000000000E+00 0. -1.
         -1    1    3    3    0  502  0.25495297751E+02 -0.13340185340E+02 -0.41882961005E+03  0.41981688033E+03  0.00000000000E+00 0.  1.
         13    1    5    5    0    0 -0.16425665524E+02  0.87027708304E+01 -0.34612089839E+01  0.18908217146E+02  0.00000000000E+00 0. -1.
        -13    1    5    5    0    0 -0.26073941407E+03  0.56405906388E+03  0.24806618435E+03  0.66909229663E+03  0.00000000000E+00 0.  1.
          4    1    6    6  503    0 -0.20560777423E+02 -0.21181456817E+03 -0.22648325216E+02  0.21401192372E+03  0.00000000000E+00 0. -1.
         -4    1    6    6    0  503  0.42878188508E+02 -0.84564949911E+02  0.21731720448E+02  0.97273004872E+02  0.00000000000E+00 0.  1.
<mgrwt>
<rscale>  0 0.29424474E+04</rscale>
<asrwt>0</asrwt>
<pdfrwt beam="1">  1        2 0.52556269E+00 0.29424474E+04</pdfrwt>
<pdfrwt beam="2">  1       -1 0.97477902E-01 0.29424474E+04</pdfrwt>
<totfact> 0.91693415E-01</totfact>
</mgrwt>
</event>
<event>
12    7  0.1605494E-007  0.1536627E+04  0.7818608E-02  0.8860455E-01
         -1   -1    0    0    0  501 -0.00000000000E+00  0.00000000000E+00  0.19962607635E+03  0.19962607635E+03  0.00000000000E+00 0.  1.
          2   -1    0    0  501    0  0.00000000000E+00 -0.00000000000E+00 -0.29570580104E+04  0.29570580104E+04  0.00000000000E+00 0. -1.
         24    2    1    2    0    0 -0.39295370320E+03 -0.22007436167E+03 -0.46401172920E+03  0.65184751187E+03  0.82176373628E+02 0.  0.
        254    2    1    2    0    0  0.39295370320E+03  0.22007436167E+03 -0.22934202048E+04  0.25048365748E+04  0.90087995500E+03 0.  0.
         23    2    4    4    0    0  0.27123878580E+03 -0.32924299583E+03 -0.10503327466E+04  0.11372593867E+04  0.90490910349E+02 0.  0.
         23    2    4    4    0    0  0.12171491739E+03  0.54931735750E+03 -0.12430874582E+04  0.13675771881E+04  0.91852361847E+02 0.  0.
          4    1    3    3  502    0 -0.38509047539E+03 -0.19846140017E+03 -0.42708764424E+03  0.60834649457E+03  0.00000000000E+00 0. -1.
         -3    1    3    3    0  502 -0.78632278029E+01 -0.21612961497E+02 -0.36924084960E+02  0.43501017301E+02  0.00000000000E+00 0.  1.
         13    1    5    5    0    0  0.98835381250E+01 -0.21376736972E+01 -0.77435542720E+02  0.78093003855E+02  0.00000000000E+00 0. -1.
        -13    1    5    5    0    0  0.26135524768E+03 -0.32710532213E+03 -0.97289720389E+03  0.10591663829E+04  0.00000000000E+00 0.  1.
          1    1    6    6  503    0  0.10435755631E+03  0.51854004015E+03 -0.11054573522E+04  0.12254836720E+04  0.00000000000E+00 0. -1.
         -1    1    6    6    0  503  0.17357361085E+02  0.30777317342E+02 -0.13763010602E+03  0.14209351614E+03  0.00000000000E+00 0.  1.
<mgrwt>
<rscale>  0 0.15366273E+04</rscale>
<asrwt>0</asrwt>
<pdfrwt beam="1">  1        2 0.45493198E+00 0.15366273E+04</pdfrwt>
<pdfrwt beam="2">  1       -1 0.30711706E-01 0.15366273E+04</pdfrwt>
<totfact> 0.20023840E+01</totfact>
</mgrwt>
</event>
<event>
12    7  0.1605494E-007  0.2086724E+04  0.7818608E-02  0.8567114E-01
         -1   -1    0    0    0  501 -0.00000000000E+00  0.00000000000E+00  0.83881730858E+03  0.83881730858E+03  0.00000000000E+00 0.  1.
          2   -1    0    0  501    0  0.00000000000E+00 -0.00000000000E+00 -0.12977845718E+04  0.12977845718E+04  0.00000000000E+00 0. -1.
         24    2    1    2    0    0  0.54969110318E+03 -0.58294019640E+03 -0.47117056008E+03  0.93304790785E+03  0.81222657933E+02 0.  0.
        254    2    1    2    0    0 -0.54969110318E+03  0.58294019640E+03  0.12203296916E+02  0.12035539725E+04  0.89800538012E+03 0.  0.
         23    2    4    4    0    0 -0.58578289681E+03  0.23517181283E+03  0.33380485520E+03  0.71983737873E+03  0.91064739130E+02 0.  0.
         23    2    4    4    0    0  0.36091793632E+02  0.34776838357E+03 -0.32160155828E+03  0.48371659375E+03  0.91152150862E+02 0.  0.
          4    1    3    3  502    0  0.43541347016E+03 -0.46302584870E+03 -0.33416098601E+03  0.71808174404E+03  0.00000000000E+00 0. -1.
         -3    1    3    3    0  502  0.11427763302E+03 -0.11991434770E+03 -0.13700957408E+03  0.21496616381E+03  0.00000000000E+00 0.  1.
         13    1    5    5    0    0 -0.36719996460E+03  0.10483348853E+03  0.17683032506E+03  0.42082637534E+03  0.00000000000E+00 0.  1.
        -13    1    5    5    0    0 -0.21858293221E+03  0.13033832430E+03  0.15697453014E+03  0.29901100339E+03  0.00000000000E+00 0. -1.
          1    1    6    6  503    0  0.31944846478E+02  0.31188648126E+02 -0.36644715480E+02  0.57758463977E+02  0.00000000000E+00 0. -1.
         -1    1    6    6    0  503  0.41469471539E+01  0.31657973544E+03 -0.28495684280E+03  0.42595812977E+03  0.00000000000E+00 0.  1.
<mgrwt>
<rscale>  0 0.20867239E+04</rscale>
<asrwt>0</asrwt>
<pdfrwt beam="1">  1        2 0.19965917E+00 0.20867239E+04</pdfrwt>
<pdfrwt beam="2">  1       -1 0.12904882E+00 0.20867239E+04</pdfrwt>
<totfact> 0.90084738E+00</totfact>
</mgrwt>
</event>
<event>
12    7  0.1605494E-007  0.1445910E+04  0.7818608E-02  0.8921241E-01
         -3   -1    0    0    0  501 -0.00000000000E+00  0.00000000000E+00  0.13322293712E+04  0.13322293712E+04  0.00000000000E+00 0.  1.
          4   -1    0    0  501    0  0.00000000000E+00 -0.00000000000E+00 -0.39232297838E+03  0.39232297838E+03  0.00000000000E+00 0. -1.
         24    2    1    2    0    0  0.28691346774E+03  0.57606757971E+02 -0.99328065861E+02  0.31891800082E+03  0.78770235772E+02 0.  0.
        254    2    1    2    0    0 -0.28691346774E+03 -0.57606757971E+02  0.10392344586E+04  0.14056343487E+04  0.90008987649E+03 0.  0.
         23    2    4    4    0    0  0.27484553276E+03  0.10511802994E+03  0.57880327289E+03  0.65573624602E+03  0.91580175494E+02 0.  0.
         23    2    4    4    0    0 -0.56175900050E+03 -0.16272478791E+03  0.46043118575E+03  0.74989810270E+03  0.91092021530E+02 0.  0.
          4    1    3    3  502    0  0.22639780801E+03  0.35734949488E+02 -0.42579551481E+02  0.23312222608E+03  0.00000000000E+00 0. -1.
         -3    1    3    3    0  502  0.60515659725E+02  0.21871808483E+02 -0.56748514380E+02  0.85795774737E+02  0.00000000000E+00 0.  1.
         13    1    5    5    0    0  0.57620111349E+02  0.51369789717E+02  0.21700580904E+03  0.23032684100E+03  0.00000000000E+00 0.  1.
        -13    1    5    5    0    0  0.21722542141E+03  0.53748240221E+02  0.36179746384E+03  0.42540940502E+03  0.00000000000E+00 0. -1.
          3    1    6    6  503    0 -0.50041817216E+03 -0.15999299231E+03  0.43969473959E+03  0.68508946032E+03  0.00000000000E+00 0. -1.
         -3    1    6    6    0  503 -0.61340828333E+02 -0.27317955995E+01  0.20736446155E+02  0.64808642379E+02  0.00000000000E+00 0.  1.
<mgrwt>
<rscale>  0 0.14459104E+04</rscale>
<asrwt>0</asrwt>
<pdfrwt beam="1">  1        4 0.60357382E-01 0.14459104E+04</pdfrwt>
<pdfrwt beam="2">  1       -3 0.20495836E+00 0.14459104E+04</pdfrwt>
<totfact> 0.78398647E-01</totfact>
</mgrwt>
</event>
<event>
12    7  0.1605494E-007  0.2581459E+04  0.7818608E-02  0.8374527E-01
          2   -1    0    0  501    0  0.00000000000E+00  0.00000000000E+00  0.12532995492E+04  0.12532995492E+04  0.00000000000E+00 0. -1.
         -1   -1    0    0    0  501 -0.00000000000E+00 -0.00000000000E+00 -0.13292769670E+04  0.13292769670E+04  0.00000000000E+00 0.  1.
         24    2    1    2    0    0  0.98331530503E+03  0.24454117517E+03 -0.52956353690E+03  0.11461047753E+04  0.80057735034E+02 0.  0.
        254    2    1    2    0    0 -0.98331530503E+03 -0.24454117517E+03  0.45358611907E+03  0.14364717409E+04  0.91159273769E+03 0.  0.
         23    2    4    4    0    0 -0.86838644352E+02  0.20815274287E+03 -0.12558682364E+03  0.27354247357E+03  0.90470548009E+02 0.  0.
         23    2    4    4    0    0 -0.89647666068E+03 -0.45269391804E+03  0.57917294272E+03  0.11629292673E+04  0.91438485248E+02 0.  0.
          2    1    3    3  502    0  0.43754681250E+03  0.12275837748E+03 -0.27979194752E+03  0.53366690573E+03  0.00000000000E+00 0. -1.
         -1    1    3    3    0  502  0.54576849253E+03  0.12178279769E+03 -0.24977158938E+03  0.61243786959E+03  0.00000000000E+00 0.  1.
         13    1    5    5    0    0 -0.88846984028E+02  0.21464357419E+03 -0.12923216485E+03  0.26583190731E+03  0.00000000000E+00 0.  1.
        -13    1    5    5    0    0  0.20083396756E+01 -0.64908313235E+01  0.36453412063E+01  0.77105662589E+01  0.00000000000E+00 0. -1.
          2    1    6    6  503    0 -0.10869640537E+03 -0.84127131589E+02  0.59574757365E+02  0.14980465455E+03  0.00000000000E+00 0. -1.
         -2    1    6    6    0  503 -0.78778025531E+03 -0.36856678645E+03  0.51959818535E+03  0.10131246127E+04  0.00000000000E+00 0.  1.
<mgrwt>
<rscale>  0 0.25814587E+04</rscale>
<asrwt>0</asrwt>
<pdfrwt beam="1">  1        2 0.19281532E+00 0.25814587E+04</pdfrwt>
<pdfrwt beam="2">  1       -1 0.20450415E+00 0.25814587E+04</pdfrwt>
<totfact> 0.24911870E+00</totfact>
</mgrwt>
</event>
<event>
12    7  0.1605494E-007  0.1662777E+04  0.7818608E-02  0.8782884E-01
          2   -1    0    0  501    0  0.00000000000E+00  0.00000000000E+00  0.42287591063E+04  0.42287591063E+04  0.00000000000E+00 0. -1.
         -1   -1    0    0    0  501 -0.00000000000E+00 -0.00000000000E+00 -0.16345373451E+03  0.16345373451E+03  0.00000000000E+00 0.  1.
         24    2    1    2    0    0  0.44210708557E+01  0.13506416197E+03  0.30640977729E+04  0.30679742035E+04  0.74220467188E+02 0.  0.
        254    2    1    2    0    0 -0.44210708557E+01 -0.13506416197E+03  0.10012075989E+04  0.13242386373E+04  0.85611298247E+03 0.  0.
         23    2    4    4    0    0  0.39833613800E+03 -0.14250820335E+02  0.32174627282E+03  0.51987912066E+03  0.88763006373E+02 0.  0.
         23    2    4    4    0    0 -0.40275720886E+03 -0.12081334164E+03  0.67946132606E+03  0.80435951665E+03  0.92289249678E+02 0.  0.
          2    1    3    3  502    0 -0.32473005189E+02  0.91224740288E+02  0.19613399303E+04  0.19637287927E+04  0.00000000000E+00 0. -1.
         -1    1    3    3    0  502  0.36894076045E+02  0.43839421683E+02  0.11027578426E+04  0.11042454108E+04  0.00000000000E+00 0.  1.
         13    1    5    5    0    0  0.10534955456E+03 -0.24489351892E+02  0.13206004440E+03  0.17069889375E+03  0.00000000000E+00 0. -1.
        -13    1    5    5    0    0  0.29298658345E+03  0.10238531557E+02  0.18968622842E+03  0.34918022690E+03  0.00000000000E+00 0.  1.
          2    1    6    6  503    0 -0.15410191810E+03 -0.17290103100E+02  0.31577228768E+03  0.35179324395E+03  0.00000000000E+00 0.  1.
         -2    1    6    6    0  503 -0.24865529076E+03 -0.10352323854E+03  0.36368903838E+03  0.45256627269E+03  0.00000000000E+00 0. -1.
<mgrwt>
<rscale>  0 0.16627766E+04</rscale>
<asrwt>0</asrwt>
<pdfrwt beam="1">  1        2 0.65057824E+00 0.16627766E+04</pdfrwt>
<pdfrwt beam="2">  1       -1 0.25146732E-01 0.16627766E+04</pdfrwt>
<totfact> 0.33819468E+00</totfact>
</mgrwt>
</event>
<event>
12    7  0.1605494E-007  0.2020907E+04  0.7818608E-02  0.8596908E-01
          2   -1    0    0  501    0  0.00000000000E+00  0.00000000000E+00  0.77761185392E+03  0.77761185392E+03  0.00000000000E+00 0. -1.
         -1   -1    0    0    0  501 -0.00000000000E+00 -0.00000000000E+00 -0.13130148775E+04  0.13130148775E+04  0.00000000000E+00 0.  1.
         24    2    1    2    0    0  0.57571678373E+03 -0.46262649587E+03 -0.52781201765E+03  0.91124932759E+03  0.79477803827E+02 0.  0.
        254    2    1    2    0    0 -0.57571678373E+03  0.46262649587E+03 -0.75910059357E+01  0.11793774038E+04  0.91945655011E+03 0.  0.
         23    2    4    4    0    0 -0.42449080844E+03  0.61016896011E+03  0.29042328804E+03  0.80298652929E+03  0.89123923051E+02 0.  0.
         23    2    4    4    0    0 -0.15122597529E+03 -0.14754246423E+03 -0.29801429398E+03  0.37639087454E+03  0.90661439797E+02 0.  0.
          2    1    3    3  502    0  0.86029018516E+02 -0.36397989676E+02 -0.73696687839E+02  0.11898322351E+03  0.00000000000E+00 0. -1.
         -1    1    3    3    0  502  0.48968776522E+03 -0.42622850620E+03 -0.45411532981E+03  0.79226610407E+03  0.00000000000E+00 0.  1.
         13    1    5    5    0    0 -0.39157354176E+03  0.59522210088E+03  0.27616203058E+03  0.76412345542E+03  0.00000000000E+00 0. -1.
        -13    1    5    5    0    0 -0.32917266686E+02  0.14946859222E+02  0.14261257461E+02  0.38863073876E+02  0.00000000000E+00 0.  1.
          3    1    6    6  503    0 -0.16205271786E+03 -0.12663977805E+03 -0.27564889040E+03  0.34392008887E+03  0.00000000000E+00 0. -1.
         -3    1    6    6    0  503  0.10826742574E+02 -0.20902686187E+02 -0.22365403576E+02  0.32470785665E+02  0.00000000000E+00 0.  1.
<mgrwt>
<rscale>  0 0.20209067E+04</rscale>
<asrwt>0</asrwt>
<pdfrwt beam="1">  1        2 0.11963259E+00 0.20209067E+04</pdfrwt>
<pdfrwt beam="2">  1       -1 0.20200229E+00 0.20209067E+04</pdfrwt>
<totfact> 0.55193910E+00</totfact>
</mgrwt>
</event>
<event>
12    7  0.1605494E-007  0.1401840E+04  0.7818608E-02  0.8952488E-01
          2   -1    0    0  501    0  0.00000000000E+00  0.00000000000E+00  0.89305223795E+03  0.89305223795E+03  0.00000000000E+00 0. -1.
         -1   -1    0    0    0  501 -0.00000000000E+00 -0.00000000000E+00 -0.55012318295E+03  0.55012318295E+03  0.00000000000E+00 0.  1.
         24    2    1    2    0    0 -0.18328767044E+03 -0.27332831620E+03  0.35679740600E+03  0.49214774754E+03  0.81254402389E+02 0.  0.
        254    2    1    2    0    0  0.18328767044E+03  0.27332831620E+03 -0.13868351008E+02  0.95102767336E+03  0.89216510007E+03 0.  0.
         23    2    4    4    0    0  0.94174096164E+02  0.47310184253E+03 -0.30263968785E+03  0.57700445586E+03  0.93001331315E+02 0.  0.
         23    2    4    4    0    0  0.89113574273E+02 -0.19977352633E+03  0.28877133685E+03  0.37402321750E+03  0.93025756135E+02 0.  0.
          2    1    3    3  502    0 -0.14354947368E+03 -0.24715162481E+03  0.33333458206E+03  0.43909261055E+03  0.00000000000E+00 0. -1.
         -1    1    3    3    0  502 -0.39738196762E+02 -0.26176691389E+02  0.23462823939E+02  0.53055136991E+02  0.00000000000E+00 0.  1.
         13    1    5    5    0    0  0.85501698598E+02  0.38449816253E+03 -0.20209425355E+03  0.44270923276E+03  0.00000000000E+00 0. -1.
        -13    1    5    5    0    0  0.86723975652E+01  0.88603680000E+02 -0.10054543430E+03  0.13429522310E+03  0.00000000000E+00 0.  1.
          2    1    6    6  503    0  0.19049095431E+02 -0.15024332202E+03  0.17304185808E+03  0.22995523150E+03  0.00000000000E+00 0. -1.
         -2    1    6    6    0  503  0.70064478842E+02 -0.49530204316E+02  0.11572947877E+03  0.14406798601E+03  0.00000000000E+00 0.  1.
<mgrwt>
<rscale>  0 0.14018398E+04</rscale>
<asrwt>0</asrwt>
<pdfrwt beam="1">  1        2 0.13739265E+00 0.14018398E+04</pdfrwt>
<pdfrwt beam="2">  1       -1 0.84634336E-01 0.14018398E+04</pdfrwt>
<totfact> 0.45514138E+01</totfact>
</mgrwt>
</event>
<event>
12    7  0.1605494E-007  0.1681328E+04  0.7818608E-02  0.8772086E-01
         -1   -1    0    0    0  501 -0.00000000000E+00  0.00000000000E+00  0.36043837421E+03  0.36043837421E+03  0.00000000000E+00 0.  1.
          2   -1    0    0  501    0  0.00000000000E+00 -0.00000000000E+00 -0.19607113119E+04  0.19607113119E+04  0.00000000000E+00 0. -1.
         24    2    1    2    0    0  0.56862974456E+03 -0.17657526752E+03 -0.61133017291E+03  0.85696276953E+03  0.78370891023E+02 0.  0.
        254    2    1    2    0    0 -0.56862974456E+03  0.17657526752E+03 -0.98894276477E+03  0.14641869166E+04  0.90073132684E+03 0.  0.
         23    2    4    4    0    0 -0.14217834914E+02 -0.19358438444E+03 -0.69977293426E+03  0.73178884824E+03  0.90308904091E+02 0.  0.
         23    2    4    4    0    0 -0.55441190964E+03  0.37015965197E+03 -0.28916983052E+03  0.73239806833E+03  0.91635179424E+02 0.  0.
          4    1    3    3  502    0  0.68426250944E+02 -0.26523284142E+02 -0.11552866919E+03  0.13686675938E+03  0.00000000000E+00 0. -1.
         -3    1    3    3    0  502  0.50020349361E+03 -0.15005198338E+03 -0.49580150372E+03  0.72009601015E+03  0.00000000000E+00 0.  1.
         13    1    5    5    0    0 -0.84943850670E+01 -0.33887049805E+02 -0.40782558709E+02  0.53700128650E+02  0.00000000000E+00 0.  1.
        -13    1    5    5    0    0 -0.57234498471E+01 -0.15969733464E+03 -0.65899037555E+03  0.67808871959E+03  0.00000000000E+00 0. -1.
          4    1    6    6  503    0 -0.26990970807E+03  0.19777075563E+03 -0.19226874641E+03  0.38591682153E+03  0.00000000000E+00 0.  1.
         -4    1    6    6    0  503 -0.28450220158E+03  0.17238889633E+03 -0.96901084103E+02  0.34648124680E+03  0.00000000000E+00 0. -1.
<mgrwt>
<rscale>  0 0.16813276E+04</rscale>
<asrwt>0</asrwt>
<pdfrwt beam="1">  1        2 0.30164789E+00 0.16813276E+04</pdfrwt>
<pdfrwt beam="2">  1       -1 0.55452059E-01 0.16813276E+04</pdfrwt>
<totfact> 0.25078482E+01</totfact>
</mgrwt>
</event>
<event>
12    7  0.1605494E-007  0.1375642E+04  0.7818608E-02  0.8971642E-01
         -3   -1    0    0    0  501 -0.00000000000E+00  0.00000000000E+00  0.95722434479E+03  0.95722434479E+03  0.00000000000E+00 0.  1.
          2   -1    0    0  501    0  0.00000000000E+00 -0.00000000000E+00 -0.49423877637E+03  0.49423877637E+03  0.00000000000E+00 0. -1.
         24    2    1    2    0    0  0.34714833980E+02  0.20066187127E+03  0.49153364630E+03  0.53921115114E+03  0.87595854864E+02 0.  0.
        254    2    1    2    0    0 -0.34714833980E+02 -0.20066187127E+03 -0.28548077883E+02  0.91225197001E+03  0.88877351319E+03 0.  0.
         23    2    4    4    0    0 -0.15113262069E+03  0.31987039463E+03  0.34740555620E+02  0.36729017015E+03  0.92396019868E+02 0.  0.
         23    2    4    4    0    0  0.11641778671E+03 -0.52053226590E+03 -0.63288633504E+02  0.54496179985E+03  0.92037879483E+02 0.  0.
          2    1    3    3  502    0  0.52973759134E+02  0.17550115066E+03  0.35921210198E+03  0.40328675561E+03  0.00000000000E+00 0. -1.
         -1    1    3    3    0  502 -0.18258925153E+02  0.25160720608E+02  0.13232154433E+03  0.13592439554E+03  0.00000000000E+00 0.  1.
         13    1    5    5    0    0 -0.27832291511E+02  0.70372620703E+02  0.46355761127E+02  0.88745697276E+02  0.00000000000E+00 0.  1.
        -13    1    5    5    0    0 -0.12330032918E+03  0.24949777393E+03 -0.11615205506E+02  0.27854447288E+03  0.00000000000E+00 0. -1.
          2    1    6    6  503    0  0.12986608468E+03 -0.48821553723E+03 -0.67594740977E+02  0.50969467307E+03  0.00000000000E+00 0. -1.
         -2    1    6    6    0  503 -0.13448297968E+02 -0.32316728671E+02  0.43061074728E+01  0.35267126786E+02  0.00000000000E+00 0.  1.
<mgrwt>
<rscale>  0 0.13756415E+04</rscale>
<asrwt>0</asrwt>
<pdfrwt beam="1">  1        2 0.76036735E-01 0.13756415E+04</pdfrwt>
<pdfrwt beam="2">  1       -3 0.14726528E+00 0.13756415E+04</pdfrwt>
<totfact> 0.12915070E+01</totfact>
</mgrwt>
</event>
<event>
12    7  0.1605494E-007  0.2007881E+04  0.7818608E-02  0.8602945E-01
         -1   -1    0    0    0  501 -0.00000000000E+00  0.00000000000E+00  0.38938732964E+03  0.38938732964E+03  0.00000000000E+00 0.  1.
          2   -1    0    0  501    0  0.00000000000E+00 -0.00000000000E+00 -0.25884151220E+04  0.25884151220E+04  0.00000000000E+00 0. -1.
         24    2    1    2    0    0  0.63763481237E+03  0.47077131539E+03 -0.69730144292E+03  0.10585678922E+04  0.78312800843E+02 0.  0.
        254    2    1    2    0    0 -0.63763481237E+03 -0.47077131539E+03 -0.15017263494E+04  0.19192345594E+04  0.89446938468E+03 0.  0.
         23    2    4    4    0    0  0.13151519097E+02  0.52402489308E+02  0.77616583607E+02  0.13039119903E+03  0.89769412350E+02 0.  0.
         23    2    4    4    0    0 -0.65078633147E+03 -0.52317380470E+03 -0.15793429330E+04  0.17888433604E+04  0.91666726272E+02 0.  0.
          2    1    3    3  502    0  0.35182400177E+03  0.22215339191E+03 -0.39789315470E+03  0.57571800416E+03  0.00000000000E+00 0. -1.
         -1    1    3    3    0  502  0.28581081060E+03  0.24861792348E+03 -0.29940828822E+03  0.48284988804E+03  0.00000000000E+00 0.  1.
         13    1    5    5    0    0 -0.97939144197E+01  0.27014454340E+02  0.89629748613E+02  0.94123287976E+02  0.00000000000E+00 0. -1.
        -13    1    5    5    0    0  0.22945433517E+02  0.25388034968E+02 -0.12013165007E+02  0.36267911055E+02  0.00000000000E+00 0.  1.
          2    1    6    6  503    0 -0.94505832964E+02 -0.93859671709E+02 -0.19171318621E+03  0.23344150489E+03  0.00000000000E+00 0.  1.
         -2    1    6    6    0  503 -0.55628049850E+03 -0.42931413299E+03 -0.13876297468E+04  0.15554018555E+04  0.00000000000E+00 0. -1.
<mgrwt>
<rscale>  0 0.20078805E+04</rscale>
<asrwt>0</asrwt>
<pdfrwt beam="1">  1        2 0.39821772E+00 0.20078805E+04</pdfrwt>
<pdfrwt beam="2">  1       -1 0.59905741E-01 0.20078805E+04</pdfrwt>
<totfact> 0.92375143E+00</totfact>
</mgrwt>
</event>
<event>
12    7  0.1605494E-007  0.2723164E+04  0.7818608E-02  0.8327528E-01
         -1   -1    0    0    0  501 -0.00000000000E+00  0.00000000000E+00  0.17755327907E+04  0.17755327907E+04  0.00000000000E+00 0.  1.
          2   -1    0    0  501    0  0.00000000000E+00 -0.00000000000E+00 -0.10441402366E+04  0.10441402366E+04  0.00000000000E+00 0. -1.
         24    2    1    2    0    0  0.86745133150E+03  0.23241595444E+03 -0.51663516948E+03  0.10391272698E+04  0.79903668156E+02 0.  0.
        254    2    1    2    0    0 -0.86745133150E+03 -0.23241595444E+03  0.12480277236E+04  0.17805457575E+04  0.89793151598E+03 0.  0.
         23    2    4    4    0    0 -0.99184813116E+03 -0.97610586631E+01  0.94648426183E+03  0.13741303407E+04  0.92432362936E+02 0.  0.
         23    2    4    4    0    0  0.12439679966E+03 -0.22265489578E+03  0.30154346173E+03  0.40641541683E+03  0.95891946213E+02 0.  0.
          4    1    3    3  502    0  0.50982376509E+03  0.12323901576E+03 -0.34420496510E+03  0.62736367799E+03  0.00000000000E+00 0. -1.
         -3    1    3    3    0  502  0.35762756641E+03  0.10917693868E+03 -0.17243020439E+03  0.41176359186E+03  0.00000000000E+00 0.  1.
         13    1    5    5    0    0 -0.72766120247E+03  0.98348400244E+01  0.74366009352E+03  0.10404892524E+04  0.00000000000E+00 0. -1.
        -13    1    5    5    0    0 -0.26418692869E+03 -0.19595898688E+02  0.20282416831E+03  0.33364108828E+03  0.00000000000E+00 0.  1.
          4    1    6    6  503    0  0.99921472370E+02 -0.12443475719E+03  0.12422121948E+03  0.20223555772E+03  0.00000000000E+00 0. -1.
         -4    1    6    6    0  503  0.24475327287E+02 -0.98220138586E+02  0.17732224225E+03  0.20417985911E+03  0.00000000000E+00 0.  1.
<mgrwt>
<rscale>  0 0.27231638E+04</rscale>
<asrwt>0</asrwt>
<pdfrwt beam="1">  1        2 0.16063696E+00 0.27231638E+04</pdfrwt>
<pdfrwt beam="2">  1       -1 0.27315889E+00 0.27231638E+04</pdfrwt>
<totfact> 0.11612779E+00</totfact>
</mgrwt>
</event>
<event>
12    7  0.1605494E-007  0.1369485E+04  0.7818608E-02  0.8976208E-01
          2   -1    0    0  501    0  0.00000000000E+00  0.00000000000E+00  0.22310472579E+04  0.22310472579E+04  0.00000000000E+00 0. -1.
         -1   -1    0    0    0  501 -0.00000000000E+00 -0.00000000000E+00 -0.21015800135E+03  0.21015800135E+03  0.00000000000E+00 0.  1.
         24    2    1    2    0    0  0.53776165452E+02 -0.37160545926E+03  0.44441826021E+03  0.58809514809E+03  0.85824354795E+02 0.  0.
        254    2    1    2    0    0 -0.53776165452E+02  0.37160545926E+03  0.15764709964E+04  0.18531101112E+04  0.89876236485E+03 0.  0.
         23    2    4    4    0    0 -0.30912512045E+03  0.50644435217E+03  0.13433164893E+04  0.14706775431E+04  0.79680760402E+02 0.  0.
         23    2    4    4    0    0  0.25534895500E+03 -0.13483889291E+03  0.23315450708E+03  0.38243256804E+03  0.92244398568E+02 0.  0.
          4    1    3    3  502    0 -0.17791030985E+02 -0.73889742872E+02  0.61243863481E+02  0.97606483900E+02  0.00000000000E+00 0. -1.
         -1    1    3    3    0  502  0.71567196436E+02 -0.29771571639E+03  0.38317439673E+03  0.49048866419E+03  0.00000000000E+00 0.  1.
         13    1    5    5    0    0 -0.26624268962E+03  0.46940827828E+03  0.12498128643E+04  0.13613454732E+04  0.00000000000E+00 0.  1.
        -13    1    5    5    0    0 -0.42882430832E+02  0.37036073896E+02  0.93503624958E+02  0.10933206997E+03  0.00000000000E+00 0. -1.
          3    1    6    6  503    0  0.54505533554E+01  0.11071779207E+02  0.30285896142E+01  0.12706895047E+02  0.00000000000E+00 0. -1.
         -3    1    6    6    0  503  0.24989840164E+03 -0.14591067212E+03  0.23012591747E+03  0.36972567300E+03  0.00000000000E+00 0.  1.
<mgrwt>
<rscale>  0 0.13694852E+04</rscale>
<asrwt>0</asrwt>
<pdfrwt beam="1">  1        2 0.34323802E+00 0.13694852E+04</pdfrwt>
<pdfrwt beam="2">  1       -1 0.32332002E-01 0.13694852E+04</pdfrwt>
<totfact> 0.49356934E+01</totfact>
</mgrwt>
</event>
<event>
12    7  0.1605494E-007  0.1659176E+04  0.7818608E-02  0.8784997E-01
          2   -1    0    0  501    0  0.00000000000E+00  0.00000000000E+00  0.45601689325E+03  0.45601689325E+03  0.00000000000E+00 0. -1.
         -1   -1    0    0    0  501 -0.00000000000E+00 -0.00000000000E+00 -0.15091901022E+04  0.15091901022E+04  0.00000000000E+00 0.  1.
         24    2    1    2    0    0 -0.32435272216E+03  0.39536570092E+03 -0.30835848645E+02  0.51848371824E+03  0.79723212968E+02 0.  0.
        254    2    1    2    0    0  0.32435272216E+03 -0.39536570092E+03 -0.10223373604E+04  0.14467232773E+04  0.88674451605E+03 0.  0.
         23    2    4    4    0    0  0.19978277347E+03 -0.29104345181E+03 -0.11595331244E+04  0.12155530698E+04  0.91830013821E+02 0.  0.
         23    2    4    4    0    0  0.12456994868E+03 -0.10432224911E+03  0.13719576405E+03  0.23117020748E+03  0.90643165083E+02 0.  0.
          4    1    3    3  502    0 -0.31772164049E+03  0.36107157319E+03 -0.18075736019E+02  0.48129663830E+03  0.00000000000E+00 0. -1.
         -3    1    3    3    0  502 -0.66310816688E+01  0.34294127728E+02 -0.12760112626E+02  0.37187079947E+02  0.00000000000E+00 0.  1.
         13    1    5    5    0    0  0.13183970208E+03 -0.18244456876E+03 -0.87541743563E+03  0.90389347509E+03  0.00000000000E+00 0.  1.
        -13    1    5    5    0    0  0.67943071397E+02 -0.10859888305E+03 -0.28411568878E+03  0.31165959469E+03  0.00000000000E+00 0. -1.
          2    1    6    6  503    0  0.29137264698E+02  0.14498207965E+02  0.34321662892E+02  0.47298570506E+02  0.00000000000E+00 0. -1.
         -2    1    6    6    0  503  0.95432683986E+02 -0.11882045708E+03  0.10287410116E+03  0.18387163697E+03  0.00000000000E+00 0.  1.
<mgrwt>
<rscale>  0 0.16591759E+04</rscale>
<asrwt>0</asrwt>
<pdfrwt beam="1">  1        2 0.70156444E-01 0.16591759E+04</pdfrwt>
<pdfrwt beam="2">  1       -1 0.23218310E+00 0.16591759E+04</pdfrwt>
<totfact> 0.68251361E+00</totfact>
</mgrwt>
</event>
<event>
12    7  0.1605494E-007  0.2081528E+04  0.7818608E-02  0.8569424E-01
          2   -1    0    0  501    0  0.00000000000E+00  0.00000000000E+00  0.91098459173E+03  0.91098459173E+03  0.00000000000E+00 0. -1.
         -1   -1    0    0    0  501 -0.00000000000E+00 -0.00000000000E+00 -0.11890317425E+04  0.11890317425E+04  0.00000000000E+00 0.  1.
         24    2    1    2    0    0  0.51021997939E+03  0.63944320190E+03 -0.31468135772E+03  0.88016308920E+03  0.80316068617E+02 0.  0.
        254    2    1    2    0    0 -0.51021997939E+03 -0.63944320190E+03  0.36634206908E+02  0.12198532451E+04  0.90415034069E+03 0.  0.
         23    2    4    4    0    0  0.20130317775E+03 -0.52395461532E+02  0.17067000227E+03  0.28313373038E+03  0.88137425893E+02 0.  0.
         23    2    4    4    0    0 -0.71152315714E+03 -0.58704774036E+03 -0.13403579537E+03  0.93671951469E+03  0.92669316144E+02 0.  0.
          4    1    3    3  502    0  0.26274344932E+01  0.24181911039E+02 -0.77939063298E+01  0.25542380652E+02  0.00000000000E+00 0. -1.
         -3    1    3    3    0  502  0.50759254490E+03  0.61526129086E+03 -0.30688745139E+03  0.85462070855E+03  0.00000000000E+00 0.  1.
         13    1    5    5    0    0  0.42847983152E+02 -0.12650676991E+00  0.85872027125E+02  0.95968592294E+02  0.00000000000E+00 0.  1.
        -13    1    5    5    0    0  0.15845519459E+03 -0.52268954762E+02  0.84797975149E+02  0.18716513809E+03  0.00000000000E+00 0. -1.
          1    1    6    6  503    0 -0.62883628691E+03 -0.51649538887E+03 -0.87388456910E+02  0.81843711112E+03  0.00000000000E+00 0. -1.
         -1    1    6    6    0  503 -0.82686870231E+02 -0.70552351492E+02 -0.46647338457E+02  0.11828240357E+03  0.00000000000E+00 0.  1.
<mgrwt>
<rscale>  0 0.20815279E+04</rscale>
<asrwt>0</asrwt>
<pdfrwt beam="1">  1        2 0.14015148E+00 0.20815279E+04</pdfrwt>
<pdfrwt beam="2">  1       -1 0.18292796E+00 0.20815279E+04</pdfrwt>
<totfact> 0.60181655E+00</totfact>
</mgrwt>
</event>
<event>
12    7  0.1605494E-007  0.2066382E+04  0.7818608E-02  0.8576199E-01
         -1   -1    0    0    0  501 -0.00000000000E+00  0.00000000000E+00  0.96428790786E+03  0.96428790786E+03  0.00000000000E+00 0.  1.
          2   -1    0    0  501    0  0.00000000000E+00 -0.00000000000E+00 -0.11070179403E+04  0.11070179403E+04  0.00000000000E+00 0. -1.
         24    2    1    2    0    0  0.48387154420E+02  0.37571614337E+03  0.68795095629E+03  0.78964016748E+03  0.82165313388E+02 0.  0.
        254    2    1    2    0    0 -0.48387154420E+02 -0.37571614337E+03 -0.83068098876E+03  0.12816656807E+04  0.89951769017E+03 0.  0.
         23    2    4    4    0    0  0.24047012753E+03 -0.17040674504E+03 -0.86094940547E+03  0.91448347924E+03  0.90453380469E+02 0.  0.
         23    2    4    4    0    0 -0.28885728195E+03 -0.20530939833E+03  0.30268416713E+02  0.36718220147E+03  0.91192728043E+02 0.  0.
          2    1    3    3  502    0 -0.16508353285E+01  0.23580531271E+03  0.47026533957E+03  0.52607638263E+03  0.00000000000E+00 0. -1.
         -1    1    3    3    0  502  0.50037989749E+02  0.13991083066E+03  0.21768561672E+03  0.26356378485E+03  0.00000000000E+00 0.  1.
         13    1    5    5    0    0  0.24540261027E+02  0.66735591315E+01 -0.40612921314E+02  0.47918369968E+02  0.00000000000E+00 0. -1.
        -13    1    5    5    0    0  0.21592986650E+03 -0.17708030418E+03 -0.82033648416E+03  0.86656510928E+03  0.00000000000E+00 0.  1.
          1    1    6    6  503    0 -0.45465154087E+02 -0.62389231255E+02 -0.21692605551E+02  0.80187689506E+02  0.00000000000E+00 0. -1.
         -1    1    6    6    0  503 -0.24339212787E+03 -0.14292016707E+03  0.51961022264E+02  0.28699451196E+03  0.00000000000E+00 0.  1.
<mgrwt>
<rscale>  0 0.20663824E+04</rscale>
<asrwt>0</asrwt>
<pdfrwt beam="1">  1        2 0.17031045E+00 0.20663824E+04</pdfrwt>
<pdfrwt beam="2">  1       -1 0.14835199E+00 0.20663824E+04</pdfrwt>
<totfact> 0.81704753E+00</totfact>
</mgrwt>
</event>
<event>
12    7  0.1605494E-007  0.1517313E+04  0.7818608E-02  0.8873021E-01
          2   -1    0    0  501    0  0.00000000000E+00  0.00000000000E+00  0.25571862491E+04  0.25571862491E+04  0.00000000000E+00 0. -1.
         -3   -1    0    0    0  501 -0.00000000000E+00 -0.00000000000E+00 -0.22507525342E+03  0.22507525342E+03  0.00000000000E+00 0.  1.
         24    2    1    2    0    0 -0.35794832755E+03 -0.97857284685E+02  0.13254919808E+04  0.13789141956E+04  0.82294072345E+02 0.  0.
        254    2    1    2    0    0  0.35794832755E+03  0.97857284685E+02  0.10066190149E+04  0.14033473069E+04  0.90465395002E+03 0.  0.
         23    2    4    4    0    0 -0.99806057735E+02 -0.19284794469E+03  0.77042274925E+03  0.80563981305E+03  0.91393199360E+02 0.  0.
         23    2    4    4    0    0  0.45775438529E+03  0.29070522938E+03  0.23619626561E+03  0.59770749382E+03  0.86121801236E+02 0.  0.
          4    1    3    3  502    0 -0.30659684009E+03 -0.55812400760E+02  0.11432700664E+04  0.11849823168E+04  0.00000000000E+00 0. -1.
         -3    1    3    3    0  502 -0.51351487456E+02 -0.42044883925E+02  0.18222191441E+03  0.19393187881E+03  0.00000000000E+00 0.  1.
         13    1    5    5    0    0 -0.30265656604E+02 -0.97329127342E+02  0.21700278164E+03  0.23974815169E+03  0.00000000000E+00 0. -1.
        -13    1    5    5    0    0 -0.69540401131E+02 -0.95518817351E+02  0.55341996760E+03  0.56589166136E+03  0.00000000000E+00 0.  1.
          4    1    6    6  503    0  0.27745030503E+03  0.19945501958E+03  0.18781386181E+03  0.38991668762E+03  0.00000000000E+00 0. -1.
         -4    1    6    6    0  503  0.18030408026E+03  0.91250209802E+02  0.48382403802E+02  0.20779080621E+03  0.00000000000E+00 0.  1.
<mgrwt>
<rscale>  0 0.15173125E+04</rscale>
<asrwt>0</asrwt>
<pdfrwt beam="1">  1        2 0.39341325E+00 0.15173125E+04</pdfrwt>
<pdfrwt beam="2">  1       -3 0.34626964E-01 0.15173125E+04</pdfrwt>
<totfact> 0.16646595E+01</totfact>
</mgrwt>
</event>
<event>
12    7  0.1605494E-007  0.1989941E+04  0.7818608E-02  0.8611338E-01
          2   -1    0    0  501    0  0.00000000000E+00  0.00000000000E+00  0.20667199229E+04  0.20667199229E+04  0.00000000000E+00 0. -1.
         -1   -1    0    0    0  501 -0.00000000000E+00 -0.00000000000E+00 -0.47900365631E+03  0.47900365631E+03  0.00000000000E+00 0.  1.
         24    2    1    2    0    0 -0.68266554094E+02  0.40622703149E+03 -0.22916737450E+03  0.47800664742E+03  0.79321787136E+02 0.  0.
        254    2    1    2    0    0  0.68266554094E+02 -0.40622703149E+03  0.18168836411E+04  0.20677169318E+04  0.89705430225E+03 0.  0.
         23    2    4    4    0    0 -0.22273097586E+03 -0.19521826370E+03  0.16177099517E+04  0.16472707904E+04  0.93788649942E+02 0.  0.
         23    2    4    4    0    0  0.29099752995E+03 -0.21100876780E+03  0.19917368934E+03  0.42044614137E+03  0.88884963559E+02 0.  0.
          4    1    3    3  502    0 -0.18565963316E+02  0.11924630113E+02 -0.11653764203E+02  0.24953998022E+02  0.00000000000E+00 0. -1.
         -3    1    3    3    0  502 -0.49700590778E+02  0.39430240138E+03 -0.21751361030E+03  0.45305264940E+03  0.00000000000E+00 0.  1.
         13    1    5    5    0    0 -0.37534111935E+02 -0.55543627785E+02  0.20607506247E+03  0.21670448892E+03  0.00000000000E+00 0. -1.
        -13    1    5    5    0    0 -0.18519686392E+03 -0.13967463591E+03  0.14116348893E+04  0.14305663015E+04  0.00000000000E+00 0.  1.
          1    1    6    6  503    0  0.95702829500E+02 -0.11437692774E+03  0.53954856061E+02  0.15859457641E+03  0.00000000000E+00 0. -1.
         -1    1    6    6    0  503  0.19529470045E+03 -0.96631840059E+02  0.14521883328E+03  0.26185156497E+03  0.00000000000E+00 0.  1.
<mgrwt>
<rscale>  0 0.19899411E+04</rscale>
<asrwt>0</asrwt>
<pdfrwt beam="1">  1        2 0.31795691E+00 0.19899411E+04</pdfrwt>
<pdfrwt beam="2">  1       -1 0.73692871E-01 0.19899411E+04</pdfrwt>
<totfact> 0.12041987E+01</totfact>
</mgrwt>
</event>
<event>
12    7  0.1605494E-007  0.2261899E+04  0.7818608E-02  0.8493097E-01
          2   -1    0    0  501    0  0.00000000000E+00  0.00000000000E+00  0.17290784342E+04  0.17290784342E+04  0.00000000000E+00 0. -1.
         -1   -1    0    0    0  501 -0.00000000000E+00 -0.00000000000E+00 -0.73972719722E+03  0.73972719722E+03  0.00000000000E+00 0.  1.
         24    2    1    2    0    0  0.15403282291E+03  0.20254122684E+03 -0.58251652177E+03  0.64052140926E+03  0.78696368965E+02 0.  0.
        254    2    1    2    0    0 -0.15403282291E+03 -0.20254122684E+03  0.15718677588E+04  0.18282842222E+04  0.89839072062E+03 0.  0.
         23    2    4    4    0    0  0.19068771968E+03 -0.45138898808E+03  0.86794390259E+03  0.10009033842E+04  0.91472080487E+02 0.  0.
         23    2    4    4    0    0 -0.34472054259E+03  0.24884776124E+03  0.70392385619E+03  0.82738083796E+03  0.91064784394E+02 0.  0.
          4    1    3    3  502    0  0.33356634517E+02  0.65267929584E+01 -0.10610768486E+03  0.11141860203E+03  0.00000000000E+00 0. -1.
         -3    1    3    3    0  502  0.12067618839E+03  0.19601443388E+03 -0.47640883691E+03  0.52910280723E+03  0.00000000000E+00 0.  1.
         13    1    5    5    0    0  0.10320656330E+03 -0.24004020496E+03  0.37025049503E+03  0.45316257985E+03  0.00000000000E+00 0.  1.
        -13    1    5    5    0    0  0.87481156383E+02 -0.21134878312E+03  0.49769340755E+03  0.54774080437E+03  0.00000000000E+00 0. -1.
          1    1    6    6  503    0 -0.25568165302E+03  0.16090269518E+03  0.42258269331E+03  0.51946021762E+03  0.00000000000E+00 0. -1.
         -1    1    6    6    0  503 -0.89038889571E+02  0.87945066061E+02  0.28134116288E+03  0.30792062034E+03  0.00000000000E+00 0.  1.
<mgrwt>
<rscale>  0 0.22618986E+04</rscale>
<asrwt>0</asrwt>
<pdfrwt beam="1">  1        2 0.26601207E+00 0.22618986E+04</pdfrwt>
<pdfrwt beam="2">  1       -1 0.11380418E+00 0.22618986E+04</pdfrwt>
<totfact> 0.68860742E+00</totfact>
</mgrwt>
</event>
<event>
12    7  0.1605494E-007  0.1807287E+04  0.7818608E-02  0.8702434E-01
         -1   -1    0    0    0  501 -0.00000000000E+00  0.00000000000E+00  0.14553698007E+04  0.14553698007E+04  0.00000000000E+00 0.  1.
          2   -1    0    0  501    0  0.00000000000E+00 -0.00000000000E+00 -0.56107516199E+03  0.56107516199E+03  0.00000000000E+00 0. -1.
         24    2    1    2    0    0  0.50611979854E+03 -0.11481909007E+03  0.81740772722E+03  0.97150623500E+03  0.79550601499E+02 0.  0.
        254    2    1    2    0    0 -0.50611979854E+03  0.11481909007E+03  0.76886911487E+02  0.10449387277E+04  0.90368394560E+03 0.  0.
         23    2    4    4    0    0 -0.53543021694E+02  0.25536303433E+03 -0.31747499124E+03  0.42021766821E+03  0.87837259403E+02 0.  0.
         23    2    4    4    0    0 -0.45257677685E+03 -0.14054394425E+03  0.39436190273E+03  0.62472105947E+03  0.10087989200E+03 0.  0.
          2    1    3    3  502    0  0.12044467027E+03 -0.18416199652E+01  0.23230747892E+03  0.26168124679E+03  0.00000000000E+00 0. -1.
         -1    1    3    3    0  502  0.38567512828E+03 -0.11297747011E+03  0.58510024830E+03  0.70982498821E+03  0.00000000000E+00 0.  1.
         13    1    5    5    0    0 -0.21935400680E+02  0.16024251269E+02 -0.92392256545E+01  0.28693234785E+02  0.00000000000E+00 0. -1.
        -13    1    5    5    0    0 -0.31607621014E+02  0.23933878306E+03 -0.30823576559E+03  0.39152443343E+03  0.00000000000E+00 0.  1.
          3    1    6    6  503    0 -0.10866590105E+03 -0.13153890643E+02  0.45459638440E+02  0.11852375971E+03  0.00000000000E+00 0. -1.
         -3    1    6    6    0  503 -0.34391087580E+03 -0.12739005361E+03  0.34890226429E+03  0.50619729976E+03  0.00000000000E+00 0.  1.
<mgrwt>
<rscale>  0 0.18072873E+04</rscale>
<asrwt>0</asrwt>
<pdfrwt beam="1">  1        2 0.86319256E-01 0.18072873E+04</pdfrwt>
<pdfrwt beam="2">  1       -1 0.22390305E+00 0.18072873E+04</pdfrwt>
<totfact> 0.60045623E+00</totfact>
</mgrwt>
</event>
<event>
12    7  0.1605494E-007  0.2057203E+04  0.7818608E-02  0.8580334E-01
          2   -1    0    0  501    0  0.00000000000E+00  0.00000000000E+00  0.11525633901E+04  0.11525633901E+04  0.00000000000E+00 0. -1.
         -1   -1    0    0    0  501 -0.00000000000E+00 -0.00000000000E+00 -0.91797182762E+03  0.91797182762E+03  0.00000000000E+00 0.  1.
         24    2    1    2    0    0 -0.19472520322E+03  0.47763747963E+03  0.72452684974E+03  0.89302896496E+03  0.80660458455E+02 0.  0.
        254    2    1    2    0    0  0.19472520322E+03 -0.47763747963E+03 -0.48993528727E+03  0.11775062528E+04  0.93831174076E+03 0.  0.
         23    2    4    4    0    0  0.34869643543E+03 -0.68727330268E+03 -0.45262396514E+03  0.89838589327E+03  0.91076686179E+02 0.  0.
         23    2    4    4    0    0 -0.15397123221E+03  0.20963582305E+03 -0.37311322132E+02  0.27912035948E+03  0.94136717939E+02 0.  0.
          2    1    3    3  502    0 -0.34975938031E+02  0.16518158482E+03  0.19719469438E+03  0.25960358183E+03  0.00000000000E+00 0. -1.
         -1    1    3    3    0  502 -0.15974926519E+03  0.31245589481E+03  0.52733215536E+03  0.63342538314E+03  0.00000000000E+00 0.  1.
         13    1    5    5    0    0  0.38552366113E+02 -0.12810313371E+03 -0.50299907276E+02  0.14292228123E+03  0.00000000000E+00 0. -1.
        -13    1    5    5    0    0  0.31014406932E+03 -0.55917016897E+03 -0.40232405786E+03  0.75546361205E+03  0.00000000000E+00 0.  1.
          1    1    6    6  503    0 -0.26140907002E+02 -0.51166161838E+01 -0.53159169901E+01  0.27162211867E+02  0.00000000000E+00 0. -1.
         -1    1    6    6    0  503 -0.12783032521E+03  0.21475243923E+03 -0.31995405142E+02  0.25195814761E+03  0.00000000000E+00 0.  1.
<mgrwt>
<rscale>  0 0.20572027E+04</rscale>
<asrwt>0</asrwt>
<pdfrwt beam="1">  1        2 0.17731744E+00 0.20572027E+04</pdfrwt>
<pdfrwt beam="2">  1       -1 0.14122644E+00 0.20572027E+04</pdfrwt>
<totfact> 0.87395742E+00</totfact>
</mgrwt>
</event>
<event>
12    7  0.1605494E-007  0.1152501E+04  0.7818608E-02  0.9155479E-01
          2   -1    0    0  501    0  0.00000000000E+00  0.00000000000E+00  0.58997296895E+03  0.58997296895E+03  0.00000000000E+00 0. -1.
         -1   -1    0    0    0  501 -0.00000000000E+00 -0.00000000000E+00 -0.56284707286E+03  0.56284707286E+03  0.00000000000E+00 0.  1.
         24    2    1    2    0    0  0.57864584326E+02  0.70122506040E+02 -0.18474362307E+03  0.22026334712E+03  0.78232089621E+02 0.  0.
        254    2    1    2    0    0 -0.57864584326E+02 -0.70122506040E+02  0.21186951917E+03  0.93255669468E+03  0.90360822245E+03 0.  0.
         23    2    4    4    0    0 -0.41391799619E+03  0.89547867963E+02  0.28988103169E+03  0.52194703534E+03  0.95135518833E+02 0.  0.
         23    2    4    4    0    0  0.35605341186E+03 -0.15967037400E+03 -0.78011512518E+02  0.41060965934E+03  0.10122171618E+03 0.  0.
          4    1    3    3  502    0 -0.89367705733E+01  0.25004360983E+02 -0.99327575371E+02  0.10281561732E+03  0.00000000000E+00 0. -1.
         -3    1    3    3    0  502  0.66801354899E+02  0.45118145057E+02 -0.85416047702E+02  0.11744772980E+03  0.00000000000E+00 0.  1.
         13    1    5    5    0    0 -0.27654255269E+01 -0.34627531710E+01 -0.56132176466E+01  0.71516746442E+01  0.00000000000E+00 0. -1.
        -13    1    5    5    0    0 -0.41115257066E+03  0.93010621134E+02  0.29549424933E+03  0.51479536070E+03  0.00000000000E+00 0.  1.
          3    1    6    6  503    0  0.28518072560E+03 -0.10527619005E+03 -0.97352388761E+02  0.31919995308E+03  0.00000000000E+00 0.  1.
         -3    1    6    6    0  503  0.70872686258E+02 -0.54394183956E+02  0.19340876243E+02  0.91409706266E+02  0.00000000000E+00 0. -1.
<mgrwt>
<rscale>  0 0.11525009E+04</rscale>
<asrwt>0</asrwt>
<pdfrwt beam="1">  1        2 0.90765071E-01 0.11525009E+04</pdfrwt>
<pdfrwt beam="2">  1       -1 0.86591858E-01 0.11525009E+04</pdfrwt>
<totfact> 0.75327322E+01</totfact>
</mgrwt>
</event>
<event>
12    7  0.1605494E-007  0.1498524E+04  0.7818608E-02  0.8885435E-01
         -3   -1    0    0    0  501 -0.00000000000E+00  0.00000000000E+00  0.34785340219E+03  0.34785340219E+03  0.00000000000E+00 0.  1.
          2   -1    0    0  501    0  0.00000000000E+00 -0.00000000000E+00 -0.16138793540E+04  0.16138793540E+04  0.00000000000E+00 0. -1.
         24    2    1    2    0    0 -0.33249461740E+03  0.11446920700E+03 -0.82135551436E+03  0.89685349671E+03  0.77880958118E+02 0.  0.
        254    2    1    2    0    0  0.33249461740E+03 -0.11446920700E+03 -0.44467043747E+03  0.10648792595E+04  0.90143228775E+03 0.  0.
         23    2    4    4    0    0 -0.24903699307E+03  0.12508802042E+03 -0.63036079783E+01  0.29265266166E+03  0.89103356455E+02 0.  0.
         23    2    4    4    0    0  0.58153161047E+03 -0.23955722742E+03 -0.43836682949E+03  0.77222659784E+03  0.92745684688E+02 0.  0.
          4    1    3    3  502    0 -0.29161940543E+03  0.12595782718E+03 -0.72926567266E+03  0.79544683868E+03  0.00000000000E+00 0. -1.
         -3    1    3    3    0  502 -0.40875211974E+02 -0.11488620184E+02 -0.92089841707E+02  0.10140665803E+03  0.00000000000E+00 0.  1.
         13    1    5    5    0    0 -0.11654390916E+02  0.37261418275E+02 -0.62838731349E+01  0.39543965166E+02  0.00000000000E+00 0.  1.
        -13    1    5    5    0    0 -0.23738260215E+03  0.87826602143E+02 -0.19734843405E-01  0.25310869649E+03  0.00000000000E+00 0. -1.
          3    1    6    6  503    0  0.43404600671E+03 -0.14940874178E+03 -0.35512347921E+03  0.58037194414E+03  0.00000000000E+00 0. -1.
         -3    1    6    6    0  503  0.14748560376E+03 -0.90148485639E+02 -0.83243350284E+02  0.19185465370E+03  0.00000000000E+00 0.  1.
<mgrwt>
<rscale>  0 0.14985238E+04</rscale>
<asrwt>0</asrwt>
<pdfrwt beam="1">  1        2 0.24828913E+00 0.14985238E+04</pdfrwt>
<pdfrwt beam="2">  1       -3 0.53515907E-01 0.14985238E+04</pdfrwt>
<totfact> 0.23384240E+01</totfact>
</mgrwt>
</event>
<event>
12    7  0.1605494E-007  0.1158337E+04  0.7818608E-02  0.9150127E-01
         -1   -1    0    0    0  501 -0.00000000000E+00  0.00000000000E+00  0.14738529417E+04  0.14738529417E+04  0.00000000000E+00 0.  1.
          2   -1    0    0  501    0  0.00000000000E+00 -0.00000000000E+00 -0.22759116339E+03  0.22759116339E+03  0.00000000000E+00 0. -1.
         24    2    1    2    0    0 -0.24728894043E+02 -0.18471116512E+03  0.38734849752E+03  0.43701632576E+03  0.78833227336E+02 0.  0.
        254    2    1    2    0    0  0.24728894043E+02  0.18471116512E+03  0.85891328074E+03  0.12644277793E+04  0.90901917057E+03 0.  0.
         23    2    4    4    0    0 -0.27729069468E+03  0.41517544405E+03  0.63591154050E+03  0.81375789621E+03  0.92507554270E+02 0.  0.
         23    2    4    4    0    0  0.30201958873E+03 -0.23046427893E+03  0.22300174025E+03  0.45066988308E+03  0.95099692554E+02 0.  0.
          4    1    3    3  502    0 -0.14732182461E+02 -0.26511159110E+02  0.18444606216E+02  0.35497637328E+02  0.00000000000E+00 0. -1.
         -3    1    3    3    0  502 -0.99967115818E+01 -0.15820000601E+03  0.36890389130E+03  0.40151868843E+03  0.00000000000E+00 0.  1.
         13    1    5    5    0    0 -0.27027521384E+03  0.35143066670E+03  0.56437083247E+03  0.71768143438E+03  0.00000000000E+00 0. -1.
        -13    1    5    5    0    0 -0.70154808400E+01  0.63744777358E+02  0.71540708032E+02  0.96076461829E+02  0.00000000000E+00 0.  1.
          1    1    6    6  503    0  0.28577592289E+03 -0.17836509299E+03  0.19664606232E+03  0.39006622300E+03  0.00000000000E+00 0. -1.
         -1    1    6    6    0  503  0.16243665833E+02 -0.52099185943E+02  0.26355677930E+02  0.60603660077E+02  0.00000000000E+00 0.  1.
<mgrwt>
<rscale>  0 0.11583366E+04</rscale>
<asrwt>0</asrwt>
<pdfrwt beam="1">  1        2 0.35014026E-01 0.11583366E+04</pdfrwt>
<pdfrwt beam="2">  1       -1 0.22674660E+00 0.11583366E+04</pdfrwt>
<totfact> 0.16863993E+01</totfact>
</mgrwt>
</event>
<event>
12    7  0.1605494E-007  0.2215069E+04  0.7818608E-02  0.8512182E-01
         -1   -1    0    0    0  501 -0.00000000000E+00  0.00000000000E+00  0.63955865481E+03  0.63955865481E+03  0.00000000000E+00 0.  1.
          2   -1    0    0  501    0  0.00000000000E+00 -0.00000000000E+00 -0.19179356490E+04  0.19179356490E+04  0.00000000000E+00 0. -1.
         24    2    1    2    0    0  0.30556595717E+03 -0.85769082563E+03 -0.62998770654E+03  0.11099996284E+04  0.78807093684E+02 0.  0.
        254    2    1    2    0    0 -0.30556595717E+03  0.85769082563E+03 -0.64838928770E+03  0.14474946755E+04  0.91968911086E+03 0.  0.
         23    2    4    4    0    0 -0.14893576456E+03  0.20074146458E+03 -0.71414837659E+03  0.76231968383E+03  0.92975260132E+02 0.  0.
         23    2    4    4    0    0 -0.15663019262E+03  0.65694936105E+03  0.65759088892E+02  0.68517499167E+03  0.95000164298E+02 0.  0.
          2    1    3    3  502    0  0.94112609631E+01 -0.78042311127E+02 -0.71598474168E+02  0.10632739845E+03  0.00000000000E+00 0. -1.
         -1    1    3    3    0  502  0.29615469621E+03 -0.77964851450E+03 -0.55838923237E+03  0.10036722299E+04  0.00000000000E+00 0.  1.
         13    1    5    5    0    0 -0.16022115018E+02  0.61919335253E+02 -0.28519173312E+03  0.29227561801E+03  0.00000000000E+00 0.  1.
        -13    1    5    5    0    0 -0.13291364954E+03  0.13882212933E+03 -0.42895664348E+03  0.47004406581E+03  0.00000000000E+00 0. -1.
          1    1    6    6  503    0 -0.16703094706E+03  0.64409735742E+03  0.65733979922E+02  0.66864168224E+03  0.00000000000E+00 0.  1.
         -1    1    6    6    0  503  0.10400754443E+02  0.12852003625E+02  0.25108970073E-01  0.16533309427E+02  0.00000000000E+00 0. -1.
<mgrwt>
<rscale>  0 0.22150687E+04</rscale>
<asrwt>0</asrwt>
<pdfrwt beam="1">  1        2 0.29506702E+00 0.22150687E+04</pdfrwt>
<pdfrwt beam="2">  1       -1 0.98393642E-01 0.22150687E+04</pdfrwt>
<totfact> 0.76270461E+00</totfact>
</mgrwt>
</event>
<event>
12    7  0.1605494E-007  0.2173810E+04  0.7818608E-02  0.8529409E-01
         -1   -1    0    0    0  501 -0.00000000000E+00  0.00000000000E+00  0.20425966945E+04  0.20425966945E+04  0.00000000000E+00 0.  1.
          2   -1    0    0  501    0  0.00000000000E+00 -0.00000000000E+00 -0.57836306150E+03  0.57836306150E+03  0.00000000000E+00 0. -1.
         24    2    1    2    0    0  0.73344325997E+03 -0.42078062005E+03  0.26183062999E+03  0.88883307768E+03  0.80458780566E+02 0.  0.
        254    2    1    2    0    0 -0.73344325997E+03  0.42078062005E+03  0.12024030030E+04  0.17321266783E+04  0.91623932590E+03 0.  0.
         23    2    4    4    0    0 -0.25526163746E+02  0.10343411248E+03 -0.12711096201E+03  0.19000808828E+03  0.92712870121E+02 0.  0.
         23    2    4    4    0    0 -0.70791709622E+03  0.31734650757E+03  0.13295139651E+04  0.15421185901E+04  0.93096410195E+02 0.  0.
          2    1    3    3  502    0  0.31156562740E+03 -0.14452360474E+03  0.13344100996E+03  0.36846535203E+03  0.00000000000E+00 0. -1.
         -1    1    3    3    0  502  0.42187763257E+03 -0.27625701531E+03  0.12838962003E+03  0.52036772565E+03  0.00000000000E+00 0.  1.
         13    1    5    5    0    0  0.34226516344E+02  0.31545946940E+02 -0.30938765072E+02  0.55891040190E+02  0.00000000000E+00 0. -1.
        -13    1    5    5    0    0 -0.59752680090E+02  0.71888165537E+02 -0.96172196943E+02  0.13411704809E+03  0.00000000000E+00 0.  1.
          2    1    6    6  503    0 -0.19978046182E+03  0.12862949411E+03  0.35946705095E+03  0.43089945509E+03  0.00000000000E+00 0. -1.
         -2    1    6    6    0  503 -0.50813663440E+03  0.18871701347E+03  0.97004691410E+03  0.11112191350E+04  0.00000000000E+00 0.  1.
<mgrwt>
<rscale>  0 0.21738100E+04</rscale>
<asrwt>0</asrwt>
<pdfrwt beam="1">  1        2 0.88978934E-01 0.21738100E+04</pdfrwt>
<pdfrwt beam="2">  1       -1 0.31424564E+00 0.21738100E+04</pdfrwt>
<totfact> 0.14475703E+00</totfact>
</mgrwt>
</event>
<event>
12    7  0.1605494E-007  0.1621919E+04  0.7818608E-02  0.8807194E-01
         -1   -1    0    0    0  501 -0.00000000000E+00  0.00000000000E+00  0.15854549095E+04  0.15854549095E+04  0.00000000000E+00 0.  1.
          2   -1    0    0  501    0  0.00000000000E+00 -0.00000000000E+00 -0.41480551709E+03  0.41480551709E+03  0.00000000000E+00 0. -1.
         24    2    1    2    0    0 -0.13644932247E+03 -0.53865833552E+03  0.45087405583E+03  0.71993048115E+03  0.79001667340E+02 0.  0.
        254    2    1    2    0    0  0.13644932247E+03  0.53865833552E+03  0.71977533663E+03  0.12803299455E+04  0.90133069072E+03 0.  0.
         23    2    4    4    0    0  0.23298572700E+03  0.73934798627E+03  0.39147774211E+03  0.87326763425E+03  0.91780960293E+02 0.  0.
         23    2    4    4    0    0 -0.96536404530E+02 -0.20068965075E+03  0.32829759453E+03  0.40706231123E+03  0.91240349263E+02 0.  0.
          2    1    3    3  502    0 -0.41893158265E+02 -0.13484691330E+03  0.73433110063E+02  0.15915762121E+03  0.00000000000E+00 0. -1.
         -1    1    3    3    0  502 -0.94556164208E+02 -0.40381142222E+03  0.37744094577E+03  0.56077285994E+03  0.00000000000E+00 0.  1.
         13    1    5    5    0    0  0.22384396859E+03  0.62065704292E+03  0.35223102868E+03  0.74792244569E+03  0.00000000000E+00 0. -1.
        -13    1    5    5    0    0  0.91417584129E+01  0.11869094335E+03  0.39246713427E+02  0.12534518856E+03  0.00000000000E+00 0.  1.
          3    1    6    6  503    0 -0.10007304097E+03 -0.18202438011E+03  0.32778269361E+03  0.38805796308E+03  0.00000000000E+00 0. -1.
         -3    1    6    6    0  503  0.35366364375E+01 -0.18665270647E+02  0.51490091774E+00  0.19004348149E+02  0.00000000000E+00 0.  1.
<mgrwt>
<rscale>  0 0.16219192E+04</rscale>
<asrwt>0</asrwt>
<pdfrwt beam="1">  1        2 0.63816234E-01 0.16219192E+04</pdfrwt>
<pdfrwt beam="2">  1       -1 0.24391614E+00 0.16219192E+04</pdfrwt>
<totfact> 0.63861125E+00</totfact>
</mgrwt>
</event>
<event>
12    7  0.1605494E-007  0.1918424E+04  0.7818608E-02  0.8645740E-01
          2   -1    0    0  501    0  0.00000000000E+00  0.00000000000E+00  0.25477462917E+04  0.25477462917E+04  0.00000000000E+00 0. -1.
         -1   -1    0    0    0  501 -0.00000000000E+00 -0.00000000000E+00 -0.36113772782E+03  0.36113772782E+03  0.00000000000E+00 0.  1.
         24    2    1    2    0    0  0.43272900022E+03 -0.54711224926E+03  0.44597489865E+03  0.83182540559E+03  0.80334888002E+02 0.  0.
        254    2    1    2    0    0 -0.43272900022E+03  0.54711224926E+03  0.17406336652E+04  0.20770586139E+04  0.89318571878E+03 0.  0.
         23    2    4    4    0    0 -0.22955045616E+03  0.25160401133E+03  0.16623829268E+04  0.16994212071E+04  0.92290050277E+02 0.  0.
         23    2    4    4    0    0 -0.20317854406E+03  0.29550823793E+03  0.78250738397E+02  0.37763740680E+03  0.88770454001E+02 0.  0.
          4    1    3    3  502    0  0.16043619943E+03 -0.26297602715E+03  0.21251858341E+03  0.37424632695E+03  0.00000000000E+00 0. -1.
         -3    1    3    3    0  502  0.27229280079E+03 -0.28413622212E+03  0.23345631524E+03  0.45757907864E+03  0.00000000000E+00 0.  1.
         13    1    5    5    0    0 -0.57442415129E+02  0.16591973544E+02  0.35302719093E+03  0.35805463574E+03  0.00000000000E+00 0.  1.
        -13    1    5    5    0    0 -0.17210804103E+03  0.23501203779E+03  0.13093557359E+04  0.13413665714E+04  0.00000000000E+00 0. -1.
          2    1    6    6  503    0 -0.10399040005E+03  0.76749692755E+02  0.27115579115E+02  0.13205973372E+03  0.00000000000E+00 0. -1.
         -2    1    6    6    0  503 -0.99188144019E+02  0.21875854518E+03  0.51135159283E+02  0.24557767308E+03  0.00000000000E+00 0.  1.
<mgrwt>
<rscale>  0 0.19184236E+04</rscale>
<asrwt>0</asrwt>
<pdfrwt beam="1">  1        2 0.39196096E+00 0.19184236E+04</pdfrwt>
<pdfrwt beam="2">  1       -1 0.55559652E-01 0.19184236E+04</pdfrwt>
<totfact> 0.11399192E+01</totfact>
</mgrwt>
</event>
<event>
12    7  0.1605494E-007  0.1510461E+04  0.7818608E-02  0.8877526E-01
         -1   -1    0    0    0  501 -0.00000000000E+00  0.00000000000E+00  0.32230041972E+03  0.32230041972E+03  0.00000000000E+00 0.  1.
          2   -1    0    0  501    0  0.00000000000E+00 -0.00000000000E+00 -0.17696945314E+04  0.17696945314E+04  0.00000000000E+00 0. -1.
         24    2    1    2    0    0 -0.27267575101E+03  0.68967481303E+02 -0.10129147749E+04  0.10541666456E+04  0.78500935493E+02 0.  0.
        254    2    1    2    0    0  0.27267575101E+03 -0.68967481303E+02 -0.43447933682E+03  0.10378283055E+04  0.89955918036E+03 0.  0.
         23    2    4    4    0    0  0.16488712525E+03  0.32566033133E+03 -0.48570162027E+03  0.61531042230E+03  0.97254492815E+02 0.  0.
         23    2    4    4    0    0  0.10778862576E+03 -0.39462781263E+03  0.51222283456E+02  0.42251788323E+03  0.92456157072E+02 0.  0.
          2    1    3    3  502    0 -0.21838933505E+03  0.64749736483E+02 -0.68818436980E+03  0.72490286030E+03  0.00000000000E+00 0. -1.
         -1    1    3    3    0  502 -0.54286415957E+02  0.42177448196E+01 -0.32473040506E+03  0.32926378528E+03  0.00000000000E+00 0.  1.
         13    1    5    5    0    0  0.83917496111E+02  0.70512884949E+02 -0.15515642392E+03  0.18996770510E+03  0.00000000000E+00 0.  1.
        -13    1    5    5    0    0  0.80969629139E+02  0.25514744638E+03 -0.33054519635E+03  0.42534271719E+03  0.00000000000E+00 0. -1.
          1    1    6    6  503    0 -0.12848374332E+02 -0.92096956792E+02  0.11582073303E+01  0.92996083883E+02  0.00000000000E+00 0. -1.
         -1    1    6    6    0  503  0.12063700009E+03 -0.30253085584E+03  0.50064076125E+02  0.32952179935E+03  0.00000000000E+00 0.  1.
<mgrwt>
<rscale>  0 0.15104612E+04</rscale>
<asrwt>0</asrwt>
<pdfrwt beam="1">  1        2 0.27226070E+00 0.15104612E+04</pdfrwt>
<pdfrwt beam="2">  1       -1 0.49584680E-01 0.15104612E+04</pdfrwt>
<totfact> 0.40231478E+01</totfact>
</mgrwt>
</event>
<event>
12    7  0.1605494E-007  0.1761413E+04  0.7818608E-02  0.8727093E-01
         -1   -1    0    0    0  501 -0.00000000000E+00  0.00000000000E+00  0.21332941382E+04  0.21332941382E+04  0.00000000000E+00 0.  1.
          2   -1    0    0  501    0  0.00000000000E+00 -0.00000000000E+00 -0.36358974186E+03  0.36358974186E+03  0.00000000000E+00 0. -1.
         24    2    1    2    0    0  0.36592723488E+02  0.57250104902E+03  0.23040580860E+03  0.62332963392E+03  0.79727770215E+02 0.  0.
        254    2    1    2    0    0 -0.36592723488E+02 -0.57250104902E+03  0.15392985877E+04  0.18735542461E+04  0.90092668542E+03 0.  0.
         23    2    4    4    0    0 -0.20591591357E+03  0.13770777611E+03  0.15954328916E+03  0.30964553659E+03  0.95191922750E+02 0.  0.
         23    2    4    4    0    0  0.16932319008E+03 -0.71020882512E+03  0.13797552986E+04  0.15639087095E+04  0.94967625365E+02 0.  0.
          2    1    3    3  502    0 -0.79759222407E+01  0.36929278459E+03  0.12384108879E+03  0.38958617963E+03  0.00000000000E+00 0. -1.
         -1    1    3    3    0  502  0.44568645728E+02  0.20320826443E+03  0.10656471981E+03  0.23374345429E+03  0.00000000000E+00 0.  1.
         13    1    5    5    0    0 -0.71028008466E+02 -0.31849303727E+00  0.29401984616E+02  0.76873637379E+02  0.00000000000E+00 0.  1.
        -13    1    5    5    0    0 -0.13488790510E+03  0.13802626915E+03  0.13014130454E+03  0.23277189921E+03  0.00000000000E+00 0. -1.
          4    1    6    6  503    0  0.10731322493E+03 -0.50476625429E+03  0.88220066553E+03  0.10220484891E+04  0.00000000000E+00 0. -1.
         -4    1    6    6    0  503  0.62009965154E+02 -0.20544257084E+03  0.49755463304E+03  0.54186022049E+03  0.00000000000E+00 0.  1.
<mgrwt>
<rscale>  0 0.17614129E+04</rscale>
<asrwt>0</asrwt>
<pdfrwt beam="1">  1        2 0.55936885E-01 0.17614129E+04</pdfrwt>
<pdfrwt beam="2">  1       -1 0.32819909E+00 0.17614129E+04</pdfrwt>
<totfact> 0.20788831E+00</totfact>
</mgrwt>
</event>
<event>
12    7  0.1605494E-007  0.2016650E+04  0.7818608E-02  0.8598876E-01
          2   -1    0    0  501    0  0.00000000000E+00  0.00000000000E+00  0.99316967701E+03  0.99316967701E+03  0.00000000000E+00 0. -1.
         -1   -1    0    0    0  501 -0.00000000000E+00 -0.00000000000E+00 -0.10237116007E+04  0.10237116007E+04  0.00000000000E+00 0.  1.
         24    2    1    2    0    0  0.61980811859E+02  0.58445619490E+03 -0.56159292502E+03  0.81676702911E+03  0.79316464921E+02 0.  0.
        254    2    1    2    0    0 -0.61980811859E+02 -0.58445619490E+03  0.53105100138E+03  0.12001142486E+04  0.90156995222E+03 0.  0.
         23    2    4    4    0    0  0.21186469258E+03 -0.64529952366E+03  0.58301444421E+03  0.90000489611E+03  0.93834149809E+02 0.  0.
         23    2    4    4    0    0 -0.27384550444E+03  0.60843328760E+02 -0.51963442833E+02  0.30010935245E+03  0.93124395723E+02 0.  0.
          2    1    3    3  502    0  0.31627135987E+02  0.18096791770E+03 -0.12930071319E+03  0.22465159113E+03  0.00000000000E+00 0. -1.
         -1    1    3    3    0  502  0.30353675871E+02  0.40348827720E+03 -0.43229221184E+03  0.59211543798E+03  0.00000000000E+00 0.  1.
         13    1    5    5    0    0  0.39793823538E+02 -0.26301187720E+03  0.21128765759E+03  0.33970762457E+03  0.00000000000E+00 0.  1.
        -13    1    5    5    0    0  0.17207086904E+03 -0.38228764646E+03  0.37172678662E+03  0.56029727154E+03  0.00000000000E+00 0. -1.
          1    1    6    6  503    0 -0.12987358413E+03  0.60266082418E+02 -0.61491057422E+02  0.15582136788E+03  0.00000000000E+00 0. -1.
         -1    1    6    6    0  503 -0.14397192031E+03  0.57724634224E+00  0.95276145890E+01  0.14428798457E+03  0.00000000000E+00 0.  1.
<mgrwt>
<rscale>  0 0.20166500E+04</rscale>
<asrwt>0</asrwt>
<pdfrwt beam="1">  1        2 0.15279533E+00 0.20166500E+04</pdfrwt>
<pdfrwt beam="2">  1       -1 0.15749409E+00 0.20166500E+04</pdfrwt>
<totfact> 0.82238284E+00</totfact>
</mgrwt>
</event>
<event>
12    7  0.1605494E-007  0.2348320E+04  0.7818608E-02  0.8459109E-01
          2   -1    0    0  501    0  0.00000000000E+00  0.00000000000E+00  0.15239216699E+04  0.15239216699E+04  0.00000000000E+00 0. -1.
         -3   -1    0    0    0  501 -0.00000000000E+00 -0.00000000000E+00 -0.90467383049E+03  0.90467383049E+03  0.00000000000E+00 0.  1.
         24    2    1    2    0    0  0.77487110183E+03 -0.62251357225E+03  0.36992473948E+03  0.10635025717E+04  0.79025533775E+02 0.  0.
        254    2    1    2    0    0 -0.77487110183E+03  0.62251357225E+03  0.24932309998E+03  0.13650929288E+04  0.90186934967E+03 0.  0.
         23    2    4    4    0    0 -0.53667643902E+03  0.84053573502E+03  0.23512698243E+03  0.10288168065E+04  0.93045157993E+02 0.  0.
         23    2    4    4    0    0 -0.23819466281E+03 -0.21802216277E+03  0.14196117545E+02  0.33627612226E+03  0.92788683574E+02 0.  0.
          4    1    3    3  502    0  0.11794700354E+03 -0.13300044759E+03  0.70992854890E+02  0.19141734547E+03  0.00000000000E+00 0. -1.
         -3    1    3    3    0  502  0.65692409829E+03 -0.48951312466E+03  0.29893188459E+03  0.87208522620E+03  0.00000000000E+00 0.  1.
         13    1    5    5    0    0 -0.48288129614E+03  0.72398205164E+03  0.23100225083E+03  0.90038125100E+03  0.00000000000E+00 0. -1.
        -13    1    5    5    0    0 -0.53795142880E+02  0.11655368338E+03  0.41247316039E+01  0.12843555550E+03  0.00000000000E+00 0.  1.
          3    1    6    6  503    0 -0.14138019266E+03 -0.15971446088E+03 -0.29046131155E+02  0.21526900758E+03  0.00000000000E+00 0. -1.
         -3    1    6    6    0  503 -0.96814470149E+02 -0.58307701890E+02  0.43242248701E+02  0.12100711468E+03  0.00000000000E+00 0.  1.
<mgrwt>
<rscale>  0 0.23483203E+04</rscale>
<asrwt>0</asrwt>
<pdfrwt beam="1">  1        2 0.23444949E+00 0.23483203E+04</pdfrwt>
<pdfrwt beam="2">  1       -3 0.13918059E+00 0.23483203E+04</pdfrwt>
<totfact> 0.27555238E+00</totfact>
</mgrwt>
</event>
<event>
12    7  0.1605494E-007  0.2514770E+04  0.7818608E-02  0.8397743E-01
         -1   -1    0    0    0  501 -0.00000000000E+00  0.00000000000E+00  0.93956825354E+03  0.93956825354E+03  0.00000000000E+00 0.  1.
          2   -1    0    0  501    0  0.00000000000E+00 -0.00000000000E+00 -0.16827057157E+04  0.16827057157E+04  0.00000000000E+00 0. -1.
         24    2    1    2    0    0 -0.57255716316E+02 -0.58016824656E+03 -0.12971494997E+04  0.14255195345E+04  0.98161638288E+02 0.  0.
        254    2    1    2    0    0  0.57255716316E+02  0.58016824656E+03  0.55401203756E+03  0.11967544347E+04  0.88623835843E+03 0.  0.
         23    2    4    4    0    0  0.91970226664E+02  0.65740609258E+02 -0.21921754511E+03  0.26311189808E+03  0.91603430760E+02 0.  0.
         23    2    4    4    0    0 -0.34714510349E+02  0.51442763730E+03  0.77322958267E+03  0.93364253666E+03  0.89238486656E+02 0.  0.
          4    1    3    3  502    0 -0.19043566144E+02 -0.47699755196E+03 -0.11121808941E+04  0.12103039548E+04  0.00000000000E+00 0. -1.
         -3    1    3    3    0  502 -0.38212150172E+02 -0.10317069460E+03 -0.18496860561E+03  0.21521557961E+03  0.00000000000E+00 0.  1.
         13    1    5    5    0    0  0.10534368472E+03  0.74306805389E+02 -0.20250836054E+03  0.24005922046E+03  0.00000000000E+00 0. -1.
        -13    1    5    5    0    0 -0.13373458054E+02 -0.85661961314E+01 -0.16709184573E+02  0.23052677623E+02  0.00000000000E+00 0.  1.
          3    1    6    6  503    0 -0.30478933144E+01 -0.32767453645E+00  0.23260040261E+02  0.23461169988E+02  0.00000000000E+00 0.  1.
         -3    1    6    6    0  503 -0.31666617034E+02  0.51475531184E+03  0.74996954241E+03  0.91018136667E+03  0.00000000000E+00 0. -1.
<mgrwt>
<rscale>  0 0.25147699E+04</rscale>
<asrwt>0</asrwt>
<pdfrwt beam="1">  1        2 0.25887780E+00 0.25147699E+04</pdfrwt>
<pdfrwt beam="2">  1       -1 0.14454896E+00 0.25147699E+04</pdfrwt>
<totfact> 0.39179016E+00</totfact>
</mgrwt>
</event>
<event>
12    7  0.1605494E-007  0.1823273E+04  0.7818608E-02  0.8694020E-01
         -1   -1    0    0    0  501 -0.00000000000E+00  0.00000000000E+00  0.56438803710E+03  0.56438803710E+03  0.00000000000E+00 0.  1.
          2   -1    0    0  501    0  0.00000000000E+00 -0.00000000000E+00 -0.14725353024E+04  0.14725353024E+04  0.00000000000E+00 0. -1.
         24    2    1    2    0    0 -0.25742603003E+03  0.16312145387E+03  0.35971740992E+03  0.47813937382E+03  0.79648453533E+02 0.  0.
        254    2    1    2    0    0  0.25742603003E+03 -0.16312145387E+03 -0.12678646752E+04  0.15587839657E+04  0.85407836138E+03 0.  0.
         23    2    4    4    0    0  0.56125952715E+03 -0.15398506074E+03 -0.80024691966E+03  0.99375240787E+03  0.91788125402E+02 0.  0.
         23    2    4    4    0    0 -0.30383349712E+03 -0.91363931299E+01 -0.46761775556E+03  0.56503155783E+03  0.90531919118E+02 0.  0.
          2    1    3    3  502    0 -0.13991856989E+03  0.43890325114E+02  0.14954295584E+03  0.20944369764E+03  0.00000000000E+00 0. -1.
         -1    1    3    3    0  502 -0.11750746014E+03  0.11923112875E+03  0.21017445407E+03  0.26869567618E+03  0.00000000000E+00 0.  1.
         13    1    5    5    0    0  0.15032950813E+03 -0.44100872689E+02 -0.15113352365E+03  0.21768139553E+03  0.00000000000E+00 0. -1.
        -13    1    5    5    0    0  0.41093001901E+03 -0.10988418805E+03 -0.64911339601E+03  0.77607101234E+03  0.00000000000E+00 0.  1.
          3    1    6    6  503    0 -0.20836100982E+03 -0.40988292845E+02 -0.35779256984E+03  0.41606474688E+03  0.00000000000E+00 0. -1.
         -3    1    6    6    0  503 -0.95472487300E+02  0.31851899715E+02 -0.10982518572E+03  0.14896681095E+03  0.00000000000E+00 0.  1.
<mgrwt>
<rscale>  0 0.18232732E+04</rscale>
<asrwt>0</asrwt>
<pdfrwt beam="1">  1        2 0.22654389E+00 0.18232732E+04</pdfrwt>
<pdfrwt beam="2">  1       -1 0.86828928E-01 0.18232732E+04</pdfrwt>
<totfact> 0.18465168E+01</totfact>
</mgrwt>
</event>
<event>
12    7  0.1605494E-007  0.1941014E+04  0.7818608E-02  0.8634706E-01
         -1   -1    0    0    0  501 -0.00000000000E+00  0.00000000000E+00  0.65795512763E+03  0.65795512763E+03  0.00000000000E+00 0.  1.
          2   -1    0    0  501    0  0.00000000000E+00 -0.00000000000E+00 -0.14315320078E+04  0.14315320078E+04  0.00000000000E+00 0. -1.
         24    2    1    2    0    0  0.35837699361E+03 -0.22940477579E+03  0.37052819252E+03  0.56966382989E+03  0.78518258503E+02 0.  0.
        254    2    1    2    0    0 -0.35837699361E+03  0.22940477579E+03 -0.11441050727E+04  0.15198233055E+04  0.90544234605E+03 0.  0.
         23    2    4    4    0    0  0.23053775986E+03 -0.28574549090E+02 -0.67450767305E+03  0.71883512689E+03  0.88312938225E+02 0.  0.
         23    2    4    4    0    0 -0.58891475348E+03  0.25797932488E+03 -0.46959739964E+03  0.80098817866E+03  0.87672262882E+02 0.  0.
          4    1    3    3  502    0  0.20571131201E+03 -0.99537782346E+02  0.15991045617E+03  0.27891982360E+03  0.00000000000E+00 0. -1.
         -3    1    3    3    0  502  0.15266568160E+03 -0.12986699344E+03  0.21061773635E+03  0.29074400629E+03  0.00000000000E+00 0.  1.
         13    1    5    5    0    0  0.11428899285E+03  0.14165008641E+02 -0.42428392527E+03  0.43963561116E+03  0.00000000000E+00 0. -1.
        -13    1    5    5    0    0  0.11624876701E+03 -0.42739557731E+02 -0.25022374779E+03  0.27919951573E+03  0.00000000000E+00 0.  1.
          2    1    6    6  503    0 -0.56600940165E+03  0.24544284654E+03 -0.46883644951E+03  0.77486543997E+03  0.00000000000E+00 0.  1.
         -2    1    6    6    0  503 -0.22905351832E+02  0.12536478332E+02 -0.76095012686E+00  0.26122738689E+02  0.00000000000E+00 0. -1.
<mgrwt>
<rscale>  0 0.19410140E+04</rscale>
<asrwt>0</asrwt>
<pdfrwt beam="1">  1        2 0.22023569E+00 0.19410140E+04</pdfrwt>
<pdfrwt beam="2">  1       -1 0.10122387E+00 0.19410140E+04</pdfrwt>
<totfact> 0.13687599E+01</totfact>
</mgrwt>
</event>
<event>
12    7  0.1605494E-007  0.1789246E+04  0.7818608E-02  0.8712040E-01
         -1   -1    0    0    0  501 -0.00000000000E+00  0.00000000000E+00  0.31286591744E+03  0.31286591744E+03  0.00000000000E+00 0.  1.
          2   -1    0    0  501    0  0.00000000000E+00 -0.00000000000E+00 -0.25581243214E+04  0.25581243214E+04  0.00000000000E+00 0. -1.
         24    2    1    2    0    0 -0.48820145732E+03  0.19231069699E+03 -0.14857926317E+04  0.15777738702E+04  0.80415011185E+02 0.  0.
        254    2    1    2    0    0  0.48820145732E+03 -0.19231069699E+03 -0.75946577232E+03  0.12932163687E+04  0.90570207562E+03 0.  0.
         23    2    4    4    0    0 -0.25375715013E+03 -0.20577939442E+02 -0.27515553284E+03  0.38606245571E+03  0.92290354989E+02 0.  0.
         23    2    4    4    0    0  0.74195860744E+03 -0.17173275755E+03 -0.48431023948E+03  0.90715391297E+03  0.91526491070E+02 0.  0.
          4    1    3    3  502    0 -0.22730974585E+03  0.97837580759E+02 -0.58429199893E+03  0.63453845650E+03  0.00000000000E+00 0. -1.
         -3    1    3    3    0  502 -0.26089171147E+03  0.94473116235E+02 -0.90150063273E+03  0.94323541368E+03  0.00000000000E+00 0.  1.
         13    1    5    5    0    0 -0.11384888327E+03  0.17791975567E+02 -0.70105515174E+02  0.13488108049E+03  0.00000000000E+00 0. -1.
        -13    1    5    5    0    0 -0.13990826686E+03 -0.38369915010E+02 -0.20505001767E+03  0.25118137523E+03  0.00000000000E+00 0.  1.
          3    1    6    6  503    0  0.37953739195E+03 -0.12291844898E+03 -0.21669231999E+03  0.45399684859E+03  0.00000000000E+00 0. -1.
         -3    1    6    6    0  503  0.36242121550E+03 -0.48814308576E+02 -0.26761791949E+03  0.45315706438E+03  0.00000000000E+00 0.  1.
<mgrwt>
<rscale>  0 0.17892456E+04</rscale>
<asrwt>0</asrwt>
<pdfrwt beam="1">  1        2 0.39355760E+00 0.17892456E+04</pdfrwt>
<pdfrwt beam="2">  1       -1 0.48133217E-01 0.17892456E+04</pdfrwt>
<totfact> 0.14969890E+01</totfact>
</mgrwt>
</event>
<event>
12    7  0.1605494E-007  0.1612842E+04  0.7818608E-02  0.8812697E-01
          2   -1    0    0  501    0  0.00000000000E+00  0.00000000000E+00  0.99090545298E+03  0.99090545298E+03  0.00000000000E+00 0. -1.
         -1   -1    0    0    0  501 -0.00000000000E+00 -0.00000000000E+00 -0.65628341509E+03  0.65628341509E+03  0.00000000000E+00 0.  1.
         24    2    1    2    0    0 -0.11161057917E+03  0.52264982098E+03  0.22934051736E+03  0.58713808288E+03  0.80711205622E+02 0.  0.
        254    2    1    2    0    0  0.11161057917E+03 -0.52264982098E+03  0.10528152054E+03  0.10600507852E+04  0.90939744439E+03 0.  0.
         23    2    4    4    0    0 -0.28634347675E+03 -0.56424635953E+03  0.11040266748E+03  0.64939005756E+03  0.95666906277E+02 0.  0.
         23    2    4    4    0    0  0.39795405592E+03  0.41596538545E+02 -0.51211469432E+01  0.41066072763E+03  0.92294660914E+02 0.  0.
          2    1    3    3  502    0 -0.47817465691E+02  0.25645479242E+03  0.15517192229E+03  0.30353565861E+03  0.00000000000E+00 0. -1.
         -1    1    3    3    0  502 -0.63793113479E+02  0.26619502856E+03  0.74168595065E+02  0.28360242427E+03  0.00000000000E+00 0.  1.
         13    1    5    5    0    0 -0.17800025932E+03 -0.44181844006E+03  0.76566607880E+02  0.48244178067E+03  0.00000000000E+00 0.  1.
        -13    1    5    5    0    0 -0.10834321742E+03 -0.12242791947E+03  0.33836059601E+02  0.16694827689E+03  0.00000000000E+00 0. -1.
          1    1    6    6  503    0  0.75414173138E+01  0.17896506854E+02 -0.19317285885E+01  0.19516390752E+02  0.00000000000E+00 0. -1.
         -1    1    6    6    0  503  0.39041263860E+03  0.23700031691E+02 -0.31894183547E+01  0.39114433688E+03  0.00000000000E+00 0.  1.
<mgrwt>
<rscale>  0 0.16128420E+04</rscale>
<asrwt>0</asrwt>
<pdfrwt beam="1">  1        2 0.15244699E+00 0.16128420E+04</pdfrwt>
<pdfrwt beam="2">  1       -1 0.10096668E+00 0.16128420E+04</pdfrwt>
<totfact> 0.26021968E+01</totfact>
</mgrwt>
</event>
<event>
12    7  0.1605494E-007  0.1746335E+04  0.7818608E-02  0.8735370E-01
         -1   -1    0    0    0  501 -0.00000000000E+00  0.00000000000E+00  0.10685027183E+04  0.10685027183E+04  0.00000000000E+00 0.  1.
          2   -1    0    0  501    0  0.00000000000E+00 -0.00000000000E+00 -0.71354203345E+03  0.71354203345E+03  0.00000000000E+00 0. -1.
         24    2    1    2    0    0  0.55935929577E+03 -0.30515481126E+03  0.16663369927E+03  0.66358733686E+03  0.81111548527E+02 0.  0.
        254    2    1    2    0    0 -0.55935929577E+03  0.30515481126E+03  0.18832698558E+03  0.11184574149E+04  0.89970976143E+03 0.  0.
         23    2    4    4    0    0 -0.54499972000E+02  0.40102048159E+03  0.37978129993E+03  0.56258465278E+03  0.92086818577E+02 0.  0.
         23    2    4    4    0    0 -0.50485932377E+03 -0.95865670333E+02 -0.19145431436E+03  0.55587276211E+03  0.90920897580E+02 0.  0.
          4    1    3    3  502    0  0.34256639428E+03 -0.20347981888E+03  0.66099147875E+02  0.40388719778E+03  0.00000000000E+00 0. -1.
         -1    1    3    3    0  502  0.21679290149E+03 -0.10167499238E+03  0.10053455139E+03  0.25970013908E+03  0.00000000000E+00 0.  1.
         13    1    5    5    0    0 -0.29938307579E+02  0.31707407276E+03  0.34193674897E+03  0.46728258065E+03  0.00000000000E+00 0.  1.
        -13    1    5    5    0    0 -0.24561664421E+02  0.83946408827E+02  0.37844550960E+02  0.95302072126E+02  0.00000000000E+00 0. -1.
          3    1    6    6  503    0 -0.17819258113E+03 -0.40589740248E+02 -0.23007210687E+02  0.18419949709E+03  0.00000000000E+00 0. -1.
         -3    1    6    6    0  503 -0.32666674264E+03 -0.55275930085E+02 -0.16844710367E+03  0.37167326502E+03  0.00000000000E+00 0.  1.
<mgrwt>
<rscale>  0 0.17463351E+04</rscale>
<asrwt>0</asrwt>
<pdfrwt beam="1">  1        2 0.10977570E+00 0.17463351E+04</pdfrwt>
<pdfrwt beam="2">  1       -1 0.16438503E+00 0.17463351E+04</pdfrwt>
<totfact> 0.11723977E+01</totfact>
</mgrwt>
</event>
<event>
12    7  0.1605494E-007  0.1480873E+04  0.7818608E-02  0.8897273E-01
          2   -1    0    0  501    0  0.00000000000E+00  0.00000000000E+00  0.15496504339E+04  0.15496504339E+04  0.00000000000E+00 0. -1.
         -1   -1    0    0    0  501 -0.00000000000E+00 -0.00000000000E+00 -0.35378713756E+03  0.35378713756E+03  0.00000000000E+00 0.  1.
         24    2    1    2    0    0 -0.30025887986E+03  0.11268247861E+03 -0.48525036236E+02  0.33575274741E+03  0.86732302709E+02 0.  0.
        254    2    1    2    0    0  0.30025887986E+03 -0.11268247861E+03  0.12443883325E+04  0.15676848240E+04  0.89793131663E+03 0.  0.
         23    2    4    4    0    0  0.16376280073E+03 -0.45990594787E+03  0.98049562305E+03  0.10997981181E+04  0.99259749867E+02 0.  0.
         23    2    4    4    0    0  0.13649607912E+03  0.34722346926E+03  0.26389270950E+03  0.46788670594E+03  0.10041558765E+03 0.  0.
          2    1    3    3  502    0 -0.18631606725E+03  0.82166770121E+02  0.10400793520E+02  0.20389514838E+03  0.00000000000E+00 0. -1.
         -1    1    3    3    0  502 -0.11394281261E+03  0.30515708489E+02 -0.58925829755E+02  0.13185759903E+03  0.00000000000E+00 0.  1.
         13    1    5    5    0    0  0.29543176800E+02 -0.43032419281E+02  0.17900913805E+03  0.18646409818E+03  0.00000000000E+00 0. -1.
        -13    1    5    5    0    0  0.13421962393E+03 -0.41687352859E+03  0.80148648500E+03  0.91333401991E+03  0.00000000000E+00 0.  1.
          2    1    6    6  503    0 -0.10513712366E+02  0.32579838727E+02  0.47432886808E+01  0.34561290872E+02  0.00000000000E+00 0. -1.
         -2    1    6    6    0  503  0.14700979149E+03  0.31464363054E+03  0.25914942082E+03  0.43332541507E+03  0.00000000000E+00 0.  1.
<mgrwt>
<rscale>  0 0.14808732E+04</rscale>
<asrwt>0</asrwt>
<pdfrwt beam="1">  1        2 0.23840775E+00 0.14808732E+04</pdfrwt>
<pdfrwt beam="2">  1       -1 0.54428791E-01 0.14808732E+04</pdfrwt>
<totfact> 0.44732692E+01</totfact>
</mgrwt>
</event>
<event>
12    7  0.1605494E-007  0.1386944E+04  0.7818608E-02  0.8963323E-01
          4   -1    0    0  501    0  0.00000000000E+00  0.00000000000E+00  0.11963218716E+04  0.11963218716E+04  0.00000000000E+00 0. -1.
         -3   -1    0    0    0  501 -0.00000000000E+00 -0.00000000000E+00 -0.40198521051E+03  0.40198521051E+03  0.00000000000E+00 0.  1.
         24    2    1    2    0    0  0.22769919523E+03  0.31271146993E+03  0.11554585040E+03  0.41167757009E+03  0.80574135014E+02 0.  0.
        254    2    1    2    0    0 -0.22769919523E+03 -0.31271146993E+03  0.67879081066E+03  0.11866295120E+04  0.89313898535E+03 0.  0.
         23    2    4    4    0    0  0.79437418477E+02 -0.55680480893E+03  0.43748790872E+03  0.71769715017E+03  0.85741649108E+02 0.  0.
         23    2    4    4    0    0 -0.30713661371E+03  0.24409333900E+03  0.24130290195E+03  0.46893236182E+03  0.88068222713E+02 0.  0.
          4    1    3    3  502    0  0.20347090844E+03  0.25220747604E+03  0.12184058922E+03  0.34619958223E+03  0.00000000000E+00 0. -1.
         -3    1    3    3    0  502  0.24228286789E+02  0.60503993889E+02 -0.62947388196E+01  0.65477987859E+02  0.00000000000E+00 0.  1.
         13    1    5    5    0    0  0.16038005710E+01 -0.22454412318E+02  0.44413975944E+02  0.49793313487E+02  0.00000000000E+00 0.  1.
        -13    1    5    5    0    0  0.77833617906E+02 -0.53435039661E+03  0.39307393277E+03  0.66790383668E+03  0.00000000000E+00 0. -1.
          1    1    6    6  503    0 -0.23505212456E+03  0.20694725157E+03  0.22651005668E+03  0.38650158081E+03  0.00000000000E+00 0. -1.
         -1    1    6    6    0  503 -0.72084489147E+02  0.37146087424E+02  0.14792845269E+02  0.82430781008E+02  0.00000000000E+00 0.  1.
<mgrwt>
<rscale>  0 0.13869444E+04</rscale>
<asrwt>0</asrwt>
<pdfrwt beam="1">  1        4 0.18404952E+00 0.13869444E+04</pdfrwt>
<pdfrwt beam="2">  1       -3 0.61843879E-01 0.13869444E+04</pdfrwt>
<totfact> 0.95573665E-01</totfact>
</mgrwt>
</event>
<event>
12    7  0.1605494E-007  0.1881625E+04  0.7818608E-02  0.8664057E-01
         -1   -1    0    0    0  501 -0.00000000000E+00  0.00000000000E+00  0.20200912510E+03  0.20200912510E+03  0.00000000000E+00 0.  1.
          2   -1    0    0  501    0  0.00000000000E+00 -0.00000000000E+00 -0.43816246540E+04  0.43816246540E+04  0.00000000000E+00 0. -1.
         24    2    1    2    0    0 -0.54603473710E+03  0.28866816209E+03 -0.25459822642E+04  0.26209999187E+04  0.78304804042E+02 0.  0.
        254    2    1    2    0    0  0.54603473710E+03 -0.28866816209E+03 -0.16336332646E+04  0.19626338603E+04  0.89537186938E+03 0.  0.
         23    2    4    4    0    0  0.48820000155E+03 -0.21913303940E+03 -0.17227257720E+04  0.18062083708E+04  0.90807835371E+02 0.  0.
         23    2    4    4    0    0  0.57834735551E+02 -0.69535122689E+02  0.89092507338E+02  0.15642548950E+03  0.91386371953E+02 0.  0.
          4    1    3    3  502    0 -0.49715095269E+03  0.26979467458E+03 -0.22252457340E+04  0.22960110655E+04  0.00000000000E+00 0. -1.
         -3    1    3    3    0  502 -0.48883784412E+02  0.18873487509E+02 -0.32073653024E+03  0.32498885326E+03  0.00000000000E+00 0.  1.
         13    1    5    5    0    0  0.29008593776E+03 -0.14474398293E+03 -0.89666376880E+03  0.95347081033E+03  0.00000000000E+00 0.  1.
        -13    1    5    5    0    0  0.19811406379E+03 -0.74389056469E+02 -0.82606200317E+03  0.85273756049E+03  0.00000000000E+00 0. -1.
          3    1    6    6  503    0  0.24132818883E+02 -0.64020783206E+02  0.99474602640E+02  0.12073214236E+03  0.00000000000E+00 0. -1.
         -3    1    6    6    0  503  0.33701916669E+02 -0.55143394827E+01 -0.10382095302E+02  0.35693347138E+02  0.00000000000E+00 0.  1.
<mgrwt>
<rscale>  0 0.18816250E+04</rscale>
<asrwt>0</asrwt>
<pdfrwt beam="1">  1        2 0.67409612E+00 0.18816250E+04</pdfrwt>
<pdfrwt beam="2">  1       -1 0.31078326E-01 0.18816250E+04</pdfrwt>
<totfact> 0.16644759E+00</totfact>
</mgrwt>
</event>
<event>
12    7  0.1605494E-007  0.2628792E+04  0.7818608E-02  0.8358486E-01
          2   -1    0    0  501    0  0.00000000000E+00  0.00000000000E+00  0.12507496315E+04  0.12507496315E+04  0.00000000000E+00 0. -1.
         -1   -1    0    0    0  501 -0.00000000000E+00 -0.00000000000E+00 -0.13812811685E+04  0.13812811685E+04  0.00000000000E+00 0.  1.
         24    2    1    2    0    0  0.37821308478E+03 -0.78589957399E+03 -0.82636804026E+03  0.12044448615E+04  0.84380143368E+02 0.  0.
        254    2    1    2    0    0 -0.37821308478E+03  0.78589957399E+03  0.69583650323E+03  0.14275859384E+04  0.89057840448E+03 0.  0.
         23    2    4    4    0    0  0.13847693725E+03  0.52324842312E+03  0.43971218474E+02  0.55072530609E+03  0.91652169988E+02 0.  0.
         23    2    4    4    0    0 -0.51669002203E+03  0.26265115087E+03  0.65186528475E+03  0.87686063236E+03  0.89453972501E+02 0.  0.
          4    1    3    3  502    0  0.95794683369E+02 -0.14259484862E+03 -0.13196929791E+03  0.21662365477E+03  0.00000000000E+00 0. -1.
         -3    1    3    3    0  502  0.28241840142E+03 -0.64330472537E+03 -0.69439874236E+03  0.98782120676E+03  0.00000000000E+00 0.  1.
         13    1    5    5    0    0  0.34300567968E+02  0.14395443629E+03  0.53255403627E+02  0.15727538493E+03  0.00000000000E+00 0. -1.
        -13    1    5    5    0    0  0.10417636928E+03  0.37929398683E+03 -0.92841851536E+01  0.39344992115E+03  0.00000000000E+00 0.  1.
          3    1    6    6  503    0 -0.23096122551E+03  0.75402846343E+02  0.23650586707E+03  0.33906297658E+03  0.00000000000E+00 0. -1.
         -3    1    6    6    0  503 -0.28572879652E+03  0.18724830453E+03  0.41535941768E+03  0.53779765578E+03  0.00000000000E+00 0.  1.
<mgrwt>
<rscale>  0 0.26287921E+04</rscale>
<asrwt>0</asrwt>
<pdfrwt beam="1">  1        2 0.19242302E+00 0.26287921E+04</pdfrwt>
<pdfrwt beam="2">  1       -1 0.21250479E+00 0.26287921E+04</pdfrwt>
<totfact> 0.21964861E+00</totfact>
</mgrwt>
</event>
<event>
12    7  0.1605494E-007  0.1552132E+04  0.7818608E-02  0.8850507E-01
          2   -1    0    0  501    0  0.00000000000E+00  0.00000000000E+00  0.75786027665E+03  0.75786027665E+03  0.00000000000E+00 0. -1.
         -1   -1    0    0    0  501 -0.00000000000E+00 -0.00000000000E+00 -0.79470884008E+03  0.79470884008E+03  0.00000000000E+00 0.  1.
         24    2    1    2    0    0 -0.13206467775E+03 -0.12612166702E+03 -0.49236265760E+03  0.53099398747E+03  0.78650328196E+02 0.  0.
        254    2    1    2    0    0  0.13206467775E+03  0.12612166702E+03  0.45551409418E+03  0.10215751293E+04  0.89597706485E+03 0.  0.
         23    2    4    4    0    0  0.36825086477E+03  0.53832543310E+02 -0.10787691076E+03  0.39850689177E+03  0.93078852517E+02 0.  0.
         23    2    4    4    0    0 -0.23618618702E+03  0.72289123715E+02  0.56339100494E+03  0.62306823750E+03  0.98969549786E+02 0.  0.
          2    1    3    3  502    0 -0.62149891937E+02 -0.66274703962E+02 -0.14067876126E+03  0.16746778593E+03  0.00000000000E+00 0. -1.
         -1    1    3    3    0  502 -0.69914785814E+02 -0.59846963063E+02 -0.35168389634E+03  0.36352620154E+03  0.00000000000E+00 0.  1.
         13    1    5    5    0    0  0.22987003133E+02 -0.19965580019E+02 -0.59186035962E+01  0.31017036723E+02  0.00000000000E+00 0. -1.
        -13    1    5    5    0    0  0.34526386164E+03  0.73798123329E+02 -0.10195830717E+03  0.36748985504E+03  0.00000000000E+00 0.  1.
          4    1    6    6  503    0 -0.23481641754E+03  0.60111945810E+02  0.56022304933E+03  0.61041138667E+03  0.00000000000E+00 0.  1.
         -4    1    6    6    0  503 -0.13697694776E+01  0.12177177904E+02  0.31679556115E+01  0.12656850828E+02  0.00000000000E+00 0. -1.
<mgrwt>
<rscale>  0 0.15521318E+04</rscale>
<asrwt>0</asrwt>
<pdfrwt beam="1">  1        2 0.11659389E+00 0.15521318E+04</pdfrwt>
<pdfrwt beam="2">  1       -1 0.12226290E+00 0.15521318E+04</pdfrwt>
<totfact> 0.24043353E+01</totfact>
</mgrwt>
</event>
<event>
12    7  0.1605494E-007  0.1682789E+04  0.7818608E-02  0.8771242E-01
          2   -1    0    0  501    0  0.00000000000E+00  0.00000000000E+00  0.86476786291E+03  0.86476786291E+03  0.00000000000E+00 0. -1.
         -1   -1    0    0    0  501 -0.00000000000E+00 -0.00000000000E+00 -0.81865307172E+03  0.81865307172E+03  0.00000000000E+00 0.  1.
         24    2    1    2    0    0 -0.43896756653E+03 -0.22797977171E+03  0.35001662497E+03  0.61184912531E+03  0.84737321243E+02 0.  0.
        254    2    1    2    0    0  0.43896756653E+03  0.22797977171E+03 -0.30390183379E+03  0.10715718093E+04  0.90069002280E+03 0.  0.
         23    2    4    4    0    0  0.58211174974E+03 -0.14887244369E+03 -0.13436202970E+03  0.62271337538E+03  0.93282898589E+02 0.  0.
         23    2    4    4    0    0 -0.14314418322E+03  0.37685221540E+03 -0.16953980409E+03  0.44885843394E+03  0.10110538616E+03 0.  0.
          2    1    3    3  502    0 -0.29171246587E+03 -0.12380276790E+03  0.26181253969E+03  0.41105850438E+03  0.00000000000E+00 0. -1.
         -1    1    3    3    0  502 -0.14725510066E+03 -0.10417700381E+03  0.88204085284E+02  0.20079062093E+03  0.00000000000E+00 0.  1.
         13    1    5    5    0    0  0.53297142791E+03 -0.12707469047E+03 -0.95001093561E+02  0.55608607940E+03  0.00000000000E+00 0. -1.
        -13    1    5    5    0    0  0.49140321831E+02 -0.21797753220E+02 -0.39360936137E+02  0.66627295973E+02  0.00000000000E+00 0.  1.
          1    1    6    6  503    0 -0.10981404830E+03  0.31171325969E+03 -0.17769753101E+03  0.37523418554E+03  0.00000000000E+00 0. -1.
         -1    1    6    6    0  503 -0.33330134918E+02  0.65138955705E+02  0.81577269189E+01  0.73624248400E+02  0.00000000000E+00 0.  1.
<mgrwt>
<rscale>  0 0.16827892E+04</rscale>
<asrwt>0</asrwt>
<pdfrwt beam="1">  1        2 0.13304121E+00 0.16827892E+04</pdfrwt>
<pdfrwt beam="2">  1       -1 0.12594663E+00 0.16827892E+04</pdfrwt>
<totfact> 0.18516658E+01</totfact>
</mgrwt>
</event>
<event>
12    7  0.1605494E-007  0.1169334E+04  0.7818608E-02  0.9140131E-01
          2   -1    0    0  501    0  0.00000000000E+00  0.00000000000E+00  0.36508914505E+03  0.36508914505E+03  0.00000000000E+00 0. -1.
         -1   -1    0    0    0  501 -0.00000000000E+00 -0.00000000000E+00 -0.93630616431E+03  0.93630616431E+03  0.00000000000E+00 0.  1.
         24    2    1    2    0    0 -0.10836335611E+02 -0.45265771885E+02 -0.35547231838E+03  0.36733387339E+03  0.80044919477E+02 0.  0.
        254    2    1    2    0    0  0.10836335611E+02  0.45265771885E+02 -0.21574470088E+03  0.93406143596E+03  0.90761146639E+03 0.  0.
         23    2    4    4    0    0  0.28177574294E+03  0.33676374533E+03  0.42796187866E+02  0.45066459225E+03  0.91976472718E+02 0.  0.
         23    2    4    4    0    0 -0.27093940733E+03 -0.29149797345E+03 -0.25854088875E+03  0.48339684371E+03  0.91923263543E+02 0.  0.
          2    1    3    3  502    0 -0.21402990695E+02 -0.65965536388E+02 -0.26516439219E+03  0.27408337214E+03  0.00000000000E+00 0. -1.
         -1    1    3    3    0  502  0.10566655084E+02  0.20699764503E+02 -0.90307926191E+02  0.93250501248E+02  0.00000000000E+00 0.  1.
         13    1    5    5    0    0  0.14120886227E+03  0.15726028801E+03  0.66186487154E+02  0.22147548860E+03  0.00000000000E+00 0. -1.
        -13    1    5    5    0    0  0.14056688067E+03  0.17950345732E+03 -0.23390299289E+02  0.22918910365E+03  0.00000000000E+00 0.  1.
          1    1    6    6  503    0 -0.16624538964E+03 -0.14025345682E+03 -0.18410531737E+03  0.28496197924E+03  0.00000000000E+00 0. -1.
         -1    1    6    6    0  503 -0.10469401769E+03 -0.15124451663E+03 -0.74435571378E+02  0.19843486447E+03  0.00000000000E+00 0.  1.
<mgrwt>
<rscale>  0 0.11693335E+04</rscale>
<asrwt>0</asrwt>
<pdfrwt beam="1">  1        2 0.56167561E-01 0.11693335E+04</pdfrwt>
<pdfrwt beam="2">  1       -1 0.14404710E+00 0.11693335E+04</pdfrwt>
<totfact> 0.38798343E+01</totfact>
</mgrwt>
</event>
<event>
12    7  0.1605494E-007  0.1999786E+04  0.7818608E-02  0.8606721E-01
         -1   -1    0    0    0  501 -0.00000000000E+00  0.00000000000E+00  0.47300926519E+03  0.47300926519E+03  0.00000000000E+00 0.  1.
          2   -1    0    0  501    0  0.00000000000E+00 -0.00000000000E+00 -0.21136719619E+04  0.21136719619E+04  0.00000000000E+00 0. -1.
         24    2    1    2    0    0  0.47340617877E+03 -0.27081556118E+03  0.10225005544E+03  0.55956952572E+03  0.72169952150E+02 0.  0.
        254    2    1    2    0    0 -0.47340617877E+03  0.27081556118E+03 -0.17429127522E+04  0.20271117014E+04  0.87976275776E+03 0.  0.
         23    2    4    4    0    0 -0.25392707145E+03 -0.59038204403E+01 -0.24060235278E+02  0.26995392182E+03  0.88217981587E+02 0.  0.
         23    2    4    4    0    0 -0.21947910732E+03  0.27671938162E+03 -0.17188525169E+04  0.17571577796E+04  0.91677656658E+02 0.  0.
          2    1    3    3  502    0  0.13089136437E+02 -0.13880744942E+02 -0.85097357652E+01  0.20890576239E+02  0.00000000000E+00 0. -1.
         -1    1    3    3    0  502  0.46031704234E+03 -0.25693481624E+03  0.11075979120E+03  0.53867894948E+03  0.00000000000E+00 0.  1.
         13    1    5    5    0    0 -0.11209600380E+03  0.19682532113E+02  0.27151978310E+02  0.11700489761E+03  0.00000000000E+00 0.  1.
        -13    1    5    5    0    0 -0.14183106765E+03 -0.25586352553E+02 -0.51212213587E+02  0.15294902421E+03  0.00000000000E+00 0. -1.
          3    1    6    6  503    0 -0.17133212206E+03  0.22716982867E+03 -0.11763063751E+04  0.12102303562E+04  0.00000000000E+00 0.  1.
         -3    1    6    6    0  503 -0.48146985262E+02  0.49549552956E+02 -0.54254614181E+03  0.54692742332E+03  0.00000000000E+00 0. -1.
<mgrwt>
<rscale>  0 0.19997864E+04</rscale>
<asrwt>0</asrwt>
<pdfrwt beam="1">  1        2 0.32518030E+00 0.19997864E+04</pdfrwt>
<pdfrwt beam="2">  1       -1 0.72770656E-01 0.19997864E+04</pdfrwt>
<totfact> 0.11627472E+01</totfact>
</mgrwt>
</event>
<event>
12    7  0.1605494E-007  0.1253753E+04  0.7818608E-02  0.9067065E-01
         -1   -1    0    0    0  501 -0.00000000000E+00  0.00000000000E+00  0.12709075016E+03  0.12709075016E+03  0.00000000000E+00 0.  1.
          2   -1    0    0  501    0  0.00000000000E+00 -0.00000000000E+00 -0.30920775591E+04  0.30920775591E+04  0.00000000000E+00 0. -1.
         24    2    1    2    0    0 -0.11257830086E+03 -0.23469344905E+03 -0.22455153755E+03  0.35301900146E+03  0.80275360625E+02 0.  0.
        254    2    1    2    0    0  0.11257830086E+03  0.23469344905E+03 -0.27404352714E+04  0.28661493078E+04  0.79816758210E+03 0.  0.
         23    2    4    4    0    0  0.28303943498E+03 -0.18882907215E+03 -0.15118748680E+04  0.15522872609E+04  0.89790776584E+02 0.  0.
         23    2    4    4    0    0 -0.17046113412E+03  0.42352252120E+03 -0.12285604034E+04  0.13138620469E+04  0.91893902766E+02 0.  0.
          2    1    3    3  502    0 -0.72234168540E+01 -0.28399370345E+02 -0.66288062842E+02  0.72476266891E+02  0.00000000000E+00 0. -1.
         -1    1    3    3    0  502 -0.10535488400E+03 -0.20629407871E+03 -0.15826347471E+03  0.28054273457E+03  0.00000000000E+00 0.  1.
         13    1    5    5    0    0  0.20269771100E+03 -0.11621447714E+03 -0.11888568165E+04  0.12115992311E+04  0.00000000000E+00 0.  1.
        -13    1    5    5    0    0  0.80341723972E+02 -0.72614595006E+02 -0.32301805154E+03  0.34068802979E+03  0.00000000000E+00 0. -1.
          1    1    6    6  503    0 -0.11611499620E+03  0.32837195590E+03 -0.10268233533E+04  0.10842864163E+04  0.00000000000E+00 0. -1.
         -1    1    6    6    0  503 -0.54346137919E+02  0.95150565307E+02 -0.20173705013E+03  0.22957563063E+03  0.00000000000E+00 0.  1.
<mgrwt>
<rscale>  0 0.12537535E+04</rscale>
<asrwt>0</asrwt>
<pdfrwt beam="1">  1        2 0.47570418E+00 0.12537535E+04</pdfrwt>
<pdfrwt beam="2">  1       -1 0.19552425E-01 0.12537535E+04</pdfrwt>
<totfact> 0.36746486E+01</totfact>
</mgrwt>
</event>
<event>
12    7  0.1605494E-007  0.2281064E+04  0.7818608E-02  0.8485425E-01
          2   -1    0    0  501    0  0.00000000000E+00  0.00000000000E+00  0.25871138639E+04  0.25871138639E+04  0.00000000000E+00 0. -1.
         -1   -1    0    0    0  501 -0.00000000000E+00 -0.00000000000E+00 -0.50280477932E+03  0.50280477932E+03  0.00000000000E+00 0.  1.
         24    2    1    2    0    0 -0.56094976542E+02 -0.97833650695E+03  0.10278904297E+04  0.14224335906E+04  0.80433928342E+02 0.  0.
        254    2    1    2    0    0  0.56094976542E+02  0.97833650695E+03  0.10564186549E+04  0.16674850527E+04  0.83916450075E+03 0.  0.
         23    2    4    4    0    0 -0.12286327912E+03  0.94413874809E+03  0.11024629980E+04  0.14595212509E+04  0.91017903747E+02 0.  0.
         23    2    4    4    0    0  0.17895825566E+03  0.34197758866E+02 -0.46044343150E+02  0.20796380179E+03  0.89069171645E+02 0.  0.
          2    1    3    3  502    0 -0.50323583356E+02 -0.88351079135E+03  0.96010845289E+03  0.13057304556E+04  0.00000000000E+00 0. -1.
         -1    1    3    3    0  502 -0.57713931866E+01 -0.94825715599E+02  0.67781976838E+02  0.11670313493E+03  0.00000000000E+00 0.  1.
         13    1    5    5    0    0 -0.10727976191E+03  0.91646366094E+03  0.10467023893E+04  0.13953495909E+04  0.00000000000E+00 0. -1.
        -13    1    5    5    0    0 -0.15583517206E+02  0.27675087142E+02  0.55760608728E+02  0.64171659964E+02  0.00000000000E+00 0.  1.
          3    1    6    6  503    0  0.14886961520E+03  0.54916200997E+01 -0.64664022518E+02  0.16239998778E+03  0.00000000000E+00 0. -1.
         -3    1    6    6    0  503  0.30088640458E+02  0.28706138766E+02  0.18619679368E+02  0.45563814011E+02  0.00000000000E+00 0.  1.
<mgrwt>
<rscale>  0 0.22810640E+04</rscale>
<asrwt>0</asrwt>
<pdfrwt beam="1">  1        2 0.39801751E+00 0.22810640E+04</pdfrwt>
<pdfrwt beam="2">  1       -1 0.77354583E-01 0.22810640E+04</pdfrwt>
<totfact> 0.53602949E+00</totfact>
</mgrwt>
</event>
<event>
12    7  0.1605494E-007  0.1623717E+04  0.7818608E-02  0.8806109E-01
          2   -1    0    0  501    0  0.00000000000E+00  0.00000000000E+00  0.12240026812E+04  0.12240026812E+04  0.00000000000E+00 0. -1.
         -1   -1    0    0    0  501 -0.00000000000E+00 -0.00000000000E+00 -0.53849103398E+03  0.53849103398E+03  0.00000000000E+00 0.  1.
         24    2    1    2    0    0  0.25417619550E+03 -0.23442488402E+03  0.69801545939E+03  0.78311933387E+03  0.80558953098E+02 0.  0.
        254    2    1    2    0    0 -0.25417619550E+03  0.23442488402E+03 -0.12503812202E+02  0.97937438128E+03  0.91621900700E+03 0.  0.
         23    2    4    4    0    0  0.28612100979E+03  0.24350265305E+03 -0.15096783579E+03  0.41529997573E+03  0.92325554999E+02 0.  0.
         23    2    4    4    0    0 -0.54029720530E+03 -0.90777690281E+01  0.13846402359E+03  0.56407440556E+03  0.83690938767E+02 0.  0.
          4    1    3    3  502    0  0.21550245525E+03 -0.16080747679E+03  0.57326999333E+03  0.63319731369E+03  0.00000000000E+00 0. -1.
         -3    1    3    3    0  502  0.38673740253E+02 -0.73617407230E+02  0.12474546606E+03  0.14992202018E+03  0.00000000000E+00 0.  1.
         13    1    5    5    0    0  0.27301245795E+03  0.22062271689E+03 -0.11238202922E+03  0.36856465633E+03  0.00000000000E+00 0.  1.
        -13    1    5    5    0    0  0.13108551841E+02  0.22879936163E+02 -0.38585806572E+02  0.46735319396E+02  0.00000000000E+00 0. -1.
          4    1    6    6  503    0 -0.11794868057E+03  0.27457109528E+02  0.12042832693E+02  0.12169968747E+03  0.00000000000E+00 0. -1.
         -4    1    6    6    0  503 -0.42234852473E+03 -0.36534878557E+02  0.12642119090E+03  0.44237471808E+03  0.00000000000E+00 0.  1.
<mgrwt>
<rscale>  0 0.16237173E+04</rscale>
<asrwt>0</asrwt>
<pdfrwt beam="1">  1        2 0.18830810E+00 0.16237173E+04</pdfrwt>
<pdfrwt beam="2">  1       -1 0.82844775E-01 0.16237173E+04</pdfrwt>
<totfact> 0.28951455E+01</totfact>
</mgrwt>
</event>
<event>
12    7  0.1605494E-007  0.1606589E+04  0.7818608E-02  0.8816511E-01
         -3   -1    0    0    0  501 -0.00000000000E+00  0.00000000000E+00  0.10489486777E+04  0.10489486777E+04  0.00000000000E+00 0.  1.
          2   -1    0    0  501    0  0.00000000000E+00 -0.00000000000E+00 -0.61516993323E+03  0.61516993323E+03  0.00000000000E+00 0. -1.
         24    2    1    2    0    0 -0.39181111973E+03  0.30817340308E+03  0.37264528745E+03  0.62747046596E+03  0.79798969217E+02 0.  0.
        254    2    1    2    0    0  0.39181111973E+03 -0.30817340308E+03  0.61133457017E+02  0.10366481450E+04  0.90687114685E+03 0.  0.
         23    2    4    4    0    0  0.10254495587E+03 -0.49031932685E+03 -0.24948886526E+03  0.56636330193E+03  0.87144624759E+02 0.  0.
         23    2    4    4    0    0  0.28926616386E+03  0.18214592378E+03  0.31062232228E+03  0.47028484304E+03  0.88484774898E+02 0.  0.
          2    1    3    3  502    0 -0.16148813792E+03  0.13334720723E+03  0.10868204112E+03  0.23594847410E+03  0.00000000000E+00 0. -1.
         -1    1    3    3    0  502 -0.23032298181E+03  0.17482619584E+03  0.26396324633E+03  0.39152199187E+03  0.00000000000E+00 0.  1.
         13    1    5    5    0    0  0.60383769981E+01 -0.17487317334E+03 -0.54990307276E+02  0.18341489210E+03  0.00000000000E+00 0.  1.
        -13    1    5    5    0    0  0.96506578872E+02 -0.31544615352E+03 -0.19449855799E+03  0.38294840983E+03  0.00000000000E+00 0. -1.
          3    1    6    6  503    0  0.26565225003E+03  0.18902085462E+03  0.30143520106E+03  0.44403060915E+03  0.00000000000E+00 0. -1.
         -3    1    6    6    0  503  0.23613913837E+02 -0.68749308415E+01  0.91871212221E+01  0.26254233890E+02  0.00000000000E+00 0.  1.
<mgrwt>
<rscale>  0 0.16065885E+04</rscale>
<asrwt>0</asrwt>
<pdfrwt beam="1">  1        2 0.94641528E-01 0.16065885E+04</pdfrwt>
<pdfrwt beam="2">  1       -3 0.16137672E+00 0.16065885E+04</pdfrwt>
<totfact> 0.77072282E+00</totfact>
</mgrwt>
</event>
<event>
12    7  0.1605494E-007  0.1973965E+04  0.7818608E-02  0.8618890E-01
          2   -1    0    0  501    0  0.00000000000E+00  0.00000000000E+00  0.10078695361E+04  0.10078695361E+04  0.00000000000E+00 0. -1.
         -1   -1    0    0    0  501 -0.00000000000E+00 -0.00000000000E+00 -0.96652841357E+03  0.96652841357E+03  0.00000000000E+00 0.  1.
         24    2    1    2    0    0 -0.61415226827E+03  0.26527844866E+03 -0.37741768118E+03  0.77228165252E+03  0.80119790378E+02 0.  0.
        254    2    1    2    0    0  0.61415226827E+03 -0.26527844866E+03  0.41875880370E+03  0.12021162971E+04  0.90673534850E+03 0.  0.
         23    2    4    4    0    0  0.21017777034E+02  0.29341274340E+03  0.12773791601E+03  0.33298502707E+03  0.89606183501E+02 0.  0.
         23    2    4    4    0    0  0.59313449123E+03 -0.55869119206E+03  0.29102088768E+03  0.86913127007E+03  0.82168331861E+02 0.  0.
          2    1    3    3  502    0 -0.16770106577E+03  0.48646259424E+02 -0.13062283244E+03  0.21806519752E+03  0.00000000000E+00 0. -1.
         -1    1    3    3    0  502 -0.44645120250E+03  0.21663218924E+03 -0.24679484874E+03  0.55421645500E+03  0.00000000000E+00 0.  1.
         13    1    5    5    0    0 -0.29447350324E+02  0.74569688703E+02  0.53755893779E+02  0.96527099979E+02  0.00000000000E+00 0.  1.
        -13    1    5    5    0    0  0.50465127357E+02  0.21884305470E+03  0.73982022235E+02  0.23645792709E+03  0.00000000000E+00 0. -1.
          3    1    6    6  503    0  0.49874097713E+03 -0.48346548901E+03  0.27625925243E+03  0.74752967559E+03  0.00000000000E+00 0. -1.
         -3    1    6    6    0  503  0.94393514103E+02 -0.75225703049E+02  0.14761635258E+02  0.12160159448E+03  0.00000000000E+00 0.  1.
<mgrwt>
<rscale>  0 0.19739651E+04</rscale>
<asrwt>0</asrwt>
<pdfrwt beam="1">  1        2 0.15505685E+00 0.19739651E+04</pdfrwt>
<pdfrwt beam="2">  1       -1 0.14869668E+00 0.19739651E+04</pdfrwt>
<totfact> 0.94453307E+00</totfact>
</mgrwt>
</event>
<event>
12    7  0.1605494E-007  0.2113581E+04  0.7818608E-02  0.8555284E-01
          2   -1    0    0  501    0  0.00000000000E+00  0.00000000000E+00  0.17543260538E+04  0.17543260538E+04  0.00000000000E+00 0. -1.
         -1   -1    0    0    0  501 -0.00000000000E+00 -0.00000000000E+00 -0.63660115500E+03  0.63660115500E+03  0.00000000000E+00 0.  1.
         24    2    1    2    0    0 -0.50755785945E+03 -0.86418983140E+02  0.12435798507E+04  0.13479452896E+04  0.73365096049E+02 0.  0.
        254    2    1    2    0    0  0.50755785945E+03  0.86418983140E+02 -0.12585495190E+03  0.10429819192E+04  0.89826977771E+03 0.  0.
         23    2    4    4    0    0  0.36549698210E+03  0.27162243764E+03  0.29754277239E+03  0.55176731720E+03  0.92459063244E+02 0.  0.
         23    2    4    4    0    0  0.14206087735E+03 -0.18520345450E+03 -0.42339772429E+03  0.49121460201E+03  0.86859310711E+02 0.  0.
          2    1    3    3  502    0 -0.21735654456E+03 -0.40186754346E+02  0.44180029557E+03  0.49401046937E+03  0.00000000000E+00 0. -1.
         -1    1    3    3    0  502 -0.29020131489E+03 -0.46232228795E+02  0.80177955516E+03  0.85393482024E+03  0.00000000000E+00 0.  1.
         13    1    5    5    0    0  0.36088208198E+03  0.24173795548E+03  0.27589711589E+03  0.51457976522E+03  0.00000000000E+00 0. -1.
        -13    1    5    5    0    0  0.46149001141E+01  0.29884482157E+02  0.21645656502E+02  0.37187551980E+02  0.00000000000E+00 0.  1.
          2    1    6    6  503    0  0.11129513164E+03 -0.74109570577E+02 -0.23289685919E+03  0.26855126475E+03  0.00000000000E+00 0.  1.
         -2    1    6    6    0  503  0.30765745712E+02 -0.11109388392E+03 -0.19050086510E+03  0.22266333726E+03  0.00000000000E+00 0. -1.
<mgrwt>
<rscale>  0 0.21135808E+04</rscale>
<asrwt>0</asrwt>
<pdfrwt beam="1">  1        2 0.26989631E+00 0.21135808E+04</pdfrwt>
<pdfrwt beam="2">  1       -1 0.97938640E-01 0.21135808E+04</pdfrwt>
<totfact> 0.95840047E+00</totfact>
</mgrwt>
</event>
<event>
12    7  0.1605494E-007  0.1177792E+04  0.7818608E-02  0.9132520E-01
          2   -1    0    0  501    0  0.00000000000E+00  0.00000000000E+00  0.39280902109E+04  0.39280902109E+04  0.00000000000E+00 0. -1.
         -1   -1    0    0    0  501 -0.00000000000E+00 -0.00000000000E+00 -0.88286811803E+02  0.88286811803E+02  0.00000000000E+00 0.  1.
         24    2    1    2    0    0 -0.33747701934E+01  0.15740005851E+03  0.13780195169E+04  0.13891312508E+04  0.77211887508E+02 0.  0.
        254    2    1    2    0    0  0.33747701934E+01 -0.15740005851E+03  0.24617838822E+04  0.26272457719E+04  0.90402118101E+03 0.  0.
         23    2    4    4    0    0  0.27415401476E+03 -0.19015298832E+03  0.22332191821E+04  0.22598425219E+04  0.91113806373E+02 0.  0.
         23    2    4    4    0    0 -0.27077924457E+03  0.32752929814E+02  0.22856470009E+03  0.36740324997E+03  0.91373805117E+02 0.  0.
          4    1    3    3  502    0 -0.23896859802E+02  0.14504488851E+03  0.10502658748E+04  0.10605034122E+04  0.00000000000E+00 0. -1.
         -3    1    3    3    0  502  0.20522089609E+02  0.12355169999E+02  0.32775364213E+03  0.32862783863E+03  0.00000000000E+00 0.  1.
         13    1    5    5    0    0  0.44506633948E+02 -0.50018883009E+02  0.26522409578E+03  0.27354442072E+03  0.00000000000E+00 0. -1.
        -13    1    5    5    0    0  0.22964738081E+03 -0.14013410532E+03  0.19679950864E+04  0.19862981012E+04  0.00000000000E+00 0.  1.
          3    1    6    6  503    0 -0.24114624634E+02 -0.23054377499E+02  0.39140145992E+02  0.51429276404E+02  0.00000000000E+00 0. -1.
         -3    1    6    6    0  503 -0.24666461993E+03  0.55807307313E+02  0.18942455409E+03  0.31597397356E+03  0.00000000000E+00 0.  1.
<mgrwt>
<rscale>  0 0.11777921E+04</rscale>
<asrwt>0</asrwt>
<pdfrwt beam="1">  1        2 0.60432143E+00 0.11777921E+04</pdfrwt>
<pdfrwt beam="2">  1       -1 0.13582590E-01 0.11777921E+04</pdfrwt>
<totfact> 0.17680645E+01</totfact>
</mgrwt>
</event>
<event>
12    7  0.1605494E-007  0.1368136E+04  0.7818608E-02  0.8977212E-01
          2   -1    0    0  501    0  0.00000000000E+00  0.00000000000E+00  0.22301630796E+04  0.22301630796E+04  0.00000000000E+00 0. -1.
         -1   -1    0    0    0  501 -0.00000000000E+00 -0.00000000000E+00 -0.20982734215E+03  0.20982734215E+03  0.00000000000E+00 0.  1.
         24    2    1    2    0    0  0.13461697940E+03 -0.34745947126E+03  0.70149318516E+03  0.79855591580E+03  0.82152580685E+02 0.  0.
        254    2    1    2    0    0 -0.13461697940E+03  0.34745947126E+03  0.13188425523E+04  0.16414345060E+04  0.90338903263E+03 0.  0.
         23    2    4    4    0    0  0.10406319282E+03 -0.24585727241E+03  0.18942575302E+03  0.34039959108E+03  0.93353195964E+02 0.  0.
         23    2    4    4    0    0 -0.23868017222E+03  0.59331674368E+03  0.11294167993E+04  0.13010349149E+04  0.90091954796E+02 0.  0.
          2    1    3    3  502    0  0.14573453386E+03 -0.33002721701E+03  0.65860340344E+03  0.75094271509E+03  0.00000000000E+00 0. -1.
         -1    1    3    3    0  502 -0.11117554454E+02 -0.17432254255E+02  0.42889781724E+02  0.47613200709E+02  0.00000000000E+00 0.  1.
         13    1    5    5    0    0  0.21995271722E+02 -0.11958451186E+02 -0.47988439704E+01  0.25491673863E+02  0.00000000000E+00 0. -1.
        -13    1    5    5    0    0  0.82067921098E+02 -0.23389882123E+03  0.19422459699E+03  0.31490791721E+03  0.00000000000E+00 0.  1.
          4    1    6    6  503    0 -0.10090946129E+02  0.10660828375E+03  0.16128262903E+03  0.19359555725E+03  0.00000000000E+00 0. -1.
         -4    1    6    6    0  503 -0.22858922609E+03  0.48670845993E+03  0.96813417026E+03  0.11074393576E+04  0.00000000000E+00 0.  1.
<mgrwt>
<rscale>  0 0.13681362E+04</rscale>
<asrwt>0</asrwt>
<pdfrwt beam="1">  1        2 0.34310200E+00 0.13681362E+04</pdfrwt>
<pdfrwt beam="2">  1       -1 0.32281131E-01 0.13681362E+04</pdfrwt>
<totfact> 0.49556888E+01</totfact>
</mgrwt>
</event>
<event>
12    7  0.1605494E-007  0.3421039E+04  0.7818608E-02  0.8132762E-01
         -1   -1    0    0    0  501 -0.00000000000E+00  0.00000000000E+00  0.17323629054E+04  0.17323629054E+04  0.00000000000E+00 0.  1.
          2   -1    0    0  501    0  0.00000000000E+00 -0.00000000000E+00 -0.16889511279E+04  0.16889511279E+04  0.00000000000E+00 0. -1.
         24    2    1    2    0    0  0.24747669766E+03 -0.16810280375E+03  0.15855514809E+04  0.16154909561E+04  0.79588077988E+02 0.  0.
        254    2    1    2    0    0 -0.24747669766E+03  0.16810280375E+03 -0.15421397035E+04  0.18058230771E+04  0.89067325798E+03 0.  0.
         23    2    4    4    0    0  0.11899047663E+03  0.21813697351E+03 -0.54948217548E+02  0.27058019136E+03  0.91934001339E+02 0.  0.
         23    2    4    4    0    0 -0.36646717429E+03 -0.50034169761E+02 -0.14871914859E+04  0.15352428858E+04  0.91818269691E+02 0.  0.
          4    1    3    3  502    0  0.15616954827E+02 -0.11863598144E+01  0.21007466300E+03  0.21065768622E+03  0.00000000000E+00 0. -1.
         -3    1    3    3    0  502  0.23185974283E+03 -0.16691644393E+03  0.13754768179E+04  0.14048332699E+04  0.00000000000E+00 0.  1.
         13    1    5    5    0    0  0.28736828180E+02  0.26771922922E-01 -0.30698191800E+01  0.28900342565E+02  0.00000000000E+00 0.  1.
        -13    1    5    5    0    0  0.90253648452E+02  0.21811020159E+03 -0.51878398368E+02  0.24167984879E+03  0.00000000000E+00 0. -1.
          2    1    6    6  503    0 -0.31402706392E+03 -0.75229973781E+02 -0.12618674740E+04  0.13025291044E+04  0.00000000000E+00 0. -1.
         -2    1    6    6    0  503 -0.52440110374E+02  0.25195804020E+02 -0.22532401186E+03  0.23271378137E+03  0.00000000000E+00 0.  1.
<mgrwt>
<rscale>  0 0.34210386E+04</rscale>
<asrwt>0</asrwt>
<pdfrwt beam="1">  1        2 0.25983863E+00 0.34210386E+04</pdfrwt>
<pdfrwt beam="2">  1       -1 0.26651737E+00 0.34210386E+04</pdfrwt>
<totfact> 0.50958502E-01</totfact>
</mgrwt>
</event>
<event>
12    7  0.1605494E-007  0.2540819E+04  0.7818608E-02  0.8388586E-01
          2   -1    0    0  501    0  0.00000000000E+00  0.00000000000E+00  0.41018516160E+04  0.41018516160E+04  0.00000000000E+00 0. -1.
         -1   -1    0    0    0  501 -0.00000000000E+00 -0.00000000000E+00 -0.39346622753E+03  0.39346622753E+03  0.00000000000E+00 0.  1.
         24    2    1    2    0    0  0.13669501909E+03  0.70462286116E+03  0.30595754419E+04  0.31436200086E+04  0.78523685907E+02 0.  0.
        254    2    1    2    0    0 -0.13669501909E+03 -0.70462286116E+03  0.64880994655E+03  0.13516978349E+04  0.94390348310E+03 0.  0.
         23    2    4    4    0    0 -0.34727114447E+03  0.34479597314E+02  0.37459030370E+02  0.36548596479E+03  0.10193488650E+03 0.  0.
         23    2    4    4    0    0  0.21057612538E+03 -0.73910245847E+03  0.61135091619E+03  0.98621187011E+03  0.90824893773E+02 0.  0.
          4    1    3    3  502    0  0.90502050622E+02  0.34383558659E+03  0.16498768046E+04  0.16877520559E+04  0.00000000000E+00 0. -1.
         -3    1    3    3    0  502  0.46192968473E+02  0.36078727457E+03  0.14096986373E+04  0.14558679527E+04  0.00000000000E+00 0.  1.
         13    1    5    5    0    0 -0.23057729662E+03 -0.58267818057E+01 -0.15449598536E+02  0.23116775553E+03  0.00000000000E+00 0. -1.
        -13    1    5    5    0    0 -0.11669384785E+03  0.40306379120E+02  0.52908628906E+02  0.13431820925E+03  0.00000000000E+00 0.  1.
          3    1    6    6  503    0  0.47276728501E+02 -0.26111419449E+03  0.16755093644E+03  0.31382961607E+03  0.00000000000E+00 0. -1.
         -3    1    6    6    0  503  0.16329939688E+03 -0.47798826398E+03  0.44379997974E+03  0.67238225404E+03  0.00000000000E+00 0.  1.
<mgrwt>
<rscale>  0 0.25408188E+04</rscale>
<asrwt>0</asrwt>
<pdfrwt beam="1">  1        2 0.63105406E+00 0.25408188E+04</pdfrwt>
<pdfrwt beam="2">  1       -1 0.60533269E-01 0.25408188E+04</pdfrwt>
<totfact> 0.79160341E-01</totfact>
</mgrwt>
</event>
<event>
12    7  0.1605494E-007  0.1609177E+04  0.7818608E-02  0.8814930E-01
          2   -1    0    0  501    0  0.00000000000E+00  0.00000000000E+00  0.64249072829E+03  0.64249072829E+03  0.00000000000E+00 0. -1.
         -1   -1    0    0    0  501 -0.00000000000E+00 -0.00000000000E+00 -0.10075822679E+04  0.10075822679E+04  0.00000000000E+00 0.  1.
         24    2    1    2    0    0  0.39997446277E+03 -0.14713697975E+03  0.21486726771E+03  0.48377707264E+03  0.79015514912E+02 0.  0.
        254    2    1    2    0    0 -0.39997446277E+03  0.14713697975E+03 -0.57995880736E+03  0.11662959236E+04  0.91775002123E+03 0.  0.
         23    2    4    4    0    0 -0.37387375618E+03  0.14624138550E+03 -0.81504744785E+03  0.91345730553E+03  0.94518666861E+02 0.  0.
         23    2    4    4    0    0 -0.26100706587E+02  0.89559425285E+00  0.23508864049E+03  0.25283861806E+03  0.89323283194E+02 0.  0.
          2    1    3    3  502    0  0.36737360841E+03 -0.14705523072E+03  0.17611072051E+03  0.43313230648E+03  0.00000000000E+00 0. -1.
         -1    1    3    3    0  502  0.32600854357E+02 -0.81749033074E-01  0.38756547207E+02  0.50644766157E+02  0.00000000000E+00 0.  1.
         13    1    5    5    0    0 -0.32071193348E+03  0.92067105282E+02 -0.70241752526E+03  0.77763929681E+03  0.00000000000E+00 0. -1.
        -13    1    5    5    0    0 -0.53161822700E+02  0.54174280215E+02 -0.11262992259E+03  0.13581800872E+03  0.00000000000E+00 0.  1.
          3    1    6    6  503    0  0.19345140380E+02  0.32330955849E+02  0.10186983943E+03  0.10861394638E+03  0.00000000000E+00 0. -1.
         -3    1    6    6    0  503 -0.45445846967E+02 -0.31435361596E+02  0.13321880106E+03  0.14422467168E+03  0.00000000000E+00 0.  1.
<mgrwt>
<rscale>  0 0.16091765E+04</rscale>
<asrwt>0</asrwt>
<pdfrwt beam="1">  1        2 0.98844727E-01 0.16091765E+04</pdfrwt>
<pdfrwt beam="2">  1       -1 0.15501266E+00 0.16091765E+04</pdfrwt>
<totfact> 0.15931206E+01</totfact>
</mgrwt>
</event>
<event>
12    7  0.1605494E-007  0.2031355E+04  0.7818608E-02  0.8592100E-01
          2   -1    0    0  501    0  0.00000000000E+00  0.00000000000E+00  0.36278612129E+04  0.36278612129E+04  0.00000000000E+00 0. -1.
         -1   -1    0    0    0  501 -0.00000000000E+00 -0.00000000000E+00 -0.28435505556E+03  0.28435505556E+03  0.00000000000E+00 0.  1.
         24    2    1    2    0    0  0.64955442735E+03  0.20437115375E+03  0.22316057444E+04  0.23345909675E+04  0.81007803362E+02 0.  0.
        254    2    1    2    0    0 -0.64955442735E+03 -0.20437115375E+03  0.11119004128E+04  0.15776253009E+04  0.88819510216E+03 0.  0.
         23    2    4    4    0    0 -0.18887394134E+03 -0.29716501754E+03  0.10293549541E+04  0.10915539173E+04  0.89095001961E+02 0.  0.
         23    2    4    4    0    0 -0.46068048601E+03  0.92793863790E+02  0.82545458702E+02  0.48607138365E+03  0.92813931610E+02 0.  0.
          4    1    3    3  502    0  0.41581545072E+03  0.91023367204E+02  0.14199037822E+04  0.14823341368E+04  0.00000000000E+00 0. -1.
         -3    1    3    3    0  502  0.23373897663E+03  0.11334778655E+03  0.81170196222E+03  0.85225683064E+03  0.00000000000E+00 0.  1.
         13    1    5    5    0    0 -0.14596773191E+03 -0.19827453248E+03  0.81868728328E+03  0.85490832069E+03  0.00000000000E+00 0.  1.
        -13    1    5    5    0    0 -0.42906209433E+02 -0.98890485060E+02  0.21066767087E+03  0.23664559661E+03  0.00000000000E+00 0. -1.
          1    1    6    6  503    0 -0.38281971118E+03  0.11188650643E+03  0.67655463587E+02  0.40453279637E+03  0.00000000000E+00 0. -1.
         -1    1    6    6    0  503 -0.77860774828E+02 -0.19092642639E+02  0.14889995115E+02  0.81538587272E+02  0.00000000000E+00 0.  1.
<mgrwt>
<rscale>  0 0.20313549E+04</rscale>
<asrwt>0</asrwt>
<pdfrwt beam="1">  1        2 0.55813246E+00 0.20313549E+04</pdfrwt>
<pdfrwt beam="2">  1       -1 0.43746934E-01 0.20313549E+04</pdfrwt>
<totfact> 0.36117749E+00</totfact>
</mgrwt>
</event>
<event>
12    7  0.1605494E-007  0.1492719E+04  0.7818608E-02  0.8889309E-01
          2   -1    0    0  501    0  0.00000000000E+00  0.00000000000E+00  0.10645334176E+04  0.10645334176E+04  0.00000000000E+00 0. -1.
         -1   -1    0    0    0  501 -0.00000000000E+00 -0.00000000000E+00 -0.52328325855E+03  0.52328325855E+03  0.00000000000E+00 0.  1.
         24    2    1    2    0    0  0.88508613156E+01 -0.30919671576E+03  0.55464519389E+03  0.63959281889E+03  0.75939028756E+02 0.  0.
        254    2    1    2    0    0 -0.88508613156E+01  0.30919671576E+03 -0.13395034791E+02  0.94822385730E+03  0.89625225791E+03 0.  0.
         23    2    4    4    0    0 -0.37054332052E+03 -0.16498735422E+02  0.17335783151E+03  0.41934493800E+03  0.90678986658E+02 0.  0.
         23    2    4    4    0    0  0.36169245921E+03  0.32569545118E+03 -0.18675286630E+03  0.52887891930E+03  0.89091617126E+02 0.  0.
          2    1    3    3  502    0 -0.62199010994E+00 -0.27782196090E+03  0.53063623259E+03  0.59896597580E+03  0.00000000000E+00 0. -1.
         -1    1    3    3    0  502  0.94728514255E+01 -0.31374754865E+02  0.24008961302E+02  0.40626843094E+02  0.00000000000E+00 0.  1.
         13    1    5    5    0    0 -0.33733886750E+03 -0.30321504573E+02  0.17875499764E+03  0.38297552709E+03  0.00000000000E+00 0. -1.
        -13    1    5    5    0    0 -0.33204453023E+02  0.13822769151E+02 -0.53971661308E+01  0.36369410908E+02  0.00000000000E+00 0.  1.
          4    1    6    6  503    0  0.23582609642E+03  0.25824379124E+03 -0.10916596363E+03  0.36636185812E+03  0.00000000000E+00 0. -1.
         -4    1    6    6    0  503  0.12586636279E+03  0.67451659939E+02 -0.77586902671E+02  0.16251706118E+03  0.00000000000E+00 0.  1.
<mgrwt>
<rscale>  0 0.14927190E+04</rscale>
<asrwt>0</asrwt>
<pdfrwt beam="1">  1        2 0.16377437E+00 0.14927190E+04</pdfrwt>
<pdfrwt beam="2">  1       -1 0.80505117E-01 0.14927190E+04</pdfrwt>
<totfact> 0.38909405E+01</totfact>
</mgrwt>
</event>
<event>
12    7  0.1605494E-007  0.1347471E+04  0.7818608E-02  0.8992744E-01
          2   -1    0    0  501    0  0.00000000000E+00  0.00000000000E+00  0.20562017256E+04  0.20562017256E+04  0.00000000000E+00 0. -1.
         -1   -1    0    0    0  501 -0.00000000000E+00 -0.00000000000E+00 -0.22075647786E+03  0.22075647786E+03  0.00000000000E+00 0.  1.
         24    2    1    2    0    0  0.25288062163E+03  0.22270324470E+03  0.73156067281E+03  0.80921241161E+03  0.78092029651E+02 0.  0.
        254    2    1    2    0    0 -0.25288062163E+03 -0.22270324470E+03  0.11038845749E+04  0.14677457918E+04  0.90673657186E+03 0.  0.
         23    2    4    4    0    0  0.11446540168E+03  0.43177322714E+02 -0.97196566314E+02  0.18086850156E+03  0.91102321459E+02 0.  0.
         23    2    4    4    0    0 -0.36734602331E+03 -0.26588056742E+03  0.12010811412E+04  0.12868772903E+04  0.88440236697E+02 0.  0.
          4    1    3    3  502    0  0.16069730368E+03  0.14476056026E+03  0.37663731992E+03  0.43432121060E+03  0.00000000000E+00 0. -1.
         -3    1    3    3    0  502  0.92183317950E+02  0.77942684442E+02  0.35492335290E+03  0.37489120101E+03  0.00000000000E+00 0.  1.
         13    1    5    5    0    0  0.10516115243E+03  0.15270451256E+02 -0.10606935196E+03  0.15014247263E+03  0.00000000000E+00 0. -1.
        -13    1    5    5    0    0  0.93042492487E+01  0.27906871457E+02  0.88727856482E+01  0.30726028929E+02  0.00000000000E+00 0.  1.
          3    1    6    6  503    0 -0.32228438171E+03 -0.19294655169E+03  0.95013719879E+03  0.10216928555E+04  0.00000000000E+00 0. -1.
         -3    1    6    6    0  503 -0.45061641598E+02 -0.72934015723E+02  0.25094394243E+03  0.26518443475E+03  0.00000000000E+00 0.  1.
<mgrwt>
<rscale>  0 0.13474715E+04</rscale>
<asrwt>0</asrwt>
<pdfrwt beam="1">  1        2 0.31633871E+00 0.13474715E+04</pdfrwt>
<pdfrwt beam="2">  1       -1 0.33962536E-01 0.13474715E+04</pdfrwt>
<totfact> 0.56711327E+01</totfact>
</mgrwt>
</event>
<event>
12    7  0.1605494E-007  0.1542786E+04  0.7818608E-02  0.8856489E-01
          2   -1    0    0  501    0  0.00000000000E+00  0.00000000000E+00  0.23933258807E+04  0.23933258807E+04  0.00000000000E+00 0. -1.
         -1   -1    0    0    0  501 -0.00000000000E+00 -0.00000000000E+00 -0.24862776838E+03  0.24862776838E+03  0.00000000000E+00 0.  1.
         24    2    1    2    0    0 -0.65913859699E+02  0.46427162471E+03  0.36930395844E+03  0.60186175976E+03  0.77197057775E+02 0.  0.
        254    2    1    2    0    0  0.65913859699E+02 -0.46427162471E+03  0.17753941539E+04  0.20400918893E+04  0.88885192064E+03 0.  0.
         23    2    4    4    0    0 -0.30077377422E+03 -0.21204059876E+03  0.14006081967E+04  0.14509838220E+04  0.90689868710E+02 0.  0.
         23    2    4    4    0    0  0.36668763392E+03 -0.25223102595E+03  0.37478595716E+03  0.58910806730E+03  0.92214369529E+02 0.  0.
          4    1    3    3  502    0  0.16910567845E+02  0.10044678124E+03  0.71363080828E+02  0.12437126868E+03  0.00000000000E+00 0. -1.
         -3    1    3    3    0  502 -0.82824427544E+02  0.36382484347E+03  0.29794087761E+03  0.47749049108E+03  0.00000000000E+00 0.  1.
         13    1    5    5    0    0 -0.21627814666E+03 -0.15027895523E+03  0.11425287253E+04  0.11724896116E+04  0.00000000000E+00 0. -1.
        -13    1    5    5    0    0 -0.84495627557E+02 -0.61761643532E+02  0.25807947138E+03  0.27849421041E+03  0.00000000000E+00 0.  1.
          1    1    6    6  503    0  0.20875390368E+03 -0.13988318252E+03  0.26974537341E+03  0.36865710835E+03  0.00000000000E+00 0. -1.
         -1    1    6    6    0  503  0.15793373023E+03 -0.11234784343E+03  0.10504058375E+03  0.22045095895E+03  0.00000000000E+00 0.  1.
<mgrwt>
<rscale>  0 0.15427861E+04</rscale>
<asrwt>0</asrwt>
<pdfrwt beam="1">  1        2 0.36820397E+00 0.15427861E+04</pdfrwt>
<pdfrwt beam="2">  1       -1 0.38250428E-01 0.15427861E+04</pdfrwt>
<totfact> 0.29128443E+01</totfact>
</mgrwt>
</event>
<event>
12    7  0.1605494E-007  0.1704968E+04  0.7818608E-02  0.8758536E-01
         -1   -1    0    0    0  501 -0.00000000000E+00  0.00000000000E+00  0.96469664419E+03  0.96469664419E+03  0.00000000000E+00 0.  1.
          2   -1    0    0  501    0  0.00000000000E+00 -0.00000000000E+00 -0.75332368732E+03  0.75332368732E+03  0.00000000000E+00 0. -1.
         24    2    1    2    0    0 -0.42960204615E+03 -0.43831527027E+03  0.25264137318E+02  0.61940730791E+03  0.79680250092E+02 0.  0.
        254    2    1    2    0    0  0.42960204615E+03  0.43831527027E+03  0.18610881955E+03  0.10986130236E+04  0.89198424241E+03 0.  0.
         23    2    4    4    0    0  0.12114159092E+03  0.43596687393E+03 -0.27427979425E+03  0.53695480527E+03  0.91370986381E+02 0.  0.
         23    2    4    4    0    0  0.30846045523E+03  0.23483963369E+01  0.46038861380E+03  0.56165821834E+03  0.91372376073E+02 0.  0.
          2    1    3    3  502    0 -0.28372335402E+03 -0.28581986135E+03 -0.21313179574E+02  0.40329416854E+03  0.00000000000E+00 0. -1.
         -1    1    3    3    0  502 -0.14587869213E+03 -0.15249540892E+03  0.46577316892E+02  0.21611313937E+03  0.00000000000E+00 0.  1.
         13    1    5    5    0    0  0.72916578957E+02  0.12017719033E+03 -0.10476330888E+03  0.17531324950E+03  0.00000000000E+00 0.  1.
        -13    1    5    5    0    0  0.48225011966E+02  0.31578968360E+03 -0.16951648536E+03  0.36164155577E+03  0.00000000000E+00 0. -1.
          2    1    6    6  503    0  0.90833156666E+02  0.23227000041E+01  0.21647218759E+03  0.23476853555E+03  0.00000000000E+00 0.  1.
         -2    1    6    6    0  503  0.21762729856E+03  0.25696332706E-01  0.24391642621E+03  0.32688968279E+03  0.00000000000E+00 0. -1.
<mgrwt>
<rscale>  0 0.17049678E+04</rscale>
<asrwt>0</asrwt>
<pdfrwt beam="1">  1        2 0.11589595E+00 0.17049678E+04</pdfrwt>
<pdfrwt beam="2">  1       -1 0.14841487E+00 0.17049678E+04</pdfrwt>
<totfact> 0.14539003E+01</totfact>
</mgrwt>
</event>
<event>
12    7  0.1605494E-007  0.1752517E+04  0.7818608E-02  0.8731966E-01
         -1   -1    0    0    0  501 -0.00000000000E+00  0.00000000000E+00  0.37534130382E+03  0.37534130382E+03  0.00000000000E+00 0.  1.
          2   -1    0    0  501    0  0.00000000000E+00 -0.00000000000E+00 -0.20456825442E+04  0.20456825442E+04  0.00000000000E+00 0. -1.
         24    2    1    2    0    0 -0.33095278051E+03 -0.22587879863E+03 -0.13089562455E+04  0.13712110404E+04  0.79386963849E+02 0.  0.
        254    2    1    2    0    0  0.33095278051E+03  0.22587879863E+03 -0.36138499490E+03  0.10498128077E+04  0.90053142199E+03 0.  0.
         23    2    4    4    0    0 -0.90680143175E+02  0.13244871953E+03 -0.54221908508E+03  0.57282072731E+03  0.91413881550E+02 0.  0.
         23    2    4    4    0    0  0.42163292368E+03  0.93430079097E+02  0.18083409018E+03  0.47699208035E+03  0.91197448071E+02 0.  0.
          4    1    3    3  502    0 -0.16932179833E+03 -0.10266174734E+03 -0.77459321977E+03  0.79950232137E+03  0.00000000000E+00 0. -1.
         -1    1    3    3    0  502 -0.16163098218E+03 -0.12321705129E+03 -0.53436302573E+03  0.57170871901E+03  0.00000000000E+00 0.  1.
         13    1    5    5    0    0 -0.66452654690E+02  0.11176513554E+03 -0.51423340052E+03  0.53041812850E+03  0.00000000000E+00 0. -1.
        -13    1    5    5    0    0 -0.24227488485E+02  0.20683583991E+02 -0.27985684557E+02  0.42402598802E+02  0.00000000000E+00 0.  1.
          4    1    6    6  503    0  0.30936996092E+03  0.10805408941E+03  0.14398529724E+03  0.35793466552E+03  0.00000000000E+00 0. -1.
         -4    1    6    6    0  503  0.11226296276E+03 -0.14624010315E+02  0.36848792933E+02  0.11905741483E+03  0.00000000000E+00 0.  1.
<mgrwt>
<rscale>  0 0.17525172E+04</rscale>
<asrwt>0</asrwt>
<pdfrwt beam="1">  1        2 0.31472038E+00 0.17525172E+04</pdfrwt>
<pdfrwt beam="2">  1       -1 0.57744817E-01 0.17525172E+04</pdfrwt>
<totfact> 0.20659817E+01</totfact>
</mgrwt>
</event>
<event>
12    7  0.1605494E-007  0.1225662E+04  0.7818608E-02  0.9090687E-01
          2   -1    0    0  501    0  0.00000000000E+00  0.00000000000E+00  0.32956310622E+04  0.32956310622E+04  0.00000000000E+00 0. -1.
         -1   -1    0    0    0  501 -0.00000000000E+00 -0.00000000000E+00 -0.11395745868E+03  0.11395745868E+03  0.00000000000E+00 0.  1.
         24    2    1    2    0    0  0.15361886780E+03 -0.19191216894E+03  0.10845267801E+04  0.11150227282E+04  0.81537172317E+02 0.  0.
        254    2    1    2    0    0 -0.15361886780E+03  0.19191216894E+03  0.20971468234E+04  0.22945657927E+04  0.89809706655E+03 0.  0.
         23    2    4    4    0    0  0.10144790897E+03  0.49022568144E+03  0.93117861575E+03  0.10608274104E+04  0.87454464183E+02 0.  0.
         23    2    4    4    0    0 -0.25506677678E+03 -0.29831351250E+03  0.11659682077E+04  0.12337383823E+04  0.92620312376E+02 0.  0.
          4    1    3    3  502    0  0.75997387871E+02 -0.37623507119E+02  0.41520131233E+03  0.42377265251E+03  0.00000000000E+00 0. -1.
         -3    1    3    3    0  502  0.77621479932E+02 -0.15428866182E+03  0.66932546779E+03  0.69125007570E+03  0.00000000000E+00 0.  1.
         13    1    5    5    0    0  0.10339695291E+02  0.15229201472E+01  0.27803730743E+02  0.29703131615E+02  0.00000000000E+00 0. -1.
        -13    1    5    5    0    0  0.91108213682E+02  0.48870276129E+03  0.90337488501E+03  0.10311242788E+04  0.00000000000E+00 0.  1.
          1    1    6    6  503    0 -0.28950636883E+02 -0.43593842934E+02  0.79884450593E+02  0.95499151641E+02  0.00000000000E+00 0. -1.
         -1    1    6    6    0  503 -0.22611613989E+03 -0.25471966957E+03  0.10860837571E+04  0.11382392306E+04  0.00000000000E+00 0.  1.
<mgrwt>
<rscale>  0 0.12256618E+04</rscale>
<asrwt>0</asrwt>
<pdfrwt beam="1">  1        2 0.50702009E+00 0.12256618E+04</pdfrwt>
<pdfrwt beam="2">  1       -1 0.17531919E-01 0.12256618E+04</pdfrwt>
<totfact> 0.32679199E+01</totfact>
</mgrwt>
</event>
<event>
12    7  0.1605494E-007  0.2359424E+04  0.7818608E-02  0.8454853E-01
          2   -1    0    0  501    0  0.00000000000E+00  0.00000000000E+00  0.13458380532E+04  0.13458380532E+04  0.00000000000E+00 0. -1.
         -1   -1    0    0    0  501 -0.00000000000E+00 -0.00000000000E+00 -0.10340916927E+04  0.10340916927E+04  0.00000000000E+00 0.  1.
         24    2    1    2    0    0 -0.13659198877E+03 -0.45709628117E+03  0.10324975039E+04  0.11401410181E+04  0.79221612915E+02 0.  0.
        254    2    1    2    0    0  0.13659198877E+03  0.45709628117E+03 -0.72075114342E+03  0.12397887278E+04  0.88881915882E+03 0.  0.
         23    2    4    4    0    0  0.22733372315E+03  0.59716140420E+03 -0.18530976539E+03  0.67169276008E+03  0.92461291611E+02 0.  0.
         23    2    4    4    0    0 -0.90741734375E+02 -0.14006512303E+03 -0.53544137803E+03  0.56809596768E+03  0.90461362695E+02 0.  0.
          4    1    3    3  502    0 -0.63804533551E+02 -0.28566684402E+03  0.55184367354E+03  0.62466631436E+03  0.00000000000E+00 0. -1.
         -3    1    3    3    0  502 -0.72787455220E+02 -0.17142943715E+03  0.48065383038E+03  0.51547470377E+03  0.00000000000E+00 0.  1.
         13    1    5    5    0    0  0.16211353582E+03  0.48127176475E+03 -0.17933802717E+03  0.53857723498E+03  0.00000000000E+00 0.  1.
        -13    1    5    5    0    0  0.65220187322E+02  0.11588963945E+03 -0.59717382187E+01  0.13311552510E+03  0.00000000000E+00 0. -1.
          1    1    6    6  503    0 -0.59013006277E+02 -0.38777260356E+02 -0.11929877291E+03  0.13863047302E+03  0.00000000000E+00 0. -1.
         -1    1    6    6    0  503 -0.31728728099E+02 -0.10128786268E+03 -0.41614260512E+03  0.42946549467E+03  0.00000000000E+00 0.  1.
<mgrwt>
<rscale>  0 0.23594236E+04</rscale>
<asrwt>0</asrwt>
<pdfrwt beam="1">  1        2 0.20705201E+00 0.23594236E+04</pdfrwt>
<pdfrwt beam="2">  1       -1 0.15909103E+00 0.23594236E+04</pdfrwt>
<totfact> 0.47463288E+00</totfact>
</mgrwt>
</event>
<event>
12    7  0.1605494E-007  0.1193004E+04  0.7818608E-02  0.9119002E-01
          2   -1    0    0  501    0  0.00000000000E+00  0.00000000000E+00  0.14354950533E+04  0.14354950533E+04  0.00000000000E+00 0. -1.
         -1   -1    0    0    0  501 -0.00000000000E+00 -0.00000000000E+00 -0.24786901724E+03  0.24786901724E+03  0.00000000000E+00 0.  1.
         24    2    1    2    0    0  0.13145017361E+03 -0.12835295251E+03  0.50908688142E+03  0.54704488512E+03  0.79592869935E+02 0.  0.
        254    2    1    2    0    0 -0.13145017361E+03  0.12835295251E+03  0.67853915464E+03  0.11363191854E+04  0.89277784370E+03 0.  0.
         23    2    4    4    0    0 -0.42118533867E+03  0.33384720924E+03  0.41962262330E+03  0.68784740958E+03  0.90553101799E+02 0.  0.
         23    2    4    4    0    0  0.28973516507E+03 -0.20549425673E+03  0.25891653134E+03  0.44847177584E+03  0.88965207239E+02 0.  0.
          4    1    3    3  502    0  0.13024534521E+03 -0.11003731515E+03  0.37795796862E+03  0.41463753655E+03  0.00000000000E+00 0. -1.
         -3    1    3    3    0  502  0.12048284007E+01 -0.18315637357E+02  0.13112891280E+03  0.13240734857E+03  0.00000000000E+00 0.  1.
         13    1    5    5    0    0 -0.14845562528E+02  0.27184541427E+01  0.33712441817E+02  0.36936559842E+02  0.00000000000E+00 0. -1.
        -13    1    5    5    0    0 -0.40633977615E+03  0.33112875510E+03  0.38591018148E+03  0.65091084973E+03  0.00000000000E+00 0.  1.
          3    1    6    6  503    0 -0.49881048509E+01  0.12093447922E+01  0.85906499499E+01  0.10007146016E+02  0.00000000000E+00 0. -1.
         -3    1    6    6    0  503  0.29472326992E+03 -0.20670360152E+03  0.25032588139E+03  0.43846462982E+03  0.00000000000E+00 0.  1.
<mgrwt>
<rscale>  0 0.11930042E+04</rscale>
<asrwt>0</asrwt>
<pdfrwt beam="1">  1        2 0.22084539E+00 0.11930042E+04</pdfrwt>
<pdfrwt beam="2">  1       -1 0.38133696E-01 0.11930042E+04</pdfrwt>
<totfact> 0.10319172E+02</totfact>
</mgrwt>
</event>
<event>
12    7  0.1605494E-007  0.2486762E+04  0.7818608E-02  0.8407717E-01
          2   -1    0    0  501    0  0.00000000000E+00  0.00000000000E+00  0.95123865528E+03  0.95123865528E+03  0.00000000000E+00 0. -1.
         -3   -1    0    0    0  501 -0.00000000000E+00 -0.00000000000E+00 -0.16252456543E+04  0.16252456543E+04  0.00000000000E+00 0.  1.
         24    2    1    2    0    0  0.83091324353E+03  0.44211194216E+03  0.26119298432E+03  0.97995298263E+03  0.78779981224E+02 0.  0.
        254    2    1    2    0    0 -0.83091324353E+03 -0.44211194216E+03 -0.93519998336E+03  0.15965313270E+04  0.88793776891E+03 0.  0.
         23    2    4    4    0    0  0.10684214183E+03  0.81832487013E+02 -0.31142643707E+03  0.35099971524E+03  0.90014305453E+02 0.  0.
         23    2    4    4    0    0 -0.93775538535E+03 -0.52394442917E+03 -0.62377354629E+03  0.12455316117E+04  0.91392730352E+02 0.  0.
          2    1    3    3  502    0  0.53325372676E+03  0.25885473551E+03  0.19639554718E+03  0.62444897482E+03  0.00000000000E+00 0. -1.
         -1    1    3    3    0  502  0.29765951677E+03  0.18325720665E+03  0.64797437137E+02  0.35550400781E+03  0.00000000000E+00 0.  1.
         13    1    5    5    0    0  0.11741628230E+03  0.48726076652E+02 -0.24727368619E+03  0.27803792867E+03  0.00000000000E+00 0.  1.
        -13    1    5    5    0    0 -0.10574140469E+02  0.33106410361E+02 -0.64152750880E+02  0.72961786568E+02  0.00000000000E+00 0. -1.
          4    1    6    6  503    0 -0.92301498830E+03 -0.51519755800E+03 -0.59774331497E+03  0.12143649628E+04  0.00000000000E+00 0.  1.
         -4    1    6    6    0  503 -0.14740397058E+02 -0.87468711699E+01 -0.26030231316E+02  0.31166648890E+02  0.00000000000E+00 0. -1.
<mgrwt>
<rscale>  0 0.24867621E+04</rscale>
<asrwt>0</asrwt>
<pdfrwt beam="1">  1        2 0.14634441E+00 0.24867621E+04</pdfrwt>
<pdfrwt beam="2">  1       -3 0.25003779E+00 0.24867621E+04</pdfrwt>
<totfact> 0.11093526E+00</totfact>
</mgrwt>
</event>
<event>
12    7  0.1605494E-007  0.3455769E+04  0.7818608E-02  0.8124353E-01
         -1   -1    0    0    0  501 -0.00000000000E+00  0.00000000000E+00  0.11219519381E+04  0.11219519381E+04  0.00000000000E+00 0.  1.
          2   -1    0    0  501    0  0.00000000000E+00 -0.00000000000E+00 -0.26610635623E+04  0.26610635623E+04  0.00000000000E+00 0. -1.
         24    2    1    2    0    0 -0.11159924649E+04 -0.44223004042E+03 -0.18902202560E+04  0.22405704635E+04  0.78846656191E+02 0.  0.
        254    2    1    2    0    0  0.11159924649E+04  0.44223004042E+03  0.35110863187E+03  0.15424450369E+04  0.90269199067E+03 0.  0.
         23    2    4    4    0    0  0.12117282210E+04  0.30643100657E+03  0.44050200133E+03  0.13285696730E+04  0.94181312016E+02 0.  0.
         23    2    4    4    0    0 -0.95735756064E+02  0.13579903386E+03 -0.89393369462E+02  0.21387536388E+03  0.10072131941E+03 0.  0.
          4    1    3    3  502    0 -0.74641991356E+03 -0.33498482831E+03 -0.12945247220E+04  0.15313888398E+04  0.00000000000E+00 0. -1.
         -3    1    3    3    0  502 -0.36957255139E+03 -0.10724521212E+03 -0.59569553399E+03  0.70918162376E+03  0.00000000000E+00 0.  1.
         13    1    5    5    0    0  0.49781513872E+03  0.99348971301E+02  0.13817940284E+03  0.52610234537E+03  0.00000000000E+00 0.  1.
        -13    1    5    5    0    0  0.71391308229E+03  0.20708203527E+03  0.30232259849E+03  0.80246732765E+03  0.00000000000E+00 0. -1.
          4    1    6    6  503    0 -0.48774771948E+02  0.82175584491E+02 -0.10386931226E+03  0.14114049417E+03  0.00000000000E+00 0. -1.
         -4    1    6    6    0  503 -0.46960984115E+02  0.53623449366E+02  0.14475942801E+02  0.72734869705E+02  0.00000000000E+00 0.  1.
<mgrwt>
<rscale>  0 0.34557693E+04</rscale>
<asrwt>0</asrwt>
<pdfrwt beam="1">  1        2 0.40939439E+00 0.34557693E+04</pdfrwt>
<pdfrwt beam="2">  1       -1 0.17260799E+00 0.34557693E+04</pdfrwt>
<totfact> 0.61774527E-01</totfact>
</mgrwt>
</event>
<event>
12    7  0.1605494E-007  0.1419127E+04  0.7818608E-02  0.8940088E-01
         -1   -1    0    0    0  501 -0.00000000000E+00  0.00000000000E+00  0.34232963614E+03  0.34232963614E+03  0.00000000000E+00 0.  1.
          2   -1    0    0  501    0  0.00000000000E+00 -0.00000000000E+00 -0.14707482242E+04  0.14707482242E+04  0.00000000000E+00 0. -1.
         24    2    1    2    0    0  0.10084109215E+03  0.24219723679E+03  0.82916593342E+02  0.28691519592E+03  0.81343351458E+02 0.  0.
        254    2    1    2    0    0 -0.10084109215E+03 -0.24219723679E+03 -0.12113351814E+04  0.15261626644E+04  0.89051172321E+03 0.  0.
         23    2    4    4    0    0 -0.19723468020E+03  0.29717297106E+03 -0.41060519350E+03  0.55171577426E+03  0.92630323536E+02 0.  0.
         23    2    4    4    0    0  0.96393588048E+02 -0.53937020785E+03 -0.80072998788E+03  0.97444689014E+03  0.90367490149E+02 0.  0.
          2    1    3    3  502    0  0.11465218422E+02  0.21306203592E+01 -0.90305017503E+01  0.14749262301E+02  0.00000000000E+00 0. -1.
         -1    1    3    3    0  502  0.89375873726E+02  0.24006661643E+03  0.91947095092E+02  0.27216593362E+03  0.00000000000E+00 0.  1.
         13    1    5    5    0    0 -0.20075898304E+03  0.27066422956E+03 -0.35204576417E+03  0.48733921913E+03  0.00000000000E+00 0. -1.
        -13    1    5    5    0    0  0.35243028491E+01  0.26508741498E+02 -0.58559429328E+02  0.64376555124E+02  0.00000000000E+00 0.  1.
          1    1    6    6  503    0  0.10356567250E+03 -0.52392427233E+03 -0.79218105478E+03  0.95539170773E+03  0.00000000000E+00 0. -1.
         -1    1    6    6    0  503 -0.71720844494E+01 -0.15445935511E+02 -0.85489331068E+01  0.19055182404E+02  0.00000000000E+00 0.  1.
<mgrwt>
<rscale>  0 0.14191275E+04</rscale>
<asrwt>0</asrwt>
<pdfrwt beam="1">  1        2 0.22626897E+00 0.14191275E+04</pdfrwt>
<pdfrwt beam="2">  1       -1 0.52666096E-01 0.14191275E+04</pdfrwt>
<totfact> 0.53065732E+01</totfact>
</mgrwt>
</event>
<event>
12    7  0.1605494E-007  0.1551220E+04  0.7818608E-02  0.8851089E-01
         -1   -1    0    0    0  501 -0.00000000000E+00  0.00000000000E+00  0.15427328187E+04  0.15427328187E+04  0.00000000000E+00 0.  1.
          2   -1    0    0  501    0  0.00000000000E+00 -0.00000000000E+00 -0.38993838291E+03  0.38993838291E+03  0.00000000000E+00 0. -1.
         24    2    1    2    0    0 -0.48156963196E+02 -0.88847924964E+01 -0.24782776083E+03  0.26479292623E+03  0.79364110936E+02 0.  0.
        254    2    1    2    0    0  0.48156963196E+02  0.88847924964E+01  0.14006221966E+04  0.16678782753E+04  0.90425514716E+03 0.  0.
         23    2    4    4    0    0 -0.20373736642E+02  0.42257540629E+03  0.96072784512E+03  0.10536529190E+04  0.90561681234E+02 0.  0.
         23    2    4    4    0    0  0.68530699838E+02 -0.41369061379E+03  0.43989435144E+03  0.61422535637E+03  0.89046994414E+02 0.  0.
          4    1    3    3  502    0 -0.32670730156E+02  0.21421367544E+02 -0.21124477273E+03  0.21482692011E+03  0.00000000000E+00 0. -1.
         -3    1    3    3    0  502 -0.15486233040E+02 -0.30306160041E+02 -0.36582988096E+02  0.49966006126E+02  0.00000000000E+00 0.  1.
         13    1    5    5    0    0 -0.78194083794E+01  0.23323248226E+03  0.63710726384E+03  0.67850143667E+03  0.00000000000E+00 0.  1.
        -13    1    5    5    0    0 -0.12554328262E+02  0.18934292403E+03  0.32362058129E+03  0.37515148230E+03  0.00000000000E+00 0. -1.
          3    1    6    6  503    0 -0.79848534975E+01 -0.17764444379E+03  0.21815614839E+03  0.28144877220E+03  0.00000000000E+00 0. -1.
         -3    1    6    6    0  503  0.76515553336E+02 -0.23604617000E+03  0.22173820306E+03  0.33277658417E+03  0.00000000000E+00 0.  1.
<mgrwt>
<rscale>  0 0.15512198E+04</rscale>
<asrwt>0</asrwt>
<pdfrwt beam="1">  1        2 0.59990521E-01 0.15512198E+04</pdfrwt>
<pdfrwt beam="2">  1       -1 0.23734351E+00 0.15512198E+04</pdfrwt>
<totfact> 0.76077643E+00</totfact>
</mgrwt>
</event>
<event>
12    7  0.1605494E-007  0.1948059E+04  0.7818608E-02  0.8631297E-01
         -1   -1    0    0    0  501 -0.00000000000E+00  0.00000000000E+00  0.69879200446E+03  0.69879200446E+03  0.00000000000E+00 0.  1.
          2   -1    0    0  501    0  0.00000000000E+00 -0.00000000000E+00 -0.13576762621E+04  0.13576762621E+04  0.00000000000E+00 0. -1.
         24    2    1    2    0    0  0.16024140461E+02 -0.48114476574E+02 -0.10699410295E+04  0.10741276859E+04  0.80029388476E+02 0.  0.
        254    2    1    2    0    0 -0.16024140461E+02  0.48114476574E+02  0.41105677187E+03  0.98234058068E+03  0.89076010846E+03 0.  0.
         23    2    4    4    0    0 -0.94895690695E+02  0.12997625757E+03 -0.24734484973E+03  0.30788139263E+03  0.87820598917E+02 0.  0.
         23    2    4    4    0    0  0.78871550234E+02 -0.81861781000E+02  0.65840162159E+03  0.67445918805E+03  0.92089241544E+02 0.  0.
          2    1    3    3  502    0 -0.26007329967E+02 -0.27880191767E+02 -0.73074603797E+03  0.73174002099E+03  0.00000000000E+00 0. -1.
         -1    1    3    3    0  502  0.42031470428E+02 -0.20234284807E+02 -0.33919499158E+03  0.34238766493E+03  0.00000000000E+00 0.  1.
         13    1    5    5    0    0 -0.60033658584E+00 -0.47975628356E+01 -0.53226650559E+02  0.53445798178E+02  0.00000000000E+00 0.  1.
        -13    1    5    5    0    0 -0.94295354109E+02  0.13477382041E+03 -0.19411819917E+03  0.25443559445E+03  0.00000000000E+00 0. -1.
          3    1    6    6  503    0  0.76780762111E+02 -0.96762869807E+02  0.48786288188E+03  0.50325791591E+03  0.00000000000E+00 0. -1.
         -3    1    6    6    0  503  0.20907881230E+01  0.14901088807E+02  0.17053873971E+03  0.17120127215E+03  0.00000000000E+00 0.  1.
<mgrwt>
<rscale>  0 0.19480588E+04</rscale>
<asrwt>0</asrwt>
<pdfrwt beam="1">  1        2 0.20887327E+00 0.19480588E+04</pdfrwt>
<pdfrwt beam="2">  1       -1 0.10750646E+00 0.19480588E+04</pdfrwt>
<totfact> 0.13111456E+01</totfact>
</mgrwt>
</event>
<event>
12    7  0.1605494E-007  0.1661551E+04  0.7818608E-02  0.8783602E-01
         -1   -1    0    0    0  501 -0.00000000000E+00  0.00000000000E+00  0.60687320279E+03  0.60687320279E+03  0.00000000000E+00 0.  1.
          2   -1    0    0  501    0  0.00000000000E+00 -0.00000000000E+00 -0.11372850124E+04  0.11372850124E+04  0.00000000000E+00 0. -1.
         24    2    1    2    0    0 -0.22449514757E+03 -0.23149126370E+03 -0.69972141528E+03  0.77465479644E+03  0.80583609943E+02 0.  0.
        254    2    1    2    0    0  0.22449514757E+03  0.23149126370E+03  0.16930960569E+03  0.96950341873E+03  0.89849032265E+03 0.  0.
         23    2    4    4    0    0  0.48995679389E+03 -0.70199068455E+02 -0.44064440476E+02  0.50549176516E+03  0.92707500435E+02 0.  0.
         23    2    4    4    0    0 -0.26546164632E+03  0.30169033216E+03  0.21337404616E+03  0.46401165358E+03  0.91057063946E+02 0.  0.
          4    1    3    3  502    0 -0.17546400177E+03 -0.17201540000E+03 -0.44265571648E+03  0.50628153935E+03  0.00000000000E+00 0. -1.
         -3    1    3    3    0  502 -0.49031145799E+02 -0.59475863709E+02 -0.25706569879E+03  0.26837325708E+03  0.00000000000E+00 0.  1.
         13    1    5    5    0    0  0.49426024493E+03 -0.70428120055E+02 -0.43899131760E+02  0.50117905342E+03  0.00000000000E+00 0.  1.
        -13    1    5    5    0    0 -0.43034510468E+01  0.22905159975E+00 -0.16530871594E+00  0.43127117361E+01  0.00000000000E+00 0. -1.
          4    1    6    6  503    0 -0.13788756668E+03  0.20526175716E+03  0.94360927759E+02  0.26466838626E+03  0.00000000000E+00 0. -1.
         -4    1    6    6    0  503 -0.12757407964E+03  0.96428574995E+02  0.11901311840E+03  0.19934326732E+03  0.00000000000E+00 0.  1.
<mgrwt>
<rscale>  0 0.16615508E+04</rscale>
<asrwt>0</asrwt>
<pdfrwt beam="1">  1        2 0.17496692E+00 0.16615508E+04</pdfrwt>
<pdfrwt beam="2">  1       -1 0.93365109E-01 0.16615508E+04</pdfrwt>
<totfact> 0.25047862E+01</totfact>
</mgrwt>
</event>
<event>
12    7  0.1605494E-007  0.1260828E+04  0.7818608E-02  0.9061219E-01
          2   -1    0    0  501    0  0.00000000000E+00  0.00000000000E+00  0.12305053201E+04  0.12305053201E+04  0.00000000000E+00 0. -1.
         -1   -1    0    0    0  501 -0.00000000000E+00 -0.00000000000E+00 -0.32297442188E+03  0.32297442188E+03  0.00000000000E+00 0.  1.
         24    2    1    2    0    0 -0.16441335483E+02 -0.47299406847E+02  0.58622160105E+03  0.59418761813E+03  0.83039801286E+02 0.  0.
        254    2    1    2    0    0  0.16441335483E+02  0.47299406847E+02  0.32130929714E+03  0.95929212383E+03  0.90249330359E+03 0.  0.
         23    2    4    4    0    0  0.26640644789E+03  0.24340007949E+03  0.46530985452E+03  0.59542858178E+03  0.88351237156E+02 0.  0.
         23    2    4    4    0    0 -0.24996511241E+03 -0.19610067265E+03 -0.14400055738E+03  0.36386354206E+03  0.10354943495E+03 0.  0.
          2    1    3    3  502    0 -0.16771396563E+02 -0.46927444784E+02  0.58913152820E+03  0.59123550497E+03  0.00000000000E+00 0. -1.
         -1    1    3    3    0  502  0.33006108047E+00 -0.37196206358E+00 -0.29099271490E+01  0.29521131594E+01  0.00000000000E+00 0.  1.
         13    1    5    5    0    0  0.20683879075E+03  0.17508691971E+03  0.28296311033E+03  0.39179820905E+03  0.00000000000E+00 0.  1.
        -13    1    5    5    0    0  0.59567657141E+02  0.68313159785E+02  0.18234674419E+03  0.20363037272E+03  0.00000000000E+00 0. -1.
          3    1    6    6  503    0 -0.10988811034E+03 -0.46917124054E+02 -0.96987041592E+02  0.15389314332E+03  0.00000000000E+00 0. -1.
         -3    1    6    6    0  503 -0.14007700207E+03 -0.14918354859E+03 -0.47013515789E+02  0.20997039874E+03  0.00000000000E+00 0.  1.
<mgrwt>
<rscale>  0 0.12608279E+04</rscale>
<asrwt>0</asrwt>
<pdfrwt beam="1">  1        2 0.18930851E+00 0.12608279E+04</pdfrwt>
<pdfrwt beam="2">  1       -1 0.49688373E-01 0.12608279E+04</pdfrwt>
<totfact> 0.82640630E+01</totfact>
</mgrwt>
</event>
<event>
12    7  0.1605494E-007  0.2128243E+04  0.7818608E-02  0.8548903E-01
         -1   -1    0    0    0  501 -0.00000000000E+00  0.00000000000E+00  0.83005606280E+03  0.83005606280E+03  0.00000000000E+00 0.  1.
          2   -1    0    0  501    0  0.00000000000E+00 -0.00000000000E+00 -0.13641898307E+04  0.13641898307E+04  0.00000000000E+00 0. -1.
         24    2    1    2    0    0 -0.48497202820E+03 -0.38333451911E+03 -0.85798987455E+03  0.10607416455E+04  0.82963799323E+02 0.  0.
        254    2    1    2    0    0  0.48497202820E+03  0.38333451911E+03  0.32385610667E+03  0.11335042480E+04  0.89319979887E+03 0.  0.
         23    2    4    4    0    0  0.63594128792E+03  0.53790742609E+03  0.17883915883E+03  0.85667798302E+03  0.90266279125E+02 0.  0.
         23    2    4    4    0    0 -0.15096925972E+03 -0.15457290698E+03  0.14501694784E+03  0.27682626496E+03  0.94437094733E+02 0.  0.
          2    1    3    3  502    0 -0.95585720763E+02 -0.52339637427E+02 -0.19808864399E+03  0.22608666156E+03  0.00000000000E+00 0. -1.
         -1    1    3    3    0  502 -0.38938630744E+03 -0.33099488168E+03 -0.65990123056E+03  0.83465498394E+03  0.00000000000E+00 0.  1.
         13    1    5    5    0    0  0.55779210420E+03  0.45861268085E+03  0.12443281404E+03  0.73276268174E+03  0.00000000000E+00 0. -1.
        -13    1    5    5    0    0  0.78149183724E+02  0.79294745234E+02  0.54406344794E+02  0.12391530128E+03  0.00000000000E+00 0.  1.
          4    1    6    6  503    0 -0.11390742632E+03 -0.58723776675E+02  0.10801551680E+03  0.16760291044E+03  0.00000000000E+00 0. -1.
         -4    1    6    6    0  503 -0.37061833399E+02 -0.95849130303E+02  0.37001431036E+02  0.10922335452E+03  0.00000000000E+00 0.  1.
<mgrwt>
<rscale>  0 0.21282425E+04</rscale>
<asrwt>0</asrwt>
<pdfrwt beam="1">  1        2 0.20987536E+00 0.21282425E+04</pdfrwt>
<pdfrwt beam="2">  1       -1 0.12770093E+00 0.21282425E+04</pdfrwt>
<totfact> 0.84341935E+00</totfact>
</mgrwt>
</event>
<event>
12    7  0.1605494E-007  0.1195764E+04  0.7818608E-02  0.9116572E-01
          2   -1    0    0  501    0  0.00000000000E+00  0.00000000000E+00  0.13231529508E+04  0.13231529508E+04  0.00000000000E+00 0. -1.
         -3   -1    0    0    0  501 -0.00000000000E+00 -0.00000000000E+00 -0.27015995083E+03  0.27015995083E+03  0.00000000000E+00 0.  1.
         24    2    1    2    0    0 -0.21613752896E+03  0.11246560338E+03  0.19538308778E+03  0.32220288261E+03  0.79222491790E+02 0.  0.
        254    2    1    2    0    0  0.21613752896E+03 -0.11246560338E+03  0.85760991214E+03  0.12711100190E+04  0.90601433519E+03 0.  0.
         23    2    4    4    0    0  0.33411104710E+03  0.15872817615E+03  0.23840817432E+02  0.38163942351E+03  0.90859448036E+02 0.  0.
         23    2    4    4    0    0 -0.11797351814E+03 -0.27119377953E+03  0.83376909471E+03  0.88947059547E+03  0.92321286163E+02 0.  0.
          4    1    3    3  502    0 -0.18449776310E+03  0.12191756981E+03  0.18262812841E+03  0.28680368146E+03  0.00000000000E+00 0. -1.
         -1    1    3    3    0  502 -0.31639765861E+02 -0.94519664334E+01  0.12754959372E+02  0.35399201146E+02  0.00000000000E+00 0.  1.
         13    1    5    5    0    0  0.33174515340E+02  0.12677980101E+02 -0.25216745415E+02  0.43556444951E+02  0.00000000000E+00 0.  1.
        -13    1    5    5    0    0  0.30093653176E+03  0.14605019605E+03  0.49057562846E+02  0.33808297855E+03  0.00000000000E+00 0. -1.
          3    1    6    6  503    0 -0.11034827884E+03 -0.21377902633E+03  0.55747348079E+03  0.60716957806E+03  0.00000000000E+00 0. -1.
         -3    1    6    6    0  503 -0.76252393066E+01 -0.57414753200E+02  0.27629561392E+03  0.28230101741E+03  0.00000000000E+00 0.  1.
<mgrwt>
<rscale>  0 0.11957641E+04</rscale>
<asrwt>0</asrwt>
<pdfrwt beam="1">  1        2 0.20356199E+00 0.11957641E+04</pdfrwt>
<pdfrwt beam="2">  1       -3 0.41563070E-01 0.11957641E+04</pdfrwt>
<totfact> 0.58361727E+01</totfact>
</mgrwt>
</event>
<event>
12    7  0.1605494E-007  0.2362021E+04  0.7818608E-02  0.8453861E-01
          2   -1    0    0  501    0  0.00000000000E+00  0.00000000000E+00  0.99420680681E+03  0.99420680681E+03  0.00000000000E+00 0. -1.
         -1   -1    0    0    0  501 -0.00000000000E+00 -0.00000000000E+00 -0.14029134604E+04  0.14029134604E+04  0.00000000000E+00 0.  1.
         24    2    1    2    0    0  0.81552235002E+03 -0.52980275228E+03 -0.45544658484E+03  0.10763769302E+04  0.73403299830E+02 0.  0.
        254    2    1    2    0    0 -0.81552235002E+03  0.52980275228E+03  0.46739931271E+02  0.13207433370E+04  0.89241844528E+03 0.  0.
         23    2    4    4    0    0 -0.23823718599E+03  0.66903794991E+03  0.69130026538E+02  0.71923025422E+03  0.90246677603E+02 0.  0.
         23    2    4    4    0    0 -0.57728516403E+03 -0.13923519763E+03 -0.22390095268E+02  0.60151308282E+03  0.93123958084E+02 0.  0.
          4    1    3    3  502    0  0.43163232287E+03 -0.27120292020E+03 -0.19909139932E+03  0.54726124598E+03  0.00000000000E+00 0. -1.
         -3    1    3    3    0  502  0.38389002715E+03 -0.25859983208E+03 -0.25635518552E+03  0.52911568417E+03  0.00000000000E+00 0.  1.
         13    1    5    5    0    0 -0.24098583103E+03  0.62864427293E+03  0.51962958251E+02  0.67525398309E+03  0.00000000000E+00 0.  1.
        -13    1    5    5    0    0  0.27486450481E+01  0.40393676978E+02  0.17167068287E+02  0.43976271136E+02  0.00000000000E+00 0. -1.
          3    1    6    6  503    0 -0.47620631433E+03 -0.15034575706E+03 -0.16250307245E+02  0.49964024353E+03  0.00000000000E+00 0.  1.
         -3    1    6    6    0  503 -0.10107884971E+03  0.11110559424E+02 -0.61397880224E+01  0.10187283929E+03  0.00000000000E+00 0. -1.
<mgrwt>
<rscale>  0 0.23620213E+04</rscale>
<asrwt>0</asrwt>
<pdfrwt beam="1">  1        2 0.15295490E+00 0.23620213E+04</pdfrwt>
<pdfrwt beam="2">  1       -1 0.21583284E+00 0.23620213E+04</pdfrwt>
<totfact> 0.30673262E+00</totfact>
</mgrwt>
</event>
<event>
12    7  0.1605494E-007  0.2172078E+04  0.7818608E-02  0.8530140E-01
          2   -1    0    0  501    0  0.00000000000E+00  0.00000000000E+00  0.32309967016E+04  0.32309967016E+04  0.00000000000E+00 0. -1.
         -1   -1    0    0    0  501 -0.00000000000E+00 -0.00000000000E+00 -0.36505178825E+03  0.36505178825E+03  0.00000000000E+00 0.  1.
         24    2    1    2    0    0 -0.17904839318E+03  0.21499806651E+03  0.26086291815E+04  0.26248665761E+04  0.81828112121E+02 0.  0.
        254    2    1    2    0    0  0.17904839318E+03 -0.21499806651E+03  0.25731573191E+03  0.97118191383E+03  0.89370041298E+03 0.  0.
         23    2    4    4    0    0 -0.19775838890E+03  0.17367274167E+03 -0.12145062671E+03  0.30422705075E+03  0.92375549230E+02 0.  0.
         23    2    4    4    0    0  0.37680678208E+03 -0.38867080818E+03  0.37876635862E+03  0.66695486309E+03  0.91194774076E+02 0.  0.
          4    1    3    3  502    0 -0.18507731443E+03  0.19364209205E+03  0.23275182526E+04  0.23428811511E+04  0.00000000000E+00 0. -1.
         -3    1    3    3    0  502  0.60289212470E+01  0.21355974463E+02  0.28111092891E+03  0.28198542496E+03  0.00000000000E+00 0.  1.
         13    1    5    5    0    0 -0.17477832599E+03  0.10785084017E+03 -0.67875546873E+02  0.21630154143E+03  0.00000000000E+00 0. -1.
        -13    1    5    5    0    0 -0.22980062913E+02  0.65821901502E+02 -0.53575079841E+02  0.87925509318E+02  0.00000000000E+00 0.  1.
          3    1    6    6  503    0  0.11383672303E+03 -0.17969864634E+03  0.15860246928E+03  0.26533968092E+03  0.00000000000E+00 0. -1.
         -3    1    6    6    0  503  0.26297005905E+03 -0.20897216184E+03  0.22016388934E+03  0.40161518217E+03  0.00000000000E+00 0.  1.
<mgrwt>
<rscale>  0 0.21720784E+04</rscale>
<asrwt>0</asrwt>
<pdfrwt beam="1">  1        2 0.49707640E+00 0.21720784E+04</pdfrwt>
<pdfrwt beam="2">  1       -1 0.56161816E-01 0.21720784E+04</pdfrwt>
<totfact> 0.41479500E+00</totfact>
</mgrwt>
</event>
<event>
12    7  0.1605494E-007  0.1922636E+04  0.7818608E-02  0.8643670E-01
         -1   -1    0    0    0  501 -0.00000000000E+00  0.00000000000E+00  0.12534600251E+04  0.12534600251E+04  0.00000000000E+00 0.  1.
          2   -1    0    0  501    0  0.00000000000E+00 -0.00000000000E+00 -0.73726485123E+03  0.73726485123E+03  0.00000000000E+00 0. -1.
         24    2    1    2    0    0 -0.20088025871E+03 -0.20038189155E+03  0.91136783646E+03  0.95787666821E+03  0.80191005509E+02 0.  0.
        254    2    1    2    0    0  0.20088025871E+03  0.20038189155E+03 -0.39517266261E+03  0.10328482081E+04  0.91110274223E+03 0.  0.
         23    2    4    4    0    0 -0.11447148513E+03 -0.22374931718E+03  0.11462820556E+03  0.29279879463E+03  0.97077447331E+02 0.  0.
         23    2    4    4    0    0  0.31535174384E+03  0.42413120872E+03 -0.50980086818E+03  0.74004941347E+03  0.91881470510E+02 0.  0.
          2    1    3    3  502    0  0.32644019503E+01  0.37390369067E+01  0.72374058072E+01  0.87759193194E+01  0.00000000000E+00 0. -1.
         -1    1    3    3    0  502 -0.20414466066E+03 -0.20412092845E+03  0.90413043066E+03  0.94910074889E+03  0.00000000000E+00 0.  1.
         13    1    5    5    0    0 -0.17567813269E+02  0.64000116227E+01  0.18288318287E+01  0.18786506798E+02  0.00000000000E+00 0.  1.
        -13    1    5    5    0    0 -0.96903671865E+02 -0.23014932880E+03  0.11279937373E+03  0.27401228783E+03  0.00000000000E+00 0. -1.
          1    1    6    6  503    0  0.29055749123E+03  0.40946600097E+03 -0.45243766647E+03  0.67585938160E+03  0.00000000000E+00 0. -1.
         -1    1    6    6    0  503  0.24794252611E+02  0.14665207759E+02 -0.57363201705E+02  0.64190031866E+02  0.00000000000E+00 0.  1.
<mgrwt>
<rscale>  0 0.19226357E+04</rscale>
<asrwt>0</asrwt>
<pdfrwt beam="1">  1        2 0.11342536E+00 0.19226357E+04</pdfrwt>
<pdfrwt beam="2">  1       -1 0.19284000E+00 0.19226357E+04</pdfrwt>
<totfact> 0.69053878E+00</totfact>
</mgrwt>
</event>
<event>
12    7  0.1605494E-007  0.1761198E+04  0.7818608E-02  0.8727211E-01
         -1   -1    0    0    0  501 -0.00000000000E+00  0.00000000000E+00  0.51672729699E+03  0.51672729699E+03  0.00000000000E+00 0.  1.
          2   -1    0    0  501    0  0.00000000000E+00 -0.00000000000E+00 -0.15007029726E+04  0.15007029726E+04  0.00000000000E+00 0. -1.
         24    2    1    2    0    0  0.33503104861E+03 -0.61600589651E+02  0.26186332562E+03  0.43686119927E+03  0.78961192622E+02 0.  0.
        254    2    1    2    0    0 -0.33503104861E+03  0.61600589651E+02 -0.12458390012E+04  0.15805690703E+04  0.91106713963E+03 0.  0.
         23    2    4    4    0    0 -0.43227055637E+02  0.22107112870E+03 -0.12109092331E+04  0.12351293902E+04  0.92208554311E+02 0.  0.
         23    2    4    4    0    0 -0.29180399297E+03 -0.15947053905E+03 -0.34929768175E+02  0.34543968015E+03  0.86764398115E+02 0.  0.
          4    1    3    3  502    0  0.63380373031E+02 -0.42129633901E+02  0.42582248935E+02  0.87207944951E+02  0.00000000000E+00 0. -1.
         -3    1    3    3    0  502  0.27165067558E+03 -0.19470955750E+02  0.21928107669E+03  0.34965325432E+03  0.00000000000E+00 0.  1.
         13    1    5    5    0    0  0.16399648743E+02  0.83666317271E+02 -0.60515038712E+03  0.61112682166E+03  0.00000000000E+00 0.  1.
        -13    1    5    5    0    0 -0.59626704380E+02  0.13740481143E+03 -0.60575884595E+03  0.62400256853E+03  0.00000000000E+00 0. -1.
          3    1    6    6  503    0 -0.17639875852E+03 -0.13291902014E+03 -0.48836598364E+02  0.22620566142E+03  0.00000000000E+00 0. -1.
         -3    1    6    6    0  503 -0.11540523446E+03 -0.26551518910E+02  0.13906830189E+02  0.11923401873E+03  0.00000000000E+00 0.  1.
<mgrwt>
<rscale>  0 0.17611975E+04</rscale>
<asrwt>0</asrwt>
<pdfrwt beam="1">  1        2 0.23087738E+00 0.17611975E+04</pdfrwt>
<pdfrwt beam="2">  1       -1 0.79496507E-01 0.17611975E+04</pdfrwt>
<totfact> 0.21636233E+01</totfact>
</mgrwt>
</event>
<event>
12    7  0.1605494E-007  0.1193058E+04  0.7818608E-02  0.9118955E-01
          2   -1    0    0  501    0  0.00000000000E+00  0.00000000000E+00  0.21361028424E+04  0.21361028424E+04  0.00000000000E+00 0. -1.
         -1   -1    0    0    0  501 -0.00000000000E+00 -0.00000000000E+00 -0.16658683300E+03  0.16658683300E+03  0.00000000000E+00 0.  1.
         24    2    1    2    0    0 -0.19624170074E+02  0.68903161393E+01 -0.42475366556E+02  0.93509599131E+02  0.80667861370E+02 0.  0.
        254    2    1    2    0    0  0.19624170074E+02 -0.68903161393E+01  0.20119913759E+04  0.22091800762E+04  0.91210455978E+03 0.  0.
         23    2    4    4    0    0 -0.23568428578E+03  0.13122136287E+03  0.18358625626E+04  0.18577538930E+04  0.89955818546E+02 0.  0.
         23    2    4    4    0    0  0.25530845585E+03 -0.13811167901E+03  0.17612881328E+03  0.35142618327E+03  0.90673920806E+02 0.  0.
          4    1    3    3  502    0  0.19261361354E+02 -0.18612573479E+02  0.47829523943E+01  0.27208538482E+02  0.00000000000E+00 0. -1.
         -3    1    3    3    0  502 -0.38885531427E+02  0.25502889618E+02 -0.47258318950E+02  0.66301060650E+02  0.00000000000E+00 0.  1.
         13    1    5    5    0    0 -0.23027349313E+03  0.11390092282E+03  0.17914568916E+04  0.18097837153E+04  0.00000000000E+00 0. -1.
        -13    1    5    5    0    0 -0.54107926421E+01  0.17320440055E+02  0.44405671047E+02  0.47970177630E+02  0.00000000000E+00 0.  1.
          2    1    6    6  503    0  0.24033102357E+03 -0.15063221990E+03  0.17117753596E+03  0.33128660610E+03  0.00000000000E+00 0. -1.
         -2    1    6    6    0  503  0.14977432276E+02  0.12520540883E+02  0.49512773128E+01  0.20139577171E+02  0.00000000000E+00 0.  1.
<mgrwt>
<rscale>  0 0.11930576E+04</rscale>
<asrwt>0</asrwt>
<pdfrwt beam="1">  1        2 0.32863119E+00 0.11930576E+04</pdfrwt>
<pdfrwt beam="2">  1       -1 0.25628745E-01 0.11930576E+04</pdfrwt>
<totfact> 0.84857331E+01</totfact>
</mgrwt>
</event>
<event>
12    7  0.1605494E-007  0.1245922E+04  0.7818608E-02  0.9073584E-01
          2   -1    0    0  501    0  0.00000000000E+00  0.00000000000E+00  0.78674322729E+03  0.78674322729E+03  0.00000000000E+00 0. -1.
         -1   -1    0    0    0  501 -0.00000000000E+00 -0.00000000000E+00 -0.49327491502E+03  0.49327491502E+03  0.00000000000E+00 0.  1.
         24    2    1    2    0    0 -0.27274792372E+02  0.32202735263E+03  0.15127875746E+03  0.36513008260E+03  0.77389822475E+02 0.  0.
        254    2    1    2    0    0  0.27274792372E+02 -0.32202735263E+03  0.14218955481E+03  0.91488805971E+03  0.84401229977E+03 0.  0.
         23    2    4    4    0    0  0.24331054608E+03 -0.38838365930E+02  0.39069105709E+03  0.47096785846E+03  0.91993375343E+02 0.  0.
         23    2    4    4    0    0 -0.21603575371E+03 -0.28318898670E+03 -0.24850150228E+03  0.44392020126E+03  0.91895045487E+02 0.  0.
          4    1    3    3  502    0 -0.87918182372E+01  0.20467035611E+03  0.13469804998E+03  0.24517507093E+03  0.00000000000E+00 0. -1.
         -3    1    3    3    0  502 -0.18482974135E+02  0.11735699652E+03  0.16580707485E+02  0.11995501167E+03  0.00000000000E+00 0.  1.
         13    1    5    5    0    0  0.13600308485E+03 -0.17322352864E+02  0.13306134621E+03  0.19105555436E+03  0.00000000000E+00 0.  1.
        -13    1    5    5    0    0  0.10730746122E+03 -0.21516013067E+02  0.25762971088E+03  0.27991230409E+03  0.00000000000E+00 0. -1.
          1    1    6    6  503    0 -0.18468810625E+03 -0.18187713364E+03 -0.19952004946E+03  0.32710432352E+03  0.00000000000E+00 0.  1.
         -1    1    6    6    0  503 -0.31347647461E+02 -0.10131185306E+03 -0.48981452819E+02  0.11681587774E+03  0.00000000000E+00 0. -1.
<mgrwt>
<rscale>  0 0.12459225E+04</rscale>
<asrwt>0</asrwt>
<pdfrwt beam="1">  1        2 0.12103742E+00 0.12459225E+04</pdfrwt>
<pdfrwt beam="2">  1       -1 0.75888449E-01 0.12459225E+04</pdfrwt>
<totfact> 0.69027488E+01</totfact>
</mgrwt>
</event>
<event>
12    7  0.1605494E-007  0.1872450E+04  0.7818608E-02  0.8668693E-01
          2   -1    0    0  501    0  0.00000000000E+00  0.00000000000E+00  0.57120083390E+03  0.57120083390E+03  0.00000000000E+00 0. -1.
         -1   -1    0    0    0  501 -0.00000000000E+00 -0.00000000000E+00 -0.15345166162E+04  0.15345166162E+04  0.00000000000E+00 0.  1.
         24    2    1    2    0    0  0.65651094573E+03  0.26535535129E+03 -0.26256954547E+03  0.75933909347E+03  0.78949403646E+02 0.  0.
        254    2    1    2    0    0 -0.65651094573E+03 -0.26535535129E+03 -0.70074623683E+03  0.13463783566E+04  0.90568720123E+03 0.  0.
         23    2    4    4    0    0 -0.61931359451E+03 -0.61591089146E+02 -0.86343853064E+03  0.10683277625E+04  0.91952820979E+02 0.  0.
         23    2    4    4    0    0 -0.37197351213E+02 -0.20376426214E+03  0.16269229381E+03  0.27805059415E+03  0.89105740442E+02 0.  0.
          4    1    3    3  502    0  0.60045473998E+03  0.22142141961E+03 -0.24968623624E+03  0.68696183038E+03  0.00000000000E+00 0. -1.
         -3    1    3    3    0  502  0.56056205747E+02  0.43933931675E+02 -0.12883309236E+02  0.72377263087E+02  0.00000000000E+00 0.  1.
         13    1    5    5    0    0 -0.31278243299E+03 -0.76994814115E+02 -0.43325346231E+03  0.53987925909E+03  0.00000000000E+00 0.  1.
        -13    1    5    5    0    0 -0.30653116152E+03  0.15403724969E+02 -0.43018506833E+03  0.52844850340E+03  0.00000000000E+00 0. -1.
          4    1    6    6  503    0 -0.34277264681E+02 -0.14444192841E+03  0.61443012143E+02  0.16066625438E+03  0.00000000000E+00 0. -1.
         -4    1    6    6    0  503 -0.29200865328E+01 -0.59322333734E+02  0.10124928167E+03  0.11738433977E+03  0.00000000000E+00 0.  1.
<mgrwt>
<rscale>  0 0.18724499E+04</rscale>
<asrwt>0</asrwt>
<pdfrwt beam="1">  1        2 0.87877054E-01 0.18724499E+04</pdfrwt>
<pdfrwt beam="2">  1       -1 0.23607947E+00 0.18724499E+04</pdfrwt>
<totfact> 0.48542778E+00</totfact>
</mgrwt>
</event>
<event>
12    7  0.1605494E-007  0.1654876E+04  0.7818608E-02  0.8787527E-01
         -1   -1    0    0    0  501 -0.00000000000E+00  0.00000000000E+00  0.30477736542E+03  0.30477736542E+03  0.00000000000E+00 0.  1.
          2   -1    0    0  501    0  0.00000000000E+00 -0.00000000000E+00 -0.22464056242E+04  0.22464056242E+04  0.00000000000E+00 0. -1.
         24    2    1    2    0    0  0.40389397215E+03 -0.18833225863E+03 -0.10367158021E+04  0.11310736721E+04  0.77127277751E+02 0.  0.
        254    2    1    2    0    0 -0.40389397215E+03  0.18833225863E+03 -0.90491245664E+03  0.14201093175E+04  0.99962219817E+03 0.  0.
         23    2    4    4    0    0 -0.14211819344E+03  0.45877950815E+03 -0.90983957367E+03  0.10328684392E+04  0.91284965297E+02 0.  0.
         23    2    4    4    0    0 -0.26177577871E+03 -0.27044724951E+03  0.49271170284E+01  0.38724087829E+03  0.90900760441E+02 0.  0.
          4    1    3    3  502    0  0.32962297625E+03 -0.13436580708E+03 -0.75345571624E+03  0.83330726201E+03  0.00000000000E+00 0. -1.
         -3    1    3    3    0  502  0.74270995896E+02 -0.53966451548E+02 -0.28326008588E+03  0.29776641009E+03  0.00000000000E+00 0.  1.
         13    1    5    5    0    0 -0.11892426320E+03  0.42198239591E+03 -0.86838189207E+03  0.97277912874E+03  0.00000000000E+00 0. -1.
        -13    1    5    5    0    0 -0.23193930232E+02  0.36797112233E+02 -0.41457681597E+02  0.60089310461E+02  0.00000000000E+00 0.  1.
          4    1    6    6  503    0 -0.99418340580E+02 -0.49290606036E+02 -0.15888370606E+02  0.11209821857E+03  0.00000000000E+00 0.  1.
         -4    1    6    6    0  503 -0.16235743813E+03 -0.22115664348E+03  0.20815487635E+02  0.27514265972E+03  0.00000000000E+00 0. -1.
<mgrwt>
<rscale>  0 0.16548759E+04</rscale>
<asrwt>0</asrwt>
<pdfrwt beam="1">  1        2 0.34560086E+00 0.16548759E+04</pdfrwt>
<pdfrwt beam="2">  1       -1 0.46888827E-01 0.16548759E+04</pdfrwt>
<totfact> 0.23988637E+01</totfact>
</mgrwt>
</event>
<event>
12    7  0.1605494E-007  0.1407656E+04  0.7818608E-02  0.8948295E-01
         -1   -1    0    0    0  501 -0.00000000000E+00  0.00000000000E+00  0.34938239074E+03  0.34938239074E+03  0.00000000000E+00 0.  1.
          2   -1    0    0  501    0  0.00000000000E+00 -0.00000000000E+00 -0.14178561035E+04  0.14178561035E+04  0.00000000000E+00 0. -1.
         24    2    1    2    0    0 -0.15963273368E+03  0.31663710535E+03 -0.57084467689E+03  0.67674955578E+03  0.79904004710E+02 0.  0.
        254    2    1    2    0    0  0.15963273368E+03 -0.31663710535E+03 -0.49762903586E+03  0.10904889384E+04  0.90321082886E+03 0.  0.
         23    2    4    4    0    0  0.22788650767E+03  0.53555888305E+02 -0.63135432249E+03  0.67961317575E+03  0.92007035480E+02 0.  0.
         23    2    4    4    0    0 -0.68253773984E+02 -0.37019299366E+03  0.13372528663E+03  0.41087576269E+03  0.96098958699E+02 0.  0.
          2    1    3    3  502    0 -0.66297399506E+01  0.47001418986E+02 -0.40308048925E+02  0.62272189994E+02  0.00000000000E+00 0. -1.
         -1    1    3    3    0  502 -0.15300299373E+03  0.26963568636E+03 -0.53053662797E+03  0.61447736579E+03  0.00000000000E+00 0.  1.
         13    1    5    5    0    0  0.94923045500E+02 -0.18990737975E+02 -0.30115425124E+03  0.31633039016E+03  0.00000000000E+00 0. -1.
        -13    1    5    5    0    0  0.13296346217E+03  0.72546626281E+02 -0.33020007125E+03  0.36328278560E+03  0.00000000000E+00 0.  1.
          2    1    6    6  503    0 -0.23043148756E+01 -0.13669753252E+03  0.91727901946E+02  0.16463758156E+03  0.00000000000E+00 0. -1.
         -2    1    6    6    0  503 -0.65949459108E+02 -0.23349546113E+03  0.41997384688E+02  0.24623818113E+03  0.00000000000E+00 0.  1.
<mgrwt>
<rscale>  0 0.14076561E+04</rscale>
<asrwt>0</asrwt>
<pdfrwt beam="1">  1        2 0.21813171E+00 0.14076561E+04</pdfrwt>
<pdfrwt beam="2">  1       -1 0.53751137E-01 0.14076561E+04</pdfrwt>
<totfact> 0.54730388E+01</totfact>
</mgrwt>
</event>
<event>
12    7  0.1605494E-007  0.1902754E+04  0.7818608E-02  0.8653487E-01
          2   -1    0    0  501    0  0.00000000000E+00  0.00000000000E+00  0.73948952819E+03  0.73948952819E+03  0.00000000000E+00 0. -1.
         -3   -1    0    0    0  501 -0.00000000000E+00 -0.00000000000E+00 -0.12239773096E+04  0.12239773096E+04  0.00000000000E+00 0.  1.
         24    2    1    2    0    0 -0.13982836349E+03  0.26712847491E+03  0.50551258923E+03  0.59387740461E+03  0.78979747389E+02 0.  0.
        254    2    1    2    0    0  0.13982836349E+03 -0.26712847491E+03 -0.99000037065E+03  0.13695894332E+04  0.89708689004E+03 0.  0.
         23    2    4    4    0    0 -0.72627128905E+02  0.29488442398E+03 -0.48901516763E+03  0.58138168133E+03  0.81469637620E+02 0.  0.
         23    2    4    4    0    0  0.21245549240E+03 -0.56201289888E+03 -0.50098520302E+03  0.78820775186E+03  0.96381801655E+02 0.  0.
          2    1    3    3  502    0 -0.14854120464E+03  0.24465285108E+03  0.44936766227E+03  0.53277650371E+03  0.00000000000E+00 0. -1.
         -1    1    3    3    0  502  0.87128411476E+01  0.22475623832E+02  0.56144926958E+02  0.61100900899E+02  0.00000000000E+00 0.  1.
         13    1    5    5    0    0 -0.52650390630E+02  0.64845854463E+02 -0.12923773891E+03  0.15388125823E+03  0.00000000000E+00 0.  1.
        -13    1    5    5    0    0 -0.19976738275E+02  0.23003856951E+03 -0.35977742872E+03  0.42750042310E+03  0.00000000000E+00 0. -1.
          3    1    6    6  503    0  0.13164092239E+03 -0.44865652515E+03 -0.41024918926E+03  0.62203408853E+03  0.00000000000E+00 0. -1.
         -3    1    6    6    0  503  0.80814570011E+02 -0.11335637374E+03 -0.90736013762E+02  0.16617366333E+03  0.00000000000E+00 0.  1.
<mgrwt>
<rscale>  0 0.19027542E+04</rscale>
<asrwt>0</asrwt>
<pdfrwt beam="1">  1        2 0.11376762E+00 0.19027542E+04</pdfrwt>
<pdfrwt beam="2">  1       -3 0.18830420E+00 0.19027542E+04</pdfrwt>
<totfact> 0.39123976E+00</totfact>
</mgrwt>
</event>
<event>
12    7  0.1605494E-007  0.1470188E+04  0.7818608E-02  0.8904523E-01
          2   -1    0    0  501    0  0.00000000000E+00  0.00000000000E+00  0.98060809981E+03  0.98060809981E+03  0.00000000000E+00 0. -1.
         -1   -1    0    0    0  501 -0.00000000000E+00 -0.00000000000E+00 -0.55104917372E+03  0.55104917372E+03  0.00000000000E+00 0.  1.
         24    2    1    2    0    0  0.26960679022E+03 -0.36498093141E+03  0.94780877780E+02  0.47075218622E+03  0.82007953349E+02 0.  0.
        254    2    1    2    0    0 -0.26960679022E+03  0.36498093141E+03  0.33477804831E+03  0.10609050873E+04  0.89863472058E+03 0.  0.
         23    2    4    4    0    0 -0.39432484898E+03 -0.58425568904E+02 -0.11374409957E+03  0.42499587184E+03  0.93691713971E+02 0.  0.
         23    2    4    4    0    0  0.12471805877E+03  0.42340650031E+03  0.44852214787E+03  0.63590921547E+03  0.91546460870E+02 0.  0.
          2    1    3    3  502    0  0.37252413657E+02 -0.20162960994E+02  0.24862770724E+02  0.49116643690E+02  0.00000000000E+00 0. -1.
         -1    1    3    3    0  502  0.23235437656E+03 -0.34481797042E+03  0.69918107056E+02  0.42163554253E+03  0.00000000000E+00 0.  1.
         13    1    5    5    0    0 -0.28099303916E+03 -0.60673969231E+02 -0.41176305609E+02  0.29040300746E+03  0.00000000000E+00 0.  1.
        -13    1    5    5    0    0 -0.11333180982E+03  0.22484003272E+01 -0.72567793957E+02  0.13459286438E+03  0.00000000000E+00 0. -1.
          4    1    6    6  503    0  0.80061065755E+02  0.24413055408E+03  0.19666344226E+03  0.32355217695E+03  0.00000000000E+00 0. -1.
         -4    1    6    6    0  503  0.44656993012E+02  0.17927594623E+03  0.25185870561E+03  0.31235703852E+03  0.00000000000E+00 0.  1.
<mgrwt>
<rscale>  0 0.14701881E+04</rscale>
<asrwt>0</asrwt>
<pdfrwt beam="1">  1        2 0.15086278E+00 0.14701881E+04</pdfrwt>
<pdfrwt beam="2">  1       -1 0.84776796E-01 0.14701881E+04</pdfrwt>
<totfact> 0.39452108E+01</totfact>
</mgrwt>
</event>
<event>
12    7  0.1605494E-007  0.1231972E+04  0.7818608E-02  0.9085323E-01
         -1   -1    0    0    0  501 -0.00000000000E+00  0.00000000000E+00  0.33828524697E+03  0.33828524697E+03  0.00000000000E+00 0.  1.
          2   -1    0    0  501    0  0.00000000000E+00 -0.00000000000E+00 -0.11216528287E+04  0.11216528287E+04  0.00000000000E+00 0. -1.
         24    2    1    2    0    0 -0.14692516635E+03 -0.19776504619E+03 -0.32659932247E+02  0.26103236801E+03  0.79832374211E+02 0.  0.
        254    2    1    2    0    0  0.14692516635E+03  0.19776504619E+03 -0.75070764945E+03  0.11989057076E+04  0.90172884107E+03 0.  0.
         23    2    4    4    0    0  0.37358757974E+03 -0.22272263011E+03 -0.41605171280E+03  0.60852165207E+03  0.89590867903E+02 0.  0.
         23    2    4    4    0    0 -0.22666241339E+03  0.42048767631E+03 -0.33465593664E+03  0.59038405555E+03  0.91504106713E+02 0.  0.
          2    1    3    3  502    0 -0.97996685458E+02 -0.76456298662E+02  0.65834799924E+01  0.12446790018E+03  0.00000000000E+00 0. -1.
         -1    1    3    3    0  502 -0.48928480887E+02 -0.12130874753E+03 -0.39243412239E+02  0.13656446783E+03  0.00000000000E+00 0.  1.
         13    1    5    5    0    0  0.84244342226E+02 -0.83235396463E+02 -0.15213177860E+03  0.19279346068E+03  0.00000000000E+00 0.  1.
        -13    1    5    5    0    0  0.28934323751E+03 -0.13948723365E+03 -0.26391993421E+03  0.41572819139E+03  0.00000000000E+00 0. -1.
          3    1    6    6  503    0 -0.22452994712E+03  0.36385018918E+03 -0.31226806713E+03  0.52944499532E+03  0.00000000000E+00 0. -1.
         -3    1    6    6    0  503 -0.21324662788E+01  0.56637487129E+02 -0.22387869511E+02  0.60939060232E+02  0.00000000000E+00 0.  1.
<mgrwt>
<rscale>  0 0.12319718E+04</rscale>
<asrwt>0</asrwt>
<pdfrwt beam="1">  1        2 0.17256198E+00 0.12319718E+04</pdfrwt>
<pdfrwt beam="2">  1       -1 0.52043883E-01 0.12319718E+04</pdfrwt>
<totfact> 0.88169488E+01</totfact>
</mgrwt>
</event>
<event>
12    7  0.1605494E-007  0.1133376E+04  0.7818608E-02  0.9173258E-01
          2   -1    0    0  501    0  0.00000000000E+00  0.00000000000E+00  0.32023781758E+04  0.32023781758E+04  0.00000000000E+00 0. -1.
         -1   -1    0    0    0  501 -0.00000000000E+00 -0.00000000000E+00 -0.10028032954E+03  0.10028032954E+03  0.00000000000E+00 0.  1.
         24    2    1    2    0    0 -0.12582157507E+02  0.74913837433E+02  0.12340996768E+04  0.12391552029E+04  0.82056143507E+02 0.  0.
        254    2    1    2    0    0  0.12582157507E+02 -0.74913837433E+02  0.18679981695E+04  0.20635033025E+04  0.87341761185E+03 0.  0.
         23    2    4    4    0    0  0.43339376336E+03 -0.14297181270E+02  0.94628725003E+03  0.10441379268E+04  0.82035889323E+02 0.  0.
         23    2    4    4    0    0 -0.42081160585E+03 -0.60616656164E+02  0.92171091944E+03  0.10193653757E+04  0.93797460375E+02 0.  0.
          4    1    3    3  502    0 -0.41045606490E+02  0.63701395578E+02  0.10289908941E+04  0.10317775292E+04  0.00000000000E+00 0. -1.
         -3    1    3    3    0  502  0.28463448983E+02  0.11212441855E+02  0.20510878277E+03  0.20737767370E+03  0.00000000000E+00 0.  1.
         13    1    5    5    0    0  0.17137818249E+03 -0.32220718025E+02  0.30812173927E+03  0.35404471796E+03  0.00000000000E+00 0. -1.
        -13    1    5    5    0    0  0.26201558086E+03  0.17923536755E+02  0.63816551077E+03  0.69009320886E+03  0.00000000000E+00 0.  1.
          3    1    6    6  503    0 -0.11898813892E+03  0.96760831662E+01  0.33844125711E+03  0.35887921130E+03  0.00000000000E+00 0. -1.
         -3    1    6    6    0  503 -0.30182346693E+03 -0.70292739330E+02  0.58326966233E+03  0.66048616442E+03  0.00000000000E+00 0.  1.
<mgrwt>
<rscale>  0 0.11333764E+04</rscale>
<asrwt>0</asrwt>
<pdfrwt beam="1">  1        2 0.49267349E+00 0.11333764E+04</pdfrwt>
<pdfrwt beam="2">  1       -1 0.15427745E-01 0.11333764E+04</pdfrwt>
<totfact> 0.46845725E+01</totfact>
</mgrwt>
</event>
<event>
12    7  0.1605494E-007  0.1630558E+04  0.7818608E-02  0.8801992E-01
          2   -1    0    0  501    0  0.00000000000E+00  0.00000000000E+00  0.22674248913E+04  0.22674248913E+04  0.00000000000E+00 0. -1.
         -1   -1    0    0    0  501 -0.00000000000E+00 -0.00000000000E+00 -0.29314306474E+03  0.29314306474E+03  0.00000000000E+00 0.  1.
         24    2    1    2    0    0 -0.25166917614E+03 -0.38315950297E+03  0.18730606057E+03  0.50137343197E+03  0.78378434698E+02 0.  0.
        254    2    1    2    0    0  0.25166917614E+03  0.38315950297E+03  0.17869757660E+04  0.20591945241E+04  0.91479567160E+03 0.  0.
         23    2    4    4    0    0  0.34047656032E+03  0.55373997498E+03  0.73252527346E+03  0.98358887043E+03  0.91112796824E+02 0.  0.
         23    2    4    4    0    0 -0.88807384183E+02 -0.17058047201E+03  0.10544504926E+04  0.10756056537E+04  0.89873422214E+02 0.  0.
          4    1    3    3  502    0 -0.92577147647E+02 -0.14624539718E+03  0.30484492217E+02  0.17574853834E+03  0.00000000000E+00 0. -1.
         -3    1    3    3    0  502 -0.15909202849E+03 -0.23691410579E+03  0.15682156835E+03  0.32562489363E+03  0.00000000000E+00 0.  1.
         13    1    5    5    0    0  0.24860112161E+03  0.43404906206E+03  0.61243592527E+03  0.79074576730E+03  0.00000000000E+00 0. -1.
        -13    1    5    5    0    0  0.91875438706E+02  0.11969091293E+03  0.12008934819E+03  0.19284310312E+03  0.00000000000E+00 0.  1.
          3    1    6    6  503    0 -0.36870413839E+02 -0.50091037014E+02  0.16142538215E+03  0.17299333342E+03  0.00000000000E+00 0. -1.
         -3    1    6    6    0  503 -0.51936970344E+02 -0.12048943500E+03  0.89302511040E+03  0.90261232024E+03  0.00000000000E+00 0.  1.
<mgrwt>
<rscale>  0 0.16305580E+04</rscale>
<asrwt>0</asrwt>
<pdfrwt beam="1">  1        2 0.34883459E+00 0.16305580E+04</pdfrwt>
<pdfrwt beam="2">  1       -1 0.45098935E-01 0.16305580E+04</pdfrwt>
<totfact> 0.25161534E+01</totfact>
</mgrwt>
</event>
<event>
12    7  0.1605494E-007  0.3793802E+04  0.7818608E-02  0.8047486E-01
          2   -1    0    0  501    0  0.00000000000E+00  0.00000000000E+00  0.28884191632E+04  0.28884191632E+04  0.00000000000E+00 0. -1.
         -1   -1    0    0    0  501 -0.00000000000E+00 -0.00000000000E+00 -0.12457450983E+04  0.12457450983E+04  0.00000000000E+00 0.  1.
         24    2    1    2    0    0 -0.64484381773E+03 -0.16587027640E+04  0.55775992415E+03  0.18667270625E+04  0.80345406939E+02 0.  0.
        254    2    1    2    0    0  0.64484381773E+03  0.16587027640E+04  0.10849141408E+04  0.22674371990E+04  0.89281260631E+03 0.  0.
         23    2    4    4    0    0  0.24093279252E+03  0.83084295494E+03  0.39303613155E+02  0.87086807156E+03  0.92291916067E+02 0.  0.
         23    2    4    4    0    0  0.40391102521E+03  0.82785980903E+03  0.10456105277E+04  0.13965691274E+04  0.92779159662E+02 0.  0.
          4    1    3    3  502    0 -0.57260096119E+02 -0.20459891309E+03  0.50248895763E+02  0.21832174736E+03  0.00000000000E+00 0. -1.
         -3    1    3    3    0  502 -0.58758372161E+03 -0.14541038509E+04  0.50751102839E+03  0.16484053151E+04  0.00000000000E+00 0.  1.
         13    1    5    5    0    0  0.14403457483E+03  0.42373552575E+03 -0.21139269652E+02  0.44804533616E+03  0.00000000000E+00 0. -1.
        -13    1    5    5    0    0  0.96898217686E+02  0.40710742919E+03  0.60442882807E+02  0.42282273540E+03  0.00000000000E+00 0.  1.
          2    1    6    6  503    0  0.25097926808E+03  0.61005292783E+03  0.74413212052E+03  0.99442836874E+03  0.00000000000E+00 0. -1.
         -2    1    6    6    0  503  0.15293175713E+03  0.21780688120E+03  0.30147840713E+03  0.40214075869E+03  0.00000000000E+00 0.  1.
<mgrwt>
<rscale>  0 0.37938023E+04</rscale>
<asrwt>0</asrwt>
<pdfrwt beam="1">  1        2 0.44437218E+00 0.37938023E+04</pdfrwt>
<pdfrwt beam="2">  1       -1 0.19165309E+00 0.37938023E+04</pdfrwt>
<totfact> 0.31999323E-01</totfact>
</mgrwt>
</event>
<event>
12    7  0.1605494E-007  0.1603696E+04  0.7818608E-02  0.8818281E-01
         -1   -1    0    0    0  501 -0.00000000000E+00  0.00000000000E+00  0.84353731834E+03  0.84353731834E+03  0.00000000000E+00 0.  1.
          2   -1    0    0  501    0  0.00000000000E+00 -0.00000000000E+00 -0.76221882952E+03  0.76221882952E+03  0.00000000000E+00 0. -1.
         24    2    1    2    0    0  0.46732711357E+03 -0.65780954309E+02 -0.24925334991E+03  0.53979798672E+03  0.80826165290E+02 0.  0.
        254    2    1    2    0    0 -0.46732711357E+03  0.65780954309E+02  0.33057183873E+03  0.10659581611E+04  0.89680950916E+03 0.  0.
         23    2    4    4    0    0 -0.72803107755E+03  0.27079406834E+02  0.21353874050E+03  0.76472299089E+03  0.91869009674E+02 0.  0.
         23    2    4    4    0    0  0.26070396398E+03  0.38701547476E+02  0.11703309823E+03  0.30123517025E+03  0.87071896172E+02 0.  0.
          2    1    3    3  502    0  0.31330735971E+03 -0.37904940346E+02 -0.20786265554E+03  0.37789571276E+03  0.00000000000E+00 0. -1.
         -3    1    3    3    0  502  0.15401975386E+03 -0.27876013963E+02 -0.41390694370E+02  0.16190227396E+03  0.00000000000E+00 0.  1.
         13    1    5    5    0    0 -0.42066419838E+03 -0.29768313502E+02  0.12442643407E+03  0.43968904669E+03  0.00000000000E+00 0.  1.
        -13    1    5    5    0    0 -0.30736687918E+03  0.56847720336E+02  0.89112306429E+02  0.32503394420E+03  0.00000000000E+00 0. -1.
          4    1    6    6  503    0  0.20016592503E+03  0.51603655656E+02  0.12044929787E+03  0.23924332421E+03  0.00000000000E+00 0.  1.
         -4    1    6    6    0  503  0.60538038956E+02 -0.12902108180E+02 -0.34161996480E+01  0.61991846046E+02  0.00000000000E+00 0. -1.
<mgrwt>
<rscale>  0 0.16036958E+04</rscale>
<asrwt>0</asrwt>
<pdfrwt beam="1">  1        2 0.11726444E+00 0.16036958E+04</pdfrwt>
<pdfrwt beam="2">  1       -1 0.12977497E+00 0.16036958E+04</pdfrwt>
<totfact> 0.20477006E+01</totfact>
</mgrwt>
</event>
<event>
12    7  0.1605494E-007  0.1355642E+04  0.7818608E-02  0.8986568E-01
         -1   -1    0    0    0  501 -0.00000000000E+00  0.00000000000E+00  0.12317444798E+03  0.12317444798E+03  0.00000000000E+00 0.  1.
          2   -1    0    0  501    0  0.00000000000E+00 -0.00000000000E+00 -0.37300067733E+04  0.37300067733E+04  0.00000000000E+00 0. -1.
         24    2    1    2    0    0  0.26631274391E+03  0.20795399672E+03 -0.13175533804E+04  0.13623227706E+04  0.76217312609E+02 0.  0.
        254    2    1    2    0    0 -0.26631274391E+03 -0.20795399672E+03 -0.22892789450E+04  0.24908584507E+04  0.92163463014E+03 0.  0.
         23    2    4    4    0    0  0.14294314668E+03 -0.31279961805E+03 -0.33255548848E+03  0.48719249090E+03  0.92125056527E+02 0.  0.
         23    2    4    4    0    0 -0.40925589059E+03  0.10484562133E+03 -0.19567234565E+04  0.20036659598E+04  0.86183555149E+02 0.  0.
          4    1    3    3  502    0  0.17041084649E+03  0.13594414293E+03 -0.69726038515E+03  0.73054275118E+03  0.00000000000E+00 0. -1.
         -3    1    3    3    0  502  0.95901897417E+02  0.72009853789E+02 -0.62029299524E+03  0.63178001940E+03  0.00000000000E+00 0.  1.
         13    1    5    5    0    0  0.17513489041E+02  0.60459416961E+00 -0.94431573107E+01  0.19906306852E+02  0.00000000000E+00 0.  1.
        -13    1    5    5    0    0  0.12542965764E+03 -0.31340421222E+03 -0.32311233117E+03  0.46728618405E+03  0.00000000000E+00 0. -1.
          2    1    6    6  503    0 -0.46472249069E+01 -0.42222426899E+01 -0.69384672839E+01  0.93576899349E+01  0.00000000000E+00 0.  1.
         -2    1    6    6    0  503 -0.40460866568E+03  0.10906786402E+03 -0.19497849892E+04  0.19943082699E+04  0.00000000000E+00 0. -1.
<mgrwt>
<rscale>  0 0.13556423E+04</rscale>
<asrwt>0</asrwt>
<pdfrwt beam="1">  1        2 0.57384718E+00 0.13556423E+04</pdfrwt>
<pdfrwt beam="2">  1       -1 0.18949916E-01 0.13556423E+04</pdfrwt>
<totfact> 0.14134060E+01</totfact>
</mgrwt>
</event>
<event>
12    7  0.1605494E-007  0.2194496E+04  0.7818608E-02  0.8520722E-01
         -1   -1    0    0    0  501 -0.00000000000E+00  0.00000000000E+00  0.54800137533E+03  0.54800137533E+03  0.00000000000E+00 0.  1.
          2   -1    0    0  501    0  0.00000000000E+00 -0.00000000000E+00 -0.21969898919E+04  0.21969898919E+04  0.00000000000E+00 0. -1.
         24    2    1    2    0    0  0.31413609282E+02  0.44356455366E+03 -0.16501404349E+04  0.17112476233E+04  0.87570801444E+02 0.  0.
        254    2    1    2    0    0 -0.31413609282E+02 -0.44356455366E+03  0.11519183241E+01  0.10337436439E+04  0.93321394457E+03 0.  0.
         23    2    4    4    0    0 -0.20225666632E+02  0.25143683389E+03  0.16362375684E+03  0.31412643773E+03  0.90956726253E+02 0.  0.
         23    2    4    4    0    0 -0.11187942651E+02 -0.69500138755E+03 -0.16247183851E+03  0.71961720621E+03  0.91102834218E+02 0.  0.
          4    1    3    3  502    0  0.58332237449E+02  0.37045868666E+03 -0.13425576355E+04  0.13939523999E+04  0.00000000000E+00 0. -1.
         -3    1    3    3    0  502 -0.26918628167E+02  0.73105867007E+02 -0.30758279940E+03  0.31729522344E+03  0.00000000000E+00 0.  1.
         13    1    5    5    0    0 -0.55949937979E+02  0.14931284951E+03  0.87980175276E+02  0.18211324452E+03  0.00000000000E+00 0.  1.
        -13    1    5    5    0    0  0.35724271348E+02  0.10212398438E+03  0.75643581563E+02  0.13201319321E+03  0.00000000000E+00 0. -1.
          2    1    6    6  503    0  0.39066197040E+02 -0.38563575158E+03 -0.88350340615E+02  0.39755110783E+03  0.00000000000E+00 0. -1.
         -2    1    6    6    0  503 -0.50254139690E+02 -0.30936563597E+03 -0.74121497900E+02  0.32206609838E+03  0.00000000000E+00 0.  1.
<mgrwt>
<rscale>  0 0.21944963E+04</rscale>
<asrwt>0</asrwt>
<pdfrwt beam="1">  1        2 0.33799844E+00 0.21944963E+04</pdfrwt>
<pdfrwt beam="2">  1       -1 0.84307904E-01 0.21944963E+04</pdfrwt>
<totfact> 0.75179666E+00</totfact>
</mgrwt>
</event>
<event>
12    7  0.1605494E-007  0.2744892E+04  0.7818608E-02  0.8320584E-01
         -1   -1    0    0    0  501 -0.00000000000E+00  0.00000000000E+00  0.85467287439E+03  0.85467287439E+03  0.00000000000E+00 0.  1.
          2   -1    0    0  501    0  0.00000000000E+00 -0.00000000000E+00 -0.22038927765E+04  0.22038927765E+04  0.00000000000E+00 0. -1.
         24    2    1    2    0    0  0.11143483546E+04 -0.44621390021E+03 -0.33487067240E+03  0.12485830072E+04  0.77084748538E+02 0.  0.
        254    2    1    2    0    0 -0.11143483546E+04  0.44621390021E+03 -0.10143492297E+04  0.18099826437E+04  0.89791631598E+03 0.  0.
         23    2    4    4    0    0 -0.11165123347E+04  0.82989507955E+02 -0.76526891931E+03  0.13591909714E+04  0.90975414409E+02 0.  0.
         23    2    4    4    0    0  0.21639800545E+01  0.36322439225E+03 -0.24908031041E+03  0.45079167228E+03  0.96101450719E+02 0.  0.
          4    1    3    3  502    0  0.36943876567E+03 -0.15700083807E+03 -0.75454718891E+02  0.40844544230E+03  0.00000000000E+00 0. -1.
         -3    1    3    3    0  502  0.74490958894E+03 -0.28921306214E+03 -0.25941595351E+03  0.84013756489E+03  0.00000000000E+00 0.  1.
         13    1    5    5    0    0 -0.79742826210E+03  0.93311749479E+02 -0.57510037523E+03  0.98759270825E+03  0.00000000000E+00 0.  1.
        -13    1    5    5    0    0 -0.31908407256E+03 -0.10322241524E+02 -0.19016854407E+03  0.37159826317E+03  0.00000000000E+00 0. -1.
          2    1    6    6  503    0  0.31273496951E+02  0.15542675340E+03 -0.63894537591E+02  0.17093279152E+03  0.00000000000E+00 0. -1.
         -2    1    6    6    0  503 -0.29109516896E+02  0.20779763885E+03 -0.18518577281E+03  0.27985888076E+03  0.00000000000E+00 0.  1.
<mgrwt>
<rscale>  0 0.27448915E+04</rscale>
<asrwt>0</asrwt>
<pdfrwt beam="1">  1        2 0.33906042E+00 0.27448915E+04</pdfrwt>
<pdfrwt beam="2">  1       -1 0.13148814E+00 0.27448915E+04</pdfrwt>
<totfact> 0.25162713E+00</totfact>
</mgrwt>
</event>
<event>
12    7  0.1605494E-007  0.9860063E+03  0.7818608E-02  0.9324027E-01
         -1   -1    0    0    0  501 -0.00000000000E+00  0.00000000000E+00  0.94740363890E+03  0.94740363890E+03  0.00000000000E+00 0.  1.
          2   -1    0    0  501    0  0.00000000000E+00 -0.00000000000E+00 -0.25654547811E+03  0.25654547811E+03  0.00000000000E+00 0. -1.
         24    2    1    2    0    0  0.21447592872E+02 -0.18307362980E+02  0.41340791989E+02  0.94050601220E+02  0.79632253065E+02 0.  0.
        254    2    1    2    0    0 -0.21447592872E+02  0.18307362980E+02  0.64951736879E+03  0.11098985158E+04  0.89955919439E+03 0.  0.
         23    2    4    4    0    0 -0.44556870829E+03 -0.32923656625E+02  0.39254628810E+03  0.60303967307E+03  0.99743761832E+02 0.  0.
         23    2    4    4    0    0  0.42412111541E+03  0.51231019605E+02  0.25697108069E+03  0.50685884272E+03  0.91479026146E+02 0.  0.
          2    1    3    3  502    0  0.19935216956E+02 -0.34709225334E+02  0.58099289905E+02  0.70552609348E+02  0.00000000000E+00 0. -1.
         -1    1    3    3    0  502  0.15123759160E+01  0.16401862354E+02 -0.16758497916E+02  0.23497991871E+02  0.00000000000E+00 0.  1.
         13    1    5    5    0    0 -0.20806062612E+03  0.28351718355E+02  0.14976211822E+03  0.25791808027E+03  0.00000000000E+00 0. -1.
        -13    1    5    5    0    0 -0.23750808216E+03 -0.61275374980E+02  0.24278416988E+03  0.34512159280E+03  0.00000000000E+00 0.  1.
          1    1    6    6  503    0  0.31912658173E+03  0.73509912419E+01  0.21811238945E+03  0.38661198465E+03  0.00000000000E+00 0. -1.
         -1    1    6    6    0  503  0.10499453368E+03  0.43880028363E+02  0.38858691240E+02  0.12024685807E+03  0.00000000000E+00 0.  1.
<mgrwt>
<rscale>  0 0.98600633E+03</rscale>
<asrwt>0</asrwt>
<pdfrwt beam="1">  1        2 0.39468536E-01 0.98600633E+03</pdfrwt>
<pdfrwt beam="2">  1       -1 0.14575440E+00 0.98600633E+03</pdfrwt>
<totfact> 0.56477529E+01</totfact>
</mgrwt>
</event>
<event>
12    7  0.1605494E-007  0.3371558E+04  0.7818608E-02  0.8144922E-01
         -1   -1    0    0    0  501 -0.00000000000E+00  0.00000000000E+00  0.12058079079E+04  0.12058079079E+04  0.00000000000E+00 0.  1.
          2   -1    0    0  501    0  0.00000000000E+00 -0.00000000000E+00 -0.23568017741E+04  0.23568017741E+04  0.00000000000E+00 0. -1.
         24    2    1    2    0    0 -0.10422780366E+04 -0.11034496749E+03  0.67379667976E+03  0.12485641810E+04  0.79943923217E+02 0.  0.
        254    2    1    2    0    0  0.10422780366E+04  0.11034496749E+03 -0.18247905459E+04  0.23140455010E+04  0.96251053337E+03 0.  0.
         23    2    4    4    0    0  0.84700809678E+03  0.42669043931E+03 -0.88886293325E+03  0.13030284321E+04  0.91204899384E+02 0.  0.
         23    2    4    4    0    0  0.19526993987E+03 -0.31634547182E+03 -0.93592761263E+03  0.10110170689E+04  0.89387978137E+02 0.  0.
          2    1    3    3  502    0 -0.55475012018E+03 -0.25173916798E+02  0.33024996302E+03  0.64610096734E+03  0.00000000000E+00 0. -1.
         -1    1    3    3    0  502 -0.48752791647E+03 -0.85171050693E+02  0.34354671674E+03  0.60246321364E+03  0.00000000000E+00 0.  1.
         13    1    5    5    0    0  0.76204614028E+03  0.36037029509E+03 -0.81377247456E+03  0.11716683447E+04  0.00000000000E+00 0.  1.
        -13    1    5    5    0    0  0.84961956492E+02  0.66320144219E+02 -0.75090458691E+02  0.13136008742E+03  0.00000000000E+00 0. -1.
          3    1    6    6  503    0  0.32182468478E+02 -0.91062431925E+01 -0.10573158441E+03  0.11089545925E+03  0.00000000000E+00 0. -1.
         -3    1    6    6    0  503  0.16308747139E+03 -0.30723922863E+03 -0.83019602823E+03  0.90012160968E+03  0.00000000000E+00 0.  1.
<mgrwt>
<rscale>  0 0.33715576E+04</rscale>
<asrwt>0</asrwt>
<pdfrwt beam="1">  1        2 0.36258488E+00 0.33715576E+04</pdfrwt>
<pdfrwt beam="2">  1       -1 0.18550891E+00 0.33715576E+04</pdfrwt>
<totfact> 0.75496241E-01</totfact>
</mgrwt>
</event>
<event>
12    7  0.1605494E-007  0.1518082E+04  0.7818608E-02  0.8872517E-01
          2   -1    0    0  501    0  0.00000000000E+00  0.00000000000E+00  0.30634922790E+04  0.30634922790E+04  0.00000000000E+00 0. -1.
         -1   -1    0    0    0  501 -0.00000000000E+00 -0.00000000000E+00 -0.18806747595E+03  0.18806747595E+03  0.00000000000E+00 0.  1.
         24    2    1    2    0    0 -0.19660822272E+03  0.45020108329E+03  0.87801108948E+03  0.10111569641E+04  0.10099071338E+03 0.  0.
        254    2    1    2    0    0  0.19660822272E+03 -0.45020108329E+03  0.19974137136E+04  0.22404027909E+04  0.88792303349E+03 0.  0.
         23    2    4    4    0    0  0.20368266123E+03 -0.46722305022E+03  0.43901671176E+03  0.67919078569E+03  0.93704028835E+02 0.  0.
         23    2    4    4    0    0 -0.70744385097E+01  0.17021966935E+02  0.15583970018E+04  0.15612120052E+04  0.91879892842E+02 0.  0.
          4    1    3    3  502    0 -0.47852802126E+02  0.10881038911E+03  0.30947257721E+03  0.33151601393E+03  0.00000000000E+00 0. -1.
         -1    1    3    3    0  502 -0.14875542059E+03  0.34139069417E+03  0.56853851227E+03  0.67964095018E+03  0.00000000000E+00 0.  1.
         13    1    5    5    0    0  0.40603637857E+02 -0.16737731877E+03  0.10550668890E+03  0.20197891882E+03  0.00000000000E+00 0.  1.
        -13    1    5    5    0    0  0.16307902337E+03 -0.29984573145E+03  0.33351002285E+03  0.47721186687E+03  0.00000000000E+00 0. -1.
          4    1    6    6  503    0 -0.43340120404E+02  0.24843060996E+02  0.11647082028E+04  0.11657790277E+04  0.00000000000E+00 0. -1.
         -4    1    6    6    0  503  0.36265681894E+02 -0.78210940612E+01  0.39368879902E+03  0.39543297747E+03  0.00000000000E+00 0.  1.
<mgrwt>
<rscale>  0 0.15180820E+04</rscale>
<asrwt>0</asrwt>
<pdfrwt beam="1">  1        2 0.47130647E+00 0.15180820E+04</pdfrwt>
<pdfrwt beam="2">  1       -1 0.28933460E-01 0.15180820E+04</pdfrwt>
<totfact> 0.19114848E+01</totfact>
</mgrwt>
</event>
<event>
12    7  0.1605494E-007  0.2284548E+04  0.7818608E-02  0.8484039E-01
         -1   -1    0    0    0  501 -0.00000000000E+00  0.00000000000E+00  0.21213189566E+04  0.21213189566E+04  0.00000000000E+00 0.  1.
          2   -1    0    0  501    0  0.00000000000E+00 -0.00000000000E+00 -0.61508408517E+03  0.61508408517E+03  0.00000000000E+00 0. -1.
         24    2    1    2    0    0 -0.35411240009E+02  0.91116438102E+03  0.10423701019E+04  0.13872687806E+04  0.80652060820E+02 0.  0.
        254    2    1    2    0    0  0.35411240009E+02 -0.91116438102E+03  0.46386476953E+03  0.13491342613E+04  0.87949886035E+03 0.  0.
         23    2    4    4    0    0  0.40121460149E+03 -0.21640064714E+03  0.26073680220E+03  0.53310717097E+03  0.91745186179E+02 0.  0.
         23    2    4    4    0    0 -0.36580336148E+03 -0.69476373388E+03  0.20312796733E+03  0.81602709030E+03  0.90169262005E+02 0.  0.
          4    1    3    3  502    0 -0.74190135226E+01  0.67400064642E+02  0.11229362517E+03  0.13117800398E+03  0.00000000000E+00 0. -1.
         -3    1    3    3    0  502 -0.27992226486E+02  0.84376431638E+03  0.93007647677E+03  0.12560907766E+04  0.00000000000E+00 0.  1.
         13    1    5    5    0    0  0.16038632091E+03 -0.61619458029E+02  0.14309306799E+03  0.22359864859E+03  0.00000000000E+00 0.  1.
        -13    1    5    5    0    0  0.24082828058E+03 -0.15478118911E+03  0.11764373421E+03  0.30950852238E+03  0.00000000000E+00 0. -1.
          3    1    6    6  503    0 -0.30628471587E+03 -0.63963652039E+03  0.18016355927E+03  0.73171313606E+03  0.00000000000E+00 0. -1.
         -3    1    6    6    0  503 -0.59518645610E+02 -0.55127213485E+02  0.22964408064E+02  0.84313954240E+02  0.00000000000E+00 0.  1.
<mgrwt>
<rscale>  0 0.22845477E+04</rscale>
<asrwt>0</asrwt>
<pdfrwt beam="1">  1        2 0.94628322E-01 0.22845477E+04</pdfrwt>
<pdfrwt beam="2">  1       -1 0.32635676E+00 0.22845477E+04</pdfrwt>
<totfact> 0.11094645E+00</totfact>
</mgrwt>
</event>
<event>
12    7  0.1605494E-007  0.1540349E+04  0.7818608E-02  0.8858056E-01
         -1   -1    0    0    0  501 -0.00000000000E+00  0.00000000000E+00  0.48079602282E+03  0.48079602282E+03  0.00000000000E+00 0.  1.
          2   -1    0    0  501    0  0.00000000000E+00 -0.00000000000E+00 -0.12337229094E+04  0.12337229094E+04  0.00000000000E+00 0. -1.
         24    2    1    2    0    0  0.16424665857E+03  0.80469049133E+02 -0.76831491207E+03  0.79382255752E+03  0.79963841744E+02 0.  0.
        254    2    1    2    0    0 -0.16424665857E+03 -0.80469049133E+02  0.15388025489E+02  0.92069637471E+03  0.90221548997E+03 0.  0.
         23    2    4    4    0    0 -0.46018234699E+03 -0.22572809933E+03  0.16777038638E+03  0.54660655773E+03  0.88943010350E+02 0.  0.
         23    2    4    4    0    0  0.29593568842E+03  0.14525905020E+03 -0.15238236090E+03  0.37408981698E+03  0.89692161917E+02 0.  0.
          4    1    3    3  502    0  0.14412356554E+03  0.38551484098E+02 -0.51071455616E+03  0.53205937351E+03  0.00000000000E+00 0. -1.
         -3    1    3    3    0  502  0.20123093025E+02  0.41917565035E+02 -0.25760035592E+03  0.26176318401E+03  0.00000000000E+00 0.  1.
         13    1    5    5    0    0 -0.27773351162E+02 -0.39650659930E+02  0.26135119617E+02  0.55014346720E+02  0.00000000000E+00 0. -1.
        -13    1    5    5    0    0 -0.43240899583E+03 -0.18607743940E+03  0.14163526677E+03  0.49159221101E+03  0.00000000000E+00 0.  1.
          1    1    6    6  503    0  0.15926854522E+03  0.12667086087E+03 -0.84182599115E+02  0.22022417325E+03  0.00000000000E+00 0. -1.
         -1    1    6    6    0  503  0.13666714320E+03  0.18588189329E+02 -0.68199761781E+02  0.15386564373E+03  0.00000000000E+00 0.  1.
<mgrwt>
<rscale>  0 0.15403494E+04</rscale>
<asrwt>0</asrwt>
<pdfrwt beam="1">  1        2 0.18980352E+00 0.15403494E+04</pdfrwt>
<pdfrwt beam="2">  1       -1 0.73968620E-01 0.15403494E+04</pdfrwt>
<totfact> 0.36557432E+01</totfact>
</mgrwt>
</event>
<event>
12    7  0.1605494E-007  0.1786074E+04  0.7818608E-02  0.8713740E-01
          2   -1    0    0  501    0  0.00000000000E+00  0.00000000000E+00  0.12870629656E+04  0.12870629656E+04  0.00000000000E+00 0. -1.
         -1   -1    0    0    0  501 -0.00000000000E+00 -0.00000000000E+00 -0.61963958446E+03  0.61963958446E+03  0.00000000000E+00 0.  1.
         24    2    1    2    0    0 -0.64465751958E+02  0.26703308107E+03  0.89637920243E+03  0.94088415850E+03  0.79402931928E+02 0.  0.
        254    2    1    2    0    0  0.64465751958E+02 -0.26703308107E+03 -0.22895582128E+03  0.96581839157E+03  0.89717439656E+03 0.  0.
         23    2    4    4    0    0 -0.34638560428E+03  0.10807389895E+03 -0.10613167099E+03  0.38891900873E+03  0.91274910424E+02 0.  0.
         23    2    4    4    0    0  0.41085135624E+03 -0.37510698002E+03 -0.12282415029E+03  0.57689938285E+03  0.90680993858E+02 0.  0.
          4    1    3    3  502    0 -0.44993272638E+02  0.25920597243E+03  0.85381666128E+03  0.89342880064E+03  0.00000000000E+00 0. -1.
         -3    1    3    3    0  502 -0.19472479319E+02  0.78271086417E+01  0.42562541145E+02  0.47455357857E+02  0.00000000000E+00 0.  1.
         13    1    5    5    0    0 -0.79091274198E+02  0.25366956400E+02  0.14338951651E+02  0.84288300883E+02  0.00000000000E+00 0.  1.
        -13    1    5    5    0    0 -0.26729433009E+03  0.82706942549E+02 -0.12047062264E+03  0.30463070785E+03  0.00000000000E+00 0. -1.
          1    1    6    6  503    0  0.26632010789E+03 -0.24845909272E+03 -0.12392193108E+03  0.38472713138E+03  0.00000000000E+00 0. -1.
         -1    1    6    6    0  503  0.14453124836E+03 -0.12664788730E+03  0.10977807928E+01  0.19217225146E+03  0.00000000000E+00 0.  1.
<mgrwt>
<rscale>  0 0.17860741E+04</rscale>
<asrwt>0</asrwt>
<pdfrwt beam="1">  1        2 0.19800969E+00 0.17860741E+04</pdfrwt>
<pdfrwt beam="2">  1       -1 0.95329167E-01 0.17860741E+04</pdfrwt>
<totfact> 0.19258111E+01</totfact>
</mgrwt>
</event>
<event>
12    7  0.1605494E-007  0.1834363E+04  0.7818608E-02  0.8688236E-01
          4   -1    0    0  501    0  0.00000000000E+00  0.00000000000E+00  0.93474664264E+03  0.93474664264E+03  0.00000000000E+00 0. -1.
         -3   -1    0    0    0  501 -0.00000000000E+00 -0.00000000000E+00 -0.89994612446E+03  0.89994612446E+03  0.00000000000E+00 0.  1.
         24    2    1    2    0    0  0.13662814645E+03  0.17224963715E+03 -0.63912898324E+03  0.68098692799E+03  0.83187444793E+02 0.  0.
        254    2    1    2    0    0 -0.13662814645E+03 -0.17224963715E+03  0.67392950142E+03  0.11537058391E+04  0.91023019199E+03 0.  0.
         23    2    4    4    0    0  0.25008128546E+03  0.20041578464E+03  0.71593361041E+02  0.34112790383E+03  0.92387777101E+02 0.  0.
         23    2    4    4    0    0 -0.38670943191E+03 -0.37266542179E+03  0.60233614038E+03  0.81257793528E+03  0.95133451345E+02 0.  0.
          2    1    3    3  502    0  0.50953841591E+02  0.79695999273E+02 -0.16321167705E+03  0.18864198313E+03  0.00000000000E+00 0. -1.
         -1    1    3    3    0  502  0.85674304858E+02  0.92553637877E+02 -0.47591730619E+03  0.49234494486E+03  0.00000000000E+00 0.  1.
         13    1    5    5    0    0 -0.68781007647E+01  0.15373067732E+02  0.47244893421E+01  0.17491720361E+02  0.00000000000E+00 0.  1.
        -13    1    5    5    0    0  0.25695938623E+03  0.18504271691E+03  0.66868871699E+02  0.32363618347E+03  0.00000000000E+00 0. -1.
          1    1    6    6  503    0 -0.35550287789E+03 -0.37099753506E+03  0.57406966968E+03  0.77043977887E+03  0.00000000000E+00 0. -1.
         -1    1    6    6    0  503 -0.31206554018E+02 -0.16678867253E+01  0.28266470698E+02  0.42138156408E+02  0.00000000000E+00 0.  1.
<mgrwt>
<rscale>  0 0.18343627E+04</rscale>
<asrwt>0</asrwt>
<pdfrwt beam="1">  1        4 0.14380717E+00 0.18343627E+04</pdfrwt>
<pdfrwt beam="2">  1       -3 0.13845325E+00 0.18343627E+04</pdfrwt>
<totfact> 0.28410436E-01</totfact>
</mgrwt>
</event>
<event>
12    7  0.1605494E-007  0.1815426E+04  0.7818608E-02  0.8698139E-01
         -1   -1    0    0    0  501 -0.00000000000E+00  0.00000000000E+00  0.36276798382E+03  0.36276798382E+03  0.00000000000E+00 0.  1.
          2   -1    0    0  501    0  0.00000000000E+00 -0.00000000000E+00 -0.22712660260E+04  0.22712660260E+04  0.00000000000E+00 0. -1.
         24    2    1    2    0    0 -0.52547982194E+03  0.27475402393E+02 -0.12254862901E+04  0.13360560021E+04  0.79655839159E+02 0.  0.
        254    2    1    2    0    0  0.52547982194E+03 -0.27475402393E+02 -0.68301175215E+03  0.12979780077E+04  0.97023600940E+03 0.  0.
         23    2    4    4    0    0  0.77560579114E+03  0.68642221305E+02 -0.34309240580E+03  0.85575903131E+03  0.91296346834E+02 0.  0.
         23    2    4    4    0    0 -0.25012596921E+03 -0.96117623699E+02 -0.33991934634E+03  0.44221897641E+03  0.90613812510E+02 0.  0.
          2    1    3    3  502    0 -0.51519032996E+03  0.33009198902E+02 -0.11621873536E+04  0.12716879051E+04  0.00000000000E+00 0. -1.
         -1    1    3    3    0  502 -0.10289491980E+02 -0.55337965089E+01 -0.63298936508E+02  0.64368097005E+02  0.00000000000E+00 0.  1.
         13    1    5    5    0    0  0.77486823698E+03  0.62257063887E+02 -0.34186000286E+03  0.84921433587E+03  0.00000000000E+00 0.  1.
        -13    1    5    5    0    0  0.73755416133E+00  0.63851574177E+01 -0.12324029399E+01  0.65446954395E+01  0.00000000000E+00 0. -1.
          2    1    6    6  503    0 -0.14916088405E+02  0.16358292363E+02 -0.25736486092E+02  0.33947756018E+02  0.00000000000E+00 0. -1.
         -2    1    6    6    0  503 -0.23520988080E+03 -0.11247591606E+03 -0.31418286025E+03  0.40827122039E+03  0.00000000000E+00 0.  1.
<mgrwt>
<rscale>  0 0.18154257E+04</rscale>
<asrwt>0</asrwt>
<pdfrwt beam="1">  1        2 0.34942553E+00 0.18154257E+04</pdfrwt>
<pdfrwt beam="2">  1       -1 0.55810460E-01 0.18154257E+04</pdfrwt>
<totfact> 0.16417463E+01</totfact>
</mgrwt>
</event>
<event>
12    7  0.1605494E-007  0.1475716E+04  0.7818608E-02  0.8900764E-01
          2   -1    0    0  501    0  0.00000000000E+00  0.00000000000E+00  0.12558487124E+04  0.12558487124E+04  0.00000000000E+00 0. -1.
         -1   -1    0    0    0  501 -0.00000000000E+00 -0.00000000000E+00 -0.43351898143E+03  0.43351898143E+03  0.00000000000E+00 0.  1.
         24    2    1    2    0    0  0.39506009501E+03  0.19995790499E+02 -0.23597793080E+02  0.40426148887E+03  0.79988656904E+02 0.  0.
        254    2    1    2    0    0 -0.39506009501E+03 -0.19995790499E+02  0.84592752404E+03  0.12851062050E+04  0.88285461530E+03 0.  0.
         23    2    4    4    0    0 -0.10604270111E+03 -0.41314200499E+03  0.22730105986E+03  0.49191847681E+03  0.91578628883E+02 0.  0.
         23    2    4    4    0    0 -0.28901739390E+03  0.39314621449E+03  0.61862646418E+03  0.79318772814E+03  0.91395130884E+02 0.  0.
          2    1    3    3  502    0  0.17265892226E+03  0.65863085813E-01  0.28440237034E+02  0.17498558471E+03  0.00000000000E+00 0. -1.
         -1    1    3    3    0  502  0.22240117276E+03  0.19929927413E+02 -0.52038030114E+02  0.22927590416E+03  0.00000000000E+00 0.  1.
         13    1    5    5    0    0 -0.10579382082E+03 -0.41769647139E+03  0.22133564854E+03  0.48440906685E+03  0.00000000000E+00 0.  1.
        -13    1    5    5    0    0 -0.24888029272E+00  0.45544664032E+01  0.59654113266E+01  0.75094099577E+01  0.00000000000E+00 0. -1.
          3    1    6    6  503    0 -0.11538645381E+03  0.15462559787E+03  0.17536984976E+03  0.26072532183E+03  0.00000000000E+00 0. -1.
         -3    1    6    6    0  503 -0.17363094009E+03  0.23852061662E+03  0.44325661442E+03  0.53246240631E+03  0.00000000000E+00 0.  1.
<mgrwt>
<rscale>  0 0.14757158E+04</rscale>
<asrwt>0</asrwt>
<pdfrwt beam="1">  1        2 0.19320749E+00 0.14757158E+04</pdfrwt>
<pdfrwt beam="2">  1       -1 0.66695229E-01 0.14757158E+04</pdfrwt>
<totfact> 0.44107586E+01</totfact>
</mgrwt>
</event>
<event>
12    7  0.1605494E-007  0.1846031E+04  0.7818608E-02  0.8682197E-01
         -1   -1    0    0    0  501 -0.00000000000E+00  0.00000000000E+00  0.74142946063E+03  0.74142946063E+03  0.00000000000E+00 0.  1.
          2   -1    0    0  501    0  0.00000000000E+00 -0.00000000000E+00 -0.11490740954E+04  0.11490740954E+04  0.00000000000E+00 0. -1.
         24    2    1    2    0    0 -0.32900595926E+03  0.16070766094E+03 -0.76674074560E+03  0.85351934906E+03  0.80821004385E+02 0.  0.
        254    2    1    2    0    0  0.32900595926E+03 -0.16070766094E+03  0.35909611087E+03  0.10369842069E+04  0.90128483571E+03 0.  0.
         23    2    4    4    0    0  0.28335593588E+03 -0.50674679602E+03  0.33305405373E+03  0.67505253468E+03  0.87681356058E+02 0.  0.
         23    2    4    4    0    0  0.45650023381E+02  0.34603913508E+03  0.26042057132E+02  0.36193167225E+03  0.92137609012E+02 0.  0.
          2    1    3    3  502    0 -0.13855873057E+03  0.11190290066E+03 -0.34837907407E+03  0.39126558786E+03  0.00000000000E+00 0. -1.
         -1    1    3    3    0  502 -0.19044722869E+03  0.48804760276E+02 -0.41836167153E+03  0.46225376120E+03  0.00000000000E+00 0.  1.
         13    1    5    5    0    0  0.27280001252E+03 -0.50599637136E+03  0.31890305990E+03  0.65738218433E+03  0.00000000000E+00 0. -1.
        -13    1    5    5    0    0  0.10555923357E+02 -0.75042465848E+00  0.14150993834E+02  0.17670350352E+02  0.00000000000E+00 0.  1.
          2    1    6    6  503    0  0.53938961436E+02  0.91227478660E+02  0.10815656819E+02  0.10653094788E+03  0.00000000000E+00 0. -1.
         -2    1    6    6    0  503 -0.82889380554E+01  0.25481165642E+03  0.15226400313E+02  0.25540072437E+03  0.00000000000E+00 0.  1.
<mgrwt>
<rscale>  0 0.18460308E+04</rscale>
<asrwt>0</asrwt>
<pdfrwt beam="1">  1        2 0.17678063E+00 0.18460308E+04</pdfrwt>
<pdfrwt beam="2">  1       -1 0.11406607E+00 0.18460308E+04</pdfrwt>
<totfact> 0.15264919E+01</totfact>
</mgrwt>
</event>
<event>
12    7  0.1605494E-007  0.1383983E+04  0.7818608E-02  0.8965494E-01
          2   -1    0    0  501    0  0.00000000000E+00  0.00000000000E+00  0.39437115639E+03  0.39437115639E+03  0.00000000000E+00 0. -1.
         -1   -1    0    0    0  501 -0.00000000000E+00 -0.00000000000E+00 -0.12142180336E+04  0.12142180336E+04  0.00000000000E+00 0.  1.
         24    2    1    2    0    0  0.34072821845E+03  0.81208765713E+02 -0.34081043075E+02  0.36055660710E+03  0.78415348904E+02 0.  0.
        254    2    1    2    0    0 -0.34072821845E+03 -0.81208765713E+02 -0.78576583418E+03  0.12480325829E+04  0.90413870586E+03 0.  0.
         23    2    4    4    0    0 -0.51066667162E+03 -0.16754377544E+03 -0.86502378198E+03  0.10223990162E+04  0.90455728192E+02 0.  0.
         23    2    4    4    0    0  0.16993845316E+03  0.86335009730E+02  0.79257947795E+02  0.22563356674E+03  0.91081679723E+02 0.  0.
          2    1    3    3  502    0  0.41741711095E+02 -0.76782553975E+01  0.14554139230E+02  0.44868129221E+02  0.00000000000E+00 0. -1.
         -1    1    3    3    0  502  0.29898650736E+03  0.88887021111E+02 -0.48635182306E+02  0.31568847787E+03  0.00000000000E+00 0.  1.
         13    1    5    5    0    0 -0.52997074934E+02 -0.24446469185E+02 -0.15495262684E+03  0.16557969794E+03  0.00000000000E+00 0. -1.
        -13    1    5    5    0    0 -0.45766959668E+03 -0.14309730626E+03 -0.71007115514E+03  0.85681931826E+03  0.00000000000E+00 0.  1.
          4    1    6    6  503    0  0.10800913143E+03  0.46336020402E+02  0.93944760042E+02  0.15046134785E+03  0.00000000000E+00 0. -1.
         -4    1    6    6    0  503  0.61929321739E+02  0.39998989328E+02 -0.14686812247E+02  0.75172218886E+02  0.00000000000E+00 0.  1.
<mgrwt>
<rscale>  0 0.13839835E+04</rscale>
<asrwt>0</asrwt>
<pdfrwt beam="1">  1        2 0.60672487E-01 0.13839835E+04</pdfrwt>
<pdfrwt beam="2">  1       -1 0.18680277E+00 0.13839835E+04</pdfrwt>
<totfact> 0.16766824E+01</totfact>
</mgrwt>
</event>
<event>
12    7  0.1605494E-007  0.1509135E+04  0.7818608E-02  0.8878401E-01
         -1   -1    0    0    0  501 -0.00000000000E+00  0.00000000000E+00  0.86487736695E+03  0.86487736695E+03  0.00000000000E+00 0.  1.
          2   -1    0    0  501    0  0.00000000000E+00 -0.00000000000E+00 -0.65832681544E+03  0.65832681544E+03  0.00000000000E+00 0. -1.
         24    2    1    2    0    0  0.22261346225E+03 -0.86535863546E+02  0.49317293641E+03  0.55371044854E+03  0.79564479264E+02 0.  0.
        254    2    1    2    0    0 -0.22261346225E+03  0.86535863546E+02 -0.28662238490E+03  0.96949373384E+03  0.89482987164E+03 0.  0.
         23    2    4    4    0    0 -0.54182292170E+03 -0.77627916211E+02 -0.14863782642E+03  0.57400741602E+03  0.88278753705E+02 0.  0.
         23    2    4    4    0    0  0.31920945944E+03  0.16416377976E+03 -0.13798455849E+03  0.39548631782E+03  0.92332354128E+02 0.  0.
          2    1    3    3  502    0  0.57403294487E+01  0.96428927630E+01  0.84650238859E+01  0.14056791683E+02  0.00000000000E+00 0. -1.
         -1    1    3    3    0  502  0.21687313280E+03 -0.96178756309E+02  0.48470791253E+03  0.53965365686E+03  0.00000000000E+00 0.  1.
         13    1    5    5    0    0 -0.47335501794E+03 -0.55527000396E+02 -0.99483855759E+02  0.48687293860E+03  0.00000000000E+00 0. -1.
        -13    1    5    5    0    0 -0.68467903756E+02 -0.22100915815E+02 -0.49153970657E+02  0.87134477424E+02  0.00000000000E+00 0.  1.
          1    1    6    6  503    0  0.21725065437E+03  0.12496389570E+03 -0.13829637688E+03  0.28625113085E+03  0.00000000000E+00 0. -1.
         -1    1    6    6    0  503  0.10195880507E+03  0.39199884061E+02  0.31181839512E+00  0.10923518697E+03  0.00000000000E+00 0.  1.
<mgrwt>
<rscale>  0 0.15091348E+04</rscale>
<asrwt>0</asrwt>
<pdfrwt beam="1">  1        2 0.10128105E+00 0.15091348E+04</pdfrwt>
<pdfrwt beam="2">  1       -1 0.13305806E+00 0.15091348E+04</pdfrwt>
<totfact> 0.23341007E+01</totfact>
</mgrwt>
</event>
<event>
12    7  0.1605494E-007  0.1389056E+04  0.7818608E-02  0.8961779E-01
          2   -1    0    0  501    0  0.00000000000E+00  0.00000000000E+00  0.10325384768E+04  0.10325384768E+04  0.00000000000E+00 0. -1.
         -1   -1    0    0    0  501 -0.00000000000E+00 -0.00000000000E+00 -0.46716828260E+03  0.46716828260E+03  0.00000000000E+00 0.  1.
         24    2    1    2    0    0  0.33434888285E+02  0.18440442913E+03  0.54436572796E+03  0.58139968754E+03  0.81047305038E+02 0.  0.
        254    2    1    2    0    0 -0.33434888285E+02 -0.18440442913E+03  0.21004466253E+02  0.91830707188E+03  0.89873455783E+03 0.  0.
         23    2    4    4    0    0 -0.44054624254E+03  0.21778609117E+02 -0.22166696688E+02  0.45097359438E+03  0.91271686491E+02 0.  0.
         23    2    4    4    0    0  0.40711135426E+03 -0.20618303824E+03  0.43171162941E+02  0.46733347750E+03  0.91025984520E+02 0.  0.
          4    1    3    3  502    0  0.31454881609E+02  0.99731910903E+02  0.18820171365E+03  0.21530385192E+03  0.00000000000E+00 0. -1.
         -3    1    3    3    0  502  0.19800066763E+01  0.84672518224E+02  0.35616401431E+03  0.36609583562E+03  0.00000000000E+00 0.  1.
         13    1    5    5    0    0 -0.27651881785E+03  0.43386759906E+02  0.18799748047E+02  0.28053252589E+03  0.00000000000E+00 0.  1.
        -13    1    5    5    0    0 -0.16402742470E+03 -0.21608150789E+02 -0.40966444735E+02  0.17044106849E+03  0.00000000000E+00 0. -1.
          3    1    6    6  503    0  0.34179717338E+03 -0.18971634253E+03  0.72283902822E+01  0.39098573885E+03  0.00000000000E+00 0. -1.
         -3    1    6    6    0  503  0.65314180877E+02 -0.16466695713E+02  0.35942772659E+02  0.76347738655E+02  0.00000000000E+00 0.  1.
<mgrwt>
<rscale>  0 0.13890561E+04</rscale>
<asrwt>0</asrwt>
<pdfrwt beam="1">  1        2 0.15885207E+00 0.13890561E+04</pdfrwt>
<pdfrwt beam="2">  1       -1 0.71872043E-01 0.13890561E+04</pdfrwt>
<totfact> 0.52138327E+01</totfact>
</mgrwt>
</event>
<event>
12    7  0.1605494E-007  0.1423773E+04  0.7818608E-02  0.8936788E-01
         -1   -1    0    0    0  501 -0.00000000000E+00  0.00000000000E+00  0.18559895244E+03  0.18559895244E+03  0.00000000000E+00 0.  1.
          2   -1    0    0  501    0  0.00000000000E+00 -0.00000000000E+00 -0.27305232098E+04  0.27305232098E+04  0.00000000000E+00 0. -1.
         24    2    1    2    0    0 -0.25769982438E+03  0.33728181912E+03 -0.67191443019E+03  0.79887733350E+03  0.81041763828E+02 0.  0.
        254    2    1    2    0    0  0.25769982438E+03 -0.33728181912E+03 -0.18730098272E+04  0.21172448287E+04  0.89128650116E+03 0.  0.
         23    2    4    4    0    0 -0.23798369079E+03 -0.33614353718E+03 -0.12288962579E+04  0.12995316352E+04  0.94698171643E+02 0.  0.
         23    2    4    4    0    0  0.49568351518E+03 -0.11382819430E+01 -0.64411356930E+03  0.81771319350E+03  0.89828357255E+02 0.  0.
          2    1    3    3  502    0 -0.11863102020E+03  0.20572083011E+03 -0.41985289640E+03  0.48235965162E+03  0.00000000000E+00 0. -1.
         -1    1    3    3    0  502 -0.13906880418E+03  0.13156098901E+03 -0.25206153379E+03  0.31651768187E+03  0.00000000000E+00 0.  1.
         13    1    5    5    0    0 -0.12920346824E+03 -0.22642198516E+03 -0.64888237447E+03  0.69929163263E+03  0.00000000000E+00 0. -1.
        -13    1    5    5    0    0 -0.10878022256E+03 -0.10972155202E+03 -0.58001388339E+03  0.60024000260E+03  0.00000000000E+00 0.  1.
          3    1    6    6  503    0  0.30193623743E+03 -0.39749157967E+01 -0.46112861668E+03  0.55119950341E+03  0.00000000000E+00 0. -1.
         -3    1    6    6    0  503  0.19374727774E+03  0.28366338537E+01 -0.18298495262E+03  0.26651369010E+03  0.00000000000E+00 0.  1.
<mgrwt>
<rscale>  0 0.14237728E+04</rscale>
<asrwt>0</asrwt>
<pdfrwt beam="1">  1        2 0.42008046E+00 0.14237728E+04</pdfrwt>
<pdfrwt beam="2">  1       -1 0.28553687E-01 0.14237728E+04</pdfrwt>
<totfact> 0.31525867E+01</totfact>
</mgrwt>
</event>
<event>
12    7  0.1605494E-007  0.1764366E+04  0.7818608E-02  0.8725482E-01
          2   -1    0    0  501    0  0.00000000000E+00  0.00000000000E+00  0.16053595265E+04  0.16053595265E+04  0.00000000000E+00 0. -1.
         -1   -1    0    0    0  501 -0.00000000000E+00 -0.00000000000E+00 -0.48478036026E+03  0.48478036026E+03  0.00000000000E+00 0.  1.
         24    2    1    2    0    0 -0.56021692608E+03 -0.57860029526E+02  0.80597965623E+03  0.98698021146E+03  0.85650127098E+02 0.  0.
        254    2    1    2    0    0  0.56021692608E+03  0.57860029526E+02  0.31459951004E+03  0.11031596753E+04  0.89487296879E+03 0.  0.
         23    2    4    4    0    0  0.36007494390E+03  0.10426297507E+03 -0.27342167294E+03  0.47329695568E+03  0.93412332325E+02 0.  0.
         23    2    4    4    0    0  0.20014198218E+03 -0.46402945547E+02  0.58802118298E+03  0.62986271965E+03  0.93531211827E+02 0.  0.
          4    1    3    3  502    0 -0.46713439401E+03 -0.63783777100E+02  0.71667338112E+03  0.85784826601E+03  0.00000000000E+00 0. -1.
         -3    1    3    3    0  502 -0.93082532069E+02  0.59237475731E+01  0.89306275111E+02  0.12913194545E+03  0.00000000000E+00 0.  1.
         13    1    5    5    0    0  0.65029151269E+02 -0.94646895732E+01 -0.76224369522E+02  0.10064057518E+03  0.00000000000E+00 0.  1.
        -13    1    5    5    0    0  0.29504579263E+03  0.11372766465E+03 -0.19719730342E+03  0.37265638050E+03  0.00000000000E+00 0. -1.
          2    1    6    6  503    0  0.17216277822E+03 -0.98667946120E+01  0.38766310542E+03  0.42428770799E+03  0.00000000000E+00 0. -1.
         -2    1    6    6    0  503  0.27979203963E+02 -0.36536150935E+02  0.20035807755E+03  0.20557501166E+03  0.00000000000E+00 0.  1.
<mgrwt>
<rscale>  0 0.17643659E+04</rscale>
<asrwt>0</asrwt>
<pdfrwt beam="1">  1        2 0.24697839E+00 0.17643659E+04</pdfrwt>
<pdfrwt beam="2">  1       -1 0.74581595E-01 0.17643659E+04</pdfrwt>
<totfact> 0.21608586E+01</totfact>
</mgrwt>
</event>
<event>
12    7  0.1605494E-007  0.2174919E+04  0.7818608E-02  0.8528940E-01
          2   -1    0    0  501    0  0.00000000000E+00  0.00000000000E+00  0.54631585496E+03  0.54631585496E+03  0.00000000000E+00 0. -1.
         -1   -1    0    0    0  501 -0.00000000000E+00 -0.00000000000E+00 -0.21646237210E+04  0.21646237210E+04  0.00000000000E+00 0.  1.
         24    2    1    2    0    0  0.36199203700E+03 -0.82437607479E+03 -0.70887848300E+03  0.11487183134E+04  0.80068173501E+02 0.  0.
        254    2    1    2    0    0 -0.36199203700E+03  0.82437607479E+03 -0.90942938306E+03  0.15622212625E+04  0.89601301487E+03 0.  0.
         23    2    4    4    0    0 -0.12107376858E+02 -0.17557625312E+03 -0.78975317350E+02  0.21307773175E+03  0.90506407417E+02 0.  0.
         23    2    4    4    0    0 -0.34988466014E+03  0.99995232791E+03 -0.83045406571E+03  0.13491435308E+04  0.90611135686E+02 0.  0.
          2    1    3    3  502    0  0.10870231722E+03 -0.24070795060E+03 -0.25531750704E+03  0.36734662194E+03  0.00000000000E+00 0. -1.
         -1    1    3    3    0  502  0.25328971978E+03 -0.58366812420E+03 -0.45356097596E+03  0.78137169149E+03  0.00000000000E+00 0.  1.
         13    1    5    5    0    0  0.17294784210E+02 -0.16532571708E+03 -0.72095246590E+02  0.18118892591E+03  0.00000000000E+00 0. -1.
        -13    1    5    5    0    0 -0.29402161068E+02 -0.10250536036E+02 -0.68800707594E+01  0.31888805844E+02  0.00000000000E+00 0.  1.
          1    1    6    6  503    0 -0.12915069744E+03  0.42293275650E+03 -0.29485082329E+03  0.53149696816E+03  0.00000000000E+00 0. -1.
         -1    1    6    6    0  503 -0.22073396270E+03  0.57701957141E+03 -0.53560324242E+03  0.81764656263E+03  0.00000000000E+00 0.  1.
<mgrwt>
<rscale>  0 0.21749191E+04</rscale>
<asrwt>0</asrwt>
<pdfrwt beam="1">  1        2 0.84048594E-01 0.21749191E+04</pdfrwt>
<pdfrwt beam="2">  1       -1 0.33301903E+00 0.21749191E+04</pdfrwt>
<totfact> 0.11681658E+00</totfact>
</mgrwt>
</event>
<event>
12    7  0.1605494E-007  0.1402342E+04  0.7818608E-02  0.8952125E-01
         -1   -1    0    0    0  501 -0.00000000000E+00  0.00000000000E+00  0.12545535396E+04  0.12545535396E+04  0.00000000000E+00 0.  1.
          2   -1    0    0  501    0  0.00000000000E+00 -0.00000000000E+00 -0.39188522632E+03  0.39188522632E+03  0.00000000000E+00 0. -1.
         24    2    1    2    0    0  0.36650122158E+03  0.12213620694E+03  0.97779054490E+02  0.40657135914E+03  0.80617170035E+02 0.  0.
        254    2    1    2    0    0 -0.36650122158E+03 -0.12213620694E+03  0.76488925883E+03  0.12398674068E+04  0.89608884033E+03 0.  0.
         23    2    4    4    0    0  0.82615043241E+02 -0.76869821226E+02 -0.15483107968E+03  0.21126117001E+03  0.89019121185E+02 0.  0.
         23    2    4    4    0    0 -0.44911626483E+03 -0.45266385718E+02  0.91972033851E+03  0.10286062368E+04  0.91601442851E+02 0.  0.
          4    1    3    3  502    0  0.24062483657E+03  0.53690209917E+02  0.30971607941E+02  0.24847975997E+03  0.00000000000E+00 0. -1.
         -3    1    3    3    0  502  0.12587638501E+03  0.68445997027E+02  0.66807446549E+02  0.15809159917E+03  0.00000000000E+00 0.  1.
         13    1    5    5    0    0  0.80354450583E+02 -0.22731082080E+02 -0.62889087148E+02  0.10453983501E+03  0.00000000000E+00 0. -1.
        -13    1    5    5    0    0  0.22605926586E+01 -0.54138739146E+02 -0.91941992528E+02  0.10672133501E+03  0.00000000000E+00 0.  1.
          2    1    6    6  503    0 -0.31760592991E+03 -0.59396798564E+02  0.57802250895E+03  0.66220202903E+03  0.00000000000E+00 0. -1.
         -2    1    6    6    0  503 -0.13151033491E+03  0.14130412846E+02  0.34169782956E+03  0.36640420778E+03  0.00000000000E+00 0.  1.
<mgrwt>
<rscale>  0 0.14023423E+04</rscale>
<asrwt>0</asrwt>
<pdfrwt beam="1">  1        2 0.60290035E-01 0.14023423E+04</pdfrwt>
<pdfrwt beam="2">  1       -1 0.19300824E+00 0.14023423E+04</pdfrwt>
<totfact> 0.15252609E+01</totfact>
</mgrwt>
</event>
<event>
12    7  0.1605494E-007  0.1640342E+04  0.7818608E-02  0.8796140E-01
         -1   -1    0    0    0  501 -0.00000000000E+00  0.00000000000E+00  0.39423205619E+03  0.39423205619E+03  0.00000000000E+00 0.  1.
          2   -1    0    0  501    0  0.00000000000E+00 -0.00000000000E+00 -0.17063065584E+04  0.17063065584E+04  0.00000000000E+00 0. -1.
         24    2    1    2    0    0 -0.35802236443E+03  0.20044827253E+03  0.50334496437E+02  0.42152542401E+03  0.82405085808E+02 0.  0.
        254    2    1    2    0    0  0.35802236443E+03 -0.20044827253E+03 -0.13624089987E+04  0.16790131906E+04  0.89138515311E+03 0.  0.
         23    2    4    4    0    0 -0.27008188426E+03 -0.73364121183E+02 -0.22712420769E+03  0.37198090006E+03  0.91966655989E+02 0.  0.
         23    2    4    4    0    0  0.62810424868E+03 -0.12708415134E+03 -0.11352847910E+04  0.13070322905E+04  0.93789781736E+02 0.  0.
          2    1    3    3  502    0 -0.65037835993E+01 -0.75849116488E+01  0.17715244746E+00  0.99930710403E+01  0.00000000000E+00 0. -1.
         -1    1    3    3    0  502 -0.35151858083E+03  0.20803318418E+03  0.50157343990E+02  0.41153235297E+03  0.00000000000E+00 0.  1.
         13    1    5    5    0    0 -0.91061371488E+02 -0.52676975008E+02 -0.13009738995E+03  0.16730919863E+03  0.00000000000E+00 0. -1.
        -13    1    5    5    0    0 -0.17902051277E+03 -0.20687146175E+02 -0.97026817739E+02  0.20467170144E+03  0.00000000000E+00 0.  1.
          4    1    6    6  503    0  0.55340583012E+03 -0.11688115949E+03 -0.93182857654E+03  0.10900567482E+04  0.00000000000E+00 0. -1.
         -4    1    6    6    0  503  0.74698418562E+02 -0.10202991857E+02 -0.20345621443E+03  0.21697554233E+03  0.00000000000E+00 0.  1.
<mgrwt>
<rscale>  0 0.16403423E+04</rscale>
<asrwt>0</asrwt>
<pdfrwt beam="1">  1        2 0.26250870E+00 0.16403423E+04</pdfrwt>
<pdfrwt beam="2">  1       -1 0.60651086E-01 0.16403423E+04</pdfrwt>
<totfact> 0.29204886E+01</totfact>
</mgrwt>
</event>
<event>
12    7  0.1605494E-007  0.1400807E+04  0.7818608E-02  0.8953234E-01
          2   -1    0    0  501    0  0.00000000000E+00  0.00000000000E+00  0.14420677297E+04  0.14420677297E+04  0.00000000000E+00 0. -1.
         -1   -1    0    0    0  501 -0.00000000000E+00 -0.00000000000E+00 -0.34018193061E+03  0.34018193061E+03  0.00000000000E+00 0.  1.
         24    2    1    2    0    0 -0.19862210315E+03 -0.34304306480E+03  0.42833213232E+03  0.58914655879E+03  0.80597568140E+02 0.  0.
        254    2    1    2    0    0  0.19862210315E+03  0.34304306480E+03  0.67355366678E+03  0.11931031015E+04  0.90149386281E+03 0.  0.
         23    2    4    4    0    0 -0.17238389452E+03 -0.25051236382E+02  0.63095725342E+03  0.66099049851E+03  0.91965275727E+02 0.  0.
         23    2    4    4    0    0  0.37100599768E+03  0.36809430118E+03  0.42596413353E+02  0.53211260301E+03  0.90501397686E+02 0.  0.
          4    1    3    3  502    0 -0.14885501441E+03 -0.30024908749E+03  0.32569123954E+03  0.46731372050E+03  0.00000000000E+00 0. -1.
         -3    1    3    3    0  502 -0.49767088744E+02 -0.42793977312E+02  0.10264089278E+03  0.12183283829E+03  0.00000000000E+00 0.  1.
         13    1    5    5    0    0  0.50988064760E+01  0.74994966332E+01  0.69720271756E+01  0.11438944015E+02  0.00000000000E+00 0. -1.
        -13    1    5    5    0    0 -0.17748270100E+03 -0.32550733016E+02  0.62398522625E+03  0.64955155450E+03  0.00000000000E+00 0.  1.
          2    1    6    6  503    0  0.81547537293E+02  0.87379103329E+02  0.48146415018E+02  0.12885335004E+03  0.00000000000E+00 0. -1.
         -2    1    6    6    0  503  0.28945846038E+03  0.28071519785E+03 -0.55500016649E+01  0.40325925298E+03  0.00000000000E+00 0.  1.
<mgrwt>
<rscale>  0 0.14008075E+04</rscale>
<asrwt>0</asrwt>
<pdfrwt beam="1">  1        2 0.22185657E+00 0.14008075E+04</pdfrwt>
<pdfrwt beam="2">  1       -1 0.52335682E-01 0.14008075E+04</pdfrwt>
<totfact> 0.55842421E+01</totfact>
</mgrwt>
</event>
<event>
12    7  0.1605494E-007  0.2181039E+04  0.7818608E-02  0.8526362E-01
         -1   -1    0    0    0  501 -0.00000000000E+00  0.00000000000E+00  0.51677049699E+03  0.51677049699E+03  0.00000000000E+00 0.  1.
          2   -1    0    0  501    0  0.00000000000E+00 -0.00000000000E+00 -0.23012781025E+04  0.23012781025E+04  0.00000000000E+00 0. -1.
         24    2    1    2    0    0  0.59697099024E+03 -0.61904401997E+03 -0.37868099803E+03  0.94309713126E+03  0.80268542176E+02 0.  0.
        254    2    1    2    0    0 -0.59697099024E+03  0.61904401997E+03 -0.14058266075E+04  0.18749514683E+04  0.89415026482E+03 0.  0.
         23    2    4    4    0    0  0.19235462840E+03  0.21006698065E+02 -0.43704068956E+03  0.48657335719E+03  0.91145395745E+02 0.  0.
         23    2    4    4    0    0 -0.78932561864E+03  0.59803732191E+03 -0.96878591795E+03  0.13883781111E+04  0.91455201215E+02 0.  0.
          4    1    3    3  502    0  0.36123732167E+03 -0.42017661369E+03 -0.26700946606E+03  0.61508929776E+03  0.00000000000E+00 0. -1.
         -3    1    3    3    0  502  0.23573366857E+03 -0.19886740629E+03 -0.11167153196E+03  0.32800783349E+03  0.00000000000E+00 0.  1.
         13    1    5    5    0    0  0.17783393644E+03  0.45925246591E+02 -0.39472380907E+03  0.43536297806E+03  0.00000000000E+00 0. -1.
        -13    1    5    5    0    0  0.14520691966E+02 -0.24918548526E+02 -0.42316880491E+02  0.51210379127E+02  0.00000000000E+00 0.  1.
          1    1    6    6  503    0 -0.50638819765E+03  0.34326863723E+03 -0.55387565483E+03  0.82525184340E+03  0.00000000000E+00 0. -1.
         -1    1    6    6    0  503 -0.28293742099E+03  0.25476868468E+03 -0.41491026313E+03  0.56312626767E+03  0.00000000000E+00 0.  1.
<mgrwt>
<rscale>  0 0.21810389E+04</rscale>
<asrwt>0</asrwt>
<pdfrwt beam="1">  1        2 0.35404279E+00 0.21810389E+04</pdfrwt>
<pdfrwt beam="2">  1       -1 0.79503151E-01 0.21810389E+04</pdfrwt>
<totfact> 0.74536786E+00</totfact>
</mgrwt>
</event>
<event>
12    7  0.1605494E-007  0.2289537E+04  0.7818608E-02  0.8482058E-01
          2   -1    0    0  501    0  0.00000000000E+00  0.00000000000E+00  0.25924835864E+04  0.25924835864E+04  0.00000000000E+00 0. -1.
         -1   -1    0    0    0  501 -0.00000000000E+00 -0.00000000000E+00 -0.50549782568E+03  0.50549782568E+03  0.00000000000E+00 0.  1.
         24    2    1    2    0    0  0.90182145465E+03  0.18536278285E+03  0.49331167909E+03  0.10476379291E+04  0.80916750138E+02 0.  0.
        254    2    1    2    0    0 -0.90182145465E+03 -0.18536278285E+03  0.15936740816E+04  0.20503434830E+04  0.90358730756E+03 0.  0.
         23    2    4    4    0    0  0.12604674940E+03 -0.20547904092E+03  0.31539941076E+03  0.40744373732E+03  0.91783394378E+02 0.  0.
         23    2    4    4    0    0 -0.10278682040E+04  0.20116258072E+02  0.12782746709E+04  0.16428997457E+04  0.90640671528E+02 0.  0.
          2    1    3    3  502    0  0.71891976188E+03  0.15460299031E+03  0.42893688347E+03  0.85131343149E+03  0.00000000000E+00 0. -1.
         -1    1    3    3    0  502  0.18290169276E+03  0.30759792534E+02  0.64374795618E+02  0.19632449761E+03  0.00000000000E+00 0.  1.
         13    1    5    5    0    0  0.56944299017E+02 -0.57986498109E+02  0.17282174628E+03  0.19097759853E+03  0.00000000000E+00 0. -1.
        -13    1    5    5    0    0  0.69102450383E+02 -0.14749254281E+03  0.14257766447E+03  0.21646613878E+03  0.00000000000E+00 0.  1.
          1    1    6    6  503    0 -0.19680937675E+02 -0.37828614044E+01  0.95571954704E+01  0.22203363111E+02  0.00000000000E+00 0. -1.
         -1    1    6    6    0  503 -0.10081872664E+04  0.23899119476E+02  0.12687174754E+04  0.16206963825E+04  0.00000000000E+00 0.  1.
<mgrwt>
<rscale>  0 0.22895369E+04</rscale>
<asrwt>0</asrwt>
<pdfrwt beam="1">  1        2 0.39884362E+00 0.22895369E+04</pdfrwt>
<pdfrwt beam="2">  1       -1 0.77768898E-01 0.22895369E+04</pdfrwt>
<totfact> 0.52580211E+00</totfact>
</mgrwt>
</event>
<event>
12    7  0.1605494E-007  0.1114824E+04  0.7818608E-02  0.9190863E-01
          2   -1    0    0  501    0  0.00000000000E+00  0.00000000000E+00  0.14642341981E+04  0.14642341981E+04  0.00000000000E+00 0. -1.
         -1   -1    0    0    0  501 -0.00000000000E+00 -0.00000000000E+00 -0.21219831034E+03  0.21219831034E+03  0.00000000000E+00 0.  1.
         24    2    1    2    0    0 -0.10240497681E+03 -0.13397427457E+03  0.20651430310E+03  0.27783258931E+03  0.78146687542E+02 0.  0.
        254    2    1    2    0    0  0.10240497681E+03  0.13397427457E+03  0.10455215847E+04  0.13985999191E+04  0.91352638950E+03 0.  0.
         23    2    4    4    0    0  0.23968917268E+03 -0.34013145372E+03  0.49807073834E+03  0.65542117201E+03  0.91444775716E+02 0.  0.
         23    2    4    4    0    0 -0.13728419587E+03  0.47410572829E+03  0.54745084632E+03  0.74317874714E+03  0.94810490056E+02 0.  0.
          2    1    3    3  502    0 -0.97247230560E+02 -0.85404399173E+02  0.18160338012E+03  0.22300386302E+03  0.00000000000E+00 0. -1.
         -1    1    3    3    0  502 -0.51577462488E+01 -0.48569875398E+02  0.24910922975E+02  0.54828726285E+02  0.00000000000E+00 0.  1.
         13    1    5    5    0    0  0.10610116093E+03 -0.22839392878E+03  0.29017765348E+03  0.38421909588E+03  0.00000000000E+00 0.  1.
        -13    1    5    5    0    0  0.13358801175E+03 -0.11173752494E+03  0.20789308486E+03  0.27120207613E+03  0.00000000000E+00 0. -1.
          3    1    6    6  503    0 -0.24468062119E+02  0.33299831507E+02  0.84461200607E+02  0.94027970574E+02  0.00000000000E+00 0. -1.
         -3    1    6    6    0  503 -0.11281613375E+03  0.44080589679E+03  0.46298964572E+03  0.64915077657E+03  0.00000000000E+00 0.  1.
<mgrwt>
<rscale>  0 0.11148238E+04</rscale>
<asrwt>0</asrwt>
<pdfrwt beam="1">  1        2 0.22526679E+00 0.11148238E+04</pdfrwt>
<pdfrwt beam="2">  1       -1 0.32645895E-01 0.11148238E+04</pdfrwt>
<totfact> 0.13200765E+02</totfact>
</mgrwt>
</event>
<event>
12    7  0.1605494E-007  0.2028918E+04  0.7818608E-02  0.8593219E-01
         -1   -1    0    0    0  501 -0.00000000000E+00  0.00000000000E+00  0.77918848070E+03  0.77918848070E+03  0.00000000000E+00 0.  1.
          2   -1    0    0  501    0  0.00000000000E+00 -0.00000000000E+00 -0.13207678363E+04  0.13207678363E+04  0.00000000000E+00 0. -1.
         24    2    1    2    0    0 -0.77004329292E+03 -0.10211415110E+03 -0.45600093090E+03  0.90427281676E+03  0.79865545276E+02 0.  0.
        254    2    1    2    0    0  0.77004329292E+03  0.10211415110E+03 -0.85578424727E+02  0.11956835003E+04  0.90495380721E+03 0.  0.
         23    2    4    4    0    0 -0.19659411271E+03  0.35077433382E+01 -0.37308096315E+01  0.21630577661E+03  0.90070642489E+02 0.  0.
         23    2    4    4    0    0  0.96663740563E+03  0.98606407765E+02 -0.81847615095E+02  0.97937772365E+03  0.91490960578E+02 0.  0.
          4    1    3    3  502    0 -0.59181021044E+03 -0.96445637226E+02 -0.38354241922E+03  0.71179061069E+03  0.00000000000E+00 0. -1.
         -3    1    3    3    0  502 -0.17823308248E+03 -0.56685138769E+01 -0.72458511682E+02  0.19248220607E+03  0.00000000000E+00 0.  1.
         13    1    5    5    0    0 -0.11793761418E+03  0.38286096948E+02  0.23277535956E+02  0.12616239431E+03  0.00000000000E+00 0.  1.
        -13    1    5    5    0    0 -0.78656498526E+02 -0.34778353610E+02 -0.27008345587E+02  0.90143382295E+02  0.00000000000E+00 0. -1.
          4    1    6    6  503    0  0.77256695524E+03  0.10933952445E+03 -0.45106252064E+02  0.78156855484E+03  0.00000000000E+00 0.  1.
         -4    1    6    6    0  503  0.19407045039E+03 -0.10733116685E+02 -0.36741363032E+02  0.19780916881E+03  0.00000000000E+00 0. -1.
<mgrwt>
<rscale>  0 0.20289180E+04</rscale>
<asrwt>0</asrwt>
<pdfrwt beam="1">  1        2 0.20319505E+00 0.20289180E+04</pdfrwt>
<pdfrwt beam="2">  1       -1 0.11987515E+00 0.20289180E+04</pdfrwt>
<totfact> 0.10542855E+01</totfact>
</mgrwt>
</event>
<event>
12    7  0.1605494E-007  0.2385026E+04  0.7818608E-02  0.8445131E-01
         -1   -1    0    0    0  501 -0.00000000000E+00  0.00000000000E+00  0.16830064881E+04  0.16830064881E+04  0.00000000000E+00 0.  1.
          2   -1    0    0  501    0  0.00000000000E+00 -0.00000000000E+00 -0.84496818691E+03  0.84496818691E+03  0.00000000000E+00 0. -1.
         24    2    1    2    0    0  0.63636440725E+03  0.71530133226E+02 -0.47116940233E+03  0.79910767057E+03  0.80599284692E+02 0.  0.
        254    2    1    2    0    0 -0.63636440725E+03 -0.71530133226E+02  0.13092077035E+04  0.17288670044E+04  0.92998929524E+03 0.  0.
         23    2    4    4    0    0 -0.27364964542E+02  0.36480449376E+03  0.42946953441E+03  0.56977480017E+03  0.79800263011E+02 0.  0.
         23    2    4    4    0    0 -0.60899944271E+03 -0.43633462699E+03  0.87973816911E+03  0.11590922043E+04  0.91034410155E+02 0.  0.
          2    1    3    3  502    0  0.52125091976E+03  0.68025218136E+02 -0.34766550010E+03  0.63023904323E+03  0.00000000000E+00 0. -1.
         -1    1    3    3    0  502  0.11511348749E+03  0.35049150901E+01 -0.12350390223E+03  0.16886862734E+03  0.00000000000E+00 0.  1.
         13    1    5    5    0    0 -0.88559570696E+01  0.14481190690E+03  0.11293837482E+03  0.18385862194E+03  0.00000000000E+00 0. -1.
        -13    1    5    5    0    0 -0.18509007473E+02  0.21999258687E+03  0.31653115959E+03  0.38591617824E+03  0.00000000000E+00 0.  1.
          4    1    6    6  503    0 -0.20765347093E+03 -0.99690653326E+02  0.28846749471E+03  0.36914995036E+03  0.00000000000E+00 0. -1.
         -4    1    6    6    0  503 -0.40134597178E+03 -0.33664397366E+03  0.59127067440E+03  0.78994225389E+03  0.00000000000E+00 0.  1.
<mgrwt>
<rscale>  0 0.23850257E+04</rscale>
<asrwt>0</asrwt>
<pdfrwt beam="1">  1        2 0.12999511E+00 0.23850257E+04</pdfrwt>
<pdfrwt beam="2">  1       -1 0.25892407E+00 0.23850257E+04</pdfrwt>
<totfact> 0.20035456E+00</totfact>
</mgrwt>
</event>
<event>
12    7  0.1605494E-007  0.2997818E+04  0.7818608E-02  0.8244354E-01
         -1   -1    0    0    0  501 -0.00000000000E+00  0.00000000000E+00  0.82142841605E+03  0.82142841605E+03  0.00000000000E+00 0.  1.
          2   -1    0    0  501    0  0.00000000000E+00 -0.00000000000E+00 -0.27351471663E+04  0.27351471663E+04  0.00000000000E+00 0. -1.
         24    2    1    2    0    0 -0.26832040631E+03  0.11661811258E+03  0.70529721270E+03  0.76843177526E+03  0.86299538575E+02 0.  0.
        254    2    1    2    0    0  0.26832040631E+03 -0.11661811258E+03 -0.26190159629E+04  0.27881438071E+04  0.91044255735E+03 0.  0.
         23    2    4    4    0    0 -0.88911648176E+02 -0.28233377329E+03 -0.29175583924E+03  0.42601535618E+03  0.93541291660E+02 0.  0.
         23    2    4    4    0    0  0.35723205449E+03  0.16571566072E+03 -0.23272601237E+04  0.23621284509E+04  0.91840700505E+02 0.  0.
          2    1    3    3  502    0 -0.11491421227E+03  0.67778356466E+02  0.22177039823E+03  0.25880744062E+03  0.00000000000E+00 0. -1.
         -1    1    3    3    0  502 -0.15340619404E+03  0.48839756112E+02  0.48352681447E+03  0.50962433464E+03  0.00000000000E+00 0.  1.
         13    1    5    5    0    0 -0.19513978182E+02 -0.12780248296E+03 -0.18530033652E+03  0.22594354319E+03  0.00000000000E+00 0. -1.
        -13    1    5    5    0    0 -0.69397669993E+02 -0.15453129033E+03 -0.10645550272E+03  0.20007181299E+03  0.00000000000E+00 0.  1.
          1    1    6    6  503    0  0.46468288708E+02  0.60432218430E+02 -0.42988095194E+03  0.43658789232E+03  0.00000000000E+00 0. -1.
         -1    1    6    6    0  503  0.31076376578E+03  0.10528344229E+03 -0.18973791718E+04  0.19255405586E+04  0.00000000000E+00 0.  1.
<mgrwt>
<rscale>  0 0.29978176E+04</rscale>
<asrwt>0</asrwt>
<pdfrwt beam="1">  1        2 0.42079188E+00 0.29978176E+04</pdfrwt>
<pdfrwt beam="2">  1       -1 0.12637360E+00 0.29978176E+04</pdfrwt>
<totfact> 0.13399461E+00</totfact>
</mgrwt>
</event>
<event>
12    7  0.1605494E-007  0.1325011E+04  0.7818608E-02  0.9009963E-01
          2   -1    0    0  501    0  0.00000000000E+00  0.00000000000E+00  0.12922145472E+04  0.12922145472E+04  0.00000000000E+00 0. -1.
         -1   -1    0    0    0  501 -0.00000000000E+00 -0.00000000000E+00 -0.33966012907E+03  0.33966012907E+03  0.00000000000E+00 0.  1.
         24    2    1    2    0    0  0.27771845470E+03  0.21320733446E+03  0.32401671484E+03  0.48474287022E+03  0.86045982960E+02 0.  0.
        254    2    1    2    0    0 -0.27771845470E+03 -0.21320733446E+03  0.62853770328E+03  0.11471318060E+04  0.89345779331E+03 0.  0.
         23    2    4    4    0    0  0.23457671196E+03  0.10842746360E+03  0.41560910537E+03  0.49968877949E+03  0.10087219249E+03 0.  0.
         23    2    4    4    0    0 -0.51229516666E+03 -0.32163479807E+03  0.21292859791E+03  0.64744302655E+03  0.89154942166E+02 0.  0.
          2    1    3    3  502    0  0.11375412614E+03  0.44016800449E+02  0.14078781734E+03  0.18627584236E+03  0.00000000000E+00 0. -1.
         -1    1    3    3    0  502  0.16396432855E+03  0.16919053401E+03  0.18322889750E+03  0.29846702785E+03  0.00000000000E+00 0.  1.
         13    1    5    5    0    0  0.20978724886E+02  0.31212396717E+02  0.12685791141E+03  0.13231496625E+03  0.00000000000E+00 0. -1.
        -13    1    5    5    0    0  0.21359798708E+03  0.77215066884E+02  0.28875119396E+03  0.36737381324E+03  0.00000000000E+00 0.  1.
          2    1    6    6  503    0 -0.21538058618E+03 -0.18740269587E+03  0.94107679854E+02  0.30060742294E+03  0.00000000000E+00 0. -1.
         -2    1    6    6    0  503 -0.29691458048E+03 -0.13423210220E+03  0.11882091805E+03  0.34683560361E+03  0.00000000000E+00 0.  1.
<mgrwt>
<rscale>  0 0.13250113E+04</rscale>
<asrwt>0</asrwt>
<pdfrwt beam="1">  1        2 0.19880224E+00 0.13250113E+04</pdfrwt>
<pdfrwt beam="2">  1       -1 0.52255405E-01 0.13250113E+04</pdfrwt>
<totfact> 0.68717567E+01</totfact>
</mgrwt>
</event>
<event>
12    7  0.1605494E-007  0.1630249E+04  0.7818608E-02  0.8802177E-01
          2   -1    0    0  501    0  0.00000000000E+00  0.00000000000E+00  0.11569014054E+04  0.11569014054E+04  0.00000000000E+00 0. -1.
         -1   -1    0    0    0  501 -0.00000000000E+00 -0.00000000000E+00 -0.57431711735E+03  0.57431711735E+03  0.00000000000E+00 0.  1.
         24    2    1    2    0    0  0.53277445683E+03  0.10033682602E+03  0.50412832686E+02  0.55024205321E+03  0.79427721319E+02 0.  0.
        254    2    1    2    0    0 -0.53277445683E+03 -0.10033682602E+03  0.53217145540E+03  0.11809764696E+04  0.90420288832E+03 0.  0.
         23    2    4    4    0    0  0.92076060169E+02 -0.29494207185E+03 -0.16427395207E+02  0.32269605127E+03  0.91619078753E+02 0.  0.
         23    2    4    4    0    0 -0.62485051700E+03  0.19460524583E+03  0.54859885061E+03  0.85828041830E+03  0.85879026904E+02 0.  0.
          4    1    3    3  502    0  0.15701656214E+02 -0.44381746627E+01 -0.10118494184E+02  0.19199565796E+02  0.00000000000E+00 0. -1.
         -1    1    3    3    0  502  0.51707280061E+03  0.10477500068E+03  0.60531326870E+02  0.53104248741E+03  0.00000000000E+00 0.  1.
         13    1    5    5    0    0  0.64069230273E+02 -0.12415467541E+03  0.31284837362E+02  0.14317119383E+03  0.00000000000E+00 0.  1.
        -13    1    5    5    0    0  0.28006829895E+02 -0.17078739644E+03 -0.47712232569E+02  0.17952485745E+03  0.00000000000E+00 0. -1.
          2    1    6    6  503    0 -0.13709208130E+03  0.39919323762E+02  0.16845773304E+03  0.22082979642E+03  0.00000000000E+00 0. -1.
         -2    1    6    6    0  503 -0.48775843570E+03  0.15468592207E+03  0.38014111757E+03  0.63745062189E+03  0.00000000000E+00 0.  1.
<mgrwt>
<rscale>  0 0.16302494E+04</rscale>
<asrwt>0</asrwt>
<pdfrwt beam="1">  1        2 0.17798483E+00 0.16302494E+04</pdfrwt>
<pdfrwt beam="2">  1       -1 0.88356480E-01 0.16302494E+04</pdfrwt>
<totfact> 0.27602622E+01</totfact>
</mgrwt>
</event>
<event>
12    7  0.1605494E-007  0.1052888E+04  0.7818608E-02  0.9252368E-01
          2   -1    0    0  501    0  0.00000000000E+00  0.00000000000E+00  0.93470078331E+03  0.93470078331E+03  0.00000000000E+00 0. -1.
         -1   -1    0    0    0  501 -0.00000000000E+00 -0.00000000000E+00 -0.29650456676E+03  0.29650456676E+03  0.00000000000E+00 0.  1.
         24    2    1    2    0    0  0.11980248486E+03 -0.29555352002E+02  0.11488163209E+03  0.18699156409E+03  0.80882021733E+02 0.  0.
        254    2    1    2    0    0 -0.11980248486E+03  0.29555352002E+02  0.52331458446E+03  0.10442137860E+04  0.89515256928E+03 0.  0.
         23    2    4    4    0    0 -0.14852593269E+03 -0.24164342919E+03 -0.13552855902E+03  0.32543241792E+03  0.84182948201E+02 0.  0.
         23    2    4    4    0    0  0.28723447830E+02  0.27119878119E+03  0.65884314349E+03  0.71878136805E+03  0.90545855610E+02 0.  0.
          2    1    3    3  502    0 -0.12289508196E+02 -0.19707521492E+01  0.12164771017E+02  0.17403951552E+02  0.00000000000E+00 0. -1.
         -1    1    3    3    0  502  0.13209199306E+03 -0.27584599853E+02  0.10271686107E+03  0.16958761254E+03  0.00000000000E+00 0.  1.
         13    1    5    5    0    0 -0.80769860414E+02 -0.58421291917E+02 -0.57482738963E+02  0.11506990475E+03  0.00000000000E+00 0.  1.
        -13    1    5    5    0    0 -0.67756072280E+02 -0.18322213727E+03 -0.78045820062E+02  0.21036251317E+03  0.00000000000E+00 0. -1.
          3    1    6    6  503    0  0.15206460528E+02  0.26717280402E+03  0.58094563448E+03  0.63961736520E+03  0.00000000000E+00 0. -1.
         -3    1    6    6    0  503  0.13516987302E+02  0.40259771733E+01  0.77897509010E+02  0.79164002854E+02  0.00000000000E+00 0.  1.
<mgrwt>
<rscale>  0 0.10528876E+04</rscale>
<asrwt>0</asrwt>
<pdfrwt beam="1">  1        2 0.14380012E+00 0.10528876E+04</pdfrwt>
<pdfrwt beam="2">  1       -1 0.45616088E-01 0.10528876E+04</pdfrwt>
<totfact> 0.15058232E+02</totfact>
</mgrwt>
</event>
<event>
12    7  0.1605494E-007  0.2103687E+04  0.7818608E-02  0.8559621E-01
         -1   -1    0    0    0  501 -0.00000000000E+00  0.00000000000E+00  0.73788456766E+03  0.73788456766E+03  0.00000000000E+00 0.  1.
          2   -1    0    0  501    0  0.00000000000E+00 -0.00000000000E+00 -0.14993875361E+04  0.14993875361E+04  0.00000000000E+00 0. -1.
         24    2    1    2    0    0  0.98872349507E+02 -0.36718144589E+03  0.49678127087E+03  0.63380037297E+03  0.10155454684E+03 0.  0.
        254    2    1    2    0    0 -0.98872349507E+02  0.36718144589E+03 -0.12582842393E+04  0.16034717308E+04  0.91828340333E+03 0.  0.
         23    2    4    4    0    0 -0.38228874943E+03  0.47142230727E+03 -0.10769485037E+04  0.12395715376E+04  0.91300807309E+02 0.  0.
         23    2    4    4    0    0  0.28341639992E+03 -0.10424086138E+03 -0.18133573557E+03  0.36390019318E+03  0.91376630912E+02 0.  0.
          4    1    3    3  502    0  0.69195337417E+02 -0.14671334665E+03  0.14494185261E+03  0.21753377082E+03  0.00000000000E+00 0. -1.
         -3    1    3    3    0  502  0.29677012091E+02 -0.22046809924E+03  0.35183941825E+03  0.41626660215E+03  0.00000000000E+00 0.  1.
         13    1    5    5    0    0 -0.37514481111E+03  0.46185981238E+03 -0.10155697772E+04  0.11770429422E+04  0.00000000000E+00 0.  1.
        -13    1    5    5    0    0 -0.71439383200E+01  0.95624948907E+01 -0.61378726537E+02  0.62528595335E+02  0.00000000000E+00 0. -1.
          2    1    6    6  503    0  0.27545523803E+03 -0.11598542908E+03 -0.16212769210E+03  0.34001999421E+03  0.00000000000E+00 0.  1.
         -2    1    6    6    0  503  0.79611618910E+01  0.11744567698E+02 -0.19208043463E+02  0.23880198968E+02  0.00000000000E+00 0. -1.
<mgrwt>
<rscale>  0 0.21036872E+04</rscale>
<asrwt>0</asrwt>
<pdfrwt beam="1">  1        2 0.23067501E+00 0.21036872E+04</pdfrwt>
<pdfrwt beam="2">  1       -1 0.11352070E+00 0.21036872E+04</pdfrwt>
<totfact> 0.94414176E+00</totfact>
</mgrwt>
</event>
<event>
12    7  0.1605494E-007  0.1229424E+04  0.7818608E-02  0.9087484E-01
          2   -1    0    0  501    0  0.00000000000E+00  0.00000000000E+00  0.15587269455E+04  0.15587269455E+04  0.00000000000E+00 0. -1.
         -1   -1    0    0    0  501 -0.00000000000E+00 -0.00000000000E+00 -0.24242290635E+03  0.24242290635E+03  0.00000000000E+00 0.  1.
         24    2    1    2    0    0 -0.20426925549E+03 -0.15864693580E+03  0.17691922920E+03  0.32372523986E+03  0.81257850607E+02 0.  0.
        254    2    1    2    0    0  0.20426925549E+03  0.15864693580E+03  0.11393848099E+04  0.14774246120E+04  0.90426266094E+03 0.  0.
         23    2    4    4    0    0 -0.22607843919E+03  0.34718303743E+03  0.33390036295E+03  0.54046236663E+03  0.94670984047E+02 0.  0.
         23    2    4    4    0    0  0.43034769467E+03 -0.18853610162E+03  0.80548444696E+03  0.93696224532E+03  0.91367690890E+02 0.  0.
          2    1    3    3  502    0 -0.21154700823E+03 -0.15068778205E+03  0.17374097364E+03  0.31248179191E+03  0.00000000000E+00 0. -1.
         -1    1    3    3    0  502  0.72777527454E+01 -0.79591537560E+01  0.31782555583E+01  0.11243447956E+02  0.00000000000E+00 0.  1.
         13    1    5    5    0    0 -0.21797524707E+03  0.31223181268E+03  0.26872192342E+03  0.46606156815E+03  0.00000000000E+00 0. -1.
        -13    1    5    5    0    0 -0.81031921151E+01  0.34951224751E+02  0.65178439531E+02  0.74400798475E+02  0.00000000000E+00 0.  1.
          1    1    6    6  503    0  0.22929649972E+03 -0.11912897762E+03  0.52307231349E+03  0.58341515513E+03  0.00000000000E+00 0. -1.
         -1    1    6    6    0  503  0.20105119495E+03 -0.69407124002E+02  0.28241213348E+03  0.35354709020E+03  0.00000000000E+00 0.  1.
<mgrwt>
<rscale>  0 0.12294244E+04</rscale>
<asrwt>0</asrwt>
<pdfrwt beam="1">  1        2 0.23980414E+00 0.12294244E+04</pdfrwt>
<pdfrwt beam="2">  1       -1 0.37295833E-01 0.12294244E+04</pdfrwt>
<totfact> 0.91296460E+01</totfact>
</mgrwt>
</event>
<event>
12    7  0.1668126E-007  0.2176613E+04  0.7818608E-02  0.8528226E-01
         -1   -1    0    0    0  501 -0.00000000000E+00  0.00000000000E+00  0.38996621307E+03  0.38996621307E+03  0.00000000000E+00 0.  1.
          2   -1    0    0  501    0  0.00000000000E+00 -0.00000000000E+00 -0.30372142566E+04  0.30372142566E+04  0.00000000000E+00 0. -1.
         24    2    1    2    0    0  0.57031658059E+02  0.80863741908E+03 -0.49376835072E+03  0.95259030013E+03  0.80461233903E+02 0.  0.
        254    2    1    2    0    0 -0.57031658059E+02 -0.80863741908E+03 -0.21534796929E+04  0.24745901696E+04  0.91048044149E+03 0.  0.
         23    2    4    4    0    0 -0.46245171443E+03 -0.39713783891E+03 -0.89748515986E+03  0.10889391901E+04  0.93428562103E+02 0.  0.
         23    2    4    4    0    0  0.40542005637E+03 -0.41149958017E+03 -0.12559945330E+04  0.13856509795E+04  0.93856505157E+02 0.  0.
          4    1    3    3  502    0 -0.78722167194E+01  0.49262976509E+02 -0.13266278809E+02  0.51621766766E+02  0.00000000000E+00 0. -1.
         -3    1    3    3    0  502  0.64903874779E+02  0.75937444257E+03 -0.48050207191E+03  0.90096853336E+03  0.00000000000E+00 0.  1.
         13    1    5    5    0    0 -0.40559355648E+03 -0.38355472740E+03 -0.81357563021E+03  0.98667404346E+03  0.00000000000E+00 0. -1.
        -13    1    5    5    0    0 -0.56858157947E+02 -0.13583111510E+02 -0.83909529654E+02  0.10226514660E+03  0.00000000000E+00 0.  1.
          3    1    6    6  503    0  0.40509050730E+03 -0.40196703251E+03 -0.11992463063E+04  0.13281067418E+04  0.00000000000E+00 0. -1.
         -3    1    6    6    0  503  0.32954906989E+00 -0.95325476583E+01 -0.56748226665E+02  0.57544237740E+02  0.00000000000E+00 0.  1.
<mgrwt>
<rscale>  0 0.21766129E+04</rscale>
<asrwt>0</asrwt>
<pdfrwt beam="1">  1        2 0.46726374E+00 0.21766129E+04</pdfrwt>
<pdfrwt beam="2">  1       -1 0.59994801E-01 0.21766129E+04</pdfrwt>
<totfact> 0.48500994E+00</totfact>
</mgrwt>
</event>
<event>
12    7  0.1605494E-007  0.2019417E+04  0.7818608E-02  0.8597596E-01
         -1   -1    0    0    0  501 -0.00000000000E+00  0.00000000000E+00  0.10645203983E+04  0.10645203983E+04  0.00000000000E+00 0.  1.
          2   -1    0    0  501    0  0.00000000000E+00 -0.00000000000E+00 -0.95771887338E+03  0.95771887338E+03  0.00000000000E+00 0. -1.
         24    2    1    2    0    0  0.48041156811E+03  0.42330725636E+03 -0.44479005024E+03  0.78377761534E+03  0.80528587759E+02 0.  0.
        254    2    1    2    0    0 -0.48041156811E+03 -0.42330725636E+03  0.55159157517E+03  0.12384616563E+04  0.90528984329E+03 0.  0.
         23    2    4    4    0    0  0.10774375389E+02 -0.57583421859E+03  0.24151131783E+03  0.63137849363E+03  0.92789822237E+02 0.  0.
         23    2    4    4    0    0 -0.49118594350E+03  0.15252696222E+03  0.31008025734E+03  0.60708316272E+03  0.88724828351E+02 0.  0.
          4    1    3    3  502    0  0.17440651560E+03  0.11070252425E+03 -0.16641154979E+03  0.26526493447E+03  0.00000000000E+00 0. -1.
         -3    1    3    3    0  502  0.30600505252E+03  0.31260473211E+03 -0.27837850046E+03  0.51851268087E+03  0.00000000000E+00 0.  1.
         13    1    5    5    0    0  0.40569392169E+02 -0.15519460694E+03  0.48254727071E+02  0.16751047814E+03  0.00000000000E+00 0.  1.
        -13    1    5    5    0    0 -0.29795016781E+02 -0.42063961165E+03  0.19325659076E+03  0.46386801548E+03  0.00000000000E+00 0. -1.
          4    1    6    6  503    0 -0.40221957845E+03  0.15547192688E+03  0.23797672929E+03  0.49252922047E+03  0.00000000000E+00 0. -1.
         -4    1    6    6    0  503 -0.88966365056E+02 -0.29449646533E+01  0.72103528042E+02  0.11455394225E+03  0.00000000000E+00 0.  1.
<mgrwt>
<rscale>  0 0.20194170E+04</rscale>
<asrwt>0</asrwt>
<pdfrwt beam="1">  1        2 0.14734137E+00 0.20194170E+04</pdfrwt>
<pdfrwt beam="2">  1       -1 0.16377237E+00 0.20194170E+04</pdfrwt>
<totfact> 0.77725513E+00</totfact>
</mgrwt>
</event>
<event>
12    7  0.1605494E-007  0.1839738E+04  0.7818608E-02  0.8685448E-01
          2   -1    0    0  501    0  0.00000000000E+00  0.00000000000E+00  0.33473568881E+03  0.33473568881E+03  0.00000000000E+00 0. -1.
         -1   -1    0    0    0  501 -0.00000000000E+00 -0.00000000000E+00 -0.25278413732E+04  0.25278413732E+04  0.00000000000E+00 0.  1.
         24    2    1    2    0    0 -0.57363986910E+02  0.99274602388E+02 -0.19067565480E+04  0.19118936420E+04  0.80440608140E+02 0.  0.
        254    2    1    2    0    0  0.57363986910E+02 -0.99274602388E+02 -0.28634913644E+03  0.95068342002E+03  0.89925361466E+03 0.  0.
         23    2    4    4    0    0 -0.21780049330E+03 -0.15547681498E+03  0.22467076893E+03  0.36048297775E+03  0.88661874297E+02 0.  0.
         23    2    4    4    0    0  0.27516448021E+03  0.56202212588E+02 -0.51101990537E+03  0.59020044227E+03  0.91219726492E+02 0.  0.
          2    1    3    3  502    0  0.10050786641E+01 -0.10766010698E+02 -0.61947890831E+02  0.62884484159E+02  0.00000000000E+00 0. -1.
         -1    1    3    3    0  502 -0.58369065574E+02  0.11004061309E+03 -0.18448086571E+04  0.18490091578E+04  0.00000000000E+00 0.  1.
         13    1    5    5    0    0 -0.12437766673E+03 -0.11856402500E+03  0.18497329689E+03  0.25247247883E+03  0.00000000000E+00 0.  1.
        -13    1    5    5    0    0 -0.93422826577E+02 -0.36912789979E+02  0.39697472040E+02  0.10801049892E+03  0.00000000000E+00 0. -1.
          1    1    6    6  503    0  0.10372387924E+03  0.25271408049E+02 -0.11158858034E+03  0.15443218075E+03  0.00000000000E+00 0. -1.
         -1    1    6    6    0  503  0.17144060097E+03  0.30930804539E+02 -0.39943132504E+03  0.43576826152E+03  0.00000000000E+00 0.  1.
<mgrwt>
<rscale>  0 0.18397377E+04</rscale>
<asrwt>0</asrwt>
<pdfrwt beam="1">  1        2 0.51497797E-01 0.18397377E+04</pdfrwt>
<pdfrwt beam="2">  1       -1 0.38889868E+00 0.18397377E+04</pdfrwt>
<totfact> 0.89288106E-01</totfact>
</mgrwt>
</event>
<event>
12    7  0.1605494E-007  0.2910925E+04  0.7818608E-02  0.8269634E-01
          2   -1    0    0  501    0  0.00000000000E+00  0.00000000000E+00  0.32038697475E+04  0.32038697475E+04  0.00000000000E+00 0. -1.
         -1   -1    0    0    0  501 -0.00000000000E+00 -0.00000000000E+00 -0.66119141425E+03  0.66119141425E+03  0.00000000000E+00 0.  1.
         24    2    1    2    0    0 -0.88340004397E+03  0.57670245512E+03  0.10477086988E+03  0.10631863229E+04  0.80042879347E+02 0.  0.
        254    2    1    2    0    0  0.88340004397E+03 -0.57670245512E+03  0.24379074633E+04  0.28018748389E+04  0.89113885189E+03 0.  0.
         23    2    4    4    0    0 -0.30011509738E+02  0.13944963408E+03  0.11162438501E+03  0.20053074122E+03  0.86056282067E+02 0.  0.
         23    2    4    4    0    0  0.91341155371E+03 -0.71615208921E+03  0.23262830783E+04  0.26013440976E+04  0.90574126675E+02 0.  0.
          2    1    3    3  502    0 -0.77539118832E+02  0.25696265935E+02  0.42319670853E+01  0.81795614660E+02  0.00000000000E+00 0. -1.
         -1    1    3    3    0  502 -0.80586092514E+03  0.55100618919E+03  0.10053890279E+03  0.98139070821E+03  0.00000000000E+00 0.  1.
         13    1    5    5    0    0  0.25005625267E+02  0.80225214896E+02  0.71254028188E+02  0.11017487433E+03  0.00000000000E+00 0.  1.
        -13    1    5    5    0    0 -0.55017135005E+02  0.59224419189E+02  0.40370356826E+02  0.90355866897E+02  0.00000000000E+00 0. -1.
          4    1    6    6  503    0  0.89023913972E+03 -0.68184612822E+03  0.22164212572E+04  0.24839410335E+04  0.00000000000E+00 0. -1.
         -4    1    6    6    0  503  0.23172413994E+02 -0.34305960982E+02  0.10986182110E+03  0.11740306411E+03  0.00000000000E+00 0.  1.
<mgrwt>
<rscale>  0 0.29109251E+04</rscale>
<asrwt>0</asrwt>
<pdfrwt beam="1">  1        2 0.49290303E+00 0.29109251E+04</pdfrwt>
<pdfrwt beam="2">  1       -1 0.10172176E+00 0.29109251E+04</pdfrwt>
<totfact> 0.11569169E+00</totfact>
</mgrwt>
</event>
<event>
12    7  0.1605494E-007  0.1357741E+04  0.7818608E-02  0.8984989E-01
         -1   -1    0    0    0  501 -0.00000000000E+00  0.00000000000E+00  0.37522147668E+03  0.37522147668E+03  0.00000000000E+00 0.  1.
          2   -1    0    0  501    0  0.00000000000E+00 -0.00000000000E+00 -0.12282487762E+04  0.12282487762E+04  0.00000000000E+00 0. -1.
         24    2    1    2    0    0  0.30483022204E+03  0.13947994775E+03 -0.42722516792E+03  0.54895560923E+03  0.80341749484E+02 0.  0.
        254    2    1    2    0    0 -0.30483022204E+03 -0.13947994775E+03 -0.42580213156E+03  0.10545146436E+04  0.90460906377E+03 0.  0.
         23    2    4    4    0    0 -0.17272889862E+03  0.31014069742E+03 -0.44439628121E+03  0.57606275433E+03  0.91311103143E+02 0.  0.
         23    2    4    4    0    0 -0.13210132342E+03 -0.44962064517E+03  0.18594149652E+02  0.47845188929E+03  0.94662472747E+02 0.  0.
          2    1    3    3  502    0  0.93692920021E+02  0.40521152121E+02 -0.19367017781E+03  0.21892570613E+03  0.00000000000E+00 0. -1.
         -1    1    3    3    0  502  0.21113730202E+03  0.98958795631E+02 -0.23355499010E+03  0.33002990310E+03  0.00000000000E+00 0.  1.
         13    1    5    5    0    0 -0.97969408616E+02  0.14454673797E+03 -0.28564374112E+03  0.33478965235E+03  0.00000000000E+00 0.  1.
        -13    1    5    5    0    0 -0.74759490001E+02  0.16559395945E+03 -0.15875254009E+03  0.24127310197E+03  0.00000000000E+00 0. -1.
          3    1    6    6  503    0 -0.12811117805E+03 -0.39159902103E+03 -0.13075439567E+02  0.41222958934E+03  0.00000000000E+00 0. -1.
         -3    1    6    6    0  503 -0.39901453729E+01 -0.58021624143E+02  0.31669589219E+02  0.66222299942E+02  0.00000000000E+00 0.  1.
<mgrwt>
<rscale>  0 0.13577412E+04</rscale>
<asrwt>0</asrwt>
<pdfrwt beam="1">  1        2 0.18896135E+00 0.13577412E+04</pdfrwt>
<pdfrwt beam="2">  1       -1 0.57726382E-01 0.13577412E+04</pdfrwt>
<totfact> 0.61638882E+01</totfact>
</mgrwt>
</event>
<event>
12    7  0.1605494E-007  0.2133894E+04  0.7818608E-02  0.8546458E-01
          2   -1    0    0  501    0  0.00000000000E+00  0.00000000000E+00  0.14902820687E+04  0.14902820687E+04  0.00000000000E+00 0. -1.
         -1   -1    0    0    0  501 -0.00000000000E+00 -0.00000000000E+00 -0.76386628547E+03  0.76386628547E+03  0.00000000000E+00 0.  1.
         24    2    1    2    0    0  0.86087680539E+03 -0.85836842744E+02  0.20604069680E+03  0.89338998479E+03  0.84947386880E+02 0.  0.
        254    2    1    2    0    0 -0.86087680539E+03  0.85836842744E+02  0.52037508643E+03  0.13607583694E+04  0.91235753498E+03 0.  0.
         23    2    4    4    0    0 -0.81326387330E+03  0.27705517101E+03  0.76442331078E+02  0.86733449531E+03  0.90928550968E+02 0.  0.
         23    2    4    4    0    0 -0.47612932096E+02 -0.19121832826E+03  0.44393275536E+03  0.49342387407E+03  0.86944740274E+02 0.  0.
          2    1    3    3  502    0  0.70990252903E+03 -0.91898238243E+02  0.14462859426E+03  0.73029057039E+03  0.00000000000E+00 0. -1.
         -1    1    3    3    0  502  0.15097427636E+03  0.60613954983E+01  0.61412102543E+02  0.16309941440E+03  0.00000000000E+00 0.  1.
         13    1    5    5    0    0 -0.13355920669E+03  0.42699351975E+02 -0.21023194967E+02  0.14178600452E+03  0.00000000000E+00 0.  1.
        -13    1    5    5    0    0 -0.67970466660E+03  0.23435581903E+03  0.97465526045E+02  0.72554849079E+03  0.00000000000E+00 0. -1.
          4    1    6    6  503    0 -0.32692990872E+02 -0.11758863451E+03  0.36313311642E+03  0.38309473875E+03  0.00000000000E+00 0. -1.
         -4    1    6    6    0  503 -0.14919941224E+02 -0.73629693757E+02  0.80799638932E+02  0.11032913532E+03  0.00000000000E+00 0.  1.
<mgrwt>
<rscale>  0 0.21338943E+04</rscale>
<asrwt>0</asrwt>
<pdfrwt beam="1">  1        2 0.22927416E+00 0.21338943E+04</pdfrwt>
<pdfrwt beam="2">  1       -1 0.11751789E+00 0.21338943E+04</pdfrwt>
<totfact> 0.87690396E+00</totfact>
</mgrwt>
</event>
<event>
12    7  0.1605494E-007  0.1343035E+04  0.7818608E-02  0.8996117E-01
         -1   -1    0    0    0  501 -0.00000000000E+00  0.00000000000E+00  0.20545983557E+03  0.20545983557E+03  0.00000000000E+00 0.  1.
          2   -1    0    0  501    0  0.00000000000E+00 -0.00000000000E+00 -0.21947643211E+04  0.21947643211E+04  0.00000000000E+00 0. -1.
         24    2    1    2    0    0 -0.10934147217E+03 -0.22927159554E+03 -0.10190513251E+04  0.10531955336E+04  0.78956992638E+02 0.  0.
        254    2    1    2    0    0  0.10934147217E+03  0.22927159554E+03 -0.97025316035E+03  0.13470286230E+04  0.89920736987E+03 0.  0.
         23    2    4    4    0    0  0.59784306768E+02 -0.32362384729E+03 -0.53673089910E+03  0.63707094350E+03  0.97328162070E+02 0.  0.
         23    2    4    4    0    0  0.49557165403E+02  0.55289544283E+03 -0.43352226126E+03  0.70995767953E+03  0.89157570483E+02 0.  0.
          4    1    3    3  502    0 -0.79585632027E+02 -0.18628852492E+03 -0.66092121540E+03  0.69126994749E+03  0.00000000000E+00 0. -1.
         -3    1    3    3    0  502 -0.29755840144E+02 -0.42983070618E+02 -0.35813010973E+03  0.36192558611E+03  0.00000000000E+00 0.  1.
         13    1    5    5    0    0  0.17195097844E+02 -0.20209623702E+01 -0.16120822142E+02  0.23656639350E+02  0.00000000000E+00 0. -1.
        -13    1    5    5    0    0  0.42589208924E+02 -0.32160288492E+03 -0.52061007695E+03  0.61341430415E+03  0.00000000000E+00 0.  1.
          2    1    6    6  503    0  0.65303490372E+02  0.49465131356E+03 -0.40768764413E+03  0.64432420647E+03  0.00000000000E+00 0. -1.
         -2    1    6    6    0  503 -0.15746324969E+02  0.58244129267E+02 -0.25834617125E+02  0.65633473062E+02  0.00000000000E+00 0.  1.
<mgrwt>
<rscale>  0 0.13430352E+04</rscale>
<asrwt>0</asrwt>
<pdfrwt beam="1">  1        2 0.33765605E+00 0.13430352E+04</pdfrwt>
<pdfrwt beam="2">  1       -1 0.31609206E-01 0.13430352E+04</pdfrwt>
<totfact> 0.53949287E+01</totfact>
</mgrwt>
</event>
<event>
12    7  0.1605494E-007  0.1736525E+04  0.7818608E-02  0.8740802E-01
         -1   -1    0    0    0  501 -0.00000000000E+00  0.00000000000E+00  0.45951132462E+03  0.45951132462E+03  0.00000000000E+00 0.  1.
          2   -1    0    0  501    0  0.00000000000E+00 -0.00000000000E+00 -0.16406127013E+04  0.16406127013E+04  0.00000000000E+00 0. -1.
         24    2    1    2    0    0  0.39289613305E+03  0.19412077454E+03  0.11340279793E+03  0.46008384716E+03  0.82259986439E+02 0.  0.
        254    2    1    2    0    0 -0.39289613305E+03 -0.19412077454E+03 -0.12945041746E+04  0.16400401787E+04  0.90660933339E+03 0.  0.
         23    2    4    4    0    0 -0.52282182938E+03 -0.42021248790E+03 -0.11337519321E+04  0.13204212987E+04  0.90541494282E+02 0.  0.
         23    2    4    4    0    0  0.12992569634E+03  0.22609171337E+03 -0.16075224244E+03  0.31961888003E+03  0.91196467020E+02 0.  0.
          2    1    3    3  502    0  0.20247969105E+03  0.56582020972E+02  0.40185983610E+02  0.21404313505E+03  0.00000000000E+00 0. -1.
         -1    1    3    3    0  502  0.19041644200E+03  0.13753875356E+03  0.73216814317E+02  0.24604071211E+03  0.00000000000E+00 0.  1.
         13    1    5    5    0    0 -0.30228184124E+03 -0.24839244161E+03 -0.57286079454E+03  0.69371651740E+03  0.00000000000E+00 0. -1.
        -13    1    5    5    0    0 -0.22053998814E+03 -0.17182004629E+03 -0.56089113760E+03  0.62670478131E+03  0.00000000000E+00 0.  1.
          1    1    6    6  503    0 -0.14099669104E+02  0.19908013654E+02 -0.18965432837E+02  0.30900118433E+02  0.00000000000E+00 0.  1.
         -1    1    6    6    0  503  0.14402536544E+03  0.20618369971E+03 -0.14178680961E+03  0.28871876159E+03  0.00000000000E+00 0. -1.
<mgrwt>
<rscale>  0 0.17365254E+04</rscale>
<asrwt>0</asrwt>
<pdfrwt beam="1">  1        2 0.25240195E+00 0.17365254E+04</pdfrwt>
<pdfrwt beam="2">  1       -1 0.70694051E-01 0.17365254E+04</pdfrwt>
<totfact> 0.23128344E+01</totfact>
</mgrwt>
</event>
<event>
12    7  0.1605494E-007  0.2198609E+04  0.7818608E-02  0.8519007E-01
          2   -1    0    0  501    0  0.00000000000E+00  0.00000000000E+00  0.10996531909E+04  0.10996531909E+04  0.00000000000E+00 0. -1.
         -1   -1    0    0    0  501 -0.00000000000E+00 -0.00000000000E+00 -0.10989558546E+04  0.10989558546E+04  0.00000000000E+00 0.  1.
         24    2    1    2    0    0  0.10553138190E+03 -0.20214299410E+03  0.88142668015E+03  0.91392087909E+03  0.79622346926E+02 0.  0.
        254    2    1    2    0    0 -0.10553138190E+03  0.20214299410E+03 -0.88072934392E+03  0.12846881664E+04  0.90705062978E+03 0.  0.
         23    2    4    4    0    0  0.79314043290E+02  0.38892510250E+03 -0.91671168730E+03  0.10032453750E+04  0.92668829568E+02 0.  0.
         23    2    4    4    0    0 -0.18484542519E+03 -0.18678210839E+03  0.35982343378E+02  0.28144279141E+03  0.94127193568E+02 0.  0.
          2    1    3    3  502    0  0.99772372465E+02 -0.20206195588E+03  0.76880706551E+03  0.80115408274E+03  0.00000000000E+00 0. -1.
         -1    1    3    3    0  502  0.57590094373E+01 -0.81038224989E-01  0.11261961464E+03  0.11276679635E+03  0.00000000000E+00 0.  1.
         13    1    5    5    0    0  0.74546996115E+02  0.33779867717E+03 -0.85877387588E+03  0.92582815404E+03  0.00000000000E+00 0. -1.
        -13    1    5    5    0    0  0.47670471756E+01  0.51126425327E+02 -0.57937811422E+02  0.77417220939E+02  0.00000000000E+00 0.  1.
          4    1    6    6  503    0 -0.15173460214E+03 -0.94473086716E+02  0.40494616779E+02  0.18327129505E+03  0.00000000000E+00 0. -1.
         -4    1    6    6    0  503 -0.33110823054E+02 -0.92309021677E+02 -0.45122734008E+01  0.98171496359E+02  0.00000000000E+00 0.  1.
<mgrwt>
<rscale>  0 0.21986089E+04</rscale>
<asrwt>0</asrwt>
<pdfrwt beam="1">  1        2 0.16917741E+00 0.21986089E+04</pdfrwt>
<pdfrwt beam="2">  1       -1 0.16907013E+00 0.21986089E+04</pdfrwt>
<totfact> 0.56795780E+00</totfact>
</mgrwt>
</event>
<event>
12    7  0.1605494E-007  0.1863092E+04  0.7818608E-02  0.8673449E-01
         -1   -1    0    0    0  501 -0.00000000000E+00  0.00000000000E+00  0.61348873361E+03  0.61348873361E+03  0.00000000000E+00 0.  1.
          2   -1    0    0  501    0  0.00000000000E+00 -0.00000000000E+00 -0.14144967944E+04  0.14144967944E+04  0.00000000000E+00 0. -1.
         24    2    1    2    0    0  0.54102422240E+03 -0.24055569137E+03  0.12037251153E+03  0.61013541986E+03  0.84861293696E+02 0.  0.
        254    2    1    2    0    0 -0.54102422240E+03  0.24055569137E+03 -0.92138057233E+03  0.14178501082E+04  0.90043462855E+03 0.  0.
         23    2    4    4    0    0 -0.32493405769E+03 -0.31195282986E+03 -0.52596002625E+03  0.69882504706E+03  0.93945661368E+02 0.  0.
         23    2    4    4    0    0 -0.21609016470E+03  0.55250852123E+03 -0.39542054609E+03  0.71902506111E+03  0.93161177113E+02 0.  0.
          4    1    3    3  502    0  0.49277942512E+03 -0.19115437058E+03  0.98112151539E+02  0.53758492305E+03  0.00000000000E+00 0. -1.
         -3    1    3    3    0  502  0.48244797272E+02 -0.49401320795E+02  0.22260359990E+02  0.72550496808E+02  0.00000000000E+00 0.  1.
         13    1    5    5    0    0 -0.21399076012E+03 -0.18049384124E+03 -0.38729101480E+03  0.47787488141E+03  0.00000000000E+00 0. -1.
        -13    1    5    5    0    0 -0.11094329757E+03 -0.13145898862E+03 -0.13866901145E+03  0.22095016565E+03  0.00000000000E+00 0.  1.
          4    1    6    6  503    0 -0.13851507772E+03  0.29048523546E+03 -0.16539618672E+03  0.36183421253E+03  0.00000000000E+00 0. -1.
         -4    1    6    6    0  503 -0.77575086986E+02  0.26202328577E+03 -0.23002435937E+03  0.35719084858E+03  0.00000000000E+00 0.  1.
<mgrwt>
<rscale>  0 0.18630919E+04</rscale>
<asrwt>0</asrwt>
<pdfrwt beam="1">  1        2 0.21761489E+00 0.18630919E+04</pdfrwt>
<pdfrwt beam="2">  1       -1 0.94382882E-01 0.18630919E+04</pdfrwt>
<totfact> 0.16513617E+01</totfact>
</mgrwt>
</event>
<event>
12    7  0.1605494E-007  0.1486502E+04  0.7818608E-02  0.8893479E-01
          2   -1    0    0  501    0  0.00000000000E+00  0.00000000000E+00  0.17352921338E+04  0.17352921338E+04  0.00000000000E+00 0. -1.
         -1   -1    0    0    0  501 -0.00000000000E+00 -0.00000000000E+00 -0.31834538370E+03  0.31834538370E+03  0.00000000000E+00 0.  1.
         24    2    1    2    0    0 -0.36653425910E+03 -0.28475819078E+03  0.27369934892E+03  0.54462207920E+03  0.79166187500E+02 0.  0.
        254    2    1    2    0    0  0.36653425910E+03  0.28475819078E+03  0.11432474012E+04  0.15090154383E+04  0.86872227000E+03 0.  0.
         23    2    4    4    0    0  0.56635328376E+03 -0.57072611932E+02  0.72557596697E+03  0.92673094912E+03  0.91413582993E+02 0.  0.
         23    2    4    4    0    0 -0.19981902466E+03  0.34183080271E+03  0.41767143421E+03  0.58228448917E+03  0.88486490940E+02 0.  0.
          2    1    3    3  502    0 -0.33858475259E+03 -0.25105373305E+03  0.27024738496E+03  0.50070076956E+03  0.00000000000E+00 0. -1.
         -1    1    3    3    0  502 -0.27949506512E+02 -0.33704457731E+02  0.34519639621E+01  0.43921309639E+02  0.00000000000E+00 0.  1.
         13    1    5    5    0    0  0.26331982837E+03 -0.27199379848E+02  0.41136050432E+03  0.48917747576E+03  0.00000000000E+00 0.  1.
        -13    1    5    5    0    0  0.30303345539E+03 -0.29873232084E+02  0.31421546264E+03  0.43755347336E+03  0.00000000000E+00 0. -1.
          1    1    6    6  503    0 -0.18034156626E+03  0.23667735826E+03  0.32656251656E+03  0.44179444276E+03  0.00000000000E+00 0. -1.
         -1    1    6    6    0  503 -0.19477458403E+02  0.10515344445E+03  0.91108917652E+02  0.14049004641E+03  0.00000000000E+00 0.  1.
<mgrwt>
<rscale>  0 0.14865023E+04</rscale>
<asrwt>0</asrwt>
<pdfrwt beam="1">  1        2 0.26696801E+00 0.14865023E+04</pdfrwt>
<pdfrwt beam="2">  1       -1 0.48976214E-01 0.14865023E+04</pdfrwt>
<totfact> 0.43118413E+01</totfact>
</mgrwt>
</event>
<event>
12    7  0.1605494E-007  0.1181067E+04  0.7818608E-02  0.9129591E-01
         -1   -1    0    0    0  501 -0.00000000000E+00  0.00000000000E+00  0.20255295584E+03  0.20255295584E+03  0.00000000000E+00 0.  1.
          2   -1    0    0  501    0  0.00000000000E+00 -0.00000000000E+00 -0.17216737211E+04  0.17216737211E+04  0.00000000000E+00 0. -1.
         24    2    1    2    0    0 -0.70913423704E+02  0.20137721836E+03 -0.55148791731E+03  0.59630239328E+03  0.76525313169E+02 0.  0.
        254    2    1    2    0    0  0.70913423704E+02 -0.20137721836E+03 -0.96763284791E+03  0.13279242836E+04  0.88401814289E+03 0.  0.
         23    2    4    4    0    0 -0.13998275334E+03  0.95706056310E+02  0.85483718188E+02  0.20959755179E+03  0.88706522842E+02 0.  0.
         23    2    4    4    0    0  0.21089617705E+03 -0.29708327467E+03 -0.10531165661E+04  0.11183267318E+04  0.94151514901E+02 0.  0.
          4    1    3    3  502    0 -0.29847096769E+02  0.16352916066E+03 -0.46001959706E+03  0.48913256409E+03  0.00000000000E+00 0. -1.
         -3    1    3    3    0  502 -0.41066326934E+02  0.37848057707E+02 -0.91468320249E+02  0.10716982919E+03  0.00000000000E+00 0.  1.
         13    1    5    5    0    0 -0.91747011844E+02  0.93882398792E+02  0.92824261819E+02  0.16077239367E+03  0.00000000000E+00 0. -1.
        -13    1    5    5    0    0 -0.48235741497E+02  0.18236575182E+01 -0.73405436312E+01  0.48825158119E+02  0.00000000000E+00 0.  1.
          1    1    6    6  503    0  0.21339607205E+03 -0.29589436334E+03 -0.10540558118E+04  0.11154035199E+04  0.00000000000E+00 0. -1.
         -1    1    6    6    0  503 -0.24998950081E+01 -0.11889113310E+01  0.93924574028E+00  0.29232118920E+01  0.00000000000E+00 0.  1.
<mgrwt>
<rscale>  0 0.11810675E+04</rscale>
<asrwt>0</asrwt>
<pdfrwt beam="1">  1        2 0.26487287E+00 0.11810675E+04</pdfrwt>
<pdfrwt beam="2">  1       -1 0.31161995E-01 0.11810675E+04</pdfrwt>
<totfact> 0.10244551E+02</totfact>
</mgrwt>
</event>
<event>
12    7  0.1605494E-007  0.3440400E+04  0.7818608E-02  0.8128061E-01
         -1   -1    0    0    0  501 -0.00000000000E+00  0.00000000000E+00  0.16166417706E+04  0.16166417706E+04  0.00000000000E+00 0.  1.
          2   -1    0    0  501    0  0.00000000000E+00 -0.00000000000E+00 -0.18303919938E+04  0.18303919938E+04  0.00000000000E+00 0. -1.
         24    2    1    2    0    0  0.12019870850E+04  0.87320954192E+03  0.50194501718E+03  0.15705631936E+04  0.86325478443E+02 0.  0.
        254    2    1    2    0    0 -0.12019870850E+04 -0.87320954192E+03 -0.71569524035E+03  0.18764705708E+04  0.89535147817E+03 0.  0.
         23    2    4    4    0    0 -0.70901265612E+03 -0.55404239971E+03  0.51724609457E+02  0.90585088954E+03  0.90710923434E+02 0.  0.
         23    2    4    4    0    0 -0.49297442891E+03 -0.31916714221E+03 -0.76741984981E+03  0.97061968130E+03  0.90982897390E+02 0.  0.
          4    1    3    3  502    0  0.43291833843E+03  0.32864155305E+03  0.14162715999E+03  0.56167767500E+03  0.00000000000E+00 0. -1.
         -3    1    3    3    0  502  0.76906874660E+03  0.54456798887E+03  0.36031785719E+03  0.10088855186E+04  0.00000000000E+00 0.  1.
         13    1    5    5    0    0 -0.31780280853E+03 -0.30514159968E+03  0.32463559825E+02  0.44177358871E+03  0.00000000000E+00 0.  1.
        -13    1    5    5    0    0 -0.39120984759E+03 -0.24890080003E+03  0.19261049632E+02  0.46407730083E+03  0.00000000000E+00 0. -1.
          1    1    6    6  503    0 -0.32777355567E+03 -0.24855523998E+03 -0.57926242284E+03  0.71046475326E+03  0.00000000000E+00 0. -1.
         -1    1    6    6    0  503 -0.16520087325E+03 -0.70611902234E+02 -0.18815742697E+03  0.26015492804E+03  0.00000000000E+00 0.  1.
<mgrwt>
<rscale>  0 0.34404001E+04</rscale>
<asrwt>0</asrwt>
<pdfrwt beam="1">  1        2 0.28159877E+00 0.34404001E+04</pdfrwt>
<pdfrwt beam="2">  1       -1 0.24871412E+00 0.34404001E+04</pdfrwt>
<totfact> 0.55431029E-01</totfact>
</mgrwt>
</event>
<event>
12    7  0.1605494E-007  0.2638569E+04  0.7818608E-02  0.8355217E-01
         -1   -1    0    0    0  501 -0.00000000000E+00  0.00000000000E+00  0.87699944237E+03  0.87699944237E+03  0.00000000000E+00 0.  1.
          2   -1    0    0  501    0  0.00000000000E+00 -0.00000000000E+00 -0.19846217167E+04  0.19846217167E+04  0.00000000000E+00 0. -1.
         24    2    1    2    0    0 -0.17917208617E+03  0.11527773152E+04 -0.56268958186E+03  0.12977531490E+04  0.80904234498E+02 0.  0.
        254    2    1    2    0    0  0.17917208617E+03 -0.11527773152E+04 -0.54493269243E+03  0.15638680101E+04  0.88754342920E+03 0.  0.
         23    2    4    4    0    0 -0.20092536585E+03 -0.17730043543E+02 -0.23613248430E+03  0.32437665695E+03  0.93681953145E+02 0.  0.
         23    2    4    4    0    0  0.38009745202E+03 -0.11350472717E+04 -0.30880020812E+03  0.12394913531E+04  0.90414954412E+02 0.  0.
          2    1    3    3  502    0 -0.12720980931E+02  0.21231494642E+03 -0.12957936411E+03  0.24905877104E+03  0.00000000000E+00 0. -1.
         -1    1    3    3    0  502 -0.16645110524E+03  0.94046236879E+03 -0.43311021774E+03  0.10486943779E+04  0.00000000000E+00 0.  1.
         13    1    5    5    0    0 -0.19877159791E+03 -0.31732811347E+02 -0.23603481285E+03  0.31020888499E+03  0.00000000000E+00 0.  1.
        -13    1    5    5    0    0 -0.21537679315E+01  0.14002767803E+02 -0.97671457307E-01  0.14167771955E+02  0.00000000000E+00 0. -1.
          1    1    6    6  503    0  0.89431564051E+02 -0.16584365071E+03 -0.41667927372E+02  0.19297237445E+03  0.00000000000E+00 0. -1.
         -1    1    6    6    0  503  0.29066588797E+03 -0.96920362096E+03 -0.26713228075E+03  0.10465189787E+04  0.00000000000E+00 0.  1.
<mgrwt>
<rscale>  0 0.26385694E+04</rscale>
<asrwt>0</asrwt>
<pdfrwt beam="1">  1        2 0.30532642E+00 0.26385694E+04</pdfrwt>
<pdfrwt beam="2">  1       -1 0.13492299E+00 0.26385694E+04</pdfrwt>
<totfact> 0.31535670E+00</totfact>
</mgrwt>
</event>
<event>
12    7  0.1605494E-007  0.2244848E+04  0.7818608E-02  0.8499990E-01
          2   -1    0    0  501    0  0.00000000000E+00  0.00000000000E+00  0.38702500538E+04  0.38702500538E+04  0.00000000000E+00 0. -1.
         -1   -1    0    0    0  501 -0.00000000000E+00 -0.00000000000E+00 -0.32551797217E+03  0.32551797217E+03  0.00000000000E+00 0.  1.
         24    2    1    2    0    0  0.37697338750E+03  0.66172686284E+03  0.46572843691E+03  0.89642298575E+03  0.81730144626E+02 0.  0.
        254    2    1    2    0    0 -0.37697338750E+03 -0.66172686284E+03  0.30790036447E+04  0.32993450402E+04  0.90852786105E+03 0.  0.
         23    2    4    4    0    0 -0.30631779098E+03  0.15885744675E+03  0.91251034359E+03  0.97983774905E+03  0.91326939308E+02 0.  0.
         23    2    4    4    0    0 -0.70655596519E+02 -0.82058430960E+03  0.21664933011E+04  0.23195072912E+04  0.89833331512E+02 0.  0.
          2    1    3    3  502    0  0.51958168442E+02  0.49198228236E+02  0.57232204045E+02  0.91627736572E+02  0.00000000000E+00 0. -1.
         -1    1    3    3    0  502  0.32501521906E+03  0.61252863461E+03  0.40849623286E+03  0.80479524918E+03  0.00000000000E+00 0.  1.
         13    1    5    5    0    0 -0.13140062385E+03  0.11411394666E+03  0.50418307079E+03  0.53337480784E+03  0.00000000000E+00 0.  1.
        -13    1    5    5    0    0 -0.17491716714E+03  0.44743500093E+02  0.40832727281E+03  0.44646294121E+03  0.00000000000E+00 0. -1.
          3    1    6    6  503    0  0.13413252711E+02 -0.35541908608E+03  0.90975979798E+03  0.97681397006E+03  0.00000000000E+00 0. -1.
         -3    1    6    6    0  503 -0.84068849230E+02 -0.46516522352E+03  0.12567335032E+04  0.13426933211E+04  0.00000000000E+00 0.  1.
<mgrwt>
<rscale>  0 0.22448483E+04</rscale>
<asrwt>0</asrwt>
<pdfrwt beam="1">  1        2 0.59542305E+00 0.22448483E+04</pdfrwt>
<pdfrwt beam="2">  1       -1 0.50079691E-01 0.22448483E+04</pdfrwt>
<totfact> 0.18081235E+00</totfact>
</mgrwt>
</event>
<event>
12    7  0.1605494E-007  0.2846732E+04  0.7818608E-02  0.8288905E-01
          2   -1    0    0  501    0  0.00000000000E+00  0.00000000000E+00  0.27985666728E+04  0.27985666728E+04  0.00000000000E+00 0. -1.
         -1   -1    0    0    0  501 -0.00000000000E+00 -0.00000000000E+00 -0.72393152987E+03  0.72393152987E+03  0.00000000000E+00 0.  1.
         24    2    1    2    0    0  0.55222810289E+03  0.28076362793E+03 -0.45357576929E+03  0.77208317246E+03  0.81224099388E+02 0.  0.
        254    2    1    2    0    0 -0.55222810289E+03 -0.28076362793E+03  0.25282109123E+04  0.27504150302E+04  0.88834021035E+03 0.  0.
         23    2    4    4    0    0 -0.18440525629E+03 -0.34841784889E+03  0.33968978866E+03  0.52830544437E+03  0.91198651643E+02 0.  0.
         23    2    4    4    0    0 -0.36782284660E+03  0.67654220960E+02  0.21885211236E+04  0.22221095859E+04  0.90970121884E+02 0.  0.
          4    1    3    3  502    0  0.27321109759E+03  0.16086613830E+03 -0.27556477218E+03  0.42006923473E+03  0.00000000000E+00 0. -1.
         -3    1    3    3    0  502  0.27901700531E+03  0.11989748963E+03 -0.17801099711E+03  0.35201393774E+03  0.00000000000E+00 0.  1.
         13    1    5    5    0    0 -0.15756102250E+03 -0.34022580745E+03  0.32700722184E+03  0.49750658186E+03  0.00000000000E+00 0. -1.
        -13    1    5    5    0    0 -0.26844233788E+02 -0.81920414467E+01  0.12682566822E+02  0.30798862511E+02  0.00000000000E+00 0.  1.
          1    1    6    6  503    0 -0.28779321201E+03  0.42844804925E+02  0.18813157260E+04  0.19036831331E+04  0.00000000000E+00 0. -1.
         -1    1    6    6    0  503 -0.80029634589E+02  0.24809416035E+02  0.30720539759E+03  0.31842645280E+03  0.00000000000E+00 0.  1.
<mgrwt>
<rscale>  0 0.28467319E+04</rscale>
<asrwt>0</asrwt>
<pdfrwt beam="1">  1        2 0.43054871E+00 0.28467319E+04</pdfrwt>
<pdfrwt beam="2">  1       -1 0.11137408E+00 0.28467319E+04</pdfrwt>
<totfact> 0.16909039E+00</totfact>
</mgrwt>
</event>
<event>
12    7  0.1605494E-007  0.1353585E+04  0.7818608E-02  0.8988119E-01
         -1   -1    0    0    0  501 -0.00000000000E+00  0.00000000000E+00  0.48211108318E+03  0.48211108318E+03  0.00000000000E+00 0.  1.
          2   -1    0    0  501    0  0.00000000000E+00 -0.00000000000E+00 -0.95008764905E+03  0.95008764905E+03  0.00000000000E+00 0. -1.
         24    2    1    2    0    0 -0.13880464915E+03 -0.27244149018E+03  0.89174645209E+02  0.32837270155E+03  0.79908807902E+02 0.  0.
        254    2    1    2    0    0  0.13880464915E+03  0.27244149018E+03 -0.55715121108E+03  0.11038260307E+04  0.90250946689E+03 0.  0.
         23    2    4    4    0    0 -0.12450088617E+03  0.49169690402E+03 -0.99701616819E+02  0.52478305675E+03  0.90501536850E+02 0.  0.
         23    2    4    4    0    0  0.26330553532E+03 -0.21925541385E+03 -0.45744959426E+03  0.57904297394E+03  0.92886451900E+02 0.  0.
          4    1    3    3  502    0  0.10624906673E+02 -0.19187404582E+02  0.76456136073E+01  0.23227151005E+02  0.00000000000E+00 0. -1.
         -3    1    3    3    0  502 -0.14942955582E+03 -0.25325408560E+03  0.81529031602E+02  0.30514555055E+03  0.00000000000E+00 0.  1.
         13    1    5    5    0    0  0.30825835566E+01  0.11581305074E+03 -0.14720014253E+01  0.11586341887E+03  0.00000000000E+00 0. -1.
        -13    1    5    5    0    0 -0.12758346973E+03  0.37588385328E+03 -0.98229615394E+02  0.40891963788E+03  0.00000000000E+00 0.  1.
          4    1    6    6  503    0  0.15397281172E+03 -0.17832888408E+03 -0.33808380150E+03  0.41207945166E+03  0.00000000000E+00 0.  1.
         -4    1    6    6    0  503  0.10933272361E+03 -0.40926529764E+02 -0.11936579276E+03  0.16696352228E+03  0.00000000000E+00 0. -1.
<mgrwt>
<rscale>  0 0.13535846E+04</rscale>
<asrwt>0</asrwt>
<pdfrwt beam="1">  1        2 0.14616733E+00 0.13535846E+04</pdfrwt>
<pdfrwt beam="2">  1       -1 0.74170936E-01 0.13535846E+04</pdfrwt>
<totfact> 0.55367468E+01</totfact>
</mgrwt>
</event>
<event>
12    7  0.1605494E-007  0.1270161E+04  0.7818608E-02  0.9053568E-01
          2   -1    0    0  501    0  0.00000000000E+00  0.00000000000E+00  0.26994569074E+04  0.26994569074E+04  0.00000000000E+00 0. -1.
         -1   -1    0    0    0  501 -0.00000000000E+00 -0.00000000000E+00 -0.14941047769E+03  0.14941047769E+03  0.00000000000E+00 0.  1.
         24    2    1    2    0    0  0.83337712732E+02 -0.24558992155E+03  0.10117024836E+04  0.10474834740E+04  0.80125707654E+02 0.  0.
        254    2    1    2    0    0 -0.83337712732E+02  0.24558992155E+03  0.15383439461E+04  0.18013839111E+04  0.90067880775E+03 0.  0.
         23    2    4    4    0    0 -0.39148349907E+03  0.36255703394E+03  0.12172674644E+04  0.13321921095E+04  0.91042868565E+02 0.  0.
         23    2    4    4    0    0  0.30814578634E+03 -0.11696711239E+03  0.32107648173E+03  0.46919180159E+03  0.91737170962E+02 0.  0.
          4    1    3    3  502    0  0.12252239997E+02 -0.15641868041E+03  0.55406476699E+03  0.57585127158E+03  0.00000000000E+00 0. -1.
         -3    1    3    3    0  502  0.71085472735E+02 -0.89171241140E+02  0.45763771666E+03  0.47163220245E+03  0.00000000000E+00 0.  1.
         13    1    5    5    0    0 -0.16181731813E+03  0.17830147733E+03  0.64791885691E+03  0.69121277940E+03  0.00000000000E+00 0. -1.
        -13    1    5    5    0    0 -0.22966618094E+03  0.18425555661E+03  0.56934860745E+03  0.64097933010E+03  0.00000000000E+00 0.  1.
          3    1    6    6  503    0  0.30020954283E+03 -0.12824261578E+03  0.29646012548E+03  0.44097680677E+03  0.00000000000E+00 0. -1.
         -3    1    6    6    0  503  0.79362435069E+01  0.11275503383E+02  0.24616356249E+02  0.28214994817E+02  0.00000000000E+00 0.  1.
<mgrwt>
<rscale>  0 0.12701608E+04</rscale>
<asrwt>0</asrwt>
<pdfrwt beam="1">  1        2 0.41530103E+00 0.12701608E+04</pdfrwt>
<pdfrwt beam="2">  1       -1 0.22986229E-01 0.12701608E+04</pdfrwt>
<totfact> 0.48439203E+01</totfact>
</mgrwt>
</event>
<event>
12    7  0.1605494E-007  0.1936254E+04  0.7818608E-02  0.8637018E-01
         -1   -1    0    0    0  501 -0.00000000000E+00  0.00000000000E+00  0.77064210127E+03  0.77064210127E+03  0.00000000000E+00 0.  1.
          2   -1    0    0  501    0  0.00000000000E+00 -0.00000000000E+00 -0.12162195444E+04  0.12162195444E+04  0.00000000000E+00 0. -1.
         24    2    1    2    0    0  0.56649493759E+02 -0.69310902073E+03 -0.49298221593E+03  0.85600600037E+03  0.78137876152E+02 0.  0.
        254    2    1    2    0    0 -0.56649493759E+02  0.69310902073E+03  0.47404772798E+02  0.11308556453E+04  0.89049312082E+03 0.  0.
         23    2    4    4    0    0 -0.28954513175E+03 -0.34236825713E+02  0.17381383347E+03  0.35150225127E+03  0.91290965555E+02 0.  0.
         23    2    4    4    0    0  0.23289563799E+03  0.72734584645E+03 -0.12640906067E+03  0.77935339401E+03  0.90222522707E+02 0.  0.
          4    1    3    3  502    0  0.12428235763E+02 -0.30702559579E+03 -0.26288768377E+03  0.40438732892E+03  0.00000000000E+00 0. -1.
         -3    1    3    3    0  502  0.44221257996E+02 -0.38608342495E+03 -0.23009453216E+03  0.45161867146E+03  0.00000000000E+00 0.  1.
         13    1    5    5    0    0 -0.11471526866E+03 -0.18425814605E+02  0.12199762637E+03  0.16847113803E+03  0.00000000000E+00 0.  1.
        -13    1    5    5    0    0 -0.17482986308E+03 -0.15811011108E+02  0.51816207101E+02  0.18303111325E+03  0.00000000000E+00 0. -1.
          4    1    6    6  503    0  0.88583474682E+02  0.15395008270E+03 -0.35473764657E+02  0.18112439904E+03  0.00000000000E+00 0. -1.
         -4    1    6    6    0  503  0.14431216330E+03  0.57339576375E+03 -0.90935296017E+02  0.59822899497E+03  0.00000000000E+00 0.  1.
<mgrwt>
<rscale>  0 0.19362541E+04</rscale>
<asrwt>0</asrwt>
<pdfrwt beam="1">  1        2 0.18711070E+00 0.19362541E+04</pdfrwt>
<pdfrwt beam="2">  1       -1 0.11856032E+00 0.19362541E+04</pdfrwt>
<totfact> 0.12576912E+01</totfact>
</mgrwt>
</event>
<event>
12    7  0.1605494E-007  0.2942840E+04  0.7818608E-02  0.8260244E-01
         -1   -1    0    0    0  501 -0.00000000000E+00  0.00000000000E+00  0.13230054408E+04  0.13230054408E+04  0.00000000000E+00 0.  1.
          2   -1    0    0  501    0  0.00000000000E+00 -0.00000000000E+00 -0.16364841424E+04  0.16364841424E+04  0.00000000000E+00 0. -1.
         24    2    1    2    0    0 -0.21189461684E+03  0.74792624710E+03 -0.12321713924E+04  0.14586466187E+04  0.71488587555E+02 0.  0.
        254    2    1    2    0    0  0.21189461684E+03 -0.74792624710E+03  0.91869269079E+03  0.15008429646E+04  0.89679448280E+03 0.  0.
         23    2    4    4    0    0  0.54142147100E+03 -0.50590242885E+03  0.44880110402E+03  0.87140752414E+03  0.94096574731E+02 0.  0.
         23    2    4    4    0    0 -0.32952685416E+03 -0.24202381826E+03  0.46989158677E+03  0.62943544042E+03  0.90704983984E+02 0.  0.
          4    1    3    3  502    0 -0.17046944257E+03  0.49339332993E+03 -0.85439421266E+03  0.10012423680E+04  0.00000000000E+00 0. -1.
         -3    1    3    3    0  502 -0.41425174271E+02  0.25453291717E+03 -0.37777717972E+03  0.45740425064E+03  0.00000000000E+00 0.  1.
         13    1    5    5    0    0  0.10397937183E+03 -0.95793048495E+02  0.13115898527E+03  0.19284889764E+03  0.00000000000E+00 0.  1.
        -13    1    5    5    0    0  0.43744209917E+03 -0.41010938035E+03  0.31764211875E+03  0.67855862649E+03  0.00000000000E+00 0. -1.
          1    1    6    6  503    0 -0.23135343206E+03 -0.21763563958E+03  0.35807642727E+03  0.47865270281E+03  0.00000000000E+00 0. -1.
         -1    1    6    6    0  503 -0.98173422100E+02 -0.24388178675E+02  0.11181515950E+03  0.15078273761E+03  0.00000000000E+00 0.  1.
<mgrwt>
<rscale>  0 0.29428404E+04</rscale>
<asrwt>0</asrwt>
<pdfrwt beam="1">  1        2 0.25176679E+00 0.29428404E+04</pdfrwt>
<pdfrwt beam="2">  1       -1 0.20353930E+00 0.29428404E+04</pdfrwt>
<totfact> 0.14823657E+00</totfact>
</mgrwt>
</event>
<event>
12    7  0.1605494E-007  0.1429401E+04  0.7818608E-02  0.8932808E-01
          2   -1    0    0  501    0  0.00000000000E+00  0.00000000000E+00  0.18462898558E+04  0.18462898558E+04  0.00000000000E+00 0. -1.
         -1   -1    0    0    0  501 -0.00000000000E+00 -0.00000000000E+00 -0.27666110077E+03  0.27666110077E+03  0.00000000000E+00 0.  1.
         24    2    1    2    0    0  0.71000694176E+02  0.37693483778E+03  0.20506052659E+03  0.44210635641E+03  0.79292120100E+02 0.  0.
        254    2    1    2    0    0 -0.71000694176E+02 -0.37693483778E+03  0.13645682284E+04  0.16808446001E+04  0.90336656417E+03 0.  0.
         23    2    4    4    0    0 -0.45539943266E+03 -0.26452395597E+03  0.99248967348E+03  0.11271766109E+04  0.90165368278E+02 0.  0.
         23    2    4    4    0    0  0.38439873848E+03 -0.11241088181E+03  0.37207855495E+03  0.55366798924E+03  0.87790630262E+02 0.  0.
          2    1    3    3  502    0  0.50412314233E+02  0.30885766373E+03  0.13050032484E+03  0.33906458479E+03  0.00000000000E+00 0. -1.
         -1    1    3    3    0  502  0.20588379942E+02  0.68077174049E+02  0.74560201752E+02  0.10304177163E+03  0.00000000000E+00 0.  1.
         13    1    5    5    0    0 -0.10412687962E+03 -0.10452740460E+03  0.24788202933E+03  0.28846817127E+03  0.00000000000E+00 0. -1.
        -13    1    5    5    0    0 -0.35127255304E+03 -0.15999655137E+03  0.74460764415E+03  0.83870843963E+03  0.00000000000E+00 0.  1.
          2    1    6    6  503    0  0.32862750760E+02  0.14650131534E+02  0.27561090275E+02  0.45323288039E+02  0.00000000000E+00 0. -1.
         -2    1    6    6    0  503  0.35153598772E+03 -0.12706101334E+03  0.34451746468E+03  0.50834470121E+03  0.00000000000E+00 0.  1.
<mgrwt>
<rscale>  0 0.14294007E+04</rscale>
<asrwt>0</asrwt>
<pdfrwt beam="1">  1        2 0.28404459E+00 0.14294007E+04</pdfrwt>
<pdfrwt beam="2">  1       -1 0.42563247E-01 0.14294007E+04</pdfrwt>
<totfact> 0.48888469E+01</totfact>
</mgrwt>
</event>
<event>
12    7  0.1605494E-007  0.2138198E+04  0.7818608E-02  0.8544601E-01
         -1   -1    0    0    0  501 -0.00000000000E+00  0.00000000000E+00  0.49436543923E+03  0.49436543923E+03  0.00000000000E+00 0.  1.
          2   -1    0    0  501    0  0.00000000000E+00 -0.00000000000E+00 -0.23119986467E+04  0.23119986467E+04  0.00000000000E+00 0. -1.
         24    2    1    2    0    0 -0.70625717784E+03  0.52157623153E+03 -0.78928720476E+03  0.11832189644E+04  0.78688369178E+02 0.  0.
        254    2    1    2    0    0  0.70625717784E+03 -0.52157623153E+03 -0.10283460027E+04  0.16231451216E+04  0.89792183282E+03 0.  0.
         23    2    4    4    0    0  0.36766394899E+03 -0.28097353857E+03  0.40017049381E+02  0.47320499486E+03  0.90546640781E+02 0.  0.
         23    2    4    4    0    0  0.33859322885E+03 -0.24060269297E+03 -0.10683630521E+04  0.11499401267E+04  0.91802252014E+02 0.  0.
          4    1    3    3  502    0 -0.46788535219E+03  0.32800054640E+03 -0.46589463757E+03  0.73726445361E+03  0.00000000000E+00 0. -1.
         -3    1    3    3    0  502 -0.23837182565E+03  0.19357568514E+03 -0.32339256719E+03  0.44595451075E+03  0.00000000000E+00 0.  1.
         13    1    5    5    0    0  0.90866420086E+02 -0.36369064633E+02 -0.17311979776E+02  0.99393761400E+02  0.00000000000E+00 0. -1.
        -13    1    5    5    0    0  0.27679752891E+03 -0.24460447393E+03  0.57329029158E+02  0.37381123346E+03  0.00000000000E+00 0.  1.
          2    1    6    6  503    0  0.39763444846E+02 -0.71946203237E+02 -0.21385840743E+03  0.22911308591E+03  0.00000000000E+00 0. -1.
         -2    1    6    6    0  503  0.29882978401E+03 -0.16865648973E+03 -0.85450464467E+03  0.92082704081E+03  0.00000000000E+00 0.  1.
<mgrwt>
<rscale>  0 0.21381976E+04</rscale>
<asrwt>0</asrwt>
<pdfrwt beam="1">  1        2 0.35569210E+00 0.21381976E+04</pdfrwt>
<pdfrwt beam="2">  1       -1 0.76056222E-01 0.21381976E+04</pdfrwt>
<totfact> 0.81019211E+00</totfact>
</mgrwt>
</event>
<event>
12    7  0.1605494E-007  0.1369487E+04  0.7818608E-02  0.8976206E-01
         -1   -1    0    0    0  501 -0.00000000000E+00  0.00000000000E+00  0.75520788541E+03  0.75520788541E+03  0.00000000000E+00 0.  1.
          2   -1    0    0  501    0  0.00000000000E+00 -0.00000000000E+00 -0.62085369384E+03  0.62085369384E+03  0.00000000000E+00 0. -1.
         24    2    1    2    0    0 -0.14768919763E+03  0.35744251911E+03  0.11721481375E+03  0.41201699090E+03  0.80258548845E+02 0.  0.
        254    2    1    2    0    0  0.14768919763E+03 -0.35744251911E+03  0.17139377821E+02  0.96404458835E+03  0.88289917686E+03 0.  0.
         23    2    4    4    0    0  0.29223519047E+03 -0.12429718161E+03 -0.35957648201E+03  0.48850971964E+03  0.92169972668E+02 0.  0.
         23    2    4    4    0    0 -0.14454599284E+03 -0.23314533750E+03  0.37671585983E+03  0.47553486872E+03  0.94701002484E+02 0.  0.
          4    1    3    3  502    0 -0.28976367165E+02  0.59084005798E+02 -0.10124644332E+02  0.66581213702E+02  0.00000000000E+00 0. -1.
         -3    1    3    3    0  502 -0.11871283047E+03  0.29835851331E+03  0.12733945809E+03  0.34543577720E+03  0.00000000000E+00 0.  1.
         13    1    5    5    0    0  0.38197417552E+02 -0.30926459552E+02 -0.17189091694E+02  0.52066817469E+02  0.00000000000E+00 0. -1.
        -13    1    5    5    0    0  0.25403777292E+03 -0.93370722053E+02 -0.34238739032E+03  0.43644290217E+03  0.00000000000E+00 0.  1.
          1    1    6    6  503    0 -0.32074164395E+02 -0.28630828252E+02  0.15962227495E+02  0.45861411390E+02  0.00000000000E+00 0. -1.
         -1    1    6    6    0  503 -0.11247182844E+03 -0.20451450925E+03  0.36075363234E+03  0.42967345733E+03  0.00000000000E+00 0.  1.
<mgrwt>
<rscale>  0 0.13694869E+04</rscale>
<asrwt>0</asrwt>
<pdfrwt beam="1">  1        2 0.95515953E-01 0.13694869E+04</pdfrwt>
<pdfrwt beam="2">  1       -1 0.11618583E+00 0.13694869E+04</pdfrwt>
<totfact> 0.35524264E+01</totfact>
</mgrwt>
</event>
<event>
12    7  0.1605494E-007  0.1943457E+04  0.7818608E-02  0.8633522E-01
          2   -1    0    0  501    0  0.00000000000E+00  0.00000000000E+00  0.15186214759E+04  0.15186214759E+04  0.00000000000E+00 0. -1.
         -1   -1    0    0    0  501 -0.00000000000E+00 -0.00000000000E+00 -0.62178535454E+03  0.62178535454E+03  0.00000000000E+00 0.  1.
         24    2    1    2    0    0  0.41598962285E+02  0.91211308105E+02 -0.47593022455E+03  0.49294517316E+03  0.80220874521E+02 0.  0.
        254    2    1    2    0    0 -0.41598962285E+02 -0.91211308105E+02  0.13727663459E+04  0.16474616573E+04  0.90531347906E+03 0.  0.
         23    2    4    4    0    0 -0.39073532794E+03  0.15225240231E+03  0.94199848290E+03  0.10350792875E+04  0.90405193647E+02 0.  0.
         23    2    4    4    0    0  0.34913636565E+03 -0.24346371041E+03  0.43076786300E+03  0.61238236981E+03  0.90996895305E+02 0.  0.
          2    1    3    3  502    0 -0.17066717334E+02 -0.13868625297E+01 -0.41391811123E+02  0.44793730100E+02  0.00000000000E+00 0. -1.
         -1    1    3    3    0  502  0.58665679619E+02  0.92598170635E+02 -0.43453841343E+03  0.44815144306E+03  0.00000000000E+00 0.  1.
         13    1    5    5    0    0 -0.24042432508E+03  0.13120354179E+03  0.66557759872E+03  0.71973034213E+03  0.00000000000E+00 0. -1.
        -13    1    5    5    0    0 -0.15031100286E+03  0.21048860521E+02  0.27642088419E+03  0.31534894534E+03  0.00000000000E+00 0.  1.
          3    1    6    6  503    0  0.33999416120E+03 -0.22299725241E+03  0.37847691059E+03  0.55548949232E+03  0.00000000000E+00 0. -1.
         -3    1    6    6    0  503  0.91422044561E+01 -0.20466458010E+02  0.52290952403E+02  0.56892877489E+02  0.00000000000E+00 0.  1.
<mgrwt>
<rscale>  0 0.19434573E+04</rscale>
<asrwt>0</asrwt>
<pdfrwt beam="1">  1        2 0.23363407E+00 0.19434573E+04</pdfrwt>
<pdfrwt beam="2">  1       -1 0.95659286E-01 0.19434573E+04</pdfrwt>
<totfact> 0.13889751E+01</totfact>
</mgrwt>
</event>
<event>
12    7  0.2295563E-007  0.1768535E+04  0.7818608E-02  0.8723213E-01
          2   -1    0    0  501    0  0.00000000000E+00  0.00000000000E+00  0.84753521895E+03  0.84753521895E+03  0.00000000000E+00 0. -1.
         -1   -1    0    0    0  501 -0.00000000000E+00 -0.00000000000E+00 -0.92259222651E+03  0.92259222651E+03  0.00000000000E+00 0.  1.
         24    2    1    2    0    0 -0.22436128747E+03 -0.20452406294E+03 -0.60237435186E+03  0.68357856914E+03  0.11071007528E+03 0.  0.
        254    2    1    2    0    0  0.22436128747E+03  0.20452406294E+03  0.52731734430E+03  0.10865488763E+04  0.90019820006E+03 0.  0.
         23    2    4    4    0    0 -0.46714529644E+02 -0.30989971243E+03  0.33617500851E+03  0.46851118707E+03  0.90934135588E+02 0.  0.
         23    2    4    4    0    0  0.27107581711E+03  0.51442377537E+03  0.19114233579E+03  0.61803768925E+03  0.85564440761E+02 0.  0.
          4    1    3    3  502    0 -0.81105216879E+02 -0.32256477619E+02 -0.95409467318E+02  0.12931165070E+03  0.00000000000E+00 0. -1.
         -3    1    3    3    0  502 -0.14325607059E+03 -0.17226758532E+03 -0.50696488454E+03  0.55426691843E+03  0.00000000000E+00 0.  1.
         13    1    5    5    0    0 -0.20977036556E+02 -0.88895493772E+01  0.36189671183E+02  0.42763915293E+02  0.00000000000E+00 0. -1.
        -13    1    5    5    0    0 -0.25737493088E+02 -0.30101016305E+03  0.29998533733E+03  0.42574727177E+03  0.00000000000E+00 0.  1.
          1    1    6    6  503    0  0.59321646867E+02  0.69003599177E+02  0.58462902239E+01  0.91185161050E+02  0.00000000000E+00 0. -1.
         -1    1    6    6    0  503  0.21175417024E+03  0.44542017619E+03  0.18529604557E+03  0.52685252820E+03  0.00000000000E+00 0.  1.
<mgrwt>
<rscale>  0 0.17685354E+04</rscale>
<asrwt>0</asrwt>
<pdfrwt beam="1">  1        2 0.13039003E+00 0.17685354E+04</pdfrwt>
<pdfrwt beam="2">  1       -1 0.14193727E+00 0.17685354E+04</pdfrwt>
<totfact> 0.13917858E+01</totfact>
</mgrwt>
</event>
<event>
12    7  0.1605494E-007  0.2196990E+04  0.7818608E-02  0.8519682E-01
         -1   -1    0    0    0  501 -0.00000000000E+00  0.00000000000E+00  0.87463392881E+03  0.87463392881E+03  0.00000000000E+00 0.  1.
          2   -1    0    0  501    0  0.00000000000E+00 -0.00000000000E+00 -0.13796534350E+04  0.13796534350E+04  0.00000000000E+00 0. -1.
         24    2    1    2    0    0 -0.26964941622E+03  0.21999790344E+03  0.64743798895E+03  0.73943179496E+03  0.80458341264E+02 0.  0.
        254    2    1    2    0    0  0.26964941622E+03 -0.21999790344E+03 -0.11524574952E+04  0.15148555689E+04  0.91952119671E+03 0.  0.
         23    2    4    4    0    0 -0.70630795889E+02 -0.30463298015E+03 -0.17540979297E+02  0.32322849467E+03  0.79868716571E+02 0.  0.
         23    2    4    4    0    0  0.34028021211E+03  0.84635076706E+02 -0.11349165159E+04  0.11916270742E+04  0.94793813256E+02 0.  0.
          4    1    3    3  502    0 -0.15221863096E+03  0.11232439802E+03  0.43089250171E+03  0.47059072455E+03  0.00000000000E+00 0. -1.
         -3    1    3    3    0  502 -0.11743078526E+03  0.10767350543E+03  0.21654548724E+03  0.26884107041E+03  0.00000000000E+00 0.  1.
         13    1    5    5    0    0  0.14195229863E+01 -0.37025475979E+02  0.22294665314E+02  0.43242953396E+02  0.00000000000E+00 0. -1.
        -13    1    5    5    0    0 -0.72050318876E+02 -0.26760750417E+03 -0.39835644611E+02  0.27998554127E+03  0.00000000000E+00 0.  1.
          3    1    6    6  503    0  0.15079071903E+03  0.36374219917E+02 -0.66097774172E+03  0.67893482741E+03  0.00000000000E+00 0. -1.
         -3    1    6    6    0  503  0.18948949308E+03  0.48260856789E+02 -0.47393877415E+03  0.51269224680E+03  0.00000000000E+00 0.  1.
<mgrwt>
<rscale>  0 0.21969904E+04</rscale>
<asrwt>0</asrwt>
<pdfrwt beam="1">  1        2 0.21225437E+00 0.21969904E+04</pdfrwt>
<pdfrwt beam="2">  1       -1 0.13455907E+00 0.21969904E+04</pdfrwt>
<totfact> 0.71944695E+00</totfact>
</mgrwt>
</event>
<event>
12    7  0.1605494E-007  0.1061053E+04  0.7818608E-02  0.9244007E-01
          2   -1    0    0  501    0  0.00000000000E+00  0.00000000000E+00  0.12863467502E+04  0.12863467502E+04  0.00000000000E+00 0. -1.
         -1   -1    0    0    0  501 -0.00000000000E+00 -0.00000000000E+00 -0.21880433380E+03  0.21880433380E+03  0.00000000000E+00 0.  1.
         24    2    1    2    0    0  0.10246717862E+03  0.60504703450E+02  0.12597526192E+03  0.19083765664E+03  0.79930612035E+02 0.  0.
        254    2    1    2    0    0 -0.10246717862E+03 -0.60504703450E+02  0.94156715452E+03  0.13143134274E+04  0.90923634834E+03 0.  0.
         23    2    4    4    0    0  0.18805446017E+03  0.18475210949E+03  0.87437741041E+03  0.91793352277E+03  0.92564974075E+02 0.  0.
         23    2    4    4    0    0 -0.29052163879E+03 -0.24525681294E+03  0.67189744105E+02  0.39637990463E+03  0.89715328597E+02 0.  0.
          4    1    3    3  502    0  0.81269345001E+02  0.36278621531E+02  0.13088209579E+03  0.15827497533E+03  0.00000000000E+00 0. -1.
         -3    1    3    3    0  502  0.21197833621E+02  0.24226081919E+02 -0.49068338689E+01  0.32562681308E+02  0.00000000000E+00 0.  1.
         13    1    5    5    0    0  0.74630340839E+02  0.13740941006E+03  0.47578920678E+03  0.50082572122E+03  0.00000000000E+00 0.  1.
        -13    1    5    5    0    0  0.11342411933E+03  0.47342699430E+02  0.39858820364E+03  0.41710780155E+03  0.00000000000E+00 0. -1.
          3    1    6    6  503    0 -0.39646357615E+01  0.17073675975E+01 -0.94604425158E+01  0.10398721721E+02  0.00000000000E+00 0. -1.
         -3    1    6    6    0  503 -0.28655700303E+03 -0.24696418054E+03  0.76650186621E+02  0.38598118291E+03  0.00000000000E+00 0.  1.
<mgrwt>
<rscale>  0 0.10610528E+04</rscale>
<asrwt>0</asrwt>
<pdfrwt beam="1">  1        2 0.19789949E+00 0.10610528E+04</pdfrwt>
<pdfrwt beam="2">  1       -1 0.33662206E-01 0.10610528E+04</pdfrwt>
<totfact> 0.15870908E+02</totfact>
</mgrwt>
</event>
<event>
12    7  0.1605494E-007  0.1557649E+04  0.7818608E-02  0.8846997E-01
          2   -1    0    0  501    0  0.00000000000E+00  0.00000000000E+00  0.34001539438E+03  0.34001539438E+03  0.00000000000E+00 0. -1.
         -1   -1    0    0    0  501 -0.00000000000E+00 -0.00000000000E+00 -0.17839420539E+04  0.17839420539E+04  0.00000000000E+00 0.  1.
         24    2    1    2    0    0 -0.16792099495E+03  0.48072287848E+03 -0.35725993400E+03  0.62696720912E+03  0.78493785901E+02 0.  0.
        254    2    1    2    0    0  0.16792099495E+03 -0.48072287848E+03 -0.10866667256E+04  0.14969902392E+04  0.89489846205E+03 0.  0.
         23    2    4    4    0    0 -0.11307816967E+03 -0.64023229688E+03 -0.89610029832E+03  0.11108552116E+04  0.91211238910E+02 0.  0.
         23    2    4    4    0    0  0.28099916462E+03  0.15950941840E+03 -0.19056642724E+03  0.38613502758E+03  0.91547317055E+02 0.  0.
          4    1    3    3  502    0 -0.24841992257E+02  0.86725638174E+02 -0.29659423262E+02  0.94963899900E+02  0.00000000000E+00 0. -1.
         -3    1    3    3    0  502 -0.14307900269E+03  0.39399724031E+03 -0.32760051074E+03  0.53200330922E+03  0.00000000000E+00 0.  1.
         13    1    5    5    0    0 -0.93340892804E+02 -0.55765673377E+03 -0.72103555549E+03  0.91628916139E+03  0.00000000000E+00 0. -1.
        -13    1    5    5    0    0 -0.19737276870E+02 -0.82575563104E+02 -0.17506474283E+03  0.19456605023E+03  0.00000000000E+00 0.  1.
          2    1    6    6  503    0  0.28190297253E+03  0.14207777109E+03 -0.16798932055E+03  0.35759724660E+03  0.00000000000E+00 0. -1.
         -2    1    6    6    0  503 -0.90380791119E+00  0.17431647309E+02 -0.22577106692E+02  0.28537780980E+02  0.00000000000E+00 0.  1.
<mgrwt>
<rscale>  0 0.15576492E+04</rscale>
<asrwt>0</asrwt>
<pdfrwt beam="1">  1        2 0.52310061E-01 0.15576492E+04</pdfrwt>
<pdfrwt beam="2">  1       -1 0.27445262E+00 0.15576492E+04</pdfrwt>
<totfact> 0.50871712E+00</totfact>
</mgrwt>
</event>
<event>
12    7  0.1605494E-007  0.1173265E+04  0.7818608E-02  0.9136585E-01
          2   -1    0    0  501    0  0.00000000000E+00  0.00000000000E+00  0.14661027154E+04  0.14661027154E+04  0.00000000000E+00 0. -1.
         -1   -1    0    0    0  501 -0.00000000000E+00 -0.00000000000E+00 -0.23472952345E+03  0.23472952345E+03  0.00000000000E+00 0.  1.
         24    2    1    2    0    0  0.22603246971E+03 -0.48579185645E+01  0.18883371170E+03  0.30498472604E+03  0.79014148796E+02 0.  0.
        254    2    1    2    0    0 -0.22603246971E+03  0.48579185645E+01  0.10425394802E+04  0.13958475128E+04  0.90021521560E+03 0.  0.
         23    2    4    4    0    0  0.23998786230E+03  0.12268371436E+03  0.80171546626E+03  0.85081671933E+03  0.92173386808E+02 0.  0.
         23    2    4    4    0    0 -0.46602033200E+03 -0.11782579580E+03  0.24082401399E+03  0.54503079348E+03  0.89467827353E+02 0.  0.
          4    1    3    3  502    0  0.16007550072E+03  0.14959937670E+02  0.16913021156E+03  0.23335165336E+03  0.00000000000E+00 0. -1.
         -3    1    3    3    0  502  0.65956968990E+02 -0.19817856234E+02  0.19703500146E+02  0.71633072684E+02  0.00000000000E+00 0.  1.
         13    1    5    5    0    0  0.24693399461E+03  0.11941965016E+03  0.75100138772E+03  0.79952519341E+03  0.00000000000E+00 0.  1.
        -13    1    5    5    0    0 -0.69461323180E+01  0.32640642042E+01  0.50714078533E+02  0.51291525916E+02  0.00000000000E+00 0. -1.
          2    1    6    6  503    0 -0.41753142944E+02 -0.21621101108E+02 -0.15249485812E+01  0.47043835165E+02  0.00000000000E+00 0. -1.
         -2    1    6    6    0  503 -0.42426718906E+03 -0.96204694689E+02  0.24234896257E+03  0.49798695831E+03  0.00000000000E+00 0.  1.
<mgrwt>
<rscale>  0 0.11732648E+04</rscale>
<asrwt>0</asrwt>
<pdfrwt beam="1">  1        2 0.22555426E+00 0.11732648E+04</pdfrwt>
<pdfrwt beam="2">  1       -1 0.36112235E-01 0.11732648E+04</pdfrwt>
<totfact> 0.10954286E+02</totfact>
</mgrwt>
</event>
<event>
12    7  0.1605494E-007  0.2272415E+04  0.7818608E-02  0.8488877E-01
         -1   -1    0    0    0  501 -0.00000000000E+00  0.00000000000E+00  0.94093608848E+03  0.94093608848E+03  0.00000000000E+00 0.  1.
          2   -1    0    0  501    0  0.00000000000E+00 -0.00000000000E+00 -0.13720035728E+04  0.13720035728E+04  0.00000000000E+00 0. -1.
         24    2    1    2    0    0 -0.56568726078E+03  0.25455370873E+03  0.55684980644E+03  0.83722892340E+03  0.77915952274E+02 0.  0.
        254    2    1    2    0    0  0.56568726078E+03 -0.25455370873E+03 -0.98791729072E+03  0.14757107378E+04  0.90384840590E+03 0.  0.
         23    2    4    4    0    0 -0.69271514423E+02  0.12164336961E+03  0.70711589805E+02  0.18164133069E+03  0.91639467499E+02 0.  0.
         23    2    4    4    0    0  0.63495877520E+03 -0.37619707834E+03 -0.10586288805E+04  0.12940694072E+04  0.96039762026E+02 0.  0.
          2    1    3    3  502    0 -0.13969099376E+03  0.33271126731E+02  0.15385647253E+03  0.21045749156E+03  0.00000000000E+00 0. -1.
         -1    1    3    3    0  502 -0.42599626701E+03  0.22128258200E+03  0.40299333391E+03  0.62677143185E+03  0.00000000000E+00 0.  1.
         13    1    5    5    0    0  0.10275952134E+02  0.48284568228E+02 -0.49351615839E+01  0.49611999971E+02  0.00000000000E+00 0. -1.
        -13    1    5    5    0    0 -0.79547466557E+02  0.73358801379E+02  0.75646751389E+02  0.13202933072E+03  0.00000000000E+00 0.  1.
          3    1    6    6  503    0  0.38953946981E+03 -0.25999850018E+03 -0.73607482447E+03  0.87243702687E+03  0.00000000000E+00 0. -1.
         -3    1    6    6    0  503  0.24541930539E+03 -0.11619857816E+03 -0.32255405606E+03  0.42163238028E+03  0.00000000000E+00 0.  1.
<mgrwt>
<rscale>  0 0.22724152E+04</rscale>
<asrwt>0</asrwt>
<pdfrwt beam="1">  1        2 0.21107747E+00 0.22724152E+04</pdfrwt>
<pdfrwt beam="2">  1       -1 0.14475940E+00 0.22724152E+04</pdfrwt>
<totfact> 0.59672460E+00</totfact>
</mgrwt>
</event>
<event>
12    7  0.1605494E-007  0.1737547E+04  0.7818608E-02  0.8740235E-01
          2   -1    0    0  501    0  0.00000000000E+00  0.00000000000E+00  0.11359596469E+04  0.11359596469E+04  0.00000000000E+00 0. -1.
         -1   -1    0    0    0  501 -0.00000000000E+00 -0.00000000000E+00 -0.66443159882E+03  0.66443159882E+03  0.00000000000E+00 0.  1.
         24    2    1    2    0    0  0.55963913253E+03 -0.26505983755E+03  0.38243069832E+02  0.62548881315E+03  0.79505011421E+02 0.  0.
        254    2    1    2    0    0 -0.55963913253E+03  0.26505983755E+03  0.43328497823E+03  0.11749024325E+04  0.89955943521E+03 0.  0.
         23    2    4    4    0    0 -0.18117157617E+03  0.52088648664E+03  0.32349307960E+02  0.56009578148E+03  0.92276403962E+02 0.  0.
         23    2    4    4    0    0 -0.37846755636E+03 -0.25582664909E+03  0.40093567027E+03  0.61480665106E+03  0.92481570542E+02 0.  0.
          4    1    3    3  502    0  0.41605337629E+03 -0.21498292754E+03  0.58981200079E+02  0.47201361529E+03  0.00000000000E+00 0. -1.
         -3    1    3    3    0  502  0.14358575624E+03 -0.50076910010E+02 -0.20738130248E+02  0.15347519786E+03  0.00000000000E+00 0.  1.
         13    1    5    5    0    0 -0.16066639861E+03  0.50720703170E+03  0.19747859192E+02  0.53241209847E+03  0.00000000000E+00 0.  1.
        -13    1    5    5    0    0 -0.20505177557E+02  0.13679454939E+02  0.12601448768E+02  0.27683683013E+02  0.00000000000E+00 0. -1.
          1    1    6    6  503    0 -0.20673898164E+02 -0.28847705575E+01 -0.13033682830E-01  0.20874197861E+02  0.00000000000E+00 0. -1.
         -1    1    6    6    0  503 -0.35779365820E+03 -0.25294187853E+03  0.40094870395E+03  0.59393245320E+03  0.00000000000E+00 0.  1.
<mgrwt>
<rscale>  0 0.17375471E+04</rscale>
<asrwt>0</asrwt>
<pdfrwt beam="1">  1        2 0.17476302E+00 0.17375471E+04</pdfrwt>
<pdfrwt beam="2">  1       -1 0.10222025E+00 0.17375471E+04</pdfrwt>
<totfact> 0.20303452E+01</totfact>
</mgrwt>
</event>
<event>
12    7  0.1605494E-007  0.1244863E+04  0.7818608E-02  0.9074470E-01
          2   -1    0    0  501    0  0.00000000000E+00  0.00000000000E+00  0.64677858315E+03  0.64677858315E+03  0.00000000000E+00 0. -1.
         -1   -1    0    0    0  501 -0.00000000000E+00 -0.00000000000E+00 -0.59900066391E+03  0.59900066391E+03  0.00000000000E+00 0.  1.
         24    2    1    2    0    0  0.12944028713E+03  0.19933169684E+03  0.19645075716E+03  0.31821737249E+03  0.78622406898E+02 0.  0.
        254    2    1    2    0    0 -0.12944028713E+03 -0.19933169684E+03 -0.14867283792E+03  0.92756187456E+03  0.88418295907E+03 0.  0.
         23    2    4    4    0    0 -0.36411531654E+03  0.15758659325E+03 -0.25190577729E+03  0.47878538350E+03  0.91462695738E+02 0.  0.
         23    2    4    4    0    0  0.23467502941E+03 -0.35691829009E+03  0.10323293937E+03  0.44877649106E+03  0.90995955561E+02 0.  0.
          2    1    3    3  502    0  0.12657368036E+03  0.20227630214E+03  0.20106989071E+03  0.31203477357E+03  0.00000000000E+00 0. -1.
         -1    1    3    3    0  502  0.28666067658E+01 -0.29446052938E+01 -0.46191335469E+01  0.61825989204E+01  0.00000000000E+00 0.  1.
         13    1    5    5    0    0 -0.29300138823E+03  0.10110934763E+03 -0.22828746243E+03  0.38495204790E+03  0.00000000000E+00 0. -1.
        -13    1    5    5    0    0 -0.71113928315E+02  0.56477245623E+02 -0.23618314863E+02  0.93833335604E+02  0.00000000000E+00 0.  1.
          2    1    6    6  503    0  0.23277080735E+03 -0.35875452745E+03  0.10994691440E+03  0.44156016997E+03  0.00000000000E+00 0. -1.
         -2    1    6    6    0  503  0.19042220645E+01  0.18362373618E+01 -0.67139750320E+01  0.72163210884E+01  0.00000000000E+00 0.  1.
<mgrwt>
<rscale>  0 0.12448627E+04</rscale>
<asrwt>0</asrwt>
<pdfrwt beam="1">  1        2 0.99504398E-01 0.12448627E+04</pdfrwt>
<pdfrwt beam="2">  1       -1 0.92153948E-01 0.12448627E+04</pdfrwt>
<totfact> 0.58318477E+01</totfact>
</mgrwt>
</event>
<event>
12    7  0.1605494E-007  0.2223487E+04  0.7818608E-02  0.8508716E-01
          2   -1    0    0  501    0  0.00000000000E+00  0.00000000000E+00  0.98658161238E+03  0.98658161238E+03  0.00000000000E+00 0. -1.
         -1   -1    0    0    0  501 -0.00000000000E+00 -0.00000000000E+00 -0.12527834646E+04  0.12527834646E+04  0.00000000000E+00 0.  1.
         24    2    1    2    0    0 -0.41427586685E+03  0.79031138954E+03  0.15498713955E+03  0.90913918381E+03  0.79350209968E+02 0.  0.
        254    2    1    2    0    0  0.41427586685E+03 -0.79031138954E+03 -0.42118899181E+03  0.13302258932E+04  0.89212340730E+03 0.  0.
         23    2    4    4    0    0  0.23815566815E+03 -0.88525333065E+03 -0.55257633446E+03  0.10742474770E+04  0.90969526212E+02 0.  0.
         23    2    4    4    0    0  0.17612019870E+03  0.94941941108E+02  0.13138734265E+03  0.25597841623E+03  0.90719453234E+02 0.  0.
          4    1    3    3  502    0 -0.37028616078E+03  0.64347077998E+03  0.12246080180E+03  0.75243812605E+03  0.00000000000E+00 0. -1.
         -3    1    3    3    0  502 -0.43989706064E+02  0.14684060956E+03  0.32526337745E+02  0.15670105775E+03  0.00000000000E+00 0.  1.
         13    1    5    5    0    0  0.15202503324E+03 -0.42423402707E+03 -0.30227829945E+03  0.54264011165E+03  0.00000000000E+00 0.  1.
        -13    1    5    5    0    0  0.86130634910E+02 -0.46101930358E+03 -0.25029803501E+03  0.53160736533E+03  0.00000000000E+00 0. -1.
          4    1    6    6  503    0  0.18638679387E+03  0.93609202229E+02  0.12935199517E+03  0.24542750116E+03  0.00000000000E+00 0. -1.
         -4    1    6    6    0  503 -0.10266595173E+02  0.13327388790E+01  0.20353474763E+01  0.10550915065E+02  0.00000000000E+00 0.  1.
<mgrwt>
<rscale>  0 0.22234866E+04</rscale>
<asrwt>0</asrwt>
<pdfrwt beam="1">  1        2 0.15178179E+00 0.22234866E+04</pdfrwt>
<pdfrwt beam="2">  1       -1 0.19273592E+00 0.22234866E+04</pdfrwt>
<totfact> 0.45197444E+00</totfact>
</mgrwt>
</event>
<event>
12    7  0.1605494E-007  0.1276879E+04  0.7818608E-02  0.9048104E-01
          2   -1    0    0  501    0  0.00000000000E+00  0.00000000000E+00  0.36508969361E+03  0.36508969361E+03  0.00000000000E+00 0. -1.
         -1   -1    0    0    0  501 -0.00000000000E+00 -0.00000000000E+00 -0.11164510255E+04  0.11164510255E+04  0.00000000000E+00 0.  1.
         24    2    1    2    0    0  0.28564665791E+02  0.79447443684E+01 -0.51946292772E+03  0.52618665180E+03  0.78432137332E+02 0.  0.
        254    2    1    2    0    0 -0.28564665791E+02 -0.79447443684E+01 -0.23189840419E+03  0.95535406733E+03  0.92630743546E+03 0.  0.
         23    2    4    4    0    0 -0.33179105757E+03 -0.28878220020E+03 -0.28353612622E+03  0.53143218762E+03  0.92449824929E+02 0.  0.
         23    2    4    4    0    0  0.30322639178E+03  0.28083745584E+03  0.51637722035E+02  0.42392187970E+03  0.78913778764E+02 0.  0.
          2    1    3    3  502    0  0.12872564796E+01 -0.18898371371E+02 -0.31725821328E+02  0.36950415541E+02  0.00000000000E+00 0. -1.
         -1    1    3    3    0  502  0.27277409311E+02  0.26843115739E+02 -0.48773710639E+03  0.48923623626E+03  0.00000000000E+00 0.  1.
         13    1    5    5    0    0 -0.10510979207E+03 -0.10545269734E+03 -0.47380342208E+02  0.15624735708E+03  0.00000000000E+00 0. -1.
        -13    1    5    5    0    0 -0.22668126550E+03 -0.18332950286E+03 -0.23615578401E+03  0.37518483055E+03  0.00000000000E+00 0.  1.
          4    1    6    6  503    0  0.86612619503E+02  0.57024980078E+02 -0.16720337006E+02  0.10503886842E+03  0.00000000000E+00 0. -1.
         -4    1    6    6    0  503  0.21661377228E+03  0.22381247576E+03  0.68358059040E+02  0.31888301128E+03  0.00000000000E+00 0.  1.
<mgrwt>
<rscale>  0 0.12768786E+04</rscale>
<asrwt>0</asrwt>
<pdfrwt beam="1">  1        2 0.56167645E-01 0.12768786E+04</pdfrwt>
<pdfrwt beam="2">  1       -1 0.17176170E+00 0.12768786E+04</pdfrwt>
<totfact> 0.23656614E+01</totfact>
</mgrwt>
</event>
<event>
12    7  0.1605494E-007  0.3573255E+04  0.7818608E-02  0.8096646E-01
         -1   -1    0    0    0  501 -0.00000000000E+00  0.00000000000E+00  0.17678822743E+04  0.17678822743E+04  0.00000000000E+00 0.  1.
          2   -1    0    0  501    0  0.00000000000E+00 -0.00000000000E+00 -0.18055714451E+04  0.18055714451E+04  0.00000000000E+00 0. -1.
         24    2    1    2    0    0 -0.85358534713E+03  0.12697314629E+04 -0.69381561909E+03  0.16819122582E+04  0.81380576917E+02 0.  0.
        254    2    1    2    0    0  0.85358534713E+03 -0.12697314629E+04  0.65612644828E+03  0.18915414611E+04  0.89810982078E+03 0.  0.
         23    2    4    4    0    0  0.84436517635E+03 -0.54899564411E+03  0.56908626663E+03  0.11602928335E+04  0.89841595670E+02 0.  0.
         23    2    4    4    0    0  0.92201707837E+01 -0.72073581881E+03  0.87040181655E+02  0.73124862761E+03  0.87197649635E+02 0.  0.
          2    1    3    3  502    0 -0.56940712460E+03  0.81882700279E+03 -0.49083496885E+03  0.11115849498E+04  0.00000000000E+00 0. -1.
         -1    1    3    3    0  502 -0.28417822253E+03  0.45090446012E+03 -0.20298065024E+03  0.57032730839E+03  0.00000000000E+00 0.  1.
         13    1    5    5    0    0  0.54483653942E+03 -0.30993233316E+03  0.32685178534E+03  0.70692078439E+03  0.00000000000E+00 0.  1.
        -13    1    5    5    0    0  0.29952863693E+03 -0.23906331096E+03  0.24223448129E+03  0.45337204911E+03  0.00000000000E+00 0. -1.
          1    1    6    6  503    0  0.18822131708E+02 -0.42999205923E+03  0.10877175551E+02  0.43054123680E+03  0.00000000000E+00 0. -1.
         -1    1    6    6    0  503 -0.96019609240E+01 -0.29074375958E+03  0.76163006104E+02  0.30070739081E+03  0.00000000000E+00 0.  1.
<mgrwt>
<rscale>  0 0.35732550E+04</rscale>
<asrwt>0</asrwt>
<pdfrwt beam="1">  1        2 0.27778022E+00 0.35732550E+04</pdfrwt>
<pdfrwt beam="2">  1       -1 0.27198189E+00 0.35732550E+04</pdfrwt>
<totfact> 0.39944626E-01</totfact>
</mgrwt>
</event>
<event>
12    7  0.1605494E-007  0.1829800E+04  0.7818608E-02  0.8690611E-01
          2   -1    0    0  501    0  0.00000000000E+00  0.00000000000E+00  0.11162266132E+04  0.11162266132E+04  0.00000000000E+00 0. -1.
         -1   -1    0    0    0  501 -0.00000000000E+00 -0.00000000000E+00 -0.74988515958E+03  0.74988515958E+03  0.00000000000E+00 0.  1.
         24    2    1    2    0    0  0.31588660639E+03  0.39018694173E+03 -0.29847243709E+03  0.58959267711E+03  0.80644476595E+02 0.  0.
        254    2    1    2    0    0 -0.31588660639E+03 -0.39018694173E+03  0.66481389075E+03  0.12765190957E+04  0.96720902331E+03 0.  0.
         23    2    4    4    0    0  0.33273331283E+03 -0.12051448225E+03  0.32986311295E+03  0.49266210939E+03  0.93118649272E+02 0.  0.
         23    2    4    4    0    0 -0.64861991922E+03 -0.26967245948E+03  0.33495077780E+03  0.78385698632E+03  0.93854762453E+02 0.  0.
          4    1    3    3  502    0  0.15336228226E+03  0.23357691184E+03 -0.19842906889E+03  0.34271308517E+03  0.00000000000E+00 0. -1.
         -3    1    3    3    0  502  0.16252432414E+03  0.15661002990E+03 -0.10004336820E+03  0.24687959195E+03  0.00000000000E+00 0.  1.
         13    1    5    5    0    0  0.51217991651E+02 -0.39399361889E+02  0.10522982115E+03  0.12348646746E+03  0.00000000000E+00 0. -1.
        -13    1    5    5    0    0  0.28151532118E+03 -0.81115120362E+02  0.22463329181E+03  0.36917564193E+03  0.00000000000E+00 0.  1.
          1    1    6    6  503    0 -0.13071333950E+03 -0.21214556083E+02  0.41204546167E+02  0.13868615338E+03  0.00000000000E+00 0. -1.
         -1    1    6    6    0  503 -0.51790657972E+03 -0.24845790340E+03  0.29374623163E+03  0.64517083294E+03  0.00000000000E+00 0.  1.
<mgrwt>
<rscale>  0 0.18297997E+04</rscale>
<asrwt>0</asrwt>
<pdfrwt beam="1">  1        2 0.17172717E+00 0.18297997E+04</pdfrwt>
<pdfrwt beam="2">  1       -1 0.11536695E+00 0.18297997E+04</pdfrwt>
<totfact> 0.15579342E+01</totfact>
</mgrwt>
</event>
<event>
12    7  0.1605494E-007  0.1758933E+04  0.7818608E-02  0.8728448E-01
         -1   -1    0    0    0  501 -0.00000000000E+00  0.00000000000E+00  0.57974331827E+03  0.57974331827E+03  0.00000000000E+00 0.  1.
          2   -1    0    0  501    0  0.00000000000E+00 -0.00000000000E+00 -0.13341450792E+04  0.13341450792E+04  0.00000000000E+00 0. -1.
         24    2    1    2    0    0  0.46237411667E+02 -0.33194145251E+02 -0.97839473286E+03  0.98344542655E+03  0.81663359038E+02 0.  0.
        254    2    1    2    0    0 -0.46237411667E+02  0.33194145251E+02  0.22399297190E+03  0.93044297093E+03  0.90128326356E+03 0.  0.
         23    2    4    4    0    0 -0.24124137376E+03  0.39273470127E+03  0.19936082876E+03  0.51037136283E+03  0.91083708499E+02 0.  0.
         23    2    4    4    0    0  0.19500396209E+03 -0.35954055602E+03  0.24632143137E+02  0.42007160810E+03  0.92506523029E+02 0.  0.
          4    1    3    3  502    0  0.63297943044E+02 -0.45695869901E+02 -0.73556013925E+03  0.73969146309E+03  0.00000000000E+00 0. -1.
         -3    1    3    3    0  502 -0.17060531377E+02  0.12501724651E+02 -0.24283459361E+03  0.24375396346E+03  0.00000000000E+00 0.  1.
         13    1    5    5    0    0 -0.20067515149E+03  0.37192324087E+03  0.16674963980E+03  0.45431581075E+03  0.00000000000E+00 0.  1.
        -13    1    5    5    0    0 -0.40566222265E+02  0.20811460402E+02  0.32611188963E+02  0.56055552076E+02  0.00000000000E+00 0. -1.
          3    1    6    6  503    0  0.63442662547E+02 -0.80175240385E+02 -0.29850548870E+02  0.10650866570E+03  0.00000000000E+00 0. -1.
         -3    1    6    6    0  503  0.13156129954E+03 -0.27936531564E+03  0.54482692007E+02  0.31356294240E+03  0.00000000000E+00 0.  1.
<mgrwt>
<rscale>  0 0.17589334E+04</rscale>
<asrwt>0</asrwt>
<pdfrwt beam="1">  1        2 0.20525309E+00 0.17589334E+04</pdfrwt>
<pdfrwt beam="2">  1       -1 0.89191281E-01 0.17589334E+04</pdfrwt>
<totfact> 0.21011103E+01</totfact>
</mgrwt>
</event>
<event>
12    7  0.1605494E-007  0.2146607E+04  0.7818608E-02  0.8540986E-01
          2   -1    0    0  501    0  0.00000000000E+00  0.00000000000E+00  0.22634223776E+04  0.22634223776E+04  0.00000000000E+00 0. -1.
         -1   -1    0    0    0  501 -0.00000000000E+00 -0.00000000000E+00 -0.50895520654E+03  0.50895520654E+03  0.00000000000E+00 0.  1.
         24    2    1    2    0    0 -0.60220091255E+03  0.28686135708E+03 -0.24136270356E+02  0.67216300521E+03  0.79279056288E+02 0.  0.
        254    2    1    2    0    0  0.60220091255E+03 -0.28686135708E+03  0.17786034414E+04  0.21002145789E+04  0.89584356808E+03 0.  0.
         23    2    4    4    0    0  0.28986367052E+03  0.29876734814E+03  0.89336376323E+03  0.98999090116E+03  0.93275372493E+02 0.  0.
         23    2    4    4    0    0  0.31233724203E+03 -0.58562870523E+03  0.88523967820E+03  0.11102236778E+04  0.91824798976E+02 0.  0.
          2    1    3    3  502    0 -0.24657860941E+03  0.93738412818E+02 -0.41870005859E+02  0.26709735687E+03  0.00000000000E+00 0. -1.
         -1    1    3    3    0  502 -0.35562230314E+03  0.19312294427E+03  0.17733735503E+02  0.40506564834E+03  0.00000000000E+00 0.  1.
         13    1    5    5    0    0  0.16430554246E+03  0.20810481070E+03  0.47673497412E+03  0.54550908248E+03  0.00000000000E+00 0.  1.
        -13    1    5    5    0    0  0.12555812806E+03  0.90662537447E+02  0.41662878911E+03  0.44448181868E+03  0.00000000000E+00 0. -1.
          3    1    6    6  503    0 -0.37176396753E+01 -0.15945858062E+02  0.38692248106E+02  0.42014060712E+02  0.00000000000E+00 0. -1.
         -3    1    6    6    0  503  0.31605488170E+03 -0.56968284717E+03  0.84654743009E+03  0.10682096171E+04  0.00000000000E+00 0.  1.
<mgrwt>
<rscale>  0 0.21466072E+04</rscale>
<asrwt>0</asrwt>
<pdfrwt beam="1">  1        2 0.34821882E+00 0.21466072E+04</pdfrwt>
<pdfrwt beam="2">  1       -1 0.78300802E-01 0.21466072E+04</pdfrwt>
<totfact> 0.81124198E+00</totfact>
</mgrwt>
</event>
<event>
12    7  0.1674792E-007  0.1771728E+04  0.7818608E-02  0.8721480E-01
          2   -1    0    0  501    0  0.00000000000E+00  0.00000000000E+00  0.11091969586E+04  0.11091969586E+04  0.00000000000E+00 0. -1.
         -1   -1    0    0    0  501 -0.00000000000E+00 -0.00000000000E+00 -0.70749849030E+03  0.70749849030E+03  0.00000000000E+00 0.  1.
         24    2    1    2    0    0  0.51010803647E+03  0.46402907903E+01 -0.26944307837E+03  0.58227547403E+03  0.78825211763E+02 0.  0.
        254    2    1    2    0    0 -0.51010803647E+03 -0.46402907903E+01  0.67114154671E+03  0.12344199749E+04  0.90173718876E+03 0.  0.
         23    2    4    4    0    0  0.23534316043E+03 -0.44065813174E+02  0.30456846405E+03  0.39777137672E+03  0.90177157819E+02 0.  0.
         23    2    4    4    0    0 -0.74545119689E+03  0.39425522384E+02  0.36657308265E+03  0.83664859820E+03  0.91395804987E+02 0.  0.
          2    1    3    3  502    0  0.58865287593E+02  0.25969115656E+02 -0.37370995513E+02  0.74405029111E+02  0.00000000000E+00 0. -1.
         -1    1    3    3    0  502  0.45124274887E+03 -0.21328824866E+02 -0.23207208285E+03  0.50787044492E+03  0.00000000000E+00 0.  1.
         13    1    5    5    0    0  0.21623886626E+02 -0.23749031493E+02  0.10732397830E+02  0.33864337184E+02  0.00000000000E+00 0. -1.
        -13    1    5    5    0    0  0.21371927380E+03 -0.20316781681E+02  0.29383606622E+03  0.36390703954E+03  0.00000000000E+00 0.  1.
          1    1    6    6  503    0 -0.25125882534E+02 -0.15248133497E+02  0.10028860092E+02  0.31054686973E+02  0.00000000000E+00 0. -1.
         -1    1    6    6    0  503 -0.72032531436E+03  0.54673655881E+02  0.35654422256E+03  0.80559391122E+03  0.00000000000E+00 0.  1.
<mgrwt>
<rscale>  0 0.17717282E+04</rscale>
<asrwt>0</asrwt>
<pdfrwt beam="1">  1        2 0.17064569E+00 0.17717282E+04</pdfrwt>
<pdfrwt beam="2">  1       -1 0.10884592E+00 0.17717282E+04</pdfrwt>
<totfact> 0.18159771E+01</totfact>
</mgrwt>
</event>
<event>
12    7  0.1605494E-007  0.1299551E+04  0.7818608E-02  0.9029921E-01
          2   -1    0    0  501    0  0.00000000000E+00  0.00000000000E+00  0.10605544278E+04  0.10605544278E+04  0.00000000000E+00 0. -1.
         -1   -1    0    0    0  501 -0.00000000000E+00 -0.00000000000E+00 -0.39810147974E+03  0.39810147974E+03  0.00000000000E+00 0.  1.
         24    2    1    2    0    0 -0.53756277279E+02  0.11914400680E+03  0.50032278226E+03  0.52259612124E+03  0.75490315836E+02 0.  0.
        254    2    1    2    0    0  0.53756277279E+02 -0.11914400680E+03  0.16213016578E+03  0.93605978628E+03  0.91259887198E+03 0.  0.
         23    2    4    4    0    0 -0.11994851021E+03  0.54940672502E+02  0.49030820264E+03  0.51589085470E+03  0.91296866228E+02 0.  0.
         23    2    4    4    0    0  0.17370478749E+03 -0.17408467930E+03 -0.32817803687E+03  0.42016893158E+03  0.91445494271E+02 0.  0.
          2    1    3    3  502    0 -0.36916245555E+02  0.10965107794E+03  0.48291712891E+03  0.49658344865E+03  0.00000000000E+00 0. -1.
         -1    1    3    3    0  502 -0.16840031724E+02  0.94929288636E+01  0.17405653354E+02  0.26012672595E+02  0.00000000000E+00 0.  1.
         13    1    5    5    0    0 -0.66930218035E+02  0.74539441189E+01  0.37021556117E+03  0.37629081453E+03  0.00000000000E+00 0. -1.
        -13    1    5    5    0    0 -0.53018292171E+02  0.47486728383E+02  0.12009264147E+03  0.13960004016E+03  0.00000000000E+00 0.  1.
          3    1    6    6  503    0  0.18107948521E+03 -0.17531432546E+03 -0.30417396905E+03  0.39502746250E+03  0.00000000000E+00 0. -1.
         -3    1    6    6    0  503 -0.73746977270E+01  0.12296461577E+01 -0.24004067814E+02  0.25141469087E+02  0.00000000000E+00 0.  1.
<mgrwt>
<rscale>  0 0.12995511E+04</rscale>
<asrwt>0</asrwt>
<pdfrwt beam="1">  1        2 0.16316222E+00 0.12995511E+04</pdfrwt>
<pdfrwt beam="2">  1       -1 0.61246382E-01 0.12995511E+04</pdfrwt>
<totfact> 0.69688228E+01</totfact>
</mgrwt>
</event>
<event>
12    7  0.1605494E-007  0.1903017E+04  0.7818608E-02  0.8653356E-01
          2   -1    0    0  501    0  0.00000000000E+00  0.00000000000E+00  0.17680194163E+04  0.17680194163E+04  0.00000000000E+00 0. -1.
         -1   -1    0    0    0  501 -0.00000000000E+00 -0.00000000000E+00 -0.51208075308E+03  0.51208075308E+03  0.00000000000E+00 0.  1.
         24    2    1    2    0    0  0.30925289036E+03  0.18647605764E+03 -0.27807675959E+03  0.46273586482E+03  0.79919497567E+02 0.  0.
        254    2    1    2    0    0 -0.30925289036E+03 -0.18647605764E+03  0.15340154228E+04  0.18173643045E+04  0.90509614282E+03 0.  0.
         23    2    4    4    0    0  0.15948179952E+03 -0.40675548030E+03  0.74220358615E+03  0.86694345523E+03  0.99198418069E+02 0.  0.
         23    2    4    4    0    0 -0.46873468989E+03  0.22027942266E+03  0.79181183663E+03  0.95042084929E+03  0.89992069564E+02 0.  0.
          4    1    3    3  502    0  0.11851342571E+03  0.79524898500E+02 -0.62980322335E+02  0.15600052101E+03  0.00000000000E+00 0. -1.
         -3    1    3    3    0  502  0.19073946466E+03  0.10695115914E+03 -0.21509643726E+03  0.30673534381E+03  0.00000000000E+00 0.  1.
         13    1    5    5    0    0  0.16960851224E+02 -0.13183596168E+03  0.28833295668E+03  0.31749690577E+03  0.00000000000E+00 0. -1.
        -13    1    5    5    0    0  0.14252094830E+03 -0.27491951862E+03  0.45387062947E+03  0.54944654946E+03  0.00000000000E+00 0.  1.
          4    1    6    6  503    0 -0.11507699947E+03  0.62517799298E+02  0.13596457864E+03  0.18877912406E+03  0.00000000000E+00 0. -1.
         -4    1    6    6    0  503 -0.35365769042E+03  0.15776162336E+03  0.65584725799E+03  0.76164172523E+03  0.00000000000E+00 0.  1.
<mgrwt>
<rscale>  0 0.19030173E+04</rscale>
<asrwt>0</asrwt>
<pdfrwt beam="1">  1        2 0.27200299E+00 0.19030173E+04</pdfrwt>
<pdfrwt beam="2">  1       -1 0.78781655E-01 0.19030173E+04</pdfrwt>
<totfact> 0.15448890E+01</totfact>
</mgrwt>
</event>
<event>
12    7  0.1605494E-007  0.1214721E+04  0.7818608E-02  0.9100068E-01
         -1   -1    0    0    0  501 -0.00000000000E+00  0.00000000000E+00  0.49645400648E+03  0.49645400648E+03  0.00000000000E+00 0.  1.
          2   -1    0    0  501    0  0.00000000000E+00 -0.00000000000E+00 -0.74304292542E+03  0.74304292542E+03  0.00000000000E+00 0. -1.
         24    2    1    2    0    0 -0.93506250863E+02 -0.15287881977E+03  0.14110843044E+03  0.24165841403E+03  0.79823852617E+02 0.  0.
        254    2    1    2    0    0  0.93506250863E+02  0.15287881977E+03 -0.38769734938E+03  0.99783851787E+03  0.90180769599E+03 0.  0.
         23    2    4    4    0    0  0.12017497899E+03 -0.35646738242E+03 -0.25113431953E+03  0.46194066362E+03  0.93860055170E+02 0.  0.
         23    2    4    4    0    0 -0.26668728132E+02  0.50934620219E+03 -0.13656302985E+03  0.53589785424E+03  0.91609357141E+02 0.  0.
          2    1    3    3  502    0  0.40942320456E+01 -0.39669084662E+02  0.63016501682E+01  0.40374618374E+02  0.00000000000E+00 0. -1.
         -1    1    3    3    0  502 -0.97600482908E+02 -0.11320973510E+03  0.13480678028E+03  0.20128379566E+03  0.00000000000E+00 0.  1.
         13    1    5    5    0    0  0.57103171858E+02 -0.58708718550E+02 -0.37455665716E+02  0.90057830111E+02  0.00000000000E+00 0.  1.
        -13    1    5    5    0    0  0.63071807136E+02 -0.29775866387E+03 -0.21367865381E+03  0.37188283351E+03  0.00000000000E+00 0. -1.
          4    1    6    6  503    0  0.12348388978E+02  0.39473684402E+03 -0.12518459141E+03  0.41429559576E+03  0.00000000000E+00 0. -1.
         -4    1    6    6    0  503 -0.39017117110E+02  0.11460935817E+03 -0.11378438439E+02  0.12160225849E+03  0.00000000000E+00 0.  1.
<mgrwt>
<rscale>  0 0.12147208E+04</rscale>
<asrwt>0</asrwt>
<pdfrwt beam="1">  1        2 0.11431430E+00 0.12147208E+04</pdfrwt>
<pdfrwt beam="2">  1       -1 0.76377540E-01 0.12147208E+04</pdfrwt>
<totfact> 0.73560567E+01</totfact>
</mgrwt>
</event>
<event>
12    7  0.1605494E-007  0.2088609E+04  0.7818608E-02  0.8566278E-01
         -1   -1    0    0    0  501 -0.00000000000E+00  0.00000000000E+00  0.42803266369E+03  0.42803266369E+03  0.00000000000E+00 0.  1.
          2   -1    0    0  501    0  0.00000000000E+00 -0.00000000000E+00 -0.25478711643E+04  0.25478711643E+04  0.00000000000E+00 0. -1.
         24    2    1    2    0    0 -0.47701682208E+03 -0.59073503360E+02  0.13232795367E+03  0.50395773261E+03  0.73674836925E+02 0.  0.
        254    2    1    2    0    0  0.47701682208E+03  0.59073503360E+02 -0.22521664543E+04  0.24719460954E+04  0.89845925524E+03 0.  0.
         23    2    4    4    0    0 -0.21953717319E+03 -0.94411817277E+01 -0.10617876501E+04  0.10880561150E+04  0.90484192754E+02 0.  0.
         23    2    4    4    0    0  0.69655399527E+03  0.68514685088E+02 -0.11903788042E+04  0.13838899804E+04  0.90928818223E+02 0.  0.
          4    1    3    3  502    0 -0.25478259345E+03 -0.47460245179E+02  0.10547343429E+03  0.27980580791E+03  0.00000000000E+00 0. -1.
         -3    1    3    3    0  502 -0.22223422862E+03 -0.11613258181E+02  0.26854519378E+02  0.22415192470E+03  0.00000000000E+00 0.  1.
         13    1    5    5    0    0 -0.23216712608E+02  0.26789163993E+02 -0.11051928749E+03  0.11606544687E+03  0.00000000000E+00 0. -1.
        -13    1    5    5    0    0 -0.19632046058E+03 -0.36230345721E+02 -0.95126836258E+03  0.97199066808E+03  0.00000000000E+00 0.  1.
          1    1    6    6  503    0  0.18660584267E+03 -0.20991794612E+02 -0.30010412747E+03  0.35401254679E+03  0.00000000000E+00 0. -1.
         -1    1    6    6    0  503  0.50994815260E+03  0.89506479700E+02 -0.89027467675E+03  0.10298774336E+04  0.00000000000E+00 0.  1.
<mgrwt>
<rscale>  0 0.20886092E+04</rscale>
<asrwt>0</asrwt>
<pdfrwt beam="1">  1        2 0.39198017E+00 0.20886092E+04</pdfrwt>
<pdfrwt beam="2">  1       -1 0.65851180E-01 0.20886092E+04</pdfrwt>
<totfact> 0.80149286E+00</totfact>
</mgrwt>
</event>
<event>
12    7  0.1605494E-007  0.1238059E+04  0.7818608E-02  0.9080181E-01
         -1   -1    0    0    0  501 -0.00000000000E+00  0.00000000000E+00  0.27805372198E+03  0.27805372198E+03  0.00000000000E+00 0.  1.
          2   -1    0    0  501    0  0.00000000000E+00 -0.00000000000E+00 -0.13781416355E+04  0.13781416355E+04  0.00000000000E+00 0. -1.
         24    2    1    2    0    0  0.17652666331E+03 -0.75749554198E+02 -0.53386197673E+03  0.57292400883E+03  0.79584243851E+02 0.  0.
        254    2    1    2    0    0 -0.17652666331E+03  0.75749554198E+02 -0.56622593680E+03  0.10832713487E+04  0.90330800147E+03 0.  0.
         23    2    4    4    0    0 -0.39801518537E+03  0.57330554526E+01  0.56973009707E+02  0.41239266648E+03  0.91503179293E+02 0.  0.
         23    2    4    4    0    0  0.22148852207E+03  0.70016498745E+02 -0.62319894651E+03  0.67087868218E+03  0.87987520566E+02 0.  0.
          4    1    3    3  502    0  0.14973560841E+03 -0.39042595918E+02 -0.46789350494E+03  0.49281782505E+03  0.00000000000E+00 0. -1.
         -3    1    3    3    0  502  0.26791054895E+02 -0.36706958280E+02 -0.65968471797E+02  0.80106183780E+02  0.00000000000E+00 0.  1.
         13    1    5    5    0    0 -0.98292555256E+02 -0.19541083757E+02  0.48870687816E+02  0.11149719503E+03  0.00000000000E+00 0. -1.
        -13    1    5    5    0    0 -0.29972263012E+03  0.25274139210E+02  0.81023218914E+01  0.30089547145E+03  0.00000000000E+00 0.  1.
          1    1    6    6  503    0  0.70118524987E+02  0.66484981217E+02 -0.26055506589E+03  0.27789530877E+03  0.00000000000E+00 0. -1.
         -1    1    6    6    0  503  0.15136999708E+03  0.35315175288E+01 -0.36264388062E+03  0.39298337342E+03  0.00000000000E+00 0.  1.
<mgrwt>
<rscale>  0 0.12380588E+04</rscale>
<asrwt>0</asrwt>
<pdfrwt beam="1">  1        2 0.21202179E+00 0.12380588E+04</pdfrwt>
<pdfrwt beam="2">  1       -1 0.42777496E-01 0.12380588E+04</pdfrwt>
<totfact> 0.89879602E+01</totfact>
</mgrwt>
</event>
<event>
12    7  0.1605494E-007  0.1087265E+04  0.7818608E-02  0.9217694E-01
          2   -1    0    0  501    0  0.00000000000E+00  0.00000000000E+00  0.20814059179E+04  0.20814059179E+04  0.00000000000E+00 0. -1.
         -1   -1    0    0    0  501 -0.00000000000E+00 -0.00000000000E+00 -0.14198885283E+03  0.14198885283E+03  0.00000000000E+00 0.  1.
         24    2    1    2    0    0  0.13772711203E+03 -0.49590688346E+02  0.18669164676E+03  0.25077650887E+03  0.81284024728E+02 0.  0.
        254    2    1    2    0    0 -0.13772711203E+03  0.49590688346E+02  0.17527254183E+04  0.19726182619E+04  0.89316763333E+03 0.  0.
         23    2    4    4    0    0  0.21687174092E+03 -0.49056612627E+02  0.14944432450E+04  0.15136244835E+04  0.90876625889E+02 0.  0.
         23    2    4    4    0    0 -0.35459885295E+03  0.98647300972E+02  0.25828217333E+03  0.45899377841E+03  0.92162742239E+02 0.  0.
          4    1    3    3  502    0 -0.96883933508E+01 -0.86164255821E+01  0.25038016179E+02  0.28195921863E+02  0.00000000000E+00 0. -1.
         -3    1    3    3    0  502  0.14741550538E+03 -0.40974262763E+02  0.16165363058E+03  0.22258058701E+03  0.00000000000E+00 0.  1.
         13    1    5    5    0    0  0.14944332737E+03 -0.24895609242E+02  0.71373417025E+03  0.72963659806E+03  0.00000000000E+00 0.  1.
        -13    1    5    5    0    0  0.67428413556E+02 -0.24161003385E+02  0.78070907476E+03  0.78398788540E+03  0.00000000000E+00 0. -1.
          3    1    6    6  503    0 -0.13841546545E+03  0.10478991963E+02  0.54603655624E+02  0.14916504133E+03  0.00000000000E+00 0. -1.
         -3    1    6    6    0  503 -0.21618338750E+03  0.88168309009E+02  0.20367851771E+03  0.30982873708E+03  0.00000000000E+00 0.  1.
<mgrwt>
<rscale>  0 0.10872653E+04</rscale>
<asrwt>0</asrwt>
<pdfrwt beam="1">  1        2 0.32021627E+00 0.10872653E+04</pdfrwt>
<pdfrwt beam="2">  1       -1 0.21844440E-01 0.10872653E+04</pdfrwt>
<totfact> 0.12047760E+02</totfact>
</mgrwt>
</event>
<event>
12    7  0.1605494E-007  0.1623904E+04  0.7818608E-02  0.8805996E-01
          2   -1    0    0  501    0  0.00000000000E+00  0.00000000000E+00  0.31302472443E+04  0.31302472443E+04  0.00000000000E+00 0. -1.
         -3   -1    0    0    0  501 -0.00000000000E+00 -0.00000000000E+00 -0.21061161899E+03  0.21061161899E+03  0.00000000000E+00 0.  1.
         24    2    1    2    0    0 -0.47453191581E+03  0.83540636361E+02  0.43025058548E+03  0.65084147474E+03  0.79495168949E+02 0.  0.
        254    2    1    2    0    0  0.47453191581E+03 -0.83540636361E+02  0.24893850399E+04  0.26900173886E+04  0.89832961497E+03 0.  0.
         23    2    4    4    0    0  0.56905522861E+03  0.86476511137E+02  0.81519731183E+03  0.10021255025E+04  0.91688741198E+02 0.  0.
         23    2    4    4    0    0 -0.94523312793E+02 -0.17001714750E+03  0.16741877280E+04  0.16878918861E+04  0.90741299742E+02 0.  0.
          4    1    3    3  502    0 -0.41227930025E+02 -0.15068716603E+02  0.41760720923E+02  0.60586848789E+02  0.00000000000E+00 0. -1.
         -3    1    3    3    0  502 -0.43330398579E+03  0.98609352964E+02  0.38848986456E+03  0.59025462595E+03  0.00000000000E+00 0.  1.
         13    1    5    5    0    0  0.55619308634E+02  0.29412005018E+02  0.12572358319E+03  0.14058802546E+03  0.00000000000E+00 0. -1.
        -13    1    5    5    0    0  0.51343591997E+03  0.57064506119E+02  0.68947372864E+03  0.86153747699E+03  0.00000000000E+00 0.  1.
          4    1    6    6  503    0 -0.89270743195E+02 -0.77434472247E+02  0.77877808997E+03  0.78769326295E+03  0.00000000000E+00 0.  1.
         -4    1    6    6    0  503 -0.52525695972E+01 -0.92582675251E+02  0.89540963805E+03  0.90019862317E+03  0.00000000000E+00 0. -1.
<mgrwt>
<rscale>  0 0.16239045E+04</rscale>
<asrwt>0</asrwt>
<pdfrwt beam="1">  1        2 0.48157647E+00 0.16239045E+04</pdfrwt>
<pdfrwt beam="2">  1       -3 0.32401790E-01 0.16239045E+04</pdfrwt>
<totfact> 0.84355954E+00</totfact>
</mgrwt>
</event>
<event>
12    7  0.1605494E-007  0.2727312E+04  0.7818608E-02  0.8326197E-01
         -1   -1    0    0    0  501 -0.00000000000E+00  0.00000000000E+00  0.73512509117E+03  0.73512509117E+03  0.00000000000E+00 0.  1.
          2   -1    0    0  501    0  0.00000000000E+00 -0.00000000000E+00 -0.25295804711E+04  0.25295804711E+04  0.00000000000E+00 0. -1.
         24    2    1    2    0    0  0.94233184469E+02  0.21762866652E+03  0.62509385907E+03  0.67339259119E+03  0.80455700070E+02 0.  0.
        254    2    1    2    0    0 -0.94233184469E+02 -0.21762866652E+03 -0.24195492390E+04  0.25913129711E+04  0.89690705460E+03 0.  0.
         23    2    4    4    0    0 -0.35594283846E+03  0.18812186569E+03 -0.82550889540E+03  0.92301483613E+03  0.91685935294E+02 0.  0.
         23    2    4    4    0    0  0.26170965399E+03 -0.40575053221E+03 -0.15940403436E+04  0.16682981350E+04  0.95543773554E+02 0.  0.
          4    1    3    3  502    0  0.13764514904E+02  0.26652729883E+02  0.17919749973E+03  0.18169087426E+03  0.00000000000E+00 0. -1.
         -3    1    3    3    0  502  0.80468669564E+02  0.19097593663E+03  0.44589635935E+03  0.49170171693E+03  0.00000000000E+00 0.  1.
         13    1    5    5    0    0 -0.12647548669E+03  0.20845272226E+02 -0.23142358194E+03  0.26455140973E+03  0.00000000000E+00 0.  1.
        -13    1    5    5    0    0 -0.22946735177E+03  0.16727659346E+03 -0.59408531346E+03  0.65846342641E+03  0.00000000000E+00 0. -1.
          4    1    6    6  503    0  0.14980982736E+03 -0.24019990900E+03 -0.77039172698E+03  0.82075720750E+03  0.00000000000E+00 0. -1.
         -4    1    6    6    0  503  0.11189982664E+03 -0.16555062320E+03 -0.82364861662E+03  0.84754092745E+03  0.00000000000E+00 0.  1.
<mgrwt>
<rscale>  0 0.27273123E+04</rscale>
<asrwt>0</asrwt>
<pdfrwt beam="1">  1        2 0.38916622E+00 0.27273123E+04</pdfrwt>
<pdfrwt beam="2">  1       -1 0.11309617E+00 0.27273123E+04</pdfrwt>
<totfact> 0.23783625E+00</totfact>
</mgrwt>
</event>
<event>
12    7  0.1605494E-007  0.2540307E+04  0.7818608E-02  0.8388765E-01
         -1   -1    0    0    0  501 -0.00000000000E+00  0.00000000000E+00  0.53911359538E+03  0.53911359538E+03  0.00000000000E+00 0.  1.
          2   -1    0    0  501    0  0.00000000000E+00 -0.00000000000E+00 -0.29924853308E+04  0.29924853308E+04  0.00000000000E+00 0. -1.
         24    2    1    2    0    0  0.20397026003E+03  0.44816593694E+03  0.30862914936E+03  0.58644470010E+03  0.78796322406E+02 0.  0.
        254    2    1    2    0    0 -0.20397026003E+03 -0.44816593694E+03 -0.27620008848E+04  0.29451542261E+04  0.89600667068E+03 0.  0.
         23    2    4    4    0    0 -0.17122370781E+02 -0.32053041215E+03 -0.26595980527E+04  0.26804831061E+04  0.92168103476E+02 0.  0.
         23    2    4    4    0    0 -0.18684788925E+03 -0.12763552479E+03 -0.10240283209E+03  0.26467112003E+03  0.91441242623E+02 0.  0.
          4    1    3    3  502    0  0.10671462078E+03  0.24353124765E+03  0.12035168332E+03  0.29185614015E+03  0.00000000000E+00 0. -1.
         -3    1    3    3    0  502  0.97255639254E+02  0.20463468930E+03  0.18827746605E+03  0.29458855994E+03  0.00000000000E+00 0.  1.
         13    1    5    5    0    0  0.18109278963E+02 -0.37343340178E+02 -0.19172715302E+03  0.19616771458E+03  0.00000000000E+00 0.  1.
        -13    1    5    5    0    0 -0.35231649744E+02 -0.28318707198E+03 -0.24678708997E+04  0.24843153915E+04  0.00000000000E+00 0. -1.
          2    1    6    6  503    0 -0.13850009938E+03 -0.11713457198E+03 -0.11348990994E+03  0.21396902846E+03  0.00000000000E+00 0. -1.
         -2    1    6    6    0  503 -0.48347789867E+02 -0.10500952813E+02  0.11087077843E+02  0.50702091575E+02  0.00000000000E+00 0.  1.
<mgrwt>
<rscale>  0 0.25403067E+04</rscale>
<asrwt>0</asrwt>
<pdfrwt beam="1">  1        2 0.46038236E+00 0.25403067E+04</pdfrwt>
<pdfrwt beam="2">  1       -1 0.82940553E-01 0.25403067E+04</pdfrwt>
<totfact> 0.25688069E+00</totfact>
</mgrwt>
</event>
<event>
12    7  0.1605494E-007  0.1678871E+04  0.7818608E-02  0.8773508E-01
         -3   -1    0    0    0  501 -0.00000000000E+00  0.00000000000E+00  0.24310478464E+03  0.24310478464E+03  0.00000000000E+00 0.  1.
          2   -1    0    0  501    0  0.00000000000E+00 -0.00000000000E+00 -0.28985524327E+04  0.28985524327E+04  0.00000000000E+00 0. -1.
         24    2    1    2    0    0  0.39023409524E+03 -0.30506948428E+03 -0.15706618402E+04  0.16488246684E+04  0.79335564243E+02 0.  0.
        254    2    1    2    0    0 -0.39023409524E+03  0.30506948428E+03 -0.10847858078E+04  0.14928325489E+04  0.89801933760E+03 0.  0.
         23    2    4    4    0    0 -0.28765241756E+03  0.25268297047E+03 -0.12267446694E+04  0.12883820869E+04  0.91833115298E+02 0.  0.
         23    2    4    4    0    0 -0.10258167768E+03  0.52386513809E+02  0.14195886160E+03  0.20445046191E+03  0.91544118114E+02 0.  0.
          4    1    3    3  502    0  0.37622627517E+03 -0.27483263973E+03 -0.14185453152E+04  0.14931008007E+04  0.00000000000E+00 0. -1.
         -3    1    3    3    0  502  0.14007820071E+02 -0.30236844550E+02 -0.15211652500E+03  0.15572386770E+03  0.00000000000E+00 0.  1.
         13    1    5    5    0    0 -0.82500373334E+02  0.83861669561E+02 -0.25248995359E+03  0.27855029687E+03  0.00000000000E+00 0.  1.
        -13    1    5    5    0    0 -0.20515204422E+03  0.16882130091E+03 -0.97425471585E+03  0.10098317901E+04  0.00000000000E+00 0. -1.
          1    1    6    6  503    0 -0.37747756525E+02  0.48516356961E+02  0.12181943386E+03  0.13645037370E+03  0.00000000000E+00 0. -1.
         -1    1    6    6    0  503 -0.64833921159E+02  0.38701568474E+01  0.20139427740E+02  0.68000088210E+02  0.00000000000E+00 0.  1.
<mgrwt>
<rscale>  0 0.16788710E+04</rscale>
<asrwt>0</asrwt>
<pdfrwt beam="1">  1        2 0.44593114E+00 0.16788710E+04</pdfrwt>
<pdfrwt beam="2">  1       -3 0.37400736E-01 0.16788710E+04</pdfrwt>
<totfact> 0.88510102E+00</totfact>
</mgrwt>
</event>
<event>
12    7  0.1605494E-007  0.3213630E+04  0.7818608E-02  0.8185227E-01
          2   -1    0    0  501    0  0.00000000000E+00  0.00000000000E+00  0.34083795692E+04  0.34083795692E+04  0.00000000000E+00 0. -1.
         -1   -1    0    0    0  501 -0.00000000000E+00 -0.00000000000E+00 -0.75750207940E+03  0.75750207940E+03  0.00000000000E+00 0.  1.
         24    2    1    2    0    0  0.85202654912E+03 -0.46124373419E+03  0.26776900590E+04  0.28487020119E+04  0.79900425359E+02 0.  0.
        254    2    1    2    0    0 -0.85202654912E+03  0.46124373419E+03 -0.26812569137E+02  0.13171796367E+04  0.89193512029E+03 0.  0.
         23    2    4    4    0    0  0.10137163437E+03  0.58069961357E+01 -0.20065493309E+03  0.24259117948E+03  0.90984332305E+02 0.  0.
         23    2    4    4    0    0 -0.95339818349E+03  0.45543673806E+03  0.17384236396E+03  0.10745884573E+04  0.90158007361E+02 0.  0.
          2    1    3    3  502    0  0.65859289270E+03 -0.37794382479E+03  0.20135626816E+04  0.21519806704E+04  0.00000000000E+00 0. -1.
         -1    1    3    3    0  502  0.19343365642E+03 -0.83299909407E+02  0.66412737739E+03  0.69672134152E+03  0.00000000000E+00 0.  1.
         13    1    5    5    0    0  0.63186091065E+02 -0.36314889734E+02 -0.14858730902E+03  0.16549755806E+03  0.00000000000E+00 0.  1.
        -13    1    5    5    0    0  0.38185543308E+02  0.42121885870E+02 -0.52067624072E+02  0.77093621419E+02  0.00000000000E+00 0. -1.
          1    1    6    6  503    0 -0.39872279565E+02  0.45915938300E+00  0.60718141047E+01  0.40334556296E+02  0.00000000000E+00 0. -1.
         -1    1    6    6    0  503 -0.91352590393E+03  0.45497757868E+03  0.16777054985E+03  0.10342539010E+04  0.00000000000E+00 0.  1.
<mgrwt>
<rscale>  0 0.32136301E+04</rscale>
<asrwt>0</asrwt>
<pdfrwt beam="1">  1        2 0.52436608E+00 0.32136301E+04</pdfrwt>
<pdfrwt beam="2">  1       -1 0.11653878E+00 0.32136301E+04</pdfrwt>
<totfact> 0.59674366E-01</totfact>
</mgrwt>
</event>
<event>
12    7  0.1605494E-007  0.1065753E+04  0.7818608E-02  0.9239230E-01
         -1   -1    0    0    0  501 -0.00000000000E+00  0.00000000000E+00  0.10017461827E+03  0.10017461827E+03  0.00000000000E+00 0.  1.
          2   -1    0    0  501    0  0.00000000000E+00 -0.00000000000E+00 -0.28346227836E+04  0.28346227836E+04  0.00000000000E+00 0. -1.
         24    2    1    2    0    0 -0.24514454774E+02 -0.61115206755E+02 -0.61367549350E+03  0.62239552885E+03  0.80265534397E+02 0.  0.
        254    2    1    2    0    0  0.24514454774E+02  0.61115206755E+02 -0.21207726719E+04  0.23124018731E+04  0.91934197656E+03 0.  0.
         23    2    4    4    0    0  0.31704198451E+03  0.31807707070E+03 -0.70884415526E+03  0.84487271823E+03  0.98291559744E+02 0.  0.
         23    2    4    4    0    0 -0.29252752974E+03 -0.25696186394E+03 -0.14119285166E+04  0.14675291548E+04  0.92184212994E+02 0.  0.
          4    1    3    3  502    0 -0.51809947422E+02 -0.50437195062E+02 -0.48927027380E+03  0.49458425179E+03  0.00000000000E+00 0. -1.
         -3    1    3    3    0  502  0.27295492647E+02 -0.10678011693E+02 -0.12440521970E+03  0.12781127705E+03  0.00000000000E+00 0.  1.
         13    1    5    5    0    0  0.45212671144E+02  0.84760008653E+02 -0.20789681461E+03  0.22901862419E+03  0.00000000000E+00 0.  1.
        -13    1    5    5    0    0  0.27182931337E+03  0.23331706205E+03 -0.50094734065E+03  0.61585409405E+03  0.00000000000E+00 0. -1.
          2    1    6    6  503    0 -0.21803601443E+03 -0.20850783797E+03 -0.12075858487E+04  0.12447002868E+04  0.00000000000E+00 0. -1.
         -2    1    6    6    0  503 -0.74491515314E+02 -0.48454025971E+02 -0.20434266789E+03  0.22282886798E+03  0.00000000000E+00 0.  1.
<mgrwt>
<rscale>  0 0.10657528E+04</rscale>
<asrwt>0</asrwt>
<pdfrwt beam="1">  1        2 0.43609591E+00 0.10657528E+04</pdfrwt>
<pdfrwt beam="2">  1       -1 0.15411476E-01 0.10657528E+04</pdfrwt>
<totfact> 0.79910992E+01</totfact>
</mgrwt>
</event>
<event>
12    7  0.1605494E-007  0.1655201E+04  0.7818608E-02  0.8787335E-01
         -1   -1    0    0    0  501 -0.00000000000E+00  0.00000000000E+00  0.67776718987E+03  0.67776718987E+03  0.00000000000E+00 0.  1.
          2   -1    0    0  501    0  0.00000000000E+00 -0.00000000000E+00 -0.10105578304E+04  0.10105578304E+04  0.00000000000E+00 0. -1.
         24    2    1    2    0    0 -0.45021205119E+03 -0.36195026058E+03 -0.12033698999E+03  0.59542091545E+03  0.79662997821E+02 0.  0.
        254    2    1    2    0    0  0.45021205119E+03  0.36195026058E+03 -0.21245365053E+03  0.10929041048E+04  0.90310793737E+03 0.  0.
         23    2    4    4    0    0  0.73154165952E+01  0.25846973333E+02 -0.46509258882E+03  0.47584993224E+03  0.96955971914E+02 0.  0.
         23    2    4    4    0    0  0.44289663459E+03  0.33610328724E+03  0.25263893829E+03  0.61705417258E+03  0.88354796895E+02 0.  0.
          4    1    3    3  502    0 -0.70752460224E+02 -0.47099088703E+02  0.95418029953E+01  0.85529414758E+02  0.00000000000E+00 0. -1.
         -3    1    3    3    0  502 -0.37945959097E+03 -0.31485117187E+03 -0.12987879299E+03  0.50989150069E+03  0.00000000000E+00 0.  1.
         13    1    5    5    0    0 -0.29934012758E+02  0.41175267592E+02 -0.35477598668E+03  0.35840960995E+03  0.00000000000E+00 0. -1.
        -13    1    5    5    0    0  0.37249429353E+02 -0.15328294260E+02 -0.11031660214E+03  0.11744032229E+03  0.00000000000E+00 0.  1.
          3    1    6    6  503    0  0.39172736205E+03  0.27275176658E+03  0.18774583201E+03  0.51292528675E+03  0.00000000000E+00 0. -1.
         -3    1    6    6    0  503  0.51169272549E+02  0.63351520662E+02  0.64893106275E+02  0.10412888584E+03  0.00000000000E+00 0.  1.
<mgrwt>
<rscale>  0 0.16552014E+04</rscale>
<asrwt>0</asrwt>
<pdfrwt beam="1">  1        2 0.15547043E+00 0.16552014E+04</pdfrwt>
<pdfrwt beam="2">  1       -1 0.10427188E+00 0.16552014E+04</pdfrwt>
<totfact> 0.23380382E+01</totfact>
</mgrwt>
</event>
<event>
12    7  0.1605494E-007  0.2297929E+04  0.7818608E-02  0.8478738E-01
          2   -1    0    0  501    0  0.00000000000E+00  0.00000000000E+00  0.30307229631E+04  0.30307229631E+04  0.00000000000E+00 0. -1.
         -1   -1    0    0    0  501 -0.00000000000E+00 -0.00000000000E+00 -0.43557916206E+03  0.43557916206E+03  0.00000000000E+00 0.  1.
         24    2    1    2    0    0  0.85591012410E+03  0.49166343021E+03  0.10975884796E+04  0.14786483569E+04  0.85938488464E+02 0.  0.
        254    2    1    2    0    0 -0.85591012410E+03 -0.49166343021E+03  0.14975553214E+04  0.19876537682E+04  0.85660988344E+03 0.  0.
         23    2    4    4    0    0 -0.65501971433E+03 -0.42561364688E+03  0.43169811308E+03  0.89724955829E+03  0.92172156556E+02 0.  0.
         23    2    4    4    0    0 -0.20089040977E+03 -0.66049783329E+02  0.10658572084E+04  0.10904042099E+04  0.90610274340E+02 0.  0.
          4    1    3    3  502    0  0.22793445477E+03  0.11137562559E+03  0.33350546330E+03  0.41902808939E+03  0.00000000000E+00 0. -1.
         -3    1    3    3    0  502  0.62797566932E+03  0.38028780462E+03  0.76408301629E+03  0.10596202675E+04  0.00000000000E+00 0.  1.
         13    1    5    5    0    0 -0.55106378219E+03 -0.38517008077E+03  0.39522953254E+03  0.77989336871E+03  0.00000000000E+00 0. -1.
        -13    1    5    5    0    0 -0.10395593214E+03 -0.40443566108E+02  0.36468580536E+02  0.11735618958E+03  0.00000000000E+00 0.  1.
          4    1    6    6  503    0 -0.18591057204E+03 -0.39436579076E+02  0.99880423397E+03  0.10167240935E+04  0.00000000000E+00 0. -1.
         -4    1    6    6    0  503 -0.14979837733E+02 -0.26613204253E+02  0.67052974382E+02  0.73680116399E+02  0.00000000000E+00 0.  1.
<mgrwt>
<rscale>  0 0.22979293E+04</rscale>
<asrwt>0</asrwt>
<pdfrwt beam="1">  1        2 0.46626506E+00 0.22979293E+04</pdfrwt>
<pdfrwt beam="2">  1       -1 0.67012181E-01 0.22979293E+04</pdfrwt>
<totfact> 0.38790147E+00</totfact>
</mgrwt>
</event>
<event>
12    7  0.1605494E-007  0.2524467E+04  0.7818608E-02  0.8394321E-01
          2   -1    0    0  501    0  0.00000000000E+00  0.00000000000E+00  0.62010597752E+03  0.62010597752E+03  0.00000000000E+00 0. -1.
         -1   -1    0    0    0  501 -0.00000000000E+00 -0.00000000000E+00 -0.25692913463E+04  0.25692913463E+04  0.00000000000E+00 0.  1.
         24    2    1    2    0    0  0.72000313772E+03  0.35519052939E+03  0.95747210689E+02  0.81274868702E+03  0.82632133063E+02 0.  0.
        254    2    1    2    0    0 -0.72000313772E+03 -0.35519052939E+03 -0.20449325794E+04  0.23766486368E+04  0.90672192963E+03 0.  0.
         23    2    4    4    0    0 -0.91276198970E+03 -0.33105610633E+03 -0.14800446043E+04  0.17724154594E+04  0.90509306016E+02 0.  0.
         23    2    4    4    0    0  0.19275885198E+03 -0.24134423063E+02 -0.56488797510E+03  0.60423317737E+03  0.90889288851E+02 0.  0.
          4    1    3    3  502    0  0.65320141553E+03  0.34203121437E+03  0.72874171215E+02  0.74092380559E+03  0.00000000000E+00 0. -1.
         -3    1    3    3    0  502  0.66801722184E+02  0.13159315022E+02  0.22873039474E+02  0.71824881437E+02  0.00000000000E+00 0.  1.
         13    1    5    5    0    0 -0.21193699493E+03 -0.48761516708E+02 -0.28369521824E+03  0.35746042044E+03  0.00000000000E+00 0.  1.
        -13    1    5    5    0    0 -0.70082499478E+03 -0.28229458962E+03 -0.11963493861E+04  0.14149550389E+04  0.00000000000E+00 0. -1.
          2    1    6    6  503    0  0.14125386571E+03  0.64033503543E-01 -0.27881041657E+03  0.31255064720E+03  0.00000000000E+00 0. -1.
         -2    1    6    6    0  503  0.51504986274E+02 -0.24198456566E+02 -0.28607755853E+03  0.29168253017E+03  0.00000000000E+00 0.  1.
<mgrwt>
<rscale>  0 0.25244666E+04</rscale>
<asrwt>0</asrwt>
<pdfrwt beam="1">  1        2 0.95400918E-01 0.25244666E+04</pdfrwt>
<pdfrwt beam="2">  1       -1 0.39527560E+00 0.25244666E+04</pdfrwt>
<totfact> 0.37285556E-01</totfact>
</mgrwt>
</event>
<event>
12    7  0.1605494E-007  0.1771579E+04  0.7818608E-02  0.8721561E-01
          2   -1    0    0  501    0  0.00000000000E+00  0.00000000000E+00  0.11722932295E+04  0.11722932295E+04  0.00000000000E+00 0. -1.
         -1   -1    0    0    0  501 -0.00000000000E+00 -0.00000000000E+00 -0.66930606192E+03  0.66930606192E+03  0.00000000000E+00 0.  1.
         24    2    1    2    0    0  0.51525596219E+03  0.17056119505E+03  0.56251537410E+03  0.78562113002E+03  0.78722207815E+02 0.  0.
        254    2    1    2    0    0 -0.51525596219E+03 -0.17056119505E+03 -0.59528206548E+02  0.10559781614E+04  0.90386195965E+03 0.  0.
         23    2    4    4    0    0  0.13473121406E+03 -0.29229036121E+02 -0.29729138035E+03  0.34366136703E+03  0.10350909990E+03 0.  0.
         23    2    4    4    0    0 -0.64998717625E+03 -0.14133215893E+03  0.23776317380E+03  0.71231679435E+03  0.91683042354E+02 0.  0.
          4    1    3    3  502    0  0.39430171238E+03  0.11836671645E+03  0.46907283346E+03  0.62411044137E+03  0.00000000000E+00 0. -1.
         -3    1    3    3    0  502  0.12095424981E+03  0.52194478601E+02  0.93442540645E+02  0.16151068865E+03  0.00000000000E+00 0.  1.
         13    1    5    5    0    0  0.11858969282E+03 -0.56322485372E+02 -0.27593116215E+03  0.30557117641E+03  0.00000000000E+00 0.  1.
        -13    1    5    5    0    0  0.16141521239E+02  0.27093449250E+02 -0.21360218197E+02  0.38090190622E+02  0.00000000000E+00 0. -1.
          2    1    6    6  503    0 -0.12229066394E+03 -0.52501944457E+01  0.13983596261E+02  0.12319948049E+03  0.00000000000E+00 0. -1.
         -2    1    6    6    0  503 -0.52769651231E+03 -0.13608196448E+03  0.22377957754E+03  0.58911731386E+03  0.00000000000E+00 0.  1.
<mgrwt>
<rscale>  0 0.17715789E+04</rscale>
<asrwt>0</asrwt>
<pdfrwt beam="1">  1        2 0.18035280E+00 0.17715789E+04</pdfrwt>
<pdfrwt beam="2">  1       -1 0.10297016E+00 0.17715789E+04</pdfrwt>
<totfact> 0.18921335E+01</totfact>
</mgrwt>
</event>
<event>
12    7  0.1605494E-007  0.2350705E+04  0.7818608E-02  0.8458193E-01
         -1   -1    0    0    0  501 -0.00000000000E+00  0.00000000000E+00  0.51404295001E+03  0.51404295001E+03  0.00000000000E+00 0.  1.
          2   -1    0    0  501    0  0.00000000000E+00 -0.00000000000E+00 -0.26874291960E+04  0.26874291960E+04  0.00000000000E+00 0. -1.
         24    2    1    2    0    0  0.83732405191E+03 -0.24655144826E+03 -0.26271197812E+03  0.91516781419E+03  0.81334864298E+02 0.  0.
        254    2    1    2    0    0 -0.83732405191E+03  0.24655144826E+03 -0.19106742679E+04  0.22863043318E+04  0.90255867138E+03 0.  0.
         23    2    4    4    0    0 -0.28782476169E+03  0.54409933086E+03 -0.10057209706E+04  0.11827237326E+04  0.92052058819E+02 0.  0.
         23    2    4    4    0    0 -0.54949929022E+03 -0.29754788260E+03 -0.90495329722E+03  0.11035805992E+04  0.92007915263E+02 0.  0.
          2    1    3    3  502    0  0.76515610838E+03 -0.20924140744E+03 -0.25649695408E+03  0.83368850552E+03  0.00000000000E+00 0. -1.
         -3    1    3    3    0  502  0.72167943521E+02 -0.37310040822E+02 -0.62150240425E+01  0.81479308674E+02  0.00000000000E+00 0.  1.
         13    1    5    5    0    0 -0.24083334801E+03  0.51094980867E+03 -0.91058710919E+03  0.10715592806E+04  0.00000000000E+00 0.  1.
        -13    1    5    5    0    0 -0.46991413679E+02  0.33149522188E+02 -0.95133861450E+02  0.11116445194E+03  0.00000000000E+00 0. -1.
          3    1    6    6  503    0 -0.80748442823E+02 -0.60519562018E+02 -0.97558073384E+02  0.14035849133E+03  0.00000000000E+00 0. -1.
         -3    1    6    6    0  503 -0.46875084740E+03 -0.23702832059E+03 -0.80739522384E+03  0.96322210791E+03  0.00000000000E+00 0.  1.
<mgrwt>
<rscale>  0 0.23507055E+04</rscale>
<asrwt>0</asrwt>
<pdfrwt beam="1">  1        2 0.41345064E+00 0.23507055E+04</pdfrwt>
<pdfrwt beam="2">  1       -1 0.79083531E-01 0.23507055E+04</pdfrwt>
<totfact> 0.44365548E+00</totfact>
</mgrwt>
</event>
<event>
12    7  0.1605494E-007  0.2294105E+04  0.7818608E-02  0.8480249E-01
         -1   -1    0    0    0  501 -0.00000000000E+00  0.00000000000E+00  0.76633811751E+03  0.76633811751E+03  0.00000000000E+00 0.  1.
          2   -1    0    0  501    0  0.00000000000E+00 -0.00000000000E+00 -0.17169048223E+04  0.17169048223E+04  0.00000000000E+00 0. -1.
         24    2    1    2    0    0  0.10878068158E+03 -0.28996085402E+02  0.63906711457E+03  0.65381158928E+03  0.79930017515E+02 0.  0.
        254    2    1    2    0    0 -0.10878068158E+03  0.28996085402E+02 -0.15896338193E+04  0.18294313505E+04  0.89844831627E+03 0.  0.
         23    2    4    4    0    0 -0.78823668905E+02 -0.99052300883E+02  0.59470260700E+02  0.17256876963E+03  0.10108777994E+03 0.  0.
         23    2    4    4    0    0 -0.29957012679E+02  0.12804838628E+03 -0.16491040800E+04  0.16568625809E+04  0.91408606351E+02 0.  0.
          4    1    3    3  502    0  0.41302070928E+02  0.26047735624E+01  0.82695038056E+02  0.92472240307E+02  0.00000000000E+00 0. -1.
         -3    1    3    3    0  502  0.67478610656E+02 -0.31600858964E+02  0.55637207651E+03  0.56133934897E+03  0.00000000000E+00 0.  1.
         13    1    5    5    0    0 -0.94851565829E+02 -0.10759750096E+03  0.56503796241E+02  0.15416458978E+03  0.00000000000E+00 0. -1.
        -13    1    5    5    0    0  0.16027896924E+02  0.85452000800E+01  0.29664644590E+01  0.18404179841E+02  0.00000000000E+00 0.  1.
          2    1    6    6  503    0 -0.13411997646E+02  0.10059147085E+03 -0.15347173948E+04  0.15380689216E+04  0.00000000000E+00 0. -1.
         -2    1    6    6    0  503 -0.16545015033E+02  0.27456915438E+02 -0.11438668524E+03  0.11879365929E+03  0.00000000000E+00 0.  1.
<mgrwt>
<rscale>  0 0.22941051E+04</rscale>
<asrwt>0</asrwt>
<pdfrwt beam="1">  1        2 0.26413920E+00 0.22941051E+04</pdfrwt>
<pdfrwt beam="2">  1       -1 0.11789817E+00 0.22941051E+04</pdfrwt>
<totfact> 0.64067029E+00</totfact>
</mgrwt>
</event>
<event>
12    7  0.1605494E-007  0.1885243E+04  0.7818608E-02  0.8662237E-01
          2   -1    0    0  501    0  0.00000000000E+00  0.00000000000E+00  0.21292615469E+04  0.21292615469E+04  0.00000000000E+00 0. -1.
         -1   -1    0    0    0  501 -0.00000000000E+00 -0.00000000000E+00 -0.41729721934E+03  0.41729721934E+03  0.00000000000E+00 0.  1.
         24    2    1    2    0    0  0.44116772091E+03 -0.65310112382E+02 -0.11255480287E+03  0.46675171961E+03  0.79336091130E+02 0.  0.
        254    2    1    2    0    0 -0.44116772091E+03  0.65310112382E+02  0.18245191304E+04  0.20798070467E+04  0.89321493784E+03 0.  0.
         23    2    4    4    0    0 -0.11377505173E+03 -0.39611674897E+03  0.68897370667E+03  0.80801651934E+03  0.91393029498E+02 0.  0.
         23    2    4    4    0    0 -0.32739266918E+03  0.46142686135E+03  0.11355454238E+04  0.12717905273E+04  0.88808939178E+02 0.  0.
          4    1    3    3  502    0  0.17306774048E+03  0.14377818531E+01 -0.72226812938E+02  0.18753992247E+03  0.00000000000E+00 0. -1.
         -3    1    3    3    0  502  0.26809998043E+03 -0.66747894235E+02 -0.40327989936E+02  0.27921179714E+03  0.00000000000E+00 0.  1.
         13    1    5    5    0    0 -0.63375392983E+02 -0.19755677620E+03  0.25996273831E+03  0.33260448820E+03  0.00000000000E+00 0.  1.
        -13    1    5    5    0    0 -0.50399658749E+02 -0.19855997277E+03  0.42901096836E+03  0.47541203115E+03  0.00000000000E+00 0. -1.
          3    1    6    6  503    0 -0.25789634438E+03  0.35163655829E+03  0.78580308389E+03  0.89869087022E+03  0.00000000000E+00 0. -1.
         -3    1    6    6    0  503 -0.69496324800E+02  0.10979030306E+03  0.34974233989E+03  0.37309965709E+03  0.00000000000E+00 0.  1.
<mgrwt>
<rscale>  0 0.18852426E+04</rscale>
<asrwt>0</asrwt>
<pdfrwt beam="1">  1        2 0.32757869E+00 0.18852426E+04</pdfrwt>
<pdfrwt beam="2">  1       -1 0.64199574E-01 0.18852426E+04</pdfrwt>
<totfact> 0.14865272E+01</totfact>
</mgrwt>
</event>
<event>
12    7  0.1605494E-007  0.1384502E+04  0.7818608E-02  0.8965114E-01
          2   -1    0    0  501    0  0.00000000000E+00  0.00000000000E+00  0.24763264030E+04  0.24763264030E+04  0.00000000000E+00 0. -1.
         -1   -1    0    0    0  501 -0.00000000000E+00 -0.00000000000E+00 -0.19351714550E+03  0.19351714550E+03  0.00000000000E+00 0.  1.
         24    2    1    2    0    0 -0.87626052511E+02  0.38504297979E+03  0.67061129111E+03  0.78276130080E+03  0.84019812586E+02 0.  0.
        254    2    1    2    0    0  0.87626052511E+02 -0.38504297979E+03  0.16121979664E+04  0.18870822477E+04  0.89775314281E+03 0.  0.
         23    2    4    4    0    0 -0.20042935789E+03 -0.23873247643E+03  0.10268786280E+03  0.34057675768E+03  0.91008834171E+02 0.  0.
         23    2    4    4    0    0  0.28805541040E+03 -0.14631050336E+03  0.15095101036E+04  0.15465054901E+04  0.93143947616E+02 0.  0.
          2    1    3    3  502    0 -0.89259834034E+01  0.20062522359E+03  0.37813570472E+03  0.42815507086E+03  0.00000000000E+00 0. -1.
         -1    1    3    3    0  502 -0.78700069108E+02  0.18441775620E+03  0.29247558639E+03  0.35460622994E+03  0.00000000000E+00 0.  1.
         13    1    5    5    0    0 -0.19711784671E+03 -0.24217543700E+03  0.11065792649E+03  0.33128471814E+03  0.00000000000E+00 0. -1.
        -13    1    5    5    0    0 -0.33115111809E+01  0.34429605642E+01 -0.79700636851E+01  0.92920395442E+01  0.00000000000E+00 0.  1.
          1    1    6    6  503    0  0.21891117419E+03 -0.72912912669E+02  0.11607405092E+04  0.11834512769E+04  0.00000000000E+00 0. -1.
         -1    1    6    6    0  503  0.69144236216E+02 -0.73397590691E+02  0.34876959443E+03  0.36305421320E+03  0.00000000000E+00 0.  1.
<mgrwt>
<rscale>  0 0.13845022E+04</rscale>
<asrwt>0</asrwt>
<pdfrwt beam="1">  1        2 0.38097327E+00 0.13845022E+04</pdfrwt>
<pdfrwt beam="2">  1       -1 0.29771870E-01 0.13845022E+04</pdfrwt>
<totfact> 0.41383199E+01</totfact>
</mgrwt>
</event>
<event>
12    7  0.2124936E-007  0.1572159E+04  0.7818608E-02  0.8837837E-01
         -1   -1    0    0    0  501 -0.00000000000E+00  0.00000000000E+00  0.47474398730E+03  0.47474398730E+03  0.00000000000E+00 0.  1.
          2   -1    0    0  501    0  0.00000000000E+00 -0.00000000000E+00 -0.13015873099E+04  0.13015873099E+04  0.00000000000E+00 0. -1.
         24    2    1    2    0    0 -0.33751015286E+03  0.17371893071E+03 -0.67931181791E+03  0.78177524224E+03  0.74944067548E+02 0.  0.
        254    2    1    2    0    0  0.33751015286E+03 -0.17371893071E+03 -0.14753150470E+03  0.99455605496E+03  0.90735044576E+03 0.  0.
         23    2    4    4    0    0 -0.27112645783E+03  0.95491007164E+02 -0.11193513281E+03  0.32179367676E+03  0.91616635267E+02 0.  0.
         23    2    4    4    0    0  0.60863661069E+03 -0.26920993787E+03 -0.35596371886E+02  0.67276237821E+03  0.91812860328E+02 0.  0.
          4    1    3    3  502    0 -0.26501234153E+03  0.16479343213E+03 -0.57815872735E+03  0.65700527429E+03  0.00000000000E+00 0. -1.
         -3    1    3    3    0  502 -0.72497811331E+02  0.89254985819E+01 -0.10115309055E+03  0.12476996795E+03  0.00000000000E+00 0.  1.
         13    1    5    5    0    0 -0.66845380282E+02  0.89499370106E+01  0.10721408103E+02  0.68288760636E+02  0.00000000000E+00 0. -1.
        -13    1    5    5    0    0 -0.20428107755E+03  0.86541070153E+02 -0.12265654091E+03  0.25350491612E+03  0.00000000000E+00 0.  1.
          2    1    6    6  503    0  0.60635479449E+03 -0.27422085801E+03 -0.32127476912E+02  0.66625474898E+03  0.00000000000E+00 0. -1.
         -2    1    6    6    0  503  0.22818162001E+01  0.50109201394E+01 -0.34688949739E+01  0.65076292269E+01  0.00000000000E+00 0.  1.
<mgrwt>
<rscale>  0 0.15721587E+04</rscale>
<asrwt>0</asrwt>
<pdfrwt beam="1">  1        2 0.20024420E+00 0.15721587E+04</pdfrwt>
<pdfrwt beam="2">  1       -1 0.73037537E-01 0.15721587E+04</pdfrwt>
<totfact> 0.34150035E+01</totfact>
</mgrwt>
</event>
<event>
12    7  0.1605494E-007  0.3548670E+04  0.7818608E-02  0.8102352E-01
          2   -1    0    0  501    0  0.00000000000E+00  0.00000000000E+00  0.37429439102E+04  0.37429439102E+04  0.00000000000E+00 0. -1.
         -1   -1    0    0    0  501 -0.00000000000E+00 -0.00000000000E+00 -0.84112012485E+03  0.84112012485E+03  0.00000000000E+00 0.  1.
         24    2    1    2    0    0  0.74387744746E+03 -0.70502377199E+03  0.30422360918E+04  0.32112023280E+04  0.78789444903E+02 0.  0.
        254    2    1    2    0    0 -0.74387744746E+03  0.70502377199E+03 -0.14041230652E+03  0.13728617071E+04  0.90256383430E+03 0.  0.
         23    2    4    4    0    0 -0.73057506476E+03  0.79286040496E+03  0.11461216672E+03  0.10880495846E+04  0.91369594359E+02 0.  0.
         23    2    4    4    0    0 -0.13302382702E+02 -0.87836632970E+02 -0.25502447325E+03  0.28481212247E+03  0.90488870432E+02 0.  0.
          2    1    3    3  502    0  0.33748416534E+03 -0.29906486504E+03  0.14515449648E+04  0.15199730722E+04  0.00000000000E+00 0. -1.
         -1    1    3    3    0  502  0.40639328212E+03 -0.40595890695E+03  0.15906911270E+04  0.16912292558E+04  0.00000000000E+00 0.  1.
         13    1    5    5    0    0 -0.28026911402E+03  0.33329091907E+03  0.58458803889E+01  0.43550865356E+03  0.00000000000E+00 0. -1.
        -13    1    5    5    0    0 -0.45030595074E+03  0.45956948590E+03  0.10876628633E+03  0.65254093104E+03  0.00000000000E+00 0.  1.
          1    1    6    6  503    0 -0.16947319558E+01 -0.58782427444E+02 -0.49346141580E+02  0.76767750921E+02  0.00000000000E+00 0. -1.
         -1    1    6    6    0  503 -0.11607650746E+02 -0.29054205526E+02 -0.20567833167E+03  0.20804437155E+03  0.00000000000E+00 0.  1.
<mgrwt>
<rscale>  0 0.35486704E+04</rscale>
<asrwt>0</asrwt>
<pdfrwt beam="1">  1        2 0.57583751E+00 0.35486704E+04</pdfrwt>
<pdfrwt beam="2">  1       -1 0.12940310E+00 0.35486704E+04</pdfrwt>
<totfact> 0.25790539E-01</totfact>
</mgrwt>
</event>
<event>
12    7  0.1605494E-007  0.1596633E+04  0.7818608E-02  0.8822619E-01
         -1   -1    0    0    0  501 -0.00000000000E+00  0.00000000000E+00  0.16279900888E+04  0.16279900888E+04  0.00000000000E+00 0.  1.
          2   -1    0    0  501    0  0.00000000000E+00 -0.00000000000E+00 -0.39146996897E+03  0.39146996897E+03  0.00000000000E+00 0. -1.
         24    2    1    2    0    0 -0.61189589346E+02 -0.17756075667E+03  0.10686476151E+04  0.10892329814E+04  0.95649224659E+02 0.  0.
        254    2    1    2    0    0  0.61189589346E+02  0.17756075667E+03  0.16787250469E+03  0.93022707641E+03  0.89547152255E+03 0.  0.
         23    2    4    4    0    0 -0.74179812335E+02  0.97995924165E+02 -0.34890177298E+03  0.38040880672E+03  0.88727489170E+02 0.  0.
         23    2    4    4    0    0  0.13536940168E+03  0.79564832503E+02  0.51677427766E+03  0.54981826969E+03  0.10290305217E+03 0.  0.
          2    1    3    3  502    0  0.10611402179E+02 -0.66341868046E+02  0.54436304484E+03  0.54849336359E+03  0.00000000000E+00 0. -1.
         -1    1    3    3    0  502 -0.71800991526E+02 -0.11121888862E+03  0.52428457029E+03  0.54073961776E+03  0.00000000000E+00 0.  1.
         13    1    5    5    0    0 -0.78593218538E+02  0.37470746672E+02 -0.16219855070E+03  0.18409052313E+03  0.00000000000E+00 0.  1.
        -13    1    5    5    0    0  0.44134062035E+01  0.60525177493E+02 -0.18670322227E+03  0.19631828359E+03  0.00000000000E+00 0. -1.
          1    1    6    6  503    0  0.10004267632E+03  0.78760257600E+02  0.48773629855E+03  0.50408175149E+03  0.00000000000E+00 0. -1.
         -1    1    6    6    0  503  0.35326725366E+02  0.80457490301E+00  0.29037979107E+02  0.45736518194E+02  0.00000000000E+00 0.  1.
<mgrwt>
<rscale>  0 0.15966330E+04</rscale>
<asrwt>0</asrwt>
<pdfrwt beam="1">  1        2 0.60226150E-01 0.15966330E+04</pdfrwt>
<pdfrwt beam="2">  1       -1 0.25046001E+00 0.15966330E+04</pdfrwt>
<totfact> 0.61924263E+00</totfact>
</mgrwt>
</event>
<event>
12    7  0.1605494E-007  0.1782431E+04  0.7818608E-02  0.8715699E-01
         -1   -1    0    0    0  501 -0.00000000000E+00  0.00000000000E+00  0.32360716368E+03  0.32360716368E+03  0.00000000000E+00 0.  1.
          2   -1    0    0  501    0  0.00000000000E+00 -0.00000000000E+00 -0.24544111496E+04  0.24544111496E+04  0.00000000000E+00 0. -1.
         24    2    1    2    0    0  0.47515775268E+03 -0.15298473297E+03 -0.14691526320E+04  0.15536902289E+04  0.79778774055E+02 0.  0.
        254    2    1    2    0    0 -0.47515775268E+03  0.15298473297E+03 -0.66165135394E+03  0.12243280844E+04  0.90112015050E+03 0.  0.
         23    2    4    4    0    0  0.24267119699E+03  0.77782239853E+02 -0.53153781731E+02  0.27589445321E+03  0.91394956732E+02 0.  0.
         23    2    4    4    0    0 -0.71782894967E+03  0.75202493117E+02 -0.60849757221E+03  0.94843363119E+03  0.91231800513E+02 0.  0.
          2    1    3    3  502    0  0.41369815633E+03 -0.13076002002E+03 -0.13470275436E+04  0.14151775686E+04  0.00000000000E+00 0. -1.
         -1    1    3    3    0  502  0.61459596356E+02 -0.22224712949E+02 -0.12212508832E+03  0.13851266024E+03  0.00000000000E+00 0.  1.
         13    1    5    5    0    0  0.17905057104E+03  0.18034895627E+02 -0.56307839055E+02  0.18856016861E+03  0.00000000000E+00 0.  1.
        -13    1    5    5    0    0  0.63620625957E+02  0.59747344226E+02  0.31540573238E+01  0.87334284601E+02  0.00000000000E+00 0. -1.
          3    1    6    6  503    0 -0.43449790465E+03  0.27343756338E+01 -0.38156539428E+03  0.57826296446E+03  0.00000000000E+00 0. -1.
         -3    1    6    6    0  503 -0.28333104502E+03  0.72468117483E+02 -0.22693217792E+03  0.37017066672E+03  0.00000000000E+00 0.  1.
<mgrwt>
<rscale>  0 0.17824310E+04</rscale>
<asrwt>0</asrwt>
<pdfrwt beam="1">  1        2 0.37760172E+00 0.17824310E+04</pdfrwt>
<pdfrwt beam="2">  1       -1 0.49785717E-01 0.17824310E+04</pdfrwt>
<totfact> 0.16131617E+01</totfact>
</mgrwt>
</event>
<event>
12    7  0.1605494E-007  0.1639701E+04  0.7818608E-02  0.8796523E-01
         -1   -1    0    0    0  501 -0.00000000000E+00  0.00000000000E+00  0.69328439302E+03  0.69328439302E+03  0.00000000000E+00 0.  1.
          2   -1    0    0  501    0  0.00000000000E+00 -0.00000000000E+00 -0.96952199397E+03  0.96952199397E+03  0.00000000000E+00 0. -1.
         24    2    1    2    0    0  0.11457589130E+03 -0.34815704136E+03  0.34589808864E+03  0.51062561895E+03  0.82171008789E+02 0.  0.
        254    2    1    2    0    0 -0.11457589130E+03  0.34815704136E+03 -0.62213568959E+03  0.11521807680E+04  0.89784561350E+03 0.  0.
         23    2    4    4    0    0  0.19056718073E+03  0.85301086138E+02  0.15368525353E+03  0.27444565797E+03  0.90050743235E+02 0.  0.
         23    2    4    4    0    0 -0.30514307204E+03  0.26285595522E+03 -0.77582094311E+03  0.87773511008E+03  0.79468484904E+02 0.  0.
          2    1    3    3  502    0  0.26129599854E+02 -0.15558375910E+02  0.39408881870E+02  0.49778298682E+02  0.00000000000E+00 0. -1.
         -1    1    3    3    0  502  0.88446291450E+02 -0.33259866545E+03  0.30648920677E+03  0.46084732027E+03  0.00000000000E+00 0.  1.
         13    1    5    5    0    0  0.13037600871E+03  0.27634991273E+02  0.13359067208E+03  0.18870099114E+03  0.00000000000E+00 0.  1.
        -13    1    5    5    0    0  0.60191172016E+02  0.57666094865E+02  0.20094581449E+02  0.85744666827E+02  0.00000000000E+00 0. -1.
          1    1    6    6  503    0 -0.14264808605E+03  0.71908146781E+02 -0.29635239240E+03  0.33666600438E+03  0.00000000000E+00 0. -1.
         -1    1    6    6    0  503 -0.16249498599E+03  0.19094780844E+03 -0.47946855071E+03  0.54106910570E+03  0.00000000000E+00 0.  1.
<mgrwt>
<rscale>  0 0.16397005E+04</rscale>
<asrwt>0</asrwt>
<pdfrwt beam="1">  1        2 0.14915723E+00 0.16397005E+04</pdfrwt>
<pdfrwt beam="2">  1       -1 0.10665914E+00 0.16397005E+04</pdfrwt>
<totfact> 0.23604998E+01</totfact>
</mgrwt>
</event>
<event>
12    7  0.1605494E-007  0.1384367E+04  0.7818608E-02  0.8965213E-01
          2   -1    0    0  501    0  0.00000000000E+00  0.00000000000E+00  0.15397850314E+04  0.15397850314E+04  0.00000000000E+00 0. -1.
         -1   -1    0    0    0  501 -0.00000000000E+00 -0.00000000000E+00 -0.31115896008E+03  0.31115896008E+03  0.00000000000E+00 0.  1.
         24    2    1    2    0    0  0.26348652624E+02 -0.25216421153E+02  0.87517539541E+03  0.87954595862E+03  0.79617844767E+02 0.  0.
        254    2    1    2    0    0 -0.26348652624E+02  0.25216421153E+02  0.35345067594E+03  0.97139803288E+03  0.90407778347E+03 0.  0.
         23    2    4    4    0    0 -0.98464540492E+02 -0.29848678124E+03  0.50006207891E+03  0.59773362634E+03  0.91835619364E+02 0.  0.
         23    2    4    4    0    0  0.72115887868E+02  0.32370320239E+03 -0.14661140297E+03  0.37366440654E+03  0.90253646534E+02 0.  0.
          2    1    3    3  502    0 -0.34631622490E+01 -0.36621481619E+02  0.72894207287E+03  0.72986962672E+03  0.00000000000E+00 0. -1.
         -1    1    3    3    0  502  0.29811814873E+02  0.11405060466E+02  0.14623332254E+03  0.14967633190E+03  0.00000000000E+00 0.  1.
         13    1    5    5    0    0 -0.50240986688E+01  0.54610161484E+01  0.38064972682E+01  0.83398852666E+01  0.00000000000E+00 0. -1.
        -13    1    5    5    0    0 -0.93440441823E+02 -0.30394779739E+03  0.49625558164E+03  0.58939374107E+03  0.00000000000E+00 0.  1.
          1    1    6    6  503    0 -0.13642265352E+02  0.10582314083E+03 -0.68654041373E+02  0.12687799626E+03  0.00000000000E+00 0. -1.
         -1    1    6    6    0  503  0.85758153220E+02  0.21788006157E+03 -0.77957361595E+02  0.24678641028E+03  0.00000000000E+00 0.  1.
<mgrwt>
<rscale>  0 0.13843669E+04</rscale>
<asrwt>0</asrwt>
<pdfrwt beam="1">  1        2 0.23689000E+00 0.13843669E+04</pdfrwt>
<pdfrwt beam="2">  1       -1 0.47870610E-01 0.13843669E+04</pdfrwt>
<totfact> 0.58340538E+01</totfact>
</mgrwt>
</event>
<event>
12    7  0.1605494E-007  0.1377632E+04  0.7818608E-02  0.8970171E-01
          2   -1    0    0  501    0  0.00000000000E+00  0.00000000000E+00  0.24883111103E+04  0.24883111103E+04  0.00000000000E+00 0. -1.
         -1   -1    0    0    0  501 -0.00000000000E+00 -0.00000000000E+00 -0.19067855395E+03  0.19067855395E+03  0.00000000000E+00 0.  1.
         24    2    1    2    0    0  0.10723382776E+03  0.33991715836E+03  0.88848743140E+03  0.96055405577E+03  0.78812498538E+02 0.  0.
        254    2    1    2    0    0 -0.10723382776E+03 -0.33991715836E+03  0.14091451249E+04  0.17184356084E+04  0.91667234547E+03 0.  0.
         23    2    4    4    0    0 -0.47590265186E+03 -0.86469724120E+02  0.94702275343E+03  0.10673740110E+04  0.92058876030E+02 0.  0.
         23    2    4    4    0    0  0.36866882411E+03 -0.25344743424E+03  0.46212237147E+03  0.65106159742E+03  0.10085540948E+03 0.  0.
          2    1    3    3  502    0 -0.90568380492E+01  0.51508563981E+02  0.16430527730E+03  0.17242790559E+03  0.00000000000E+00 0. -1.
         -1    1    3    3    0  502  0.11629066580E+03  0.28840859438E+03  0.72418215410E+03  0.78812615018E+03  0.00000000000E+00 0.  1.
         13    1    5    5    0    0 -0.38995147335E+03 -0.45231091411E+02  0.81401421868E+03  0.90372957870E+03  0.00000000000E+00 0.  1.
        -13    1    5    5    0    0 -0.85951178511E+02 -0.41238632708E+02  0.13300853475E+03  0.16364443232E+03  0.00000000000E+00 0. -1.
          1    1    6    6  503    0  0.10398015129E+02  0.83285185921E+01  0.24259805631E+02  0.27677086368E+02  0.00000000000E+00 0. -1.
         -1    1    6    6    0  503  0.35827080898E+03 -0.26177595284E+03  0.43786256584E+03  0.62338451105E+03  0.00000000000E+00 0.  1.
<mgrwt>
<rscale>  0 0.13776321E+04</rscale>
<asrwt>0</asrwt>
<pdfrwt beam="1">  1        2 0.38281707E+00 0.13776321E+04</pdfrwt>
<pdfrwt beam="2">  1       -1 0.29335164E-01 0.13776321E+04</pdfrwt>
<totfact> 0.41824834E+01</totfact>
</mgrwt>
</event>
<event>
12    7  0.1605494E-007  0.2079581E+04  0.7818608E-02  0.8570292E-01
         -1   -1    0    0    0  501 -0.00000000000E+00  0.00000000000E+00  0.10602560015E+04  0.10602560015E+04  0.00000000000E+00 0.  1.
          2   -1    0    0  501    0  0.00000000000E+00 -0.00000000000E+00 -0.10197200030E+04  0.10197200030E+04  0.00000000000E+00 0. -1.
         24    2    1    2    0    0  0.55680110778E+03 -0.36621297321E+03 -0.50502333684E+03  0.83959619842E+03  0.75721795328E+02 0.  0.
        254    2    1    2    0    0 -0.55680110778E+03  0.36621297321E+03  0.54555933536E+03  0.12403798061E+04  0.89261842893E+03 0.  0.
         23    2    4    4    0    0 -0.73792654568E+03  0.11727409603E+03  0.23031573001E+03  0.78834927005E+03  0.10079898653E+03 0.  0.
         23    2    4    4    0    0  0.18112543790E+03  0.24893887718E+03  0.31524360536E+03  0.45203053607E+03  0.10087658796E+03 0.  0.
          2    1    3    3  502    0  0.53253480520E+03 -0.35287301454E+03 -0.46183187214E+03  0.78829015044E+03  0.00000000000E+00 0. -1.
         -1    1    3    3    0  502  0.24266302575E+02 -0.13339958665E+02 -0.43191464691E+02  0.51306047987E+02  0.00000000000E+00 0.  1.
         13    1    5    5    0    0 -0.27207781756E+03  0.29831636412E+01  0.11245845345E+03  0.29441831095E+03  0.00000000000E+00 0. -1.
        -13    1    5    5    0    0 -0.46584872812E+03  0.11429093239E+03  0.11785727656E+03  0.49393095910E+03  0.00000000000E+00 0.  1.
          3    1    6    6  503    0  0.16971060827E+02 -0.76535540557E+01  0.11624942698E+02  0.21948418804E+02  0.00000000000E+00 0. -1.
         -3    1    6    6    0  503  0.16415437707E+03  0.25659243123E+03  0.30361866266E+03  0.43008211727E+03  0.00000000000E+00 0.  1.
<mgrwt>
<rscale>  0 0.20795810E+04</rscale>
<asrwt>0</asrwt>
<pdfrwt beam="1">  1        2 0.15688000E+00 0.20795810E+04</pdfrwt>
<pdfrwt beam="2">  1       -1 0.16311631E+00 0.20795810E+04</pdfrwt>
<totfact> 0.71311391E+00</totfact>
</mgrwt>
</event>
<event>
12    7  0.1605494E-007  0.1961801E+04  0.7818608E-02  0.8624691E-01
         -1   -1    0    0    0  501 -0.00000000000E+00  0.00000000000E+00  0.53634196025E+03  0.53634196025E+03  0.00000000000E+00 0.  1.
          2   -1    0    0  501    0  0.00000000000E+00 -0.00000000000E+00 -0.17939408892E+04  0.17939408892E+04  0.00000000000E+00 0. -1.
         24    2    1    2    0    0 -0.36301249731E+03 -0.67043228536E+03 -0.63023601355E+03  0.99240814930E+03  0.80118534449E+02 0.  0.
        254    2    1    2    0    0  0.36301249731E+03  0.67043228536E+03 -0.62736291537E+03  0.13378747001E+04  0.90281059099E+03 0.  0.
         23    2    4    4    0    0  0.11827888871E+03  0.70920595982E+03 -0.75486876881E+03  0.10463634332E+04  0.89925454189E+02 0.  0.
         23    2    4    4    0    0  0.24473360860E+03 -0.38773674459E+02  0.12750585345E+03  0.29151126689E+03  0.85575341396E+02 0.  0.
          2    1    3    3  502    0 -0.31370762126E+02 -0.11951582480E+03 -0.10125350363E+03  0.15975114739E+03  0.00000000000E+00 0. -1.
         -1    1    3    3    0  502 -0.33164173518E+03 -0.55091646056E+03 -0.52898250992E+03  0.83265700191E+03  0.00000000000E+00 0.  1.
         13    1    5    5    0    0  0.27551619304E+02  0.32441842457E+03 -0.28888453612E+03  0.43527081356E+03  0.00000000000E+00 0. -1.
        -13    1    5    5    0    0  0.90727269405E+02  0.38478753525E+03 -0.46598423269E+03  0.61109261967E+03  0.00000000000E+00 0.  1.
          4    1    6    6  503    0  0.30208902342E+02  0.19450094038E+02  0.14220552658E+01  0.35957004602E+02  0.00000000000E+00 0. -1.
         -4    1    6    6    0  503  0.21452470626E+03 -0.58223768497E+02  0.12608379818E+03  0.25555426229E+03  0.00000000000E+00 0.  1.
<mgrwt>
<rscale>  0 0.19618010E+04</rscale>
<asrwt>0</asrwt>
<pdfrwt beam="1">  1        2 0.27599091E+00 0.19618010E+04</pdfrwt>
<pdfrwt beam="2">  1       -1 0.82514148E-01 0.19618010E+04</pdfrwt>
<totfact> 0.13472207E+01</totfact>
</mgrwt>
</event>
<event>
12    7  0.1605494E-007  0.2355138E+04  0.7818608E-02  0.8456493E-01
          2   -1    0    0  501    0  0.00000000000E+00  0.00000000000E+00  0.14611754140E+04  0.14611754140E+04  0.00000000000E+00 0. -1.
         -1   -1    0    0    0  501 -0.00000000000E+00 -0.00000000000E+00 -0.94900902452E+03  0.94900902452E+03  0.00000000000E+00 0.  1.
         24    2    1    2    0    0  0.99565393674E+02 -0.15163697311E+03  0.12201342178E+04  0.12361471995E+04  0.80158281904E+02 0.  0.
        254    2    1    2    0    0 -0.99565393674E+02  0.15163697311E+03 -0.70796782832E+03  0.11740372390E+04  0.91882422337E+03 0.  0.
         23    2    4    4    0    0 -0.15871711524E+03  0.30970155174E+03  0.76057203620E+02  0.36749156804E+03  0.90328182393E+02 0.  0.
         23    2    4    4    0    0  0.59151721564E+02 -0.15806457864E+03 -0.78402503194E+03  0.80654567098E+03  0.85658224891E+02 0.  0.
          4    1    3    3  502    0 -0.70596434899E+00 -0.26920245787E+02  0.37701405930E+03  0.37797460091E+03  0.00000000000E+00 0. -1.
         -3    1    3    3    0  502  0.10027135802E+03 -0.12471672732E+03  0.84312015847E+03  0.85817259857E+03  0.00000000000E+00 0.  1.
         13    1    5    5    0    0 -0.15361020480E+03  0.31587494333E+03  0.76455320311E+02  0.35946973565E+03  0.00000000000E+00 0. -1.
        -13    1    5    5    0    0 -0.51069104401E+01 -0.61733915899E+01 -0.39811669049E+00  0.80218323882E+01  0.00000000000E+00 0.  1.
          4    1    6    6  503    0  0.75352027208E+02 -0.15555540410E+03 -0.71970667483E+03  0.74017100020E+03  0.00000000000E+00 0. -1.
         -4    1    6    6    0  503 -0.16200305644E+02 -0.25091745378E+01 -0.64318357111E+02  0.66374670781E+02  0.00000000000E+00 0.  1.
<mgrwt>
<rscale>  0 0.23551379E+04</rscale>
<asrwt>0</asrwt>
<pdfrwt beam="1">  1        2 0.22479622E+00 0.23551379E+04</pdfrwt>
<pdfrwt beam="2">  1       -1 0.14600139E+00 0.23551379E+04</pdfrwt>
<totfact> 0.51507488E+00</totfact>
</mgrwt>
</event>
<event>
12    7  0.1605494E-007  0.1312791E+04  0.7818608E-02  0.9019483E-01
          2   -1    0    0  501    0  0.00000000000E+00  0.00000000000E+00  0.17100663013E+04  0.17100663013E+04  0.00000000000E+00 0. -1.
         -1   -1    0    0    0  501 -0.00000000000E+00 -0.00000000000E+00 -0.25195233243E+03  0.25195233243E+03  0.00000000000E+00 0.  1.
         24    2    1    2    0    0 -0.26605172943E+03  0.10338480826E+03  0.11188268175E+03  0.31703841193E+03  0.80769293972E+02 0.  0.
        254    2    1    2    0    0  0.26605172943E+03 -0.10338480826E+03  0.13462312871E+04  0.16449802218E+04  0.90119327027E+03 0.  0.
         23    2    4    4    0    0  0.15841481287E+03  0.31559228133E+03  0.19863558620E+03  0.41521854563E+03  0.90865854754E+02 0.  0.
         23    2    4    4    0    0  0.10763691656E+03 -0.41897708960E+03  0.11475957009E+04  0.12297616762E+04  0.90611147071E+02 0.  0.
          4    1    3    3  502    0 -0.78013650153E+02  0.19926380177E+02  0.70866313447E+02  0.10726241009E+03  0.00000000000E+00 0. -1.
         -3    1    3    3    0  502 -0.18803807928E+03  0.83458428088E+02  0.41016368305E+02  0.20977600184E+03  0.00000000000E+00 0.  1.
         13    1    5    5    0    0  0.16201211989E+03  0.29012234149E+03  0.20260924449E+03  0.38919070643E+03  0.00000000000E+00 0.  1.
        -13    1    5    5    0    0 -0.35973070130E+01  0.25469939841E+02 -0.39736582898E+01  0.26027839200E+02  0.00000000000E+00 0. -1.
          1    1    6    6  503    0  0.12415520299E+03 -0.37119015925E+03  0.10182912380E+04  0.10909233219E+04  0.00000000000E+00 0. -1.
         -1    1    6    6    0  503 -0.16518286437E+02 -0.47786930342E+02  0.12930446289E+03  0.13883835429E+03  0.00000000000E+00 0.  1.
<mgrwt>
<rscale>  0 0.13127912E+04</rscale>
<asrwt>0</asrwt>
<pdfrwt beam="1">  1        2 0.26308712E+00 0.13127912E+04</pdfrwt>
<pdfrwt beam="2">  1       -1 0.38761898E-01 0.13127912E+04</pdfrwt>
<totfact> 0.69677487E+01</totfact>
</mgrwt>
</event>
<event>
12    7  0.1605494E-007  0.2297982E+04  0.7818608E-02  0.8478717E-01
         -1   -1    0    0    0  501 -0.00000000000E+00  0.00000000000E+00  0.12217283442E+04  0.12217283442E+04  0.00000000000E+00 0.  1.
          2   -1    0    0  501    0  0.00000000000E+00 -0.00000000000E+00 -0.10805842893E+04  0.10805842893E+04  0.00000000000E+00 0. -1.
         24    2    1    2    0    0  0.62122798146E+02  0.33222135550E+03 -0.84256394580E+03  0.91132998624E+03  0.79862819598E+02 0.  0.
        254    2    1    2    0    0 -0.62122798146E+02 -0.33222135550E+03  0.98370800074E+03  0.13909826472E+04  0.92353723429E+03 0.  0.
         23    2    4    4    0    0 -0.22993698834E+03 -0.48762418041E+03  0.22302965702E+03  0.59054124522E+03  0.91369439396E+02 0.  0.
         23    2    4    4    0    0  0.16781419019E+03  0.15540282492E+03  0.76067834371E+03  0.80044140203E+03  0.98809185096E+02 0.  0.
          2    1    3    3  502    0 -0.12823778211E+02  0.12640679105E+03 -0.34652065254E+03  0.36907951548E+03  0.00000000000E+00 0. -1.
         -1    1    3    3    0  502  0.74946576357E+02  0.20581456445E+03 -0.49604329326E+03  0.54225047076E+03  0.00000000000E+00 0.  1.
         13    1    5    5    0    0 -0.19995532603E+03 -0.34694195453E+03  0.18863695829E+03  0.44264517873E+03  0.00000000000E+00 0. -1.
        -13    1    5    5    0    0 -0.29981662306E+02 -0.14068222589E+03  0.34392698735E+02  0.14789606649E+03  0.00000000000E+00 0.  1.
          2    1    6    6  503    0  0.15201254908E+03  0.92002108934E+02  0.46892134400E+03  0.50145730624E+03  0.00000000000E+00 0. -1.
         -2    1    6    6    0  503  0.15801641115E+02  0.63400715984E+02  0.29175699971E+03  0.29898409578E+03  0.00000000000E+00 0.  1.
<mgrwt>
<rscale>  0 0.22979821E+04</rscale>
<asrwt>0</asrwt>
<pdfrwt beam="1">  1        2 0.16624374E+00 0.22979821E+04</pdfrwt>
<pdfrwt beam="2">  1       -1 0.18795821E+00 0.22979821E+04</pdfrwt>
<totfact> 0.42295531E+00</totfact>
</mgrwt>
</event>
<event>
12    7  0.1605494E-007  0.3315155E+04  0.7818608E-02  0.8159050E-01
          2   -1    0    0  501    0  0.00000000000E+00  0.00000000000E+00  0.23865181956E+04  0.23865181956E+04  0.00000000000E+00 0. -1.
         -1   -1    0    0    0  501 -0.00000000000E+00 -0.00000000000E+00 -0.11512854776E+04  0.11512854776E+04  0.00000000000E+00 0.  1.
         24    2    1    2    0    0  0.90465210268E+03 -0.72027957937E+03 -0.50744525982E+03  0.12653616338E+04  0.80257543119E+02 0.  0.
        254    2    1    2    0    0 -0.90465210268E+03  0.72027957937E+03  0.17426779777E+04  0.22724420394E+04  0.88874528919E+03 0.  0.
         23    2    4    4    0    0 -0.71320225578E+01  0.10531618814E+03 -0.70118057963E+02  0.15618531847E+03  0.91295927753E+02 0.  0.
         23    2    4    4    0    0 -0.89752008012E+03  0.61496339124E+03  0.18127960357E+04  0.21162567209E+04  0.92686434231E+02 0.  0.
          2    1    3    3  502    0  0.31029681004E+03 -0.20098761015E+03 -0.17279195157E+03  0.40808968166E+03  0.00000000000E+00 0. -1.
         -1    1    3    3    0  502  0.59435529264E+03 -0.51929196923E+03 -0.33465330825E+03  0.85727195214E+03  0.00000000000E+00 0.  1.
         13    1    5    5    0    0 -0.17702119860E+02  0.38568815864E+02  0.17183151833E+02  0.45784050843E+02  0.00000000000E+00 0.  1.
        -13    1    5    5    0    0  0.10570097303E+02  0.66747372272E+02 -0.87301209796E+02  0.11040126763E+03  0.00000000000E+00 0. -1.
          4    1    6    6  503    0 -0.85311332887E+03  0.55702569771E+03  0.16854856136E+04  0.19695029153E+04  0.00000000000E+00 0. -1.
         -4    1    6    6    0  503 -0.44406751250E+02  0.57937693533E+02  0.12731042215E+03  0.14675380567E+03  0.00000000000E+00 0.  1.
<mgrwt>
<rscale>  0 0.33151553E+04</rscale>
<asrwt>0</asrwt>
<pdfrwt beam="1">  1        2 0.36715665E+00 0.33151553E+04</pdfrwt>
<pdfrwt beam="2">  1       -1 0.17712084E+00 0.33151553E+04</pdfrwt>
<totfact> 0.83756900E-01</totfact>
</mgrwt>
</event>
<event>
12    7  0.1605494E-007  0.1932646E+04  0.7818608E-02  0.8638775E-01
          2   -1    0    0  501    0  0.00000000000E+00  0.00000000000E+00  0.24740303747E+04  0.24740303747E+04  0.00000000000E+00 0. -1.
         -1   -1    0    0    0  501 -0.00000000000E+00 -0.00000000000E+00 -0.37743293366E+03  0.37743293366E+03  0.00000000000E+00 0.  1.
         24    2    1    2    0    0 -0.53908540452E+03 -0.26450182158E+03  0.14871954238E+04  0.16058663398E+04  0.80512023554E+02 0.  0.
        254    2    1    2    0    0  0.53908540452E+03  0.26450182158E+03  0.60940201730E+03  0.12455969686E+04  0.90529923363E+03 0.  0.
         23    2    4    4    0    0 -0.21890298473E+03  0.16939717668E+03  0.29508095444E+03  0.41447836018E+03  0.90031223441E+02 0.  0.
         23    2    4    4    0    0  0.75798838925E+03  0.95104644901E+02  0.31432106286E+03  0.83111860837E+03  0.91482888602E+02 0.  0.
          4    1    3    3  502    0 -0.99088681297E+02 -0.45829866844E+02  0.19614978176E+03  0.22448536776E+03  0.00000000000E+00 0. -1.
         -3    1    3    3    0  502 -0.43999672323E+03 -0.21867195474E+03  0.12910456420E+04  0.13813809721E+04  0.00000000000E+00 0.  1.
         13    1    5    5    0    0 -0.16281426795E+03  0.98932118695E+02  0.24836864398E+03  0.31302241656E+03  0.00000000000E+00 0. -1.
        -13    1    5    5    0    0 -0.56088716783E+02  0.70465057988E+02  0.46712310458E+02  0.10145594362E+03  0.00000000000E+00 0.  1.
          1    1    6    6  503    0  0.34861087382E+03  0.94255974956E+01  0.17569717539E+03  0.39049696628E+03  0.00000000000E+00 0. -1.
         -1    1    6    6    0  503  0.40937751543E+03  0.85679047405E+02  0.13862388747E+03  0.44062164209E+03  0.00000000000E+00 0.  1.
<mgrwt>
<rscale>  0 0.19326464E+04</rscale>
<asrwt>0</asrwt>
<pdfrwt beam="1">  1        2 0.38062005E+00 0.19326464E+04</pdfrwt>
<pdfrwt beam="2">  1       -1 0.58066607E-01 0.19326464E+04</pdfrwt>
<totfact> 0.11523133E+01</totfact>
</mgrwt>
</event>
<event>
12    7  0.1605494E-007  0.2209916E+04  0.7818608E-02  0.8514312E-01
          2   -1    0    0  501    0  0.00000000000E+00  0.00000000000E+00  0.22591503504E+04  0.22591503504E+04  0.00000000000E+00 0. -1.
         -1   -1    0    0    0  501 -0.00000000000E+00 -0.00000000000E+00 -0.54043889017E+03  0.54043889017E+03  0.00000000000E+00 0.  1.
         24    2    1    2    0    0  0.80358134780E+02 -0.22307997057E+03  0.18404914934E+04  0.18574635481E+04  0.80868980720E+02 0.  0.
        254    2    1    2    0    0 -0.80358134780E+02  0.22307997057E+03 -0.12178003313E+03  0.94212569254E+03  0.90363064411E+03 0.  0.
         23    2    4    4    0    0  0.35061056480E+03  0.45484699630E+02 -0.25852007615E+03  0.44744351119E+03  0.91522892688E+02 0.  0.
         23    2    4    4    0    0 -0.43096869958E+03  0.17759527094E+03  0.13674004302E+03  0.49468218135E+03  0.93480056172E+02 0.  0.
          4    1    3    3  502    0  0.40672396922E+02 -0.73745813002E+02  0.94438495922E+03  0.94813271224E+03  0.00000000000E+00 0. -1.
         -3    1    3    3    0  502  0.39685737858E+02 -0.14933415756E+03  0.89610653416E+03  0.90933083582E+03  0.00000000000E+00 0.  1.
         13    1    5    5    0    0  0.91491774918E+02 -0.27081748380E+02 -0.55738467518E+02  0.11050313450E+03  0.00000000000E+00 0. -1.
        -13    1    5    5    0    0  0.25911878988E+03  0.72566448010E+02 -0.20278160864E+03  0.33694037669E+03  0.00000000000E+00 0.  1.
          4    1    6    6  503    0 -0.96186761783E+02  0.74834962708E+02  0.61436675691E+02  0.13647941202E+03  0.00000000000E+00 0. -1.
         -4    1    6    6    0  503 -0.33478193779E+03  0.10276030823E+03  0.75303367328E+02  0.35820276932E+03  0.00000000000E+00 0.  1.
<mgrwt>
<rscale>  0 0.22099165E+04</rscale>
<asrwt>0</asrwt>
<pdfrwt beam="1">  1        2 0.34756159E+00 0.22099165E+04</pdfrwt>
<pdfrwt beam="2">  1       -1 0.83144446E-01 0.22099165E+04</pdfrwt>
<totfact> 0.71368154E+00</totfact>
</mgrwt>
</event>
<event>
12    7  0.1605494E-007  0.1320589E+04  0.7818608E-02  0.9013396E-01
          2   -1    0    0  501    0  0.00000000000E+00  0.00000000000E+00  0.10058754984E+04  0.10058754984E+04  0.00000000000E+00 0. -1.
         -1   -1    0    0    0  501 -0.00000000000E+00 -0.00000000000E+00 -0.43344202910E+03  0.43344202910E+03  0.00000000000E+00 0.  1.
         24    2    1    2    0    0 -0.23100566280E+03  0.20472282541E+03  0.36357841302E+03  0.48376995691E+03  0.81049721157E+02 0.  0.
        254    2    1    2    0    0  0.23100566280E+03 -0.20472282541E+03  0.20885505630E+03  0.95554757060E+03  0.87987253262E+03 0.  0.
         23    2    4    4    0    0 -0.27409591524E+03  0.76740269686E+02 -0.70419388209E+02  0.30693603948E+03  0.90736995526E+02 0.  0.
         23    2    4    4    0    0  0.50510157804E+03 -0.28146309509E+03  0.27927444450E+03  0.64861153112E+03  0.91398166905E+02 0.  0.
          4    1    3    3  502    0 -0.41162716828E+02  0.65016130166E+02  0.13522998698E+03  0.15559118169E+03  0.00000000000E+00 0. -1.
         -3    1    3    3    0  502 -0.18984294597E+03  0.13970669524E+03  0.22834842604E+03  0.32817877522E+03  0.00000000000E+00 0.  1.
         13    1    5    5    0    0 -0.13322136266E+03  0.76410800085E+02 -0.62590785417E+02  0.16584374651E+03  0.00000000000E+00 0. -1.
        -13    1    5    5    0    0 -0.14087455257E+03  0.32946960162E+00 -0.78286027927E+01  0.14109229297E+03  0.00000000000E+00 0.  1.
          2    1    6    6  503    0  0.37584759096E+03 -0.22672994764E+03  0.16993621328E+03  0.47068694200E+03  0.00000000000E+00 0. -1.
         -2    1    6    6    0  503  0.12925398708E+03 -0.54733147454E+02  0.10933823123E+03  0.17792458912E+03  0.00000000000E+00 0.  1.
<mgrwt>
<rscale>  0 0.13205888E+04</rscale>
<asrwt>0</asrwt>
<pdfrwt beam="1">  1        2 0.15475008E+00 0.13205888E+04</pdfrwt>
<pdfrwt beam="2">  1       -1 0.66683389E-01 0.13205888E+04</pdfrwt>
<totfact> 0.63538603E+01</totfact>
</mgrwt>
</event>
<event>
12    7  0.1605494E-007  0.2062488E+04  0.7818608E-02  0.8577950E-01
          2   -1    0    0  501    0  0.00000000000E+00  0.00000000000E+00  0.25735596513E+03  0.25735596513E+03  0.00000000000E+00 0. -1.
         -1   -1    0    0    0  501 -0.00000000000E+00 -0.00000000000E+00 -0.41322689007E+04  0.41322689007E+04  0.00000000000E+00 0.  1.
         24    2    1    2    0    0  0.41936176676E+03  0.36979581898E+03 -0.26153600880E+03  0.62236931148E+03  0.79556500782E+02 0.  0.
        254    2    1    2    0    0 -0.41936176676E+03 -0.36979581898E+03 -0.36133769268E+04  0.37672555543E+04  0.90725319381E+03 0.  0.
         23    2    4    4    0    0 -0.23068067000E+03 -0.10928845364E+03 -0.19822352524E+03  0.33574792766E+03  0.90975641586E+02 0.  0.
         23    2    4    4    0    0 -0.18868109676E+03 -0.26050736535E+03 -0.34151534015E+04  0.34315076267E+04  0.92234442097E+02 0.  0.
          4    1    3    3  502    0  0.21045312795E+03  0.19000619147E+03 -0.88903232833E+02  0.29714753350E+03  0.00000000000E+00 0. -1.
         -3    1    3    3    0  502  0.20890863881E+03  0.17978962751E+03 -0.17263277597E+03  0.32522177798E+03  0.00000000000E+00 0.  1.
         13    1    5    5    0    0 -0.16292926187E+03 -0.41925079383E+02 -0.16204752656E+03  0.23358736593E+03  0.00000000000E+00 0.  1.
        -13    1    5    5    0    0 -0.67751408130E+02 -0.67363374253E+02 -0.36175998676E+02  0.10216056174E+03  0.00000000000E+00 0. -1.
          1    1    6    6  503    0 -0.10793514513E+03 -0.90027173171E+02 -0.11614296032E+04  0.11699032484E+04  0.00000000000E+00 0. -1.
         -1    1    6    6    0  503 -0.80745951632E+02 -0.17048019217E+03 -0.22537237984E+04  0.22616043783E+04  0.00000000000E+00 0.  1.
<mgrwt>
<rscale>  0 0.20624879E+04</rscale>
<asrwt>0</asrwt>
<pdfrwt beam="1">  1        2 0.39593226E-01 0.20624879E+04</pdfrwt>
<pdfrwt beam="2">  1       -1 0.63573367E+00 0.20624879E+04</pdfrwt>
<totfact> 0.43996094E-02</totfact>
</mgrwt>
</event>
<event>
12    7  0.1605494E-007  0.1978648E+04  0.7818608E-02  0.8616669E-01
          2   -1    0    0  501    0  0.00000000000E+00  0.00000000000E+00  0.13003288402E+04  0.13003288402E+04  0.00000000000E+00 0. -1.
         -1   -1    0    0    0  501 -0.00000000000E+00 -0.00000000000E+00 -0.75270372610E+03  0.75270372610E+03  0.00000000000E+00 0.  1.
         24    2    1    2    0    0 -0.51446168810E+03 -0.45325426051E+03 -0.17078962492E+03  0.71116424060E+03  0.80468801062E+02 0.  0.
        254    2    1    2    0    0  0.51446168810E+03  0.45325426051E+03  0.71841473900E+03  0.13418683257E+04  0.90243039238E+03 0.  0.
         23    2    4    4    0    0 -0.16385011669E+03 -0.37817800173E+02 -0.54436994511E+02  0.19885575041E+03  0.91121766612E+02 0.  0.
         23    2    4    4    0    0  0.67831180478E+03  0.49107206068E+03  0.77285173352E+03  0.11430125753E+04  0.88990291469E+02 0.  0.
          4    1    3    3  502    0 -0.75537658856E+02 -0.10059913279E+03 -0.13269713568E+02  0.12649983684E+03  0.00000000000E+00 0. -1.
         -3    1    3    3    0  502 -0.43892402924E+03 -0.35265512772E+03 -0.15751991135E+03  0.58466440376E+03  0.00000000000E+00 0.  1.
         13    1    5    5    0    0 -0.10044013163E+03 -0.57410966304E+02 -0.63337675639E+02  0.13189351861E+03  0.00000000000E+00 0. -1.
        -13    1    5    5    0    0 -0.63409985051E+02  0.19593166131E+02  0.89006811282E+01  0.66962231801E+02  0.00000000000E+00 0.  1.
          2    1    6    6  503    0  0.59617049062E+03  0.41400102423E+03  0.70309701126E+03  0.10105253630E+04  0.00000000000E+00 0. -1.
         -2    1    6    6    0  503  0.82141314164E+02  0.77071036450E+02  0.69754722251E+02  0.13248721232E+03  0.00000000000E+00 0.  1.
<mgrwt>
<rscale>  0 0.19786484E+04</rscale>
<asrwt>0</asrwt>
<pdfrwt beam="1">  1        2 0.20005059E+00 0.19786484E+04</pdfrwt>
<pdfrwt beam="2">  1       -1 0.11580057E+00 0.19786484E+04</pdfrwt>
<totfact> 0.11834230E+01</totfact>
</mgrwt>
</event>
<event>
12    7  0.1605494E-007  0.2556823E+04  0.7818608E-02  0.8383017E-01
         -1   -1    0    0    0  501 -0.00000000000E+00  0.00000000000E+00  0.14098013516E+04  0.14098013516E+04  0.00000000000E+00 0.  1.
          2   -1    0    0  501    0  0.00000000000E+00 -0.00000000000E+00 -0.11592667438E+04  0.11592667438E+04  0.00000000000E+00 0. -1.
         24    2    1    2    0    0  0.75685066718E+03 -0.69759587876E+03  0.54499409502E+03  0.11673684120E+04  0.79167564861E+02 0.  0.
        254    2    1    2    0    0 -0.75685066718E+03  0.69759587876E+03 -0.29445948717E+03  0.14016996833E+04  0.90476111221E+03 0.  0.
         23    2    4    4    0    0 -0.37831908527E+03 -0.16316788587E+03 -0.13975042265E+03  0.44435052125E+03  0.90377629133E+02 0.  0.
         23    2    4    4    0    0 -0.37853158191E+03  0.86076376463E+03 -0.15470906452E+03  0.95734916207E+03  0.91553844624E+02 0.  0.
          4    1    3    3  502    0  0.32237993438E+03 -0.35077262742E+03  0.24978495526E+03  0.53792451340E+03  0.00000000000E+00 0. -1.
         -3    1    3    3    0  502  0.43447073280E+03 -0.34682325134E+03  0.29520913976E+03  0.62944389864E+03  0.00000000000E+00 0.  1.
         13    1    5    5    0    0 -0.73484225391E+01  0.41400966211E+01  0.77857596695E+01  0.11478578635E+02  0.00000000000E+00 0.  1.
        -13    1    5    5    0    0 -0.37097066273E+03 -0.16730798249E+03 -0.14753618232E+03  0.43287194262E+03  0.00000000000E+00 0. -1.
          4    1    6    6  503    0 -0.16756195047E+03  0.45664189878E+03 -0.45234798559E+02  0.48851306837E+03  0.00000000000E+00 0. -1.
         -4    1    6    6    0  503 -0.21096963144E+03  0.40412186585E+03 -0.10947426596E+03  0.46883609370E+03  0.00000000000E+00 0.  1.
<mgrwt>
<rscale>  0 0.25568229E+04</rscale>
<asrwt>0</asrwt>
<pdfrwt beam="1">  1        2 0.17834873E+00 0.25568229E+04</pdfrwt>
<pdfrwt beam="2">  1       -1 0.21689252E+00 0.25568229E+04</pdfrwt>
<totfact> 0.23413237E+00</totfact>
</mgrwt>
</event>
<event>
12    7  0.1605494E-007  0.1650513E+04  0.7818608E-02  0.8790103E-01
         -1   -1    0    0    0  501 -0.00000000000E+00  0.00000000000E+00  0.65506247161E+03  0.65506247161E+03  0.00000000000E+00 0.  1.
          2   -1    0    0  501    0  0.00000000000E+00 -0.00000000000E+00 -0.10396689008E+04  0.10396689008E+04  0.00000000000E+00 0. -1.
         24    2    1    2    0    0 -0.16716745892E+02  0.44243345700E+03 -0.51101055213E+03  0.68082173160E+03  0.79747303201E+02 0.  0.
        254    2    1    2    0    0  0.16716745892E+02 -0.44243345700E+03  0.12640412294E+03  0.10139096408E+04  0.90333158029E+03 0.  0.
         23    2    4    4    0    0  0.20283774136E+03 -0.24341270631E+02  0.41096588682E+03  0.46754556430E+03  0.89276244284E+02 0.  0.
         23    2    4    4    0    0 -0.18612099547E+03 -0.41809218637E+03 -0.28456176388E+03  0.54636407650E+03  0.89978916228E+02 0.  0.
          4    1    3    3  502    0  0.31138300671E+02  0.22035067483E+03 -0.26176616883E+03  0.34357756157E+03  0.00000000000E+00 0. -1.
         -3    1    3    3    0  502 -0.47855046563E+02  0.22208278217E+03 -0.24924438329E+03  0.33724417004E+03  0.00000000000E+00 0.  1.
         13    1    5    5    0    0  0.17842834379E+03 -0.51592011306E+02  0.32955115605E+03  0.37828874416E+03  0.00000000000E+00 0. -1.
        -13    1    5    5    0    0  0.24409397568E+02  0.27250740675E+02  0.81414730766E+02  0.89256820146E+02  0.00000000000E+00 0.  1.
          4    1    6    6  503    0 -0.33878303674E+02 -0.21201434274E+02 -0.13395942733E+02  0.42150819171E+02  0.00000000000E+00 0. -1.
         -4    1    6    6    0  503 -0.15224269179E+03 -0.39689075210E+03 -0.27116582115E+03  0.50421325733E+03  0.00000000000E+00 0.  1.
<mgrwt>
<rscale>  0 0.16505127E+04</rscale>
<asrwt>0</asrwt>
<pdfrwt beam="1">  1        2 0.15994906E+00 0.16505127E+04</pdfrwt>
<pdfrwt beam="2">  1       -1 0.10077884E+00 0.16505127E+04</pdfrwt>
<totfact> 0.24248807E+01</totfact>
</mgrwt>
</event>
<event>
12    7  0.1605494E-007  0.1624795E+04  0.7818608E-02  0.8805459E-01
          2   -1    0    0  501    0  0.00000000000E+00  0.00000000000E+00  0.53598705600E+03  0.53598705600E+03  0.00000000000E+00 0. -1.
         -1   -1    0    0    0  501 -0.00000000000E+00 -0.00000000000E+00 -0.12313538548E+04  0.12313538548E+04  0.00000000000E+00 0.  1.
         24    2    1    2    0    0  0.33135877890E+03  0.38045793859E+03  0.10446127251E+02  0.51274942603E+03  0.90862362574E+02 0.  0.
        254    2    1    2    0    0 -0.33135877890E+03 -0.38045793859E+03 -0.70581292604E+03  0.12545914848E+04  0.90624556477E+03 0.  0.
         23    2    4    4    0    0  0.54855241331E+02  0.16143044185E+03  0.88514538689E+02  0.21434358305E+03  0.95076090470E+02 0.  0.
         23    2    4    4    0    0 -0.38621402023E+03 -0.54188838044E+03 -0.79432746473E+03  0.10402479017E+04  0.91407272709E+02 0.  0.
          2    1    3    3  502    0  0.22575930310E+03  0.31697275732E+03  0.15144064371E+02  0.38944618948E+03  0.00000000000E+00 0. -1.
         -1    1    3    3    0  502  0.10559947580E+03  0.63485181274E+02 -0.46979371200E+01  0.12330323655E+03  0.00000000000E+00 0.  1.
         13    1    5    5    0    0  0.64265969027E+02  0.16681333000E+03  0.94238994133E+02  0.20208362095E+03  0.00000000000E+00 0.  1.
        -13    1    5    5    0    0 -0.94107276959E+01 -0.53828881518E+01 -0.57244554436E+01  0.12259962102E+02  0.00000000000E+00 0. -1.
          3    1    6    6  503    0 -0.67709572306E+02 -0.44468484348E+02 -0.98698129764E+02  0.12768458443E+03  0.00000000000E+00 0. -1.
         -3    1    6    6    0  503 -0.31850444792E+03 -0.49741989609E+03 -0.69562933497E+03  0.91256331728E+03  0.00000000000E+00 0.  1.
<mgrwt>
<rscale>  0 0.16247950E+04</rscale>
<asrwt>0</asrwt>
<pdfrwt beam="1">  1        2 0.82459548E-01 0.16247950E+04</pdfrwt>
<pdfrwt beam="2">  1       -1 0.18943905E+00 0.16247950E+04</pdfrwt>
<totfact> 0.11068902E+01</totfact>
</mgrwt>
</event>
<event>
12    7  0.1605494E-007  0.1479355E+04  0.7818608E-02  0.8898299E-01
          2   -1    0    0  501    0  0.00000000000E+00  0.00000000000E+00  0.98065596733E+03  0.98065596733E+03  0.00000000000E+00 0. -1.
         -1   -1    0    0    0  501 -0.00000000000E+00 -0.00000000000E+00 -0.55791541167E+03  0.55791541167E+03  0.00000000000E+00 0.  1.
         24    2    1    2    0    0  0.29508691011E+03  0.78529222226E+02 -0.23303891440E+03  0.39193144443E+03  0.77845990549E+02 0.  0.
        254    2    1    2    0    0 -0.29508691011E+03 -0.78529222226E+02  0.65577947006E+03  0.11466399346E+04  0.88965909367E+03 0.  0.
         23    2    4    4    0    0  0.37841714834E+02  0.35105484506E+03  0.39272276925E+03  0.53603022115E+03  0.91791747327E+02 0.  0.
         23    2    4    4    0    0 -0.33292862494E+03 -0.42958406729E+03  0.26305670081E+03  0.61060971342E+03  0.90892541559E+02 0.  0.
          2    1    3    3  502    0  0.16083900721E+03  0.81213137360E+02 -0.12082650872E+03  0.21694193953E+03  0.00000000000E+00 0. -1.
         -1    1    3    3    0  502  0.13424790290E+03 -0.26839151341E+01 -0.11221240569E+03  0.17498950490E+03  0.00000000000E+00 0.  1.
         13    1    5    5    0    0  0.16105126510E+02  0.29727967963E+03  0.36702403808E+03  0.47258991478E+03  0.00000000000E+00 0. -1.
        -13    1    5    5    0    0  0.21736588324E+02  0.53775165429E+02  0.25698731171E+02  0.63440306372E+02  0.00000000000E+00 0.  1.
          3    1    6    6  503    0 -0.32101639575E+03 -0.41815580580E+03  0.27048240402E+03  0.59250867939E+03  0.00000000000E+00 0. -1.
         -3    1    6    6    0  503 -0.11912229192E+02 -0.11428261485E+02 -0.74257032102E+01  0.18101034033E+02  0.00000000000E+00 0.  1.
<mgrwt>
<rscale>  0 0.14793554E+04</rscale>
<asrwt>0</asrwt>
<pdfrwt beam="1">  1        2 0.15087015E+00 0.14793554E+04</pdfrwt>
<pdfrwt beam="2">  1       -1 0.85833140E-01 0.14793554E+04</pdfrwt>
<totfact> 0.38375348E+01</totfact>
</mgrwt>
</event>
<event>
12    7  0.1605494E-007  0.3516490E+04  0.7818608E-02  0.8109893E-01
          2   -1    0    0  501    0  0.00000000000E+00  0.00000000000E+00  0.29542172817E+04  0.29542172817E+04  0.00000000000E+00 0. -1.
         -1   -1    0    0    0  501 -0.00000000000E+00 -0.00000000000E+00 -0.10464450022E+04  0.10464450022E+04  0.00000000000E+00 0.  1.
         24    2    1    2    0    0 -0.69965455637E+03  0.48502346997E+03  0.24984318125E+04  0.26407169832E+04  0.80376608389E+02 0.  0.
        254    2    1    2    0    0  0.69965455637E+03 -0.48502346997E+03 -0.59065953300E+03  0.13599453006E+04  0.88079979117E+03 0.  0.
         23    2    4    4    0    0  0.56707990767E+03  0.82021037041E+02 -0.49591893983E+03  0.76321372176E+03  0.90843370727E+02 0.  0.
         23    2    4    4    0    0  0.13257464871E+03 -0.56704450701E+03 -0.94740593168E+02  0.59673157888E+03  0.89427550689E+02 0.  0.
          2    1    3    3  502    0 -0.54273550871E+03  0.33368685088E+03  0.18637402057E+04  0.19696284678E+04  0.00000000000E+00 0. -1.
         -1    1    3    3    0  502 -0.15691904766E+03  0.15133661909E+03  0.63469160676E+03  0.67108851539E+03  0.00000000000E+00 0.  1.
         13    1    5    5    0    0  0.37447181553E+03  0.82975708371E+02 -0.37111052509E+03  0.53370134967E+03  0.00000000000E+00 0. -1.
        -13    1    5    5    0    0  0.19260809213E+03 -0.95467132925E+00 -0.12480841475E+03  0.22951237209E+03  0.00000000000E+00 0.  1.
          3    1    6    6  503    0  0.92691958705E+02 -0.51659270822E+03 -0.85384564965E+02  0.53174274733E+03  0.00000000000E+00 0. -1.
         -3    1    6    6    0  503  0.39882690001E+02 -0.50451798790E+02 -0.93560282024E+01  0.64988831552E+02  0.00000000000E+00 0.  1.
<mgrwt>
<rscale>  0 0.35164902E+04</rscale>
<asrwt>0</asrwt>
<pdfrwt beam="1">  1        2 0.45449496E+00 0.35164902E+04</pdfrwt>
<pdfrwt beam="2">  1       -1 0.16099154E+00 0.35164902E+04</pdfrwt>
<totfact> 0.49748601E-01</totfact>
</mgrwt>
</event>
<event>
12    7  0.1605494E-007  0.1612667E+04  0.7818608E-02  0.8812804E-01
          2   -1    0    0  501    0  0.00000000000E+00  0.00000000000E+00  0.17354749583E+04  0.17354749583E+04  0.00000000000E+00 0. -1.
         -1   -1    0    0    0  501 -0.00000000000E+00 -0.00000000000E+00 -0.37463719446E+03  0.37463719446E+03  0.00000000000E+00 0.  1.
         24    2    1    2    0    0  0.29177347352E+03  0.44691652802E+03  0.64098673730E+03  0.83790412450E+03  0.79706847816E+02 0.  0.
        254    2    1    2    0    0 -0.29177347352E+03 -0.44691652802E+03  0.71985102651E+03  0.12722080282E+04  0.90302913788E+03 0.  0.
         23    2    4    4    0    0 -0.26564642721E+03 -0.13493499878E+03 -0.14813821044E+03  0.34445741608E+03  0.89053376768E+02 0.  0.
         23    2    4    4    0    0 -0.26127046307E+02 -0.31198152925E+03  0.86798923695E+03  0.92775061216E+03  0.96440581459E+02 0.  0.
          4    1    3    3  502    0  0.25934998405E+03  0.41274587367E+03  0.61270158783E+03  0.78295900671E+03  0.00000000000E+00 0. -1.
         -3    1    3    3    0  502  0.32423489472E+02  0.34170654355E+02  0.28285149470E+02  0.54945117791E+02  0.00000000000E+00 0.  1.
         13    1    5    5    0    0 -0.20246389950E+03 -0.14198991051E+03 -0.11411880862E+03  0.27235246973E+03  0.00000000000E+00 0. -1.
        -13    1    5    5    0    0 -0.63182527717E+02  0.70549117321E+01 -0.34019401823E+02  0.72104946354E+02  0.00000000000E+00 0.  1.
          3    1    6    6  503    0 -0.31557508374E+02 -0.31791094392E+03  0.84961034406E+03  0.90768991475E+03  0.00000000000E+00 0. -1.
         -3    1    6    6    0  503  0.54304620669E+01  0.59294146735E+01  0.18378892891E+02  0.20060697409E+02  0.00000000000E+00 0.  1.
<mgrwt>
<rscale>  0 0.16126667E+04</rscale>
<asrwt>0</asrwt>
<pdfrwt beam="1">  1        2 0.26699614E+00 0.16126667E+04</pdfrwt>
<pdfrwt beam="2">  1       -1 0.57636492E-01 0.16126667E+04</pdfrwt>
<totfact> 0.31181999E+01</totfact>
</mgrwt>
</event>
<event>
12    7  0.1605494E-007  0.1368708E+04  0.7818608E-02  0.8976786E-01
         -1   -1    0    0    0  501 -0.00000000000E+00  0.00000000000E+00  0.99753195879E+03  0.99753195879E+03  0.00000000000E+00 0.  1.
          2   -1    0    0  501    0  0.00000000000E+00 -0.00000000000E+00 -0.46949915958E+03  0.46949915958E+03  0.00000000000E+00 0. -1.
         24    2    1    2    0    0 -0.27393992510E+03 -0.13114685986E+03  0.39201252019E+03  0.50252021090E+03  0.81302921010E+02 0.  0.
        254    2    1    2    0    0  0.27393992510E+03  0.13114685986E+03  0.13602027903E+03  0.96451090747E+03  0.90528293528E+03 0.  0.
         23    2    4    4    0    0 -0.32326005991E+03  0.34284332680E+02  0.95709310239E+02  0.35094256339E+03  0.91257487002E+02 0.  0.
         23    2    4    4    0    0  0.59719998501E+03  0.96862527177E+02  0.40310968787E+02  0.61356834408E+03  0.93866753374E+02 0.  0.
          4    1    3    3  502    0  0.37876313318E+01 -0.24624920732E+01 -0.73967438364E+00  0.45778965158E+01  0.00000000000E+00 0. -1.
         -3    1    3    3    0  502 -0.27772755643E+03 -0.12868436778E+03  0.39275219457E+03  0.49794231438E+03  0.00000000000E+00 0.  1.
         13    1    5    5    0    0 -0.10208471973E+03  0.54179210955E+02  0.32861076123E+02  0.12015210038E+03  0.00000000000E+00 0.  1.
        -13    1    5    5    0    0 -0.22117534018E+03 -0.19894878276E+02  0.62848234115E+02  0.23079046301E+03  0.00000000000E+00 0. -1.
          3    1    6    6  503    0  0.18582063535E+03  0.65958752373E+02 -0.12956915412E+02  0.19760502826E+03  0.00000000000E+00 0. -1.
         -3    1    6    6    0  503  0.41137934965E+03  0.30903774804E+02  0.53267884199E+02  0.41596331582E+03  0.00000000000E+00 0.  1.
<mgrwt>
<rscale>  0 0.13687080E+04</rscale>
<asrwt>0</asrwt>
<pdfrwt beam="1">  1        2 0.72230640E-01 0.13687080E+04</pdfrwt>
<pdfrwt beam="2">  1       -1 0.15346646E+00 0.13687080E+04</pdfrwt>
<totfact> 0.24234676E+01</totfact>
</mgrwt>
</event>
<event>
12    7  0.1605494E-007  0.1565476E+04  0.7818608E-02  0.8842043E-01
          2   -1    0    0  501    0  0.00000000000E+00  0.00000000000E+00  0.35865323999E+04  0.35865323999E+04  0.00000000000E+00 0. -1.
         -1   -1    0    0    0  501 -0.00000000000E+00 -0.00000000000E+00 -0.17082760648E+03  0.17082760648E+03  0.00000000000E+00 0.  1.
         24    2    1    2    0    0 -0.47576450052E+03 -0.71647993416E+02  0.66425616209E+03  0.82390029987E+03  0.78039479342E+02 0.  0.
        254    2    1    2    0    0  0.47576450052E+03  0.71647993416E+02  0.27514486314E+04  0.29334597065E+04  0.89623154594E+03 0.  0.
         23    2    4    4    0    0  0.13754005038E+03  0.19685637903E+01  0.24777068328E+04  0.24830500485E+04  0.87093360209E+02 0.  0.
         23    2    4    4    0    0  0.33822445014E+03  0.69679429626E+02  0.27374179857E+03  0.45040965804E+03  0.93184152006E+02 0.  0.
          4    1    3    3  502    0 -0.10585928673E+03 -0.23580685588E+02  0.20794163676E+03  0.23452497014E+03  0.00000000000E+00 0. -1.
         -1    1    3    3    0  502 -0.36990521378E+03 -0.48067307829E+02  0.45631452533E+03  0.58937532973E+03  0.00000000000E+00 0.  1.
         13    1    5    5    0    0  0.12562183107E+02 -0.30823942770E+02  0.57262125742E+03  0.57358785582E+03  0.00000000000E+00 0.  1.
        -13    1    5    5    0    0  0.12497786727E+03  0.32792506561E+02  0.19050855754E+04  0.19094621927E+04  0.00000000000E+00 0. -1.
          4    1    6    6  503    0  0.30188350769E+03  0.41169607576E+02  0.26413465645E+03  0.40323157806E+03  0.00000000000E+00 0. -1.
         -4    1    6    6    0  503  0.36340942447E+02  0.28509822050E+02  0.96071421263E+01  0.47178079985E+02  0.00000000000E+00 0.  1.
<mgrwt>
<rscale>  0 0.15654760E+04</rscale>
<asrwt>0</asrwt>
<pdfrwt beam="1">  1        2 0.55177416E+00 0.15654760E+04</pdfrwt>
<pdfrwt beam="2">  1       -1 0.26281173E-01 0.15654760E+04</pdfrwt>
<totfact> 0.10071539E+01</totfact>
</mgrwt>
</event>
<event>
12    7  0.1605494E-007  0.2004977E+04  0.7818608E-02  0.8604297E-01
         -1   -1    0    0    0  501 -0.00000000000E+00  0.00000000000E+00  0.90854726622E+03  0.90854726622E+03  0.00000000000E+00 0.  1.
          2   -1    0    0  501    0  0.00000000000E+00 -0.00000000000E+00 -0.11061427374E+04  0.11061427374E+04  0.00000000000E+00 0. -1.
         24    2    1    2    0    0  0.25034324859E+03  0.69372090363E+03  0.20551613688E+03  0.76971496202E+03  0.79396511200E+02 0.  0.
        254    2    1    2    0    0 -0.25034324859E+03 -0.69372090363E+03 -0.40311160807E+03  0.12449750416E+04  0.91844621587E+03 0.  0.
         23    2    4    4    0    0 -0.55777682435E+03 -0.63161352565E+03 -0.24635102737E+03  0.88267905099E+03  0.91557887671E+02 0.  0.
         23    2    4    4    0    0  0.30743357576E+03 -0.62107377976E+02 -0.15676058070E+03  0.36229599063E+03  0.91168938016E+02 0.  0.
          4    1    3    3  502    0  0.70824857314E+01  0.88076989755E+02  0.35801224293E+02  0.95338582899E+02  0.00000000000E+00 0. -1.
         -3    1    3    3    0  502  0.24326076286E+03  0.60564391388E+03  0.16971491259E+03  0.67437637912E+03  0.00000000000E+00 0.  1.
         13    1    5    5    0    0 -0.30371689741E+03 -0.40356932235E+03 -0.12464656889E+03  0.52023929000E+03  0.00000000000E+00 0.  1.
        -13    1    5    5    0    0 -0.25405992694E+03 -0.22804420330E+03 -0.12170445847E+03  0.36243976099E+03  0.00000000000E+00 0. -1.
          2    1    6    6  503    0  0.16783525816E+02  0.24354404550E+01 -0.38259543226E+02  0.41849859700E+02  0.00000000000E+00 0. -1.
         -2    1    6    6    0  503  0.29065004995E+03 -0.64542818431E+02 -0.11850103748E+03  0.32044613093E+03  0.00000000000E+00 0.  1.
<mgrwt>
<rscale>  0 0.20049768E+04</rscale>
<asrwt>0</asrwt>
<pdfrwt beam="1">  1        2 0.17017580E+00 0.20049768E+04</pdfrwt>
<pdfrwt beam="2">  1       -1 0.13977650E+00 0.20049768E+04</pdfrwt>
<totfact> 0.96283212E+00</totfact>
</mgrwt>
</event>
<event>
12    7  0.1605494E-007  0.2264452E+04  0.7818608E-02  0.8492071E-01
         -1   -1    0    0    0  501 -0.00000000000E+00  0.00000000000E+00  0.11532287414E+04  0.11532287414E+04  0.00000000000E+00 0.  1.
          2   -1    0    0  501    0  0.00000000000E+00 -0.00000000000E+00 -0.11116057061E+04  0.11116057061E+04  0.00000000000E+00 0. -1.
         24    2    1    2    0    0 -0.31579134868E+03  0.89491445774E+03  0.15292620702E+03  0.96511747646E+03  0.86424857520E+02 0.  0.
        254    2    1    2    0    0  0.31579134868E+03 -0.89491445774E+03 -0.11130317176E+03  0.12997169710E+04  0.88106739024E+03 0.  0.
         23    2    4    4    0    0 -0.23637236706E+03 -0.49090959831E+03  0.13215283970E+03  0.56801971761E+03  0.91202505048E+02 0.  0.
         23    2    4    4    0    0  0.55216371574E+03 -0.40400485943E+03 -0.24345601146E+03  0.73169725342E+03  0.89472597637E+02 0.  0.
          2    1    3    3  502    0 -0.93327253552E+02  0.25857386349E+03  0.48724660259E+01  0.27494392167E+03  0.00000000000E+00 0. -1.
         -1    1    3    3    0  502 -0.22246409513E+03  0.63634059425E+03  0.14805374100E+03  0.69017355479E+03  0.00000000000E+00 0.  1.
         13    1    5    5    0    0 -0.11652979769E+03 -0.25427780250E+03  0.11433398881E+03  0.30217322117E+03  0.00000000000E+00 0. -1.
        -13    1    5    5    0    0 -0.11984256936E+03 -0.23663179581E+03  0.17818850888E+02  0.26584649644E+03  0.00000000000E+00 0.  1.
          4    1    6    6  503    0  0.48203111416E+03 -0.35747015850E+03 -0.24322063216E+03  0.64753006505E+03  0.00000000000E+00 0. -1.
         -4    1    6    6    0  503  0.70132601580E+02 -0.46534700934E+02 -0.23537929959E+00  0.84167188374E+02  0.00000000000E+00 0.  1.
<mgrwt>
<rscale>  0 0.22644519E+04</rscale>
<asrwt>0</asrwt>
<pdfrwt beam="1">  1        2 0.17101626E+00 0.22644519E+04</pdfrwt>
<pdfrwt beam="2">  1       -1 0.17741981E+00 0.22644519E+04</pdfrwt>
<totfact> 0.48258340E+00</totfact>
</mgrwt>
</event>
<event>
12    7  0.1605494E-007  0.1040051E+04  0.7818608E-02  0.9265676E-01
          2   -1    0    0  501    0  0.00000000000E+00  0.00000000000E+00  0.17752751792E+04  0.17752751792E+04  0.00000000000E+00 0. -1.
         -1   -1    0    0    0  501 -0.00000000000E+00 -0.00000000000E+00 -0.15232944709E+03  0.15232944709E+03  0.00000000000E+00 0.  1.
         24    2    1    2    0    0  0.67509041555E+02  0.20668167413E+00  0.60660970757E+02  0.12133227213E+03  0.80524862485E+02 0.  0.
        254    2    1    2    0    0 -0.67509041555E+02 -0.20668167413E+00  0.15622847614E+04  0.18062723542E+04  0.90406229236E+03 0.  0.
         23    2    4    4    0    0 -0.61476215456E+02  0.44169122499E+03  0.75893965579E+03  0.88484174280E+03  0.89916880354E+02 0.  0.
         23    2    4    4    0    0 -0.60328260999E+01 -0.44189790667E+03  0.80334510560E+03  0.92143061140E+03  0.91437727575E+02 0.  0.
          4    1    3    3  502    0  0.21657000297E+02 -0.20229741218E+02  0.64503048579E+02  0.70985289797E+02  0.00000000000E+00 0. -1.
         -3    1    3    3    0  502  0.45852041258E+02  0.20436422892E+02 -0.38420778211E+01  0.50346982334E+02  0.00000000000E+00 0.  1.
         13    1    5    5    0    0  0.37170029482E+01 -0.23229357215E+01  0.18555103657E+02  0.19065781206E+02  0.00000000000E+00 0. -1.
        -13    1    5    5    0    0 -0.65193218404E+02  0.44401416071E+03  0.74038455213E+03  0.86577596159E+03  0.00000000000E+00 0.  1.
          3    1    6    6  503    0  0.42661016831E+02 -0.22393287558E+03  0.40481901969E+03  0.46459050122E+03  0.00000000000E+00 0. -1.
         -3    1    6    6    0  503 -0.48693842931E+02 -0.21796503108E+03  0.39852608591E+03  0.45684011018E+03  0.00000000000E+00 0.  1.
<mgrwt>
<rscale>  0 0.10400513E+04</rscale>
<asrwt>0</asrwt>
<pdfrwt beam="1">  1        2 0.27311924E+00 0.10400513E+04</pdfrwt>
<pdfrwt beam="2">  1       -1 0.23435301E-01 0.10400513E+04</pdfrwt>
<totfact> 0.15826741E+02</totfact>
</mgrwt>
</event>
<event>
12    7  0.1605494E-007  0.2806133E+04  0.7818608E-02  0.8301367E-01
          2   -1    0    0  501    0  0.00000000000E+00  0.00000000000E+00  0.74613765886E+03  0.74613765886E+03  0.00000000000E+00 0. -1.
         -1   -1    0    0    0  501 -0.00000000000E+00 -0.00000000000E+00 -0.26383804643E+04  0.26383804643E+04  0.00000000000E+00 0.  1.
         24    2    1    2    0    0  0.26783080737E+03  0.40964929918E+03 -0.22420603783E+04  0.22962429058E+04  0.79692237249E+02 0.  0.
        254    2    1    2    0    0 -0.26783080737E+03 -0.40964929918E+03  0.34981757285E+03  0.10882752174E+04  0.90687635586E+03 0.  0.
         23    2    4    4    0    0 -0.14601959116E+03 -0.68923558832E+03  0.27255623045E+03  0.76082373723E+03  0.90545254731E+02 0.  0.
         23    2    4    4    0    0 -0.12181121622E+03  0.27958628914E+03  0.77261342402E+02  0.32745148017E+03  0.90822306512E+02 0.  0.
          2    1    3    3  502    0  0.16987913987E+03  0.22577124233E+03 -0.11263798588E+04  0.11612765228E+04  0.00000000000E+00 0. -1.
         -1    1    3    3    0  502  0.97951667505E+02  0.18387805685E+03 -0.11156805195E+04  0.11349663830E+04  0.00000000000E+00 0.  1.
         13    1    5    5    0    0 -0.11654003123E+03 -0.65369651193E+03  0.25864378539E+03  0.71259898703E+03  0.00000000000E+00 0. -1.
        -13    1    5    5    0    0 -0.29479559924E+02 -0.35539076392E+02  0.13912445065E+02  0.48224750200E+02  0.00000000000E+00 0.  1.
          4    1    6    6  503    0  0.10044377323E+02  0.58054233328E+02  0.26937432442E+02  0.64782781583E+02  0.00000000000E+00 0.  1.
         -4    1    6    6    0  503 -0.13185559354E+03  0.22153205582E+03  0.50323909960E+02  0.26266869858E+03  0.00000000000E+00 0. -1.
<mgrwt>
<rscale>  0 0.28061326E+04</rscale>
<asrwt>0</asrwt>
<pdfrwt beam="1">  1        2 0.11479041E+00 0.28061326E+04</pdfrwt>
<pdfrwt beam="2">  1       -1 0.40590468E+00 0.28061326E+04</pdfrwt>
<totfact> 0.24388833E-01</totfact>
</mgrwt>
</event>
<event>
12    7  0.1605494E-007  0.1372317E+04  0.7818608E-02  0.8974104E-01
         -1   -1    0    0    0  501 -0.00000000000E+00  0.00000000000E+00  0.48291775175E+03  0.48291775175E+03  0.00000000000E+00 0.  1.
          2   -1    0    0  501    0  0.00000000000E+00 -0.00000000000E+00 -0.97493562820E+03  0.97493562820E+03  0.00000000000E+00 0. -1.
         24    2    1    2    0    0  0.21544573878E+03  0.15078310095E+03  0.15363773731E+03  0.31491012600E+03  0.80071363430E+02 0.  0.
        254    2    1    2    0    0 -0.21544573878E+03 -0.15078310095E+03 -0.64565561377E+03  0.11429432539E+04  0.90570177225E+03 0.  0.
         23    2    4    4    0    0  0.27413784760E+03  0.24245864018E+02 -0.52633883571E+03  0.60094764596E+03  0.91466287758E+02 0.  0.
         23    2    4    4    0    0 -0.48958358638E+03 -0.17502896497E+03 -0.11931677806E+03  0.54199560798E+03  0.95893268336E+02 0.  0.
          4    1    3    3  502    0  0.67118753742E+02  0.72994384905E+02  0.95358356635E+02  0.13757297522E+03  0.00000000000E+00 0. -1.
         -1    1    3    3    0  502  0.14832698504E+03  0.77788716047E+02  0.58279380678E+02  0.17733715078E+03  0.00000000000E+00 0.  1.
         13    1    5    5    0    0  0.24012774541E+03  0.52392756214E+02 -0.45133634236E+03  0.51391714211E+03  0.00000000000E+00 0. -1.
        -13    1    5    5    0    0  0.34010102192E+02 -0.28146892196E+02 -0.75002493355E+02  0.87030503852E+02  0.00000000000E+00 0.  1.
          1    1    6    6  503    0 -0.48511801240E+03 -0.15664639150E+03 -0.11507298869E+03  0.52260823821E+03  0.00000000000E+00 0. -1.
         -1    1    6    6    0  503 -0.44655739882E+01 -0.18382573472E+02 -0.42437893657E+01  0.19387369772E+02  0.00000000000E+00 0.  1.
<mgrwt>
<rscale>  0 0.13723173E+04</rscale>
<asrwt>0</asrwt>
<pdfrwt beam="1">  1        2 0.14999010E+00 0.13723173E+04</pdfrwt>
<pdfrwt beam="2">  1       -1 0.74295039E-01 0.13723173E+04</pdfrwt>
<totfact> 0.53068684E+01</totfact>
</mgrwt>
</event>
<event>
12    7  0.1605494E-007  0.3124575E+04  0.7818608E-02  0.8209026E-01
         -1   -1    0    0    0  501 -0.00000000000E+00  0.00000000000E+00  0.27148971391E+04  0.27148971391E+04  0.00000000000E+00 0.  1.
          2   -1    0    0  501    0  0.00000000000E+00 -0.00000000000E+00 -0.89901828069E+03  0.89901828069E+03  0.00000000000E+00 0. -1.
         24    2    1    2    0    0 -0.11645652719E+03 -0.29424120360E+03 -0.78154689603E+03  0.84714677533E+03  0.81866352206E+02 0.  0.
        254    2    1    2    0    0  0.11645652719E+03  0.29424120360E+03  0.25974257545E+04  0.27667686445E+04  0.89902623632E+03 0.  0.
         23    2    4    4    0    0 -0.14958823009E+03  0.54747906160E+03  0.15548834411E+04  0.16576754808E+04  0.90086196134E+02 0.  0.
         23    2    4    4    0    0  0.26604475728E+03 -0.25323785800E+03  0.10425423134E+04  0.11090931637E+04  0.91016179969E+02 0.  0.
          2    1    3    3  502    0 -0.99857187775E+02 -0.20702495310E+03 -0.64040396073E+03  0.68040283809E+03  0.00000000000E+00 0. -1.
         -1    1    3    3    0  502 -0.16599339416E+02 -0.87216250498E+02 -0.14114293530E+03  0.16674393724E+03  0.00000000000E+00 0.  1.
         13    1    5    5    0    0 -0.10132719407E+03  0.39164749952E+03  0.98323587064E+03  0.10632063494E+04  0.00000000000E+00 0.  1.
        -13    1    5    5    0    0 -0.48261036025E+02  0.15583156208E+03  0.57164757042E+03  0.59446913133E+03  0.00000000000E+00 0. -1.
          1    1    6    6  503    0  0.11392820590E+03 -0.13843291458E+03  0.38893009854E+03  0.42826385499E+03  0.00000000000E+00 0. -1.
         -1    1    6    6    0  503  0.15211655139E+03 -0.11480494342E+03  0.65361221485E+03  0.68082930874E+03  0.00000000000E+00 0.  1.
<mgrwt>
<rscale>  0 0.31245750E+04</rscale>
<asrwt>0</asrwt>
<pdfrwt beam="1">  1        2 0.13831051E+00 0.31245750E+04</pdfrwt>
<pdfrwt beam="2">  1       -1 0.41767648E+00 0.31245750E+04</pdfrwt>
<totfact> 0.15327374E-01</totfact>
</mgrwt>
</event>
<event>
12    7  0.1605494E-007  0.1791460E+04  0.7818608E-02  0.8710854E-01
          2   -1    0    0  501    0  0.00000000000E+00  0.00000000000E+00  0.24168392478E+04  0.24168392478E+04  0.00000000000E+00 0. -1.
         -1   -1    0    0    0  501 -0.00000000000E+00 -0.00000000000E+00 -0.33197578208E+03  0.33197578208E+03  0.00000000000E+00 0.  1.
         24    2    1    2    0    0 -0.41876132469E+03 -0.25257552848E+03  0.14857061297E+04  0.15662631385E+04  0.81866174315E+02 0.  0.
        254    2    1    2    0    0  0.41876132469E+03  0.25257552848E+03  0.59915733593E+03  0.11825518913E+04  0.89458594769E+03 0.  0.
         23    2    4    4    0    0  0.38902062967E+03  0.50868973768E+03  0.16171925448E+03  0.66681907615E+03  0.91609298187E+02 0.  0.
         23    2    4    4    0    0  0.29740695023E+02 -0.25611420920E+03  0.43743808145E+03  0.51573281516E+03  0.90273276416E+02 0.  0.
          4    1    3    3  502    0 -0.39839643699E+03 -0.24833426390E+03  0.14573359084E+04  0.15310837918E+04  0.00000000000E+00 0. -1.
         -3    1    3    3    0  502 -0.20364887700E+02 -0.42412645817E+01  0.28370221363E+02  0.35179346731E+02  0.00000000000E+00 0.  1.
         13    1    5    5    0    0  0.14727456145E+03  0.19361783831E+03  0.10767605699E+03  0.26602969197E+03  0.00000000000E+00 0. -1.
        -13    1    5    5    0    0  0.24174606822E+03  0.31507189938E+03  0.54043197493E+02  0.40078938418E+03  0.00000000000E+00 0.  1.
          1    1    6    6  503    0 -0.17870894978E+02 -0.84272815390E+02  0.86439828645E+02  0.12203737246E+03  0.00000000000E+00 0. -1.
         -1    1    6    6    0  503  0.47611590002E+02 -0.17184139381E+03  0.35099825281E+03  0.39369544270E+03  0.00000000000E+00 0.  1.
<mgrwt>
<rscale>  0 0.17914599E+04</rscale>
<asrwt>0</asrwt>
<pdfrwt beam="1">  1        2 0.37182141E+00 0.17914599E+04</pdfrwt>
<pdfrwt beam="2">  1       -1 0.51073199E-01 0.17914599E+04</pdfrwt>
<totfact> 0.16134203E+01</totfact>
</mgrwt>
</event>
<event>
12    7  0.1605494E-007  0.1456069E+04  0.7818608E-02  0.8914204E-01
          2   -1    0    0  501    0  0.00000000000E+00  0.00000000000E+00  0.60088886088E+03  0.60088886088E+03  0.00000000000E+00 0. -1.
         -1   -1    0    0    0  501 -0.00000000000E+00 -0.00000000000E+00 -0.88208321086E+03  0.88208321086E+03  0.00000000000E+00 0.  1.
         24    2    1    2    0    0 -0.19973634127E+03 -0.39200054052E+03 -0.58249143850E+02  0.45123078198E+03  0.81591825917E+02 0.  0.
        254    2    1    2    0    0  0.19973634127E+03  0.39200054052E+03 -0.22294520612E+03  0.10317412898E+04  0.90621547893E+03 0.  0.
         23    2    4    4    0    0  0.47054922599E+03 -0.47962254764E+02 -0.78236557540E+02  0.48815785362E+03  0.91979232224E+02 0.  0.
         23    2    4    4    0    0 -0.27081288472E+03  0.43996279528E+03 -0.14470864858E+03  0.54358343613E+03  0.87381229664E+02 0.  0.
          4    1    3    3  502    0 -0.50586407287E+02 -0.88090236445E+02 -0.48468970857E+02  0.11255272318E+03  0.00000000000E+00 0. -1.
         -3    1    3    3    0  502 -0.14914993398E+03 -0.30391030408E+03 -0.97801729928E+01  0.33867805880E+03  0.00000000000E+00 0.  1.
         13    1    5    5    0    0  0.11154074135E+03 -0.48254660091E+02 -0.35527598331E+02  0.12661776907E+03  0.00000000000E+00 0.  1.
        -13    1    5    5    0    0  0.35900848463E+03  0.29240532732E+00 -0.42708959209E+02  0.36154008455E+03  0.00000000000E+00 0. -1.
          2    1    6    6  503    0 -0.18242678807E+03  0.36375638055E+03 -0.10440734731E+03  0.42011799720E+03  0.00000000000E+00 0. -1.
         -2    1    6    6    0  503 -0.88386096644E+02  0.76206414736E+02 -0.40301301274E+02  0.12346543893E+03  0.00000000000E+00 0.  1.
<mgrwt>
<rscale>  0 0.14560686E+04</rscale>
<asrwt>0</asrwt>
<pdfrwt beam="1">  1        2 0.92444440E-01 0.14560686E+04</pdfrwt>
<pdfrwt beam="2">  1       -1 0.13570511E+00 0.14560686E+04</pdfrwt>
<totfact> 0.24930048E+01</totfact>
</mgrwt>
</event>
<event>
12    7  0.1605494E-007  0.1835279E+04  0.7818608E-02  0.8687760E-01
          2   -1    0    0  501    0  0.00000000000E+00  0.00000000000E+00  0.61375540776E+03  0.61375540776E+03  0.00000000000E+00 0. -1.
         -1   -1    0    0    0  501 -0.00000000000E+00 -0.00000000000E+00 -0.13719838698E+04  0.13719838698E+04  0.00000000000E+00 0.  1.
         24    2    1    2    0    0  0.56060894729E+03 -0.68257717141E+02  0.14696540248E+03  0.58906779072E+03  0.80377389922E+02 0.  0.
        254    2    1    2    0    0 -0.56060894729E+03  0.68257717141E+02 -0.90519386456E+03  0.13966714869E+04  0.90131781413E+03 0.  0.
         23    2    4    4    0    0 -0.28315323663E+03 -0.23674237239E+03 -0.89622669357E+03  0.97364150284E+03  0.92373066914E+02 0.  0.
         23    2    4    4    0    0 -0.27745571066E+03  0.30500008953E+03 -0.89671709912E+01  0.42302998403E+03  0.94165977090E+02 0.  0.
          2    1    3    3  502    0  0.20313152329E+03 -0.28234349947E+02  0.93546609028E+02  0.22541198356E+03  0.00000000000E+00 0. -1.
         -3    1    3    3    0  502  0.35747742400E+03 -0.40023367194E+02  0.53418793454E+02  0.36365580716E+03  0.00000000000E+00 0.  1.
         13    1    5    5    0    0 -0.95397125978E+02 -0.31501287245E+02 -0.19756743066E+03  0.22164348040E+03  0.00000000000E+00 0.  1.
        -13    1    5    5    0    0 -0.18775611065E+03 -0.20524108514E+03 -0.69865926290E+03  0.75199802244E+03  0.00000000000E+00 0. -1.
          1    1    6    6  503    0 -0.28509223390E+03  0.29939831305E+03 -0.78708885544E+01  0.41349592812E+03  0.00000000000E+00 0. -1.
         -1    1    6    6    0  503  0.76365232376E+01  0.56017764815E+01 -0.10962824368E+01  0.95340559097E+01  0.00000000000E+00 0.  1.
<mgrwt>
<rscale>  0 0.18352793E+04</rscale>
<asrwt>0</asrwt>
<pdfrwt beam="1">  1        2 0.94423909E-01 0.18352793E+04</pdfrwt>
<pdfrwt beam="2">  1       -1 0.21107444E+00 0.18352793E+04</pdfrwt>
<totfact> 0.65571409E+00</totfact>
</mgrwt>
</event>
<event>
12    7  0.1605494E-007  0.1542274E+04  0.7818608E-02  0.8856818E-01
         -1   -1    0    0    0  501 -0.00000000000E+00  0.00000000000E+00  0.50233464277E+03  0.50233464277E+03  0.00000000000E+00 0.  1.
          2   -1    0    0  501    0  0.00000000000E+00 -0.00000000000E+00 -0.11837771174E+04  0.11837771174E+04  0.00000000000E+00 0. -1.
         24    2    1    2    0    0 -0.10007681981E+03 -0.42865673162E+03 -0.50448743643E+03  0.67419543952E+03  0.79183039358E+02 0.  0.
        254    2    1    2    0    0  0.10007681981E+03  0.42865673162E+03 -0.17695503819E+03  0.10119163206E+04  0.89381183199E+03 0.  0.
         23    2    4    4    0    0 -0.21550291303E+03  0.57753194791E+02  0.25731213689E+03  0.35220543672E+03  0.89789736771E+02 0.  0.
         23    2    4    4    0    0  0.31557973284E+03  0.37090353683E+03 -0.43426717508E+03  0.65971088392E+03  0.97316337785E+02 0.  0.
          2    1    3    3  502    0 -0.89283876267E+02 -0.25350680020E+03 -0.34260765718E+03  0.43545070338E+03  0.00000000000E+00 0. -1.
         -1    1    3    3    0  502 -0.10792943542E+02 -0.17514993141E+03 -0.16187977925E+03  0.23874473614E+03  0.00000000000E+00 0.  1.
         13    1    5    5    0    0 -0.18374806835E+03  0.79564645848E+02  0.23018562100E+03  0.30508901260E+03  0.00000000000E+00 0. -1.
        -13    1    5    5    0    0 -0.31754844675E+02 -0.21811451057E+02  0.27126515896E+02  0.47116424124E+02  0.00000000000E+00 0.  1.
          1    1    6    6  503    0  0.28498119200E+03  0.34041759775E+03 -0.42687388199E+03  0.61588938274E+03  0.00000000000E+00 0. -1.
         -1    1    6    6    0  503  0.30598540833E+02  0.30485939077E+02 -0.73932930957E+01  0.43821501176E+02  0.00000000000E+00 0.  1.
<mgrwt>
<rscale>  0 0.15422740E+04</rscale>
<asrwt>0</asrwt>
<pdfrwt beam="1">  1        2 0.18211956E+00 0.15422740E+04</pdfrwt>
<pdfrwt beam="2">  1       -1 0.77282253E-01 0.15422740E+04</pdfrwt>
<totfact> 0.35714885E+01</totfact>
</mgrwt>
</event>
<event>
12    7  0.1605494E-007  0.1769140E+04  0.7818608E-02  0.8722885E-01
         -1   -1    0    0    0  501 -0.00000000000E+00  0.00000000000E+00  0.15210721307E+04  0.15210721307E+04  0.00000000000E+00 0.  1.
          2   -1    0    0  501    0  0.00000000000E+00 -0.00000000000E+00 -0.51441643946E+03  0.51441643946E+03  0.00000000000E+00 0. -1.
         24    2    1    2    0    0 -0.28421428027E+03  0.85236030179E+02  0.10332071705E+04  0.10778607894E+04  0.78891610883E+02 0.  0.
        254    2    1    2    0    0  0.28421428027E+03 -0.85236030179E+02 -0.26551479232E+02  0.95762778075E+03  0.91011155770E+03 0.  0.
         23    2    4    4    0    0  0.52775921071E+03  0.39181419272E+02  0.21894468624E+03  0.57891813230E+03  0.84524908566E+02 0.  0.
         23    2    4    4    0    0 -0.24354493043E+03 -0.12441744945E+03 -0.24549616547E+03  0.37870964846E+03  0.91426449703E+02 0.  0.
          2    1    3    3  502    0 -0.17140228665E+03  0.20939339661E+02  0.49653482108E+03  0.52570336537E+03  0.00000000000E+00 0. -1.
         -3    1    3    3    0  502 -0.11281199363E+03  0.64296690518E+02  0.53667234938E+03  0.55215742403E+03  0.00000000000E+00 0.  1.
         13    1    5    5    0    0  0.17811797732E+03  0.29158836102E+01  0.11621299786E+03  0.21269691369E+03  0.00000000000E+00 0. -1.
        -13    1    5    5    0    0  0.34964123339E+03  0.36265535662E+02  0.10273168838E+03  0.36622121861E+03  0.00000000000E+00 0.  1.
          1    1    6    6  503    0 -0.77699786989E+01 -0.26965770293E+02 -0.49852342722E+02  0.57208228528E+02  0.00000000000E+00 0. -1.
         -1    1    6    6    0  503 -0.23577495173E+03 -0.97451679158E+02 -0.19564382275E+03  0.32150141993E+03  0.00000000000E+00 0.  1.
<mgrwt>
<rscale>  0 0.17691405E+04</rscale>
<asrwt>0</asrwt>
<pdfrwt beam="1">  1        2 0.79140991E-01 0.17691405E+04</pdfrwt>
<pdfrwt beam="2">  1       -1 0.23401110E+00 0.17691405E+04</pdfrwt>
<totfact> 0.57198275E+00</totfact>
</mgrwt>
</event>
<event>
12    7  0.1605494E-007  0.1333480E+04  0.7818608E-02  0.9003429E-01
          2   -1    0    0  501    0  0.00000000000E+00  0.00000000000E+00  0.14118895189E+04  0.14118895189E+04  0.00000000000E+00 0. -1.
         -1   -1    0    0    0  501 -0.00000000000E+00 -0.00000000000E+00 -0.31485616599E+03  0.31485616599E+03  0.00000000000E+00 0.  1.
         24    2    1    2    0    0  0.30463840977E+03 -0.17770545249E+03  0.22756389822E+03  0.42714939821E+03  0.79293707638E+02 0.  0.
        254    2    1    2    0    0 -0.30463840977E+03  0.17770545249E+03  0.86946945466E+03  0.12995962866E+04  0.89921609590E+03 0.  0.
         23    2    4    4    0    0  0.12386201871E+03 -0.12991809692E+03  0.71444531886E+03  0.74224384395E+03  0.90957675118E+02 0.  0.
         23    2    4    4    0    0 -0.42850042848E+03  0.30762354941E+03  0.15502413581E+03  0.55735244270E+03  0.91457079193E+02 0.  0.
          4    1    3    3  502    0 -0.44702336045E+01 -0.68473552093E+01  0.68718363892E+01  0.10681357461E+02  0.00000000000E+00 0. -1.
         -3    1    3    3    0  502  0.30910864337E+03 -0.17085809728E+03  0.22069206183E+03  0.41646804075E+03  0.00000000000E+00 0.  1.
         13    1    5    5    0    0  0.11475929621E+03 -0.94483889098E+02  0.41990945291E+03  0.44544455324E+03  0.00000000000E+00 0.  1.
        -13    1    5    5    0    0  0.91027225074E+01 -0.35434207825E+02  0.29453586595E+03  0.29679929072E+03  0.00000000000E+00 0. -1.
          2    1    6    6  503    0 -0.29798132923E+02  0.65454705762E+01 -0.84832655806E+01  0.31666033943E+02  0.00000000000E+00 0. -1.
         -2    1    6    6    0  503 -0.39870229556E+03  0.30107807883E+03  0.16350740139E+03  0.52568640875E+03  0.00000000000E+00 0.  1.
<mgrwt>
<rscale>  0 0.13334798E+04</rscale>
<asrwt>0</asrwt>
<pdfrwt beam="1">  1        2 0.21721377E+00 0.13334798E+04</pdfrwt>
<pdfrwt beam="2">  1       -1 0.48439411E-01 0.13334798E+04</pdfrwt>
<totfact> 0.67669018E+01</totfact>
</mgrwt>
</event>
<event>
12    7  0.1605494E-007  0.1677424E+04  0.7818608E-02  0.8774346E-01
          2   -1    0    0  501    0  0.00000000000E+00  0.00000000000E+00  0.10102378183E+04  0.10102378183E+04  0.00000000000E+00 0. -1.
         -1   -1    0    0    0  501 -0.00000000000E+00 -0.00000000000E+00 -0.69630888707E+03  0.69630888707E+03  0.00000000000E+00 0.  1.
         24    2    1    2    0    0 -0.12719982360E+03 -0.22086869106E+03  0.66934545328E+03  0.72063590567E+03  0.79561290206E+02 0.  0.
        254    2    1    2    0    0  0.12719982360E+03  0.22086869106E+03 -0.35541652209E+03  0.98591079965E+03  0.88359290789E+03 0.  0.
         23    2    4    4    0    0  0.33252150251E+03  0.41039084413E+03 -0.13724836677E+02  0.53624766879E+03  0.91553244410E+02 0.  0.
         23    2    4    4    0    0 -0.20532167892E+03 -0.18952215306E+03 -0.34169168542E+03  0.44966313087E+03  0.85837550312E+02 0.  0.
          4    1    3    3  502    0 -0.13665816589E+03 -0.19420190994E+03  0.61724757820E+03  0.66135044335E+03  0.00000000000E+00 0. -1.
         -3    1    3    3    0  502  0.94583422896E+01 -0.26666781129E+02  0.52097875081E+02  0.59285462321E+02  0.00000000000E+00 0.  1.
         13    1    5    5    0    0  0.72567349030E+02  0.91341567242E+02  0.35081401755E+02  0.12181956658E+03  0.00000000000E+00 0.  1.
        -13    1    5    5    0    0  0.25995415348E+03  0.31904927688E+03 -0.48806238432E+02  0.41442810221E+03  0.00000000000E+00 0. -1.
          2    1    6    6  503    0 -0.74744672068E+02 -0.91543550089E+02 -0.85451185854E+02  0.14583858450E+03  0.00000000000E+00 0. -1.
         -2    1    6    6    0  503 -0.13057700685E+03 -0.97978602972E+02 -0.25624049956E+03  0.30382454636E+03  0.00000000000E+00 0.  1.
<mgrwt>
<rscale>  0 0.16774237E+04</rscale>
<asrwt>0</asrwt>
<pdfrwt beam="1">  1        2 0.15542120E+00 0.16774237E+04</pdfrwt>
<pdfrwt beam="2">  1       -1 0.10712444E+00 0.16774237E+04</pdfrwt>
<totfact> 0.21923023E+01</totfact>
</mgrwt>
</event>
<event>
12    7  0.1605494E-007  0.1211742E+04  0.7818608E-02  0.9102640E-01
          2   -1    0    0  501    0  0.00000000000E+00  0.00000000000E+00  0.19952637583E+04  0.19952637583E+04  0.00000000000E+00 0. -1.
         -1   -1    0    0    0  501 -0.00000000000E+00 -0.00000000000E+00 -0.18397559416E+03  0.18397559416E+03  0.00000000000E+00 0.  1.
         24    2    1    2    0    0 -0.12279424831E+03  0.77776593540E+02  0.80037181367E+03  0.81740854693E+03  0.80212633457E+02 0.  0.
        254    2    1    2    0    0  0.12279424831E+03 -0.77776593540E+02  0.10109163505E+04  0.13618308055E+04  0.90083497340E+03 0.  0.
         23    2    4    4    0    0 -0.25895355876E+02 -0.17798249151E+03  0.11150951763E+04  0.11331685488E+04  0.91024013527E+02 0.  0.
         23    2    4    4    0    0  0.14868960419E+03  0.10020589797E+03 -0.10417882584E+03  0.22866225671E+03  0.96350295829E+02 0.  0.
          2    1    3    3  502    0 -0.56778609622E+02  0.77965762048E+02  0.38931146078E+03  0.40108089465E+03  0.00000000000E+00 0. -1.
         -1    1    3    3    0  502 -0.66015638690E+02 -0.18916850764E+00  0.41106035289E+03  0.41632765228E+03  0.00000000000E+00 0.  1.
         13    1    5    5    0    0  0.27637069736E+02 -0.91825958735E+02  0.65824203309E+03  0.66519049034E+03  0.00000000000E+00 0.  1.
        -13    1    5    5    0    0 -0.53532425612E+02 -0.86156532774E+02  0.45685314323E+03  0.46797805848E+03  0.00000000000E+00 0. -1.
          2    1    6    6  503    0  0.47654814578E+02  0.10851105837E+02  0.12357182111E+02  0.50412575812E+02  0.00000000000E+00 0. -1.
         -2    1    6    6    0  503  0.10103478961E+03  0.89354792132E+02 -0.11653600796E+03  0.17824968089E+03  0.00000000000E+00 0.  1.
<mgrwt>
<rscale>  0 0.12117423E+04</rscale>
<asrwt>0</asrwt>
<pdfrwt beam="1">  1        2 0.30696364E+00 0.12117423E+04</pdfrwt>
<pdfrwt beam="2">  1       -1 0.28303939E-01 0.12117423E+04</pdfrwt>
<totfact> 0.85412553E+01</totfact>
</mgrwt>
</event>
<event>
12    7  0.1605494E-007  0.2846214E+04  0.7818608E-02  0.8289063E-01
         -1   -1    0    0    0  501 -0.00000000000E+00  0.00000000000E+00  0.14454326409E+04  0.14454326409E+04  0.00000000000E+00 0.  1.
          2   -1    0    0  501    0  0.00000000000E+00 -0.00000000000E+00 -0.14011264517E+04  0.14011264517E+04  0.00000000000E+00 0. -1.
         24    2    1    2    0    0  0.10835690352E+04  0.56312354891E+03  0.41661725915E+03  0.12926884154E+04  0.79015273004E+02 0.  0.
        254    2    1    2    0    0 -0.10835690352E+04 -0.56312354891E+03 -0.37231106997E+03  0.15538706772E+04  0.88581519710E+03 0.  0.
         23    2    4    4    0    0 -0.35069080002E+03 -0.37384129891E+03 -0.56481811154E+03  0.76801497809E+03  0.89923041884E+02 0.  0.
         23    2    4    4    0    0 -0.73287823517E+03 -0.18928225000E+03  0.19250704157E+03  0.78585569915E+03  0.87016901145E+02 0.  0.
          2    1    3    3  502    0  0.31402130572E+03  0.16764059745E+03  0.84079265177E+02  0.36576231790E+03  0.00000000000E+00 0. -1.
         -1    1    3    3    0  502  0.76954772947E+03  0.39548295146E+03  0.33253799398E+03  0.92692609752E+03  0.00000000000E+00 0.  1.
         13    1    5    5    0    0 -0.33815310704E+03 -0.33722601361E+03 -0.54465870941E+03  0.72437698596E+03  0.00000000000E+00 0.  1.
        -13    1    5    5    0    0 -0.12537692986E+02 -0.36615285301E+02 -0.20159402127E+02  0.43637992131E+02  0.00000000000E+00 0. -1.
          2    1    6    6  503    0 -0.36691015527E+03 -0.49844583326E+02  0.93485592209E+02  0.38189933291E+03  0.00000000000E+00 0. -1.
         -2    1    6    6    0  503 -0.36596807990E+03 -0.13943766668E+03  0.99021449359E+02  0.40395636624E+03  0.00000000000E+00 0.  1.
<mgrwt>
<rscale>  0 0.28462143E+04</rscale>
<asrwt>0</asrwt>
<pdfrwt beam="1">  1        2 0.21555792E+00 0.28462143E+04</pdfrwt>
<pdfrwt beam="2">  1       -1 0.22237425E+00 0.28462143E+04</pdfrwt>
<totfact> 0.15135825E+00</totfact>
</mgrwt>
</event>
<event>
12    7  0.1605494E-007  0.1959578E+04  0.7818608E-02  0.8625756E-01
         -1   -1    0    0    0  501 -0.00000000000E+00  0.00000000000E+00  0.89813320947E+03  0.89813320947E+03  0.00000000000E+00 0.  1.
          2   -1    0    0  501    0  0.00000000000E+00 -0.00000000000E+00 -0.10688687470E+04  0.10688687470E+04  0.00000000000E+00 0. -1.
         24    2    1    2    0    0  0.24469800347E+03 -0.63697901952E+03  0.28002607029E+03  0.74196391117E+03  0.80476463727E+02 0.  0.
        254    2    1    2    0    0 -0.24469800347E+03  0.63697901952E+03 -0.45076160779E+03  0.12250380453E+04  0.91209253977E+03 0.  0.
         23    2    4    4    0    0 -0.40995271720E+03  0.67653383372E+03 -0.71063258891E+02  0.79946980920E+03  0.91338549037E+02 0.  0.
         23    2    4    4    0    0  0.16525471374E+03 -0.39554814198E+02 -0.37969834890E+03  0.42556823608E+03  0.89798572716E+02 0.  0.
          2    1    3    3  502    0  0.82366457257E+02 -0.28085374995E+03  0.15444104834E+03  0.33093065672E+03  0.00000000000E+00 0. -1.
         -1    1    3    3    0  502  0.16233154621E+03 -0.35612526957E+03  0.12558502195E+03  0.41103325445E+03  0.00000000000E+00 0.  1.
         13    1    5    5    0    0 -0.44788020587E+02  0.33547239751E+02  0.46950210985E+01  0.56155385371E+02  0.00000000000E+00 0. -1.
        -13    1    5    5    0    0 -0.36516469662E+03  0.64298659397E+03 -0.75758279989E+02  0.74331442383E+03  0.00000000000E+00 0.  1.
          1    1    6    6  503    0  0.12525802900E+03  0.10234983103E+02 -0.21671764566E+03  0.25052119002E+03  0.00000000000E+00 0. -1.
         -1    1    6    6    0  503  0.39996684738E+02 -0.49789797300E+02 -0.16298070324E+03  0.17504704606E+03  0.00000000000E+00 0.  1.
<mgrwt>
<rscale>  0 0.19595780E+04</rscale>
<asrwt>0</asrwt>
<pdfrwt beam="1">  1        2 0.16444135E+00 0.19595780E+04</pdfrwt>
<pdfrwt beam="2">  1       -1 0.13817434E+00 0.19595780E+04</pdfrwt>
<totfact> 0.10505355E+01</totfact>
</mgrwt>
</event>
<event>
12    7  0.1605494E-007  0.1376988E+04  0.7818608E-02  0.8970646E-01
          2   -1    0    0  501    0  0.00000000000E+00  0.00000000000E+00  0.49046336520E+03  0.49046336520E+03  0.00000000000E+00 0. -1.
         -1   -1    0    0    0  501 -0.00000000000E+00 -0.00000000000E+00 -0.96648188822E+03  0.96648188822E+03  0.00000000000E+00 0.  1.
         24    2    1    2    0    0 -0.31127927024E+03  0.20059103292E+03 -0.14747703802E+02  0.37826960358E+03  0.75755208797E+02 0.  0.
        254    2    1    2    0    0  0.31127927024E+03 -0.20059103292E+03 -0.46127081922E+03  0.10786756498E+04  0.90201931373E+03 0.  0.
         23    2    4    4    0    0  0.48616386397E+03  0.13264358887E+03 -0.46408389426E+03  0.69124725727E+03  0.92191569441E+02 0.  0.
         23    2    4    4    0    0 -0.17488459373E+03 -0.33323462178E+03  0.28130750390E+01  0.38742839257E+03  0.91994085125E+02 0.  0.
          4    1    3    3  502    0 -0.23640961128E+03  0.15890440625E+03 -0.42916419701E+02  0.28806584960E+03  0.00000000000E+00 0. -1.
         -3    1    3    3    0  502 -0.74869658961E+02  0.41686626669E+02  0.28168715899E+02  0.90203753976E+02  0.00000000000E+00 0.  1.
         13    1    5    5    0    0  0.25985064705E+02  0.11756767691E+02 -0.29730827258E+01  0.28675501655E+02  0.00000000000E+00 0. -1.
        -13    1    5    5    0    0  0.46017879927E+03  0.12088682118E+03 -0.46111081153E+03  0.66257175562E+03  0.00000000000E+00 0.  1.
          1    1    6    6  503    0 -0.94007575724E+01 -0.93969192974E+02 -0.16508167600E+02  0.95870240788E+02  0.00000000000E+00 0. -1.
         -1    1    6    6    0  503 -0.16548383616E+03 -0.23926542881E+03  0.19321242639E+02  0.29155815178E+03  0.00000000000E+00 0.  1.
<mgrwt>
<rscale>  0 0.13769880E+04</rscale>
<asrwt>0</asrwt>
<pdfrwt beam="1">  1        2 0.75455903E-01 0.13769880E+04</pdfrwt>
<pdfrwt beam="2">  1       -1 0.14868952E+00 0.13769880E+04</pdfrwt>
<totfact> 0.25083425E+01</totfact>
</mgrwt>
</event>
<event>
12    7  0.1605494E-007  0.1265361E+04  0.7818608E-02  0.9057494E-01
          2   -1    0    0  501    0  0.00000000000E+00  0.00000000000E+00  0.49122831081E+03  0.49122831081E+03  0.00000000000E+00 0. -1.
         -1   -1    0    0    0  501 -0.00000000000E+00 -0.00000000000E+00 -0.81486453926E+03  0.81486453926E+03  0.00000000000E+00 0.  1.
         24    2    1    2    0    0 -0.97330051277E+02 -0.28192323580E+03 -0.36808053579E+02  0.31103148096E+03  0.80199124544E+02 0.  0.
        254    2    1    2    0    0  0.97330051277E+02  0.28192323580E+03 -0.28682817488E+03  0.99506136911E+03  0.90494357649E+03 0.  0.
         23    2    4    4    0    0  0.12771864042E+03 -0.41100787489E+02 -0.54593732304E+03  0.56960515051E+03  0.91657738089E+02 0.  0.
         23    2    4    4    0    0 -0.30388589147E+02  0.32302402329E+03  0.25910914816E+03  0.42545621860E+03  0.92776383392E+02 0.  0.
          4    1    3    3  502    0 -0.60249195018E+02 -0.18404063461E+03  0.15017590612E+02  0.19423297536E+03  0.00000000000E+00 0. -1.
         -3    1    3    3    0  502 -0.37080856259E+02 -0.97882601184E+02 -0.51825644191E+02  0.11679850560E+03  0.00000000000E+00 0.  1.
         13    1    5    5    0    0  0.56965540342E+02 -0.16868281457E+02 -0.91775778446E+02  0.10932705619E+03  0.00000000000E+00 0. -1.
        -13    1    5    5    0    0  0.70753100082E+02 -0.24232506032E+02 -0.45416154459E+03  0.46027809432E+03  0.00000000000E+00 0.  1.
          4    1    6    6  503    0 -0.28741469140E+02  0.30307826723E+03  0.26601444476E+03  0.40428479187E+03  0.00000000000E+00 0.  1.
         -4    1    6    6    0  503 -0.16471200068E+01  0.19945756053E+02 -0.69052965946E+01  0.21171426732E+02  0.00000000000E+00 0. -1.
<mgrwt>
<rscale>  0 0.12653609E+04</rscale>
<asrwt>0</asrwt>
<pdfrwt beam="1">  1        2 0.75573587E-01 0.12653609E+04</pdfrwt>
<pdfrwt beam="2">  1       -1 0.12536377E+00 0.12653609E+04</pdfrwt>
<totfact> 0.39254527E+01</totfact>
</mgrwt>
</event>
<event>
12    7  0.1605494E-007  0.1551120E+04  0.7818608E-02  0.8851152E-01
         -1   -1    0    0    0  501 -0.00000000000E+00  0.00000000000E+00  0.33280311721E+03  0.33280311721E+03  0.00000000000E+00 0.  1.
          2   -1    0    0  501    0  0.00000000000E+00 -0.00000000000E+00 -0.18073558603E+04  0.18073558603E+04  0.00000000000E+00 0. -1.
         24    2    1    2    0    0 -0.10703745596E+02 -0.50781363699E+03 -0.42370553965E+03  0.66681370137E+03  0.84408932687E+02 0.  0.
        254    2    1    2    0    0  0.10703745596E+02  0.50781363699E+03 -0.10508472035E+04  0.14733452762E+04  0.89915360072E+03 0.  0.
         23    2    4    4    0    0  0.26017239084E+02 -0.17309073490E+03  0.23509633423E+02  0.19824079942E+03  0.90052276222E+02 0.  0.
         23    2    4    4    0    0 -0.15313493488E+02  0.68090437189E+03 -0.10743568369E+04  0.12751044767E+04  0.88224412221E+02 0.  0.
          2    1    3    3  502    0 -0.62489839591E+01 -0.10526312237E+02 -0.30412644688E+02  0.32783868087E+02  0.00000000000E+00 0. -1.
         -1    1    3    3    0  502 -0.44547616369E+01 -0.49728732475E+03 -0.39329289496E+03  0.63402983328E+03  0.00000000000E+00 0.  1.
         13    1    5    5    0    0  0.58426218250E+02 -0.87326956642E+02  0.95758639171E+01  0.10550505914E+03  0.00000000000E+00 0. -1.
        -13    1    5    5    0    0 -0.32408979165E+02 -0.85763778258E+02  0.13933769506E+02  0.92735740275E+02  0.00000000000E+00 0.  1.
          2    1    6    6  503    0 -0.44788326101E+02  0.47237554188E+03 -0.70205059566E+03  0.84736042248E+03  0.00000000000E+00 0. -1.
         -2    1    6    6    0  503  0.29474832613E+02  0.20852883001E+03 -0.37230624122E+03  0.42774405426E+03  0.00000000000E+00 0.  1.
<mgrwt>
<rscale>  0 0.15511205E+04</rscale>
<asrwt>0</asrwt>
<pdfrwt beam="1">  1        2 0.27805474E+00 0.15511205E+04</pdfrwt>
<pdfrwt beam="2">  1       -1 0.51200480E-01 0.15511205E+04</pdfrwt>
<totfact> 0.35951974E+01</totfact>
</mgrwt>
</event>
<event>
12    7  0.1605494E-007  0.1329168E+04  0.7818608E-02  0.9006749E-01
         -1   -1    0    0    0  501 -0.00000000000E+00  0.00000000000E+00  0.50376615182E+03  0.50376615182E+03  0.00000000000E+00 0.  1.
          2   -1    0    0  501    0  0.00000000000E+00 -0.00000000000E+00 -0.87673983213E+03  0.87673983213E+03  0.00000000000E+00 0. -1.
         24    2    1    2    0    0 -0.16716870330E+03  0.26283861640E+03  0.97815975843E+02  0.33629963188E+03  0.80622351963E+02 0.  0.
        254    2    1    2    0    0  0.16716870330E+03 -0.26283861640E+03 -0.47078965616E+03  0.10442063521E+04  0.87846143440E+03 0.  0.
         23    2    4    4    0    0 -0.97861535452E+00 -0.55706970653E+03 -0.19142287727E+03  0.59588859726E+03  0.90071564788E+02 0.  0.
         23    2    4    4    0    0  0.16814731866E+03  0.29423109013E+03 -0.27936677889E+03  0.44831775481E+03  0.89986426516E+02 0.  0.
          2    1    3    3  502    0 -0.10481998914E+03  0.20927341482E+03  0.44291790448E+02  0.23821073648E+03  0.00000000000E+00 0. -1.
         -3    1    3    3    0  502 -0.62348714169E+02  0.53565201585E+02  0.53524185394E+02  0.98088895404E+02  0.00000000000E+00 0.  1.
         13    1    5    5    0    0  0.30866395103E+02 -0.30505641938E+03 -0.13836976879E+03  0.33639016969E+03  0.00000000000E+00 0.  1.
        -13    1    5    5    0    0 -0.31845010458E+02 -0.25201328715E+03 -0.53053108480E+02  0.25949842757E+03  0.00000000000E+00 0. -1.
          3    1    6    6  503    0  0.13609587733E+03  0.24225021282E+03 -0.26830204445E+03  0.38625540837E+03  0.00000000000E+00 0. -1.
         -3    1    6    6    0  503  0.32051441332E+02  0.51980877313E+02 -0.11064734439E+02  0.62062346442E+02  0.00000000000E+00 0.  1.
<mgrwt>
<rscale>  0 0.13291679E+04</rscale>
<asrwt>0</asrwt>
<pdfrwt beam="1">  1        2 0.13488305E+00 0.13291679E+04</pdfrwt>
<pdfrwt beam="2">  1       -1 0.77502486E-01 0.13291679E+04</pdfrwt>
<totfact> 0.56675774E+01</totfact>
</mgrwt>
</event>
<event>
12    7  0.1605494E-007  0.1727218E+04  0.7818608E-02  0.8745991E-01
          2   -1    0    0  501    0  0.00000000000E+00  0.00000000000E+00  0.19640312790E+04  0.19640312790E+04  0.00000000000E+00 0. -1.
         -1   -1    0    0    0  501 -0.00000000000E+00 -0.00000000000E+00 -0.37973955826E+03  0.37973955826E+03  0.00000000000E+00 0.  1.
         24    2    1    2    0    0 -0.50654161354E+03  0.12548661558E+03  0.15399646436E+03  0.54988892356E+03  0.79571479108E+02 0.  0.
        254    2    1    2    0    0  0.50654161354E+03 -0.12548661558E+03  0.14302952564E+04  0.17938819137E+04  0.94864983155E+03 0.  0.
         23    2    4    4    0    0  0.58818190551E+03 -0.43929053503E+03  0.10727244873E+04  0.13030270641E+04  0.90595674044E+02 0.  0.
         23    2    4    4    0    0 -0.81640291974E+02  0.31380391945E+03  0.35757076909E+03  0.49085484953E+03  0.89126826850E+02 0.  0.
          2    1    3    3  502    0 -0.46529400678E+02 -0.11421605629E+02  0.12560829245E+02  0.49529916554E+02  0.00000000000E+00 0. -1.
         -1    1    3    3    0  502 -0.46001221286E+03  0.13690822121E+03  0.14143563511E+03  0.50035900701E+03  0.00000000000E+00 0.  1.
         13    1    5    5    0    0  0.55477834529E+03 -0.43657189237E+03  0.10304383176E+04  0.12490705168E+04  0.00000000000E+00 0. -1.
        -13    1    5    5    0    0  0.33403560220E+02 -0.27186426603E+01  0.42286169658E+02  0.53956547310E+02  0.00000000000E+00 0.  1.
          1    1    6    6  503    0 -0.74220262671E+02  0.23002159371E+03  0.20629083291E+03  0.31776483240E+03  0.00000000000E+00 0. -1.
         -1    1    6    6    0  503 -0.74200293037E+01  0.83782325736E+02  0.15127993618E+03  0.17309001713E+03  0.00000000000E+00 0.  1.
<mgrwt>
<rscale>  0 0.17272178E+04</rscale>
<asrwt>0</asrwt>
<pdfrwt beam="1">  1        2 0.30215865E+00 0.17272178E+04</pdfrwt>
<pdfrwt beam="2">  1       -1 0.58421472E-01 0.17272178E+04</pdfrwt>
<totfact> 0.22464282E+01</totfact>
</mgrwt>
</event>
<event>
12    7  0.1605494E-007  0.3315311E+04  0.7818608E-02  0.8159010E-01
          2   -1    0    0  501    0  0.00000000000E+00  0.00000000000E+00  0.23943830151E+04  0.23943830151E+04  0.00000000000E+00 0. -1.
         -1   -1    0    0    0  501 -0.00000000000E+00 -0.00000000000E+00 -0.11476115759E+04  0.11476115759E+04  0.00000000000E+00 0.  1.
         24    2    1    2    0    0 -0.10989482321E+04  0.93167314221E+03  0.11372779566E+04  0.18372705257E+04  0.80372714333E+02 0.  0.
        254    2    1    2    0    0  0.10989482321E+04 -0.93167314221E+03  0.10949348258E+03  0.17047240653E+04  0.90465090248E+03 0.  0.
         23    2    4    4    0    0  0.62586602444E+03 -0.97685560162E+03  0.26933792575E+03  0.11945463137E+04  0.91884876029E+02 0.  0.
         23    2    4    4    0    0  0.47308220770E+03  0.45182459410E+02 -0.15984444318E+03  0.51017775160E+03  0.94248938089E+02 0.  0.
          4    1    3    3  502    0 -0.91823511110E+03  0.80712500289E+03  0.93965984848E+03  0.15419361596E+04  0.00000000000E+00 0. -1.
         -3    1    3    3    0  502 -0.18071312104E+03  0.12454813933E+03  0.19761810810E+03  0.29533436606E+03  0.00000000000E+00 0.  1.
         13    1    5    5    0    0  0.31515559428E+03 -0.57622627930E+03  0.14950704686E+03  0.67358156939E+03  0.00000000000E+00 0.  1.
        -13    1    5    5    0    0  0.31071043017E+03 -0.40062932233E+03  0.11983087889E+03  0.52096474435E+03  0.00000000000E+00 0. -1.
          3    1    6    6  503    0  0.30304589659E+02  0.24564168337E+02 -0.26997589568E+02  0.47440872282E+02  0.00000000000E+00 0. -1.
         -3    1    6    6    0  503  0.44277761804E+03  0.20618291073E+02 -0.13284685361E+03  0.46273687932E+03  0.00000000000E+00 0.  1.
<mgrwt>
<rscale>  0 0.33153109E+04</rscale>
<asrwt>0</asrwt>
<pdfrwt beam="1">  1        2 0.36836662E+00 0.33153109E+04</pdfrwt>
<pdfrwt beam="2">  1       -1 0.17655563E+00 0.33153109E+04</pdfrwt>
<totfact> 0.83675445E-01</totfact>
</mgrwt>
</event>
<event>
12    7  0.1605494E-007  0.1789273E+04  0.7818608E-02  0.8712025E-01
          2   -1    0    0  501    0  0.00000000000E+00  0.00000000000E+00  0.37992225610E+03  0.37992225610E+03  0.00000000000E+00 0. -1.
         -1   -1    0    0    0  501 -0.00000000000E+00 -0.00000000000E+00 -0.21066788591E+04  0.21066788591E+04  0.00000000000E+00 0.  1.
         24    2    1    2    0    0  0.47077180371E+03 -0.44864151433E+03 -0.46437173303E+03  0.80315042664E+03  0.80648631876E+02 0.  0.
        254    2    1    2    0    0 -0.47077180371E+03  0.44864151433E+03 -0.12623848700E+04  0.16834506886E+04  0.90414897076E+03 0.  0.
         23    2    4    4    0    0  0.21648196343E+03 -0.26035099617E+02 -0.48008368786E+03  0.53532731538E+03  0.92480918792E+02 0.  0.
         23    2    4    4    0    0 -0.68725376715E+03  0.47467661395E+03 -0.78230118213E+03  0.11481233732E+04  0.92501417387E+02 0.  0.
          2    1    3    3  502    0  0.29723776834E+03 -0.23007944811E+03 -0.25375200527E+03  0.45351617782E+03  0.00000000000E+00 0. -1.
         -1    1    3    3    0  502  0.17353403537E+03 -0.21856206622E+03 -0.21061972775E+03  0.34963424881E+03  0.00000000000E+00 0.  1.
         13    1    5    5    0    0  0.14393578109E+03  0.27680601571E+02 -0.29592287980E+03  0.33023336532E+03  0.00000000000E+00 0. -1.
        -13    1    5    5    0    0  0.72546182345E+02 -0.53715701188E+02 -0.18416080806E+03  0.20509395006E+03  0.00000000000E+00 0.  1.
          2    1    6    6  503    0 -0.64962681700E+03  0.44280473858E+03 -0.76177358514E+03  0.10947100223E+04  0.00000000000E+00 0. -1.
         -2    1    6    6    0  503 -0.37626950147E+02  0.31871875365E+02 -0.20527596989E+02  0.53413350904E+02  0.00000000000E+00 0.  1.
<mgrwt>
<rscale>  0 0.17892727E+04</rscale>
<asrwt>0</asrwt>
<pdfrwt beam="1">  1        2 0.58449577E-01 0.17892727E+04</pdfrwt>
<pdfrwt beam="2">  1       -1 0.32410444E+00 0.17892727E+04</pdfrwt>
<totfact> 0.20991227E+00</totfact>
</mgrwt>
</event>
<event>
12    7  0.1605494E-007  0.2616866E+04  0.7818608E-02  0.8362495E-01
          2   -1    0    0  501    0  0.00000000000E+00  0.00000000000E+00  0.70579110795E+03  0.70579110795E+03  0.00000000000E+00 0. -1.
         -1   -1    0    0    0  501 -0.00000000000E+00 -0.00000000000E+00 -0.24256428178E+04  0.24256428178E+04  0.00000000000E+00 0.  1.
         24    2    1    2    0    0 -0.11255380355E+04 -0.10160519092E+03 -0.48709369783E+03  0.12331446605E+04  0.78904999015E+02 0.  0.
        254    2    1    2    0    0  0.11255380355E+04  0.10160519092E+03 -0.12327580120E+04  0.18982892652E+04  0.89813714664E+03 0.  0.
         23    2    4    4    0    0  0.37964243575E+03 -0.38219994381E+03 -0.40602188541E+03  0.68080253893E+03  0.91832181289E+02 0.  0.
         23    2    4    4    0    0  0.74589559980E+03  0.48380513473E+03 -0.82673612657E+03  0.12174867263E+04  0.91398312842E+02 0.  0.
          2    1    3    3  502    0 -0.10006920535E+04 -0.69541193221E+02 -0.41604071394E+03  0.10859606067E+04  0.00000000000E+00 0. -1.
         -1    1    3    3    0  502 -0.12484598202E+03 -0.32063997703E+02 -0.71052983892E+02  0.14718405380E+03  0.00000000000E+00 0.  1.
         13    1    5    5    0    0  0.27349536952E+03 -0.24518583834E+03 -0.32073778093E+03  0.48763565967E+03  0.00000000000E+00 0. -1.
        -13    1    5    5    0    0  0.10614706623E+03 -0.13701410547E+03 -0.85284104483E+02  0.19316687926E+03  0.00000000000E+00 0.  1.
          1    1    6    6  503    0  0.99054612279E+02  0.10272407995E+03 -0.12081406679E+03  0.18697617910E+03  0.00000000000E+00 0. -1.
         -1    1    6    6    0  503  0.64684098752E+03  0.38108105478E+03 -0.70592205978E+03  0.10305105472E+04  0.00000000000E+00 0.  1.
<mgrwt>
<rscale>  0 0.26168662E+04</rscale>
<asrwt>0</asrwt>
<pdfrwt beam="1">  1        2 0.10858325E+00 0.26168662E+04</pdfrwt>
<pdfrwt beam="2">  1       -1 0.37317581E+00 0.26168662E+04</pdfrwt>
<totfact> 0.44439407E-01</totfact>
</mgrwt>
</event>
<event>
12    7  0.1605494E-007  0.2422509E+04  0.7818608E-02  0.8431124E-01
          2   -1    0    0  501    0  0.00000000000E+00  0.00000000000E+00  0.17762448172E+04  0.17762448172E+04  0.00000000000E+00 0. -1.
         -1   -1    0    0    0  501 -0.00000000000E+00 -0.00000000000E+00 -0.82597675593E+03  0.82597675593E+03  0.00000000000E+00 0.  1.
         24    2    1    2    0    0 -0.57210454039E+03 -0.72704938090E+03 -0.10675525939E+03  0.93478767016E+03  0.80789204025E+02 0.  0.
        254    2    1    2    0    0  0.57210454039E+03  0.72704938090E+03  0.10570233206E+04  0.16674339029E+04  0.89840587317E+03 0.  0.
         23    2    4    4    0    0  0.51202682287E+02 -0.18370716030E+03  0.31222042217E+03  0.37773679602E+03  0.93986486392E+02 0.  0.
         23    2    4    4    0    0  0.52090185810E+03  0.91075654120E+03  0.74480289845E+03  0.12896971069E+04  0.88153541951E+02 0.  0.
          2    1    3    3  502    0 -0.68837619231E+01 -0.29382599521E+02 -0.95200377913E+01  0.31644185127E+02  0.00000000000E+00 0. -1.
         -1    1    3    3    0  502 -0.56522077847E+03 -0.69766678137E+03 -0.97235221597E+02  0.90314348504E+03  0.00000000000E+00 0.  1.
         13    1    5    5    0    0 -0.26537200217E+00 -0.15231455134E+03  0.22532205227E+03  0.27197393297E+03  0.00000000000E+00 0. -1.
        -13    1    5    5    0    0  0.51468054289E+02 -0.31392608962E+02  0.86898369897E+02  0.10576286305E+03  0.00000000000E+00 0.  1.
          4    1    6    6  503    0  0.49868375304E+03  0.88888265197E+03  0.73638393890E+03  0.12574017496E+04  0.00000000000E+00 0. -1.
         -4    1    6    6    0  503  0.22218105058E+02  0.21873889226E+02  0.84189595524E+01  0.32295357285E+02  0.00000000000E+00 0.  1.
<mgrwt>
<rscale>  0 0.24225086E+04</rscale>
<asrwt>0</asrwt>
<pdfrwt beam="1">  1        2 0.27326843E+00 0.24225086E+04</pdfrwt>
<pdfrwt beam="2">  1       -1 0.12707335E+00 0.24225086E+04</pdfrwt>
<totfact> 0.48813913E+00</totfact>
</mgrwt>
</event>
<event>
12    7  0.1605494E-007  0.1686838E+04  0.7818608E-02  0.8768907E-01
          2   -1    0    0  501    0  0.00000000000E+00  0.00000000000E+00  0.11686774454E+04  0.11686774454E+04  0.00000000000E+00 0. -1.
         -1   -1    0    0    0  501 -0.00000000000E+00 -0.00000000000E+00 -0.60868452754E+03  0.60868452754E+03  0.00000000000E+00 0.  1.
         24    2    1    2    0    0  0.46393271934E+03 -0.28507850130E+03 -0.68852241358E+02  0.55289537687E+03  0.66703423006E+02 0.  0.
        254    2    1    2    0    0 -0.46393271934E+03  0.28507850130E+03  0.62884515923E+03  0.12244665961E+04  0.89853708364E+03 0.  0.
         23    2    4    4    0    0 -0.25010207007E+02  0.10599964957E+03 -0.21186469461E+03  0.25480557070E+03  0.90431155441E+02 0.  0.
         23    2    4    4    0    0 -0.43892251234E+03  0.17907885173E+03  0.84070985385E+03  0.96966102539E+03  0.93419691904E+02 0.  0.
          4    1    3    3  502    0  0.58567959158E+01 -0.69662389502E+01  0.72383105953E+01  0.11628571872E+02  0.00000000000E+00 0. -1.
         -3    1    3    3    0  502  0.45807592343E+03 -0.27811226235E+03 -0.76090551953E+02  0.54126680499E+03  0.00000000000E+00 0.  1.
         13    1    5    5    0    0 -0.19061174844E+02  0.11710020150E+02 -0.12328327698E+03  0.12529652565E+03  0.00000000000E+00 0. -1.
        -13    1    5    5    0    0 -0.59490321629E+01  0.94289629417E+02 -0.88581417637E+02  0.12950904505E+03  0.00000000000E+00 0.  1.
          1    1    6    6  503    0 -0.19179357786E+02 -0.35824842031E+01  0.75494198309E+02  0.77974713443E+02  0.00000000000E+00 0.  1.
         -1    1    6    6    0  503 -0.41974315455E+03  0.18266133593E+03  0.76521565554E+03  0.89168631195E+03  0.00000000000E+00 0. -1.
<mgrwt>
<rscale>  0 0.16868383E+04</rscale>
<asrwt>0</asrwt>
<pdfrwt beam="1">  1        2 0.17979653E+00 0.16868383E+04</pdfrwt>
<pdfrwt beam="2">  1       -1 0.93643774E-01 0.16868383E+04</pdfrwt>
<totfact> 0.23764033E+01</totfact>
</mgrwt>
</event>
<event>
12    7  0.1605494E-007  0.1658865E+04  0.7818608E-02  0.8785179E-01
          2   -1    0    0  501    0  0.00000000000E+00  0.00000000000E+00  0.30635785948E+04  0.30635785948E+04  0.00000000000E+00 0. -1.
         -1   -1    0    0    0  501 -0.00000000000E+00 -0.00000000000E+00 -0.22456025546E+03  0.22456025546E+03  0.00000000000E+00 0.  1.
         24    2    1    2    0    0  0.93469110673E+02  0.15065900478E+03  0.20908233659E+04  0.20995612982E+04  0.71976990919E+02 0.  0.
        254    2    1    2    0    0 -0.93469110673E+02 -0.15065900478E+03  0.74819497343E+03  0.11885775520E+04  0.90635879680E+03 0.  0.
         23    2    4    4    0    0 -0.34992703799E+03  0.16017260457E+03  0.82009595755E+02  0.40454317241E+03  0.93943650006E+02 0.  0.
         23    2    4    4    0    0  0.25645792732E+03 -0.31083160936E+03  0.66618537768E+03  0.78403437961E+03  0.92303808781E+02 0.  0.
          2    1    3    3  502    0  0.10014780921E+03  0.13746919575E+03  0.20234210504E+04  0.20305566012E+04  0.00000000000E+00 0. -1.
         -1    1    3    3    0  502 -0.66786985378E+01  0.13189809030E+02  0.67402315522E+02  0.69004697044E+02  0.00000000000E+00 0.  1.
         13    1    5    5    0    0 -0.77683100636E+02  0.31589884725E+01 -0.65619076185E+01  0.78023726931E+02  0.00000000000E+00 0.  1.
        -13    1    5    5    0    0 -0.27224393736E+03  0.15701361610E+03  0.88571503373E+02  0.32651944548E+03  0.00000000000E+00 0. -1.
          3    1    6    6  503    0  0.25789945929E+03 -0.30717339346E+03  0.66841319251E+03  0.77951511895E+03  0.00000000000E+00 0. -1.
         -3    1    6    6    0  503 -0.14415319671E+01 -0.36582158962E+01 -0.22278148333E+01  0.45192606571E+01  0.00000000000E+00 0.  1.
<mgrwt>
<rscale>  0 0.16588647E+04</rscale>
<asrwt>0</asrwt>
<pdfrwt beam="1">  1        2 0.47131975E+00 0.16588647E+04</pdfrwt>
<pdfrwt beam="2">  1       -1 0.34547734E-01 0.16588647E+04</pdfrwt>
<totfact> 0.13786002E+01</totfact>
</mgrwt>
</event>
<event>
12    7  0.1605494E-007  0.1451031E+04  0.7818608E-02  0.8917686E-01
         -1   -1    0    0    0  501 -0.00000000000E+00  0.00000000000E+00  0.28316103661E+03  0.28316103661E+03  0.00000000000E+00 0.  1.
          2   -1    0    0  501    0  0.00000000000E+00 -0.00000000000E+00 -0.18589171519E+04  0.18589171519E+04  0.00000000000E+00 0. -1.
         24    2    1    2    0    0 -0.19954705726E+02 -0.39492124467E+03 -0.20975201253E+03  0.45532006005E+03  0.83423441259E+02 0.  0.
        254    2    1    2    0    0  0.19954705726E+02  0.39492124467E+03 -0.13660041028E+04  0.16867581285E+04  0.90709690519E+03 0.  0.
         23    2    4    4    0    0 -0.18055810082E+02  0.33669798165E+03 -0.34875943822E+02  0.35072809494E+03  0.90012899056E+02 0.  0.
         23    2    4    4    0    0  0.38010515808E+02  0.58223263012E+02 -0.13311281589E+04  0.13360300335E+04  0.90770740266E+02 0.  0.
          4    1    3    3  502    0 -0.17153058100E+02 -0.39532822641E+03 -0.19656586216E+03  0.44183342128E+03  0.00000000000E+00 0. -1.
         -3    1    3    3    0  502 -0.28016476258E+01  0.40698174073E+00 -0.13186150370E+02  0.13486638764E+02  0.00000000000E+00 0.  1.
         13    1    5    5    0    0 -0.49088651522E+02  0.20354030017E+03  0.98116645797E+00  0.20937839475E+03  0.00000000000E+00 0. -1.
        -13    1    5    5    0    0  0.31032841440E+02  0.13315768149E+03 -0.35857110280E+02  0.14134970019E+03  0.00000000000E+00 0.  1.
          1    1    6    6  503    0  0.44605861026E+02  0.42368995040E+01 -0.28608339318E+03  0.28957096195E+03  0.00000000000E+00 0. -1.
         -1    1    6    6    0  503 -0.65953452186E+01  0.53986363508E+02 -0.10450447658E+04  0.10464590716E+04  0.00000000000E+00 0.  1.
<mgrwt>
<rscale>  0 0.14510312E+04</rscale>
<asrwt>0</asrwt>
<pdfrwt beam="1">  1        2 0.28598726E+00 0.14510312E+04</pdfrwt>
<pdfrwt beam="2">  1       -1 0.43563236E-01 0.14510312E+04</pdfrwt>
<totfact> 0.46003180E+01</totfact>
</mgrwt>
</event>
<event>
12    7  0.1605494E-007  0.1481022E+04  0.7818608E-02  0.8897172E-01
          2   -1    0    0  501    0  0.00000000000E+00  0.00000000000E+00  0.17540594719E+04  0.17540594719E+04  0.00000000000E+00 0. -1.
         -1   -1    0    0    0  501 -0.00000000000E+00 -0.00000000000E+00 -0.31262161778E+03  0.31262161778E+03  0.00000000000E+00 0.  1.
         24    2    1    2    0    0 -0.62940997658E+02 -0.11716440256E+03 -0.15827757549E+03  0.22143598864E+03  0.79328681738E+02 0.  0.
        254    2    1    2    0    0  0.62940997658E+02  0.11716440256E+03  0.15997154296E+04  0.18452451010E+04  0.91002799999E+03 0.  0.
         23    2    4    4    0    0  0.10996628046E+03  0.15458148859E+03 -0.28614068745E+02  0.21263140174E+03  0.91680579313E+02 0.  0.
         23    2    4    4    0    0 -0.47025282798E+02 -0.37417086023E+02  0.16283294983E+04  0.16326136993E+04  0.10177976418E+03 0.  0.
          4    1    3    3  502    0 -0.13559499634E+02 -0.49113728581E+02 -0.11424204137E+02  0.52216192944E+02  0.00000000000E+00 0. -1.
         -3    1    3    3    0  502 -0.49381498024E+02 -0.68050673984E+02 -0.14685337135E+03  0.16921979569E+03  0.00000000000E+00 0.  1.
         13    1    5    5    0    0  0.17508912369E+02  0.85846346670E+02 -0.41051031964E+02  0.96754041126E+02  0.00000000000E+00 0. -1.
        -13    1    5    5    0    0  0.92457368087E+02  0.68735141918E+02  0.12436963219E+02  0.11587736061E+03  0.00000000000E+00 0.  1.
          3    1    6    6  503    0  0.16063466696E+02 -0.51156808815E+02  0.72822459219E+03  0.73019593995E+03  0.00000000000E+00 0. -1.
         -3    1    6    6    0  503 -0.63088749494E+02  0.13739722792E+02  0.90010490616E+03  0.90241775935E+03  0.00000000000E+00 0.  1.
<mgrwt>
<rscale>  0 0.14810225E+04</rscale>
<asrwt>0</asrwt>
<pdfrwt beam="1">  1        2 0.26985530E+00 0.14810225E+04</pdfrwt>
<pdfrwt beam="2">  1       -1 0.48095634E-01 0.14810225E+04</pdfrwt>
<totfact> 0.43586518E+01</totfact>
</mgrwt>
</event>
<event>
12    7  0.1605494E-007  0.1291940E+04  0.7818608E-02  0.9035981E-01
         -1   -1    0    0    0  501 -0.00000000000E+00  0.00000000000E+00  0.13725868362E+03  0.13725868362E+03  0.00000000000E+00 0.  1.
          2   -1    0    0  501    0  0.00000000000E+00 -0.00000000000E+00 -0.30400800625E+04  0.30400800625E+04  0.00000000000E+00 0. -1.
         24    2    1    2    0    0 -0.29612884849E+03 -0.61617455275E+02 -0.95874290877E+03  0.10084810435E+04  0.79731075092E+02 0.  0.
        254    2    1    2    0    0  0.29612884849E+03  0.61617455275E+02 -0.19440784701E+04  0.21688577026E+04  0.91269580391E+03 0.  0.
         23    2    4    4    0    0 -0.29978236170E+03  0.78398556021E+02 -0.41665168058E+03  0.52684778545E+03  0.89186143200E+02 0.  0.
         23    2    4    4    0    0  0.59591121019E+03 -0.16781100746E+02 -0.15274267895E+04  0.16420099171E+04  0.88160052431E+02 0.  0.
          4    1    3    3  502    0 -0.28992922657E+03 -0.71597903962E+02 -0.89071060833E+03  0.93944164484E+03  0.00000000000E+00 0. -1.
         -1    1    3    3    0  502 -0.61996219257E+01  0.99804486866E+01 -0.68032300442E+02  0.69039398689E+02  0.00000000000E+00 0.  1.
         13    1    5    5    0    0 -0.18007468220E+03  0.79956978337E+02 -0.20952680242E+03  0.28761343933E+03  0.00000000000E+00 0.  1.
        -13    1    5    5    0    0 -0.11970767950E+03 -0.15584223160E+01 -0.20712487816E+03  0.23923434612E+03  0.00000000000E+00 0. -1.
          1    1    6    6  503    0  0.29755324208E+03  0.24211921676E+02 -0.67949846255E+03  0.74218751649E+03  0.00000000000E+00 0. -1.
         -1    1    6    6    0  503  0.29835796811E+03 -0.40993022421E+02 -0.84792832697E+03  0.89982240064E+03  0.00000000000E+00 0.  1.
<mgrwt>
<rscale>  0 0.12919402E+04</rscale>
<asrwt>0</asrwt>
<pdfrwt beam="1">  1        2 0.46770455E+00 0.12919402E+04</pdfrwt>
<pdfrwt beam="2">  1       -1 0.21116724E-01 0.12919402E+04</pdfrwt>
<totfact> 0.34680654E+01</totfact>
</mgrwt>
</event>
<event>
12    7  0.1605494E-007  0.2278466E+04  0.7818608E-02  0.8486460E-01
         -1   -1    0    0    0  501 -0.00000000000E+00  0.00000000000E+00  0.47732802524E+03  0.47732802524E+03  0.00000000000E+00 0.  1.
          2   -1    0    0  501    0  0.00000000000E+00 -0.00000000000E+00 -0.27189939800E+04  0.27189939800E+04  0.00000000000E+00 0. -1.
         24    2    1    2    0    0  0.23765542612E+03 -0.21426269110E+03  0.31653033971E+03  0.45717097320E+03  0.80157597426E+02 0.  0.
        254    2    1    2    0    0 -0.23765542612E+03  0.21426269110E+03 -0.25581962944E+04  0.27391510320E+04  0.92530616173E+03 0.  0.
         23    2    4    4    0    0  0.25461155106E+03 -0.19188577870E+03 -0.79493408839E+03  0.86149688193E+03  0.92787276565E+02 0.  0.
         23    2    4    4    0    0 -0.49226697718E+03  0.40614846979E+03 -0.17632622061E+04  0.18776541501E+04  0.95959073072E+02 0.  0.
          2    1    3    3  502    0  0.18075204484E+03 -0.20194391224E+03  0.24940990844E+03  0.36831772674E+03  0.00000000000E+00 0. -1.
         -1    1    3    3    0  502  0.56903381273E+02 -0.12318778859E+02  0.67120431270E+02  0.88853246462E+02  0.00000000000E+00 0.  1.
         13    1    5    5    0    0  0.20707544021E+03 -0.19487514338E+03 -0.67473423923E+03  0.73220410613E+03  0.00000000000E+00 0. -1.
        -13    1    5    5    0    0  0.47536110846E+02  0.29893646835E+01 -0.12019984916E+03  0.12929277580E+03  0.00000000000E+00 0.  1.
          2    1    6    6  503    0 -0.33992699028E+03  0.23288675114E+03 -0.12091581600E+04  0.12774388649E+04  0.00000000000E+00 0.  1.
         -2    1    6    6    0  503 -0.15233998689E+03  0.17326171865E+03 -0.55410404606E+03  0.60021528523E+03  0.00000000000E+00 0. -1.
<mgrwt>
<rscale>  0 0.22784662E+04</rscale>
<asrwt>0</asrwt>
<pdfrwt beam="1">  1        2 0.41830677E+00 0.22784662E+04</pdfrwt>
<pdfrwt beam="2">  1       -1 0.73435080E-01 0.22784662E+04</pdfrwt>
<totfact> 0.49961546E+00</totfact>
</mgrwt>
</event>
<event>
12    7  0.1605494E-007  0.1971534E+04  0.7818608E-02  0.8620046E-01
          2   -1    0    0  501    0  0.00000000000E+00  0.00000000000E+00  0.14436753565E+04  0.14436753565E+04  0.00000000000E+00 0. -1.
         -1   -1    0    0    0  501 -0.00000000000E+00 -0.00000000000E+00 -0.67309885060E+03  0.67309885060E+03  0.00000000000E+00 0.  1.
         24    2    1    2    0    0  0.54732359189E+03 -0.92300212136E+02  0.88657634777E+03  0.10489992481E+04  0.79368499908E+02 0.  0.
        254    2    1    2    0    0 -0.54732359189E+03  0.92300212136E+02 -0.11599984189E+03  0.10677749589E+04  0.90476790183E+03 0.  0.
         23    2    4    4    0    0 -0.19719604416E+03  0.48205581651E+03 -0.52189599565E+02  0.53189993581E+03  0.94497075884E+02 0.  0.
         23    2    4    4    0    0 -0.35012754773E+03 -0.38975560437E+03 -0.63810242329E+02  0.53587502312E+03  0.92690682144E+02 0.  0.
          2    1    3    3  502    0  0.35388372116E+03 -0.62766678102E+02  0.50065536442E+03  0.61630279725E+03  0.00000000000E+00 0. -1.
         -1    1    3    3    0  502  0.19343987073E+03 -0.29533534035E+02  0.38592098335E+03  0.43269645089E+03  0.00000000000E+00 0.  1.
         13    1    5    5    0    0 -0.35650531745E+02  0.23893475217E+02 -0.11266519429E+02  0.44371083283E+02  0.00000000000E+00 0. -1.
        -13    1    5    5    0    0 -0.16154551241E+03  0.45816234129E+03 -0.40923080136E+02  0.48752885252E+03  0.00000000000E+00 0.  1.
          2    1    6    6  503    0  0.97948220424E+00  0.29428206918E+01 -0.49280805862E+01  0.58228478665E+01  0.00000000000E+00 0. -1.
         -2    1    6    6    0  503 -0.35110702994E+03 -0.39269842506E+03 -0.58882161743E+02  0.53005217525E+03  0.00000000000E+00 0.  1.
<mgrwt>
<rscale>  0 0.19715336E+04</rscale>
<asrwt>0</asrwt>
<pdfrwt beam="1">  1        2 0.22210390E+00 0.19715336E+04</pdfrwt>
<pdfrwt beam="2">  1       -1 0.10355367E+00 0.19715336E+04</pdfrwt>
<totfact> 0.12748441E+01</totfact>
</mgrwt>
</event>
<event>
12    7  0.1605494E-007  0.1251186E+04  0.7818608E-02  0.9069197E-01
          2   -1    0    0  501    0  0.00000000000E+00  0.00000000000E+00  0.17217473775E+04  0.17217473775E+04  0.00000000000E+00 0. -1.
         -1   -1    0    0    0  501 -0.00000000000E+00 -0.00000000000E+00 -0.22730775586E+03  0.22730775586E+03  0.00000000000E+00 0.  1.
         24    2    1    2    0    0 -0.26271337787E+03  0.11688460326E+03  0.45596737212E+03  0.54434831583E+03  0.75686954778E+02 0.  0.
        254    2    1    2    0    0  0.26271337787E+03 -0.11688460326E+03  0.10384722495E+04  0.14047068175E+04  0.90116385900E+03 0.  0.
         23    2    4    4    0    0 -0.16346187398E+03 -0.28211804095E+03  0.82653972815E+03  0.89292715520E+03  0.88547213405E+02 0.  0.
         23    2    4    4    0    0  0.42617525185E+03  0.16523343769E+03  0.21193252137E+03  0.51177966233E+03  0.89864314034E+02 0.  0.
          2    1    3    3  502    0 -0.16963783542E+03  0.54538388673E+02  0.33521886920E+03  0.37963551113E+03  0.00000000000E+00 0. -1.
         -1    1    3    3    0  502 -0.93075542450E+02  0.62346214587E+02  0.12074850292E+03  0.16471280470E+03  0.00000000000E+00 0.  1.
         13    1    5    5    0    0 -0.11268244429E+03 -0.20890456046E+03  0.48513645125E+03  0.54008871953E+03  0.00000000000E+00 0.  1.
        -13    1    5    5    0    0 -0.50779429685E+02 -0.73213480494E+02  0.34140327691E+03  0.35283843567E+03  0.00000000000E+00 0. -1.
          4    1    6    6  503    0  0.45866740194E+02  0.29559909771E+01 -0.24437411860E+01  0.46026814029E+02  0.00000000000E+00 0. -1.
         -4    1    6    6    0  503  0.38030851165E+03  0.16227744671E+03  0.21437626256E+03  0.46575284830E+03  0.00000000000E+00 0.  1.
<mgrwt>
<rscale>  0 0.12511859E+04</rscale>
<asrwt>0</asrwt>
<pdfrwt beam="1">  1        2 0.26488420E+00 0.12511859E+04</pdfrwt>
<pdfrwt beam="2">  1       -1 0.34970425E-01 0.12511859E+04</pdfrwt>
<totfact> 0.83037500E+01</totfact>
</mgrwt>
</event>
<event>
12    7  0.1605494E-007  0.2227610E+04  0.7818608E-02  0.8507023E-01
         -1   -1    0    0    0  501 -0.00000000000E+00  0.00000000000E+00  0.78281737039E+03  0.78281737039E+03  0.00000000000E+00 0.  1.
          2   -1    0    0  501    0  0.00000000000E+00 -0.00000000000E+00 -0.15847394121E+04  0.15847394121E+04  0.00000000000E+00 0. -1.
         24    2    1    2    0    0  0.63375479670E+03  0.23366097578E+03 -0.99865267619E+03  0.12084627663E+04  0.82658913467E+02 0.  0.
        254    2    1    2    0    0 -0.63375479670E+03 -0.23366097578E+03  0.19673063447E+03  0.11590940162E+04  0.92116958365E+03 0.  0.
         23    2    4    4    0    0 -0.24480746331E+03  0.32875387851E+03  0.20878359843E+03  0.46903919302E+03  0.91637147955E+02 0.  0.
         23    2    4    4    0    0 -0.38894733339E+03 -0.56241485429E+03 -0.12052963957E+02  0.69005482316E+03  0.91868865992E+02 0.  0.
          2    1    3    3  502    0  0.56301831874E+03  0.23285181850E+03 -0.88025053469E+03  0.10705375287E+04  0.00000000000E+00 0. -1.
         -1    1    3    3    0  502  0.70736477966E+02  0.80915727720E+00 -0.11840214150E+03  0.13792523759E+03  0.00000000000E+00 0.  1.
         13    1    5    5    0    0 -0.26254502905E+02  0.73806163726E+02  0.10427265771E+02  0.79027695134E+02  0.00000000000E+00 0.  1.
        -13    1    5    5    0    0 -0.21855296041E+03  0.25494771479E+03  0.19835633265E+03  0.39001149788E+03  0.00000000000E+00 0. -1.
          4    1    6    6  503    0 -0.33632776203E+03 -0.49831098338E+03 -0.40047428620E+02  0.60252302546E+03  0.00000000000E+00 0. -1.
         -4    1    6    6    0  503 -0.52619571363E+02 -0.64103870913E+02  0.27994464662E+02  0.87531797698E+02  0.00000000000E+00 0.  1.
<mgrwt>
<rscale>  0 0.22276100E+04</rscale>
<asrwt>0</asrwt>
<pdfrwt beam="1">  1        2 0.24380606E+00 0.22276100E+04</pdfrwt>
<pdfrwt beam="2">  1       -1 0.12043344E+00 0.22276100E+04</pdfrwt>
<totfact> 0.72495999E+00</totfact>
</mgrwt>
</event>
<event>
12    7  0.1605494E-007  0.1002258E+04  0.7818608E-02  0.9306072E-01
          2   -1    0    0  501    0  0.00000000000E+00  0.00000000000E+00  0.80259889454E+03  0.80259889454E+03  0.00000000000E+00 0. -1.
         -1   -1    0    0    0  501 -0.00000000000E+00 -0.00000000000E+00 -0.31289619582E+03  0.31289619582E+03  0.00000000000E+00 0.  1.
         24    2    1    2    0    0  0.43064285359E+02  0.39710013844E+02  0.58672880774E+02  0.11538123725E+03  0.80242788443E+02 0.  0.
        254    2    1    2    0    0 -0.43064285359E+02 -0.39710013844E+02  0.43102981794E+03  0.10001138531E+04  0.90056071276E+03 0.  0.
         23    2    4    4    0    0 -0.13332771503E+03 -0.39578931703E+03  0.44987256762E+03  0.62122625593E+03  0.95452977360E+02 0.  0.
         23    2    4    4    0    0  0.90263429674E+02  0.35607930318E+03 -0.18842749683E+02  0.37888759719E+03  0.90888971808E+02 0.  0.
          2    1    3    3  502    0  0.70235201649E+01 -0.24219727304E+02  0.90596458202E+01  0.26795563226E+02  0.00000000000E+00 0. -1.
         -1    1    3    3    0  502  0.36040765194E+02  0.63929741148E+02  0.49613234954E+02  0.88585674020E+02  0.00000000000E+00 0.  1.
         13    1    5    5    0    0 -0.11251873480E+03 -0.23722121001E+03  0.22806862049E+03  0.34777818191E+03  0.00000000000E+00 0.  1.
        -13    1    5    5    0    0 -0.20808980234E+02 -0.15856810701E+03  0.22180394713E+03  0.27344807402E+03  0.00000000000E+00 0. -1.
          1    1    6    6  503    0  0.10817180938E+03  0.31429968900E+03 -0.97821706534E+01  0.33253740498E+03  0.00000000000E+00 0. -1.
         -1    1    6    6    0  503 -0.17908379709E+02  0.41779614182E+02 -0.90605790299E+01  0.46350192204E+02  0.00000000000E+00 0.  1.
<mgrwt>
<rscale>  0 0.10022577E+04</rscale>
<asrwt>0</asrwt>
<pdfrwt beam="1">  1        2 0.12347675E+00 0.10022577E+04</pdfrwt>
<pdfrwt beam="2">  1       -1 0.48137877E-01 0.10022577E+04</pdfrwt>
<totfact> 0.16848518E+02</totfact>
</mgrwt>
</event>
<event>
12    7  0.1605494E-007  0.1498867E+04  0.7818608E-02  0.8885207E-01
         -1   -1    0    0    0  501 -0.00000000000E+00  0.00000000000E+00  0.26862418818E+03  0.26862418818E+03  0.00000000000E+00 0.  1.
          2   -1    0    0  501    0  0.00000000000E+00 -0.00000000000E+00 -0.20908409060E+04  0.20908409060E+04  0.00000000000E+00 0. -1.
         24    2    1    2    0    0  0.43380380173E+03 -0.20350284674E+03 -0.56474402404E+03  0.74488300091E+03  0.79471537869E+02 0.  0.
        254    2    1    2    0    0 -0.43380380173E+03  0.20350284674E+03 -0.12574726938E+04  0.16145820933E+04  0.89220996033E+03 0.  0.
         23    2    4    4    0    0 -0.26347963852E+02  0.61603204245E+02  0.12100264459E+03  0.16723471916E+03  0.94003411233E+02 0.  0.
         23    2    4    4    0    0 -0.40745583787E+03  0.14189964249E+03 -0.13784753384E+04  0.14473473742E+04  0.92002143841E+02 0.  0.
          4    1    3    3  502    0  0.32999141235E+03 -0.15601287168E+03 -0.47839941593E+03  0.60174774575E+03  0.00000000000E+00 0. -1.
         -3    1    3    3    0  502  0.10381238938E+03 -0.47489975058E+02 -0.86344608108E+02  0.14313525516E+03  0.00000000000E+00 0.  1.
         13    1    5    5    0    0  0.26168216547E+02  0.54574218626E+02  0.79577552963E+02  0.99978536854E+02  0.00000000000E+00 0.  1.
        -13    1    5    5    0    0 -0.52516180399E+02  0.70289856187E+01  0.41425091629E+02  0.67256182310E+02  0.00000000000E+00 0. -1.
          2    1    6    6  503    0 -0.15575448114E+02  0.38408591913E+01 -0.14260799928E+03  0.14350745013E+03  0.00000000000E+00 0. -1.
         -2    1    6    6    0  503 -0.39188038976E+03  0.13805878330E+03 -0.12358673391E+04  0.13038399240E+04  0.00000000000E+00 0.  1.
<mgrwt>
<rscale>  0 0.14988668E+04</rscale>
<asrwt>0</asrwt>
<pdfrwt beam="1">  1        2 0.32166782E+00 0.14988668E+04</pdfrwt>
<pdfrwt beam="2">  1       -1 0.41326800E-01 0.14988668E+04</pdfrwt>
<totfact> 0.37561825E+01</totfact>
</mgrwt>
</event>
<event>
12    7  0.1605494E-007  0.2662993E+04  0.7818608E-02  0.8347113E-01
         -1   -1    0    0    0  501 -0.00000000000E+00  0.00000000000E+00  0.41526939496E+03  0.41526939496E+03  0.00000000000E+00 0.  1.
          2   -1    0    0  501    0  0.00000000000E+00 -0.00000000000E+00 -0.42692351864E+04  0.42692351864E+04  0.00000000000E+00 0. -1.
         24    2    1    2    0    0  0.64890601088E+03  0.87356900870E+03 -0.89807496909E+03  0.14131565021E+04  0.79188542537E+02 0.  0.
        254    2    1    2    0    0 -0.64890601088E+03 -0.87356900870E+03 -0.29558908223E+04  0.32713480793E+04  0.88330395586E+03 0.  0.
         23    2    4    4    0    0  0.15717978483E+03 -0.43632952442E+03 -0.84941468584E+03  0.97208041766E+03  0.91356944071E+02 0.  0.
         23    2    4    4    0    0 -0.80608579571E+03 -0.43723948427E+03 -0.21064761365E+04  0.22992676616E+04  0.91855264343E+02 0.  0.
          4    1    3    3  502    0  0.23850385570E+03  0.28797164694E+03 -0.35034962215E+03  0.51240278724E+03  0.00000000000E+00 0. -1.
         -3    1    3    3    0  502  0.41040215518E+03  0.58559736176E+03 -0.54772534694E+03  0.90075371481E+03  0.00000000000E+00 0.  1.
         13    1    5    5    0    0  0.16959747036E+01 -0.51498894450E+02 -0.15208394358E+03  0.16057564683E+03  0.00000000000E+00 0. -1.
        -13    1    5    5    0    0  0.15548381013E+03 -0.38483062997E+03 -0.69733074227E+03  0.81150477084E+03  0.00000000000E+00 0.  1.
          2    1    6    6  503    0 -0.31823780327E+03 -0.16946211934E+03 -0.71865590676E+03  0.80402675431E+03  0.00000000000E+00 0. -1.
         -2    1    6    6    0  503 -0.48784799244E+03 -0.26777736494E+03 -0.13878202297E+04  0.14952409073E+04  0.00000000000E+00 0.  1.
<mgrwt>
<rscale>  0 0.26629928E+04</rscale>
<asrwt>0</asrwt>
<pdfrwt beam="1">  1        2 0.65680543E+00 0.26629928E+04</pdfrwt>
<pdfrwt beam="2">  1       -1 0.63887598E-01 0.26629928E+04</pdfrwt>
<totfact> 0.50371378E-01</totfact>
</mgrwt>
</event>
<event>
12    7  0.1605494E-007  0.2693191E+04  0.7818608E-02  0.8337218E-01
         -1   -1    0    0    0  501 -0.00000000000E+00  0.00000000000E+00  0.93972283545E+03  0.93972283545E+03  0.00000000000E+00 0.  1.
          2   -1    0    0  501    0  0.00000000000E+00 -0.00000000000E+00 -0.19296319937E+04  0.19296319937E+04  0.00000000000E+00 0. -1.
         24    2    1    2    0    0 -0.77143486969E+03  0.24430398733E+03 -0.13850648320E+04  0.16060487413E+04  0.78687827200E+02 0.  0.
        254    2    1    2    0    0  0.77143486969E+03 -0.24430398733E+03  0.39515567372E+03  0.12633060879E+04  0.88600116751E+03 0.  0.
         23    2    4    4    0    0  0.55792154381E+03 -0.25630595403E+03 -0.17764095597E+03  0.64551915162E+03  0.90385146786E+02 0.  0.
         23    2    4    4    0    0  0.21351332589E+03  0.12001966701E+02  0.57279662969E+03  0.61778693627E+03  0.88502723706E+02 0.  0.
          4    1    3    3  502    0 -0.66397833050E+03  0.18373595546E+03 -0.11494302702E+04  0.13400806209E+04  0.00000000000E+00 0. -1.
         -3    1    3    3    0  502 -0.10745653920E+03  0.60568031868E+02 -0.23563456186E+03  0.26596812035E+03  0.00000000000E+00 0.  1.
         13    1    5    5    0    0  0.19653955672E+03 -0.13215551180E+03 -0.45264359931E+02  0.24112598146E+03  0.00000000000E+00 0.  1.
        -13    1    5    5    0    0  0.36138198708E+03 -0.12415044223E+03 -0.13237659604E+03  0.40439317016E+03  0.00000000000E+00 0. -1.
          3    1    6    6  503    0  0.14162197390E+03  0.19072407514E+02  0.47612077451E+03  0.49710314035E+03  0.00000000000E+00 0. -1.
         -3    1    6    6    0  503  0.71891351988E+02 -0.70704408125E+01  0.96675855180E+02  0.12068379592E+03  0.00000000000E+00 0.  1.
<mgrwt>
<rscale>  0 0.26931909E+04</rscale>
<asrwt>0</asrwt>
<pdfrwt beam="1">  1        2 0.29686646E+00 0.26931909E+04</pdfrwt>
<pdfrwt beam="2">  1       -1 0.14457274E+00 0.26931909E+04</pdfrwt>
<totfact> 0.28119842E+00</totfact>
</mgrwt>
</event>
<event>
12    7  0.1605494E-007  0.1340014E+04  0.7818608E-02  0.8998422E-01
          2   -1    0    0  501    0  0.00000000000E+00  0.00000000000E+00  0.21198237045E+03  0.21198237045E+03  0.00000000000E+00 0. -1.
         -1   -1    0    0    0  501 -0.00000000000E+00 -0.00000000000E+00 -0.21176722508E+04  0.21176722508E+04  0.00000000000E+00 0.  1.
         24    2    1    2    0    0  0.32521332977E+03  0.13775377333E+03 -0.65564933758E+03  0.74871408791E+03  0.77181083396E+02 0.  0.
        254    2    1    2    0    0 -0.32521332977E+03 -0.13775377333E+03 -0.12500405428E+04  0.15809405333E+04  0.90112807051E+03 0.  0.
         23    2    4    4    0    0  0.12667100509E+03 -0.23348190431E+03 -0.42240838585E+02  0.28373397502E+03  0.90340118248E+02 0.  0.
         23    2    4    4    0    0 -0.45188433486E+03  0.95728130980E+02 -0.12077997042E+04  0.12972065583E+04  0.10296311161E+03 0.  0.
          4    1    3    3  502    0  0.30869263927E+03  0.11463989386E+03 -0.56770521704E+03  0.65629464743E+03  0.00000000000E+00 0. -1.
         -3    1    3    3    0  502  0.16520690502E+02  0.23113879471E+02 -0.87944120542E+02  0.92419440471E+02  0.00000000000E+00 0.  1.
         13    1    5    5    0    0  0.63122956997E+02 -0.12182282359E+03 -0.67323265919E+02  0.15283235973E+03  0.00000000000E+00 0.  1.
        -13    1    5    5    0    0  0.63548048096E+02 -0.11165908072E+03  0.25082427333E+02  0.13090161529E+03  0.00000000000E+00 0. -1.
          1    1    6    6  503    0 -0.20548664790E+02 -0.12047491428E+02 -0.11475574228E+03  0.11720183471E+03  0.00000000000E+00 0. -1.
         -1    1    6    6    0  503 -0.43133567007E+03  0.10777562241E+03 -0.10930439619E+04  0.11800047236E+04  0.00000000000E+00 0.  1.
<mgrwt>
<rscale>  0 0.13400137E+04</rscale>
<asrwt>0</asrwt>
<pdfrwt beam="1">  1        2 0.32612672E-01 0.13400137E+04</pdfrwt>
<pdfrwt beam="2">  1       -1 0.32579574E+00 0.13400137E+04</pdfrwt>
<totfact> 0.40980701E+00</totfact>
</mgrwt>
</event>
<event>
12    7  0.1605494E-007  0.3043351E+04  0.7818608E-02  0.8231459E-01
         -1   -1    0    0    0  501 -0.00000000000E+00  0.00000000000E+00  0.14138912647E+04  0.14138912647E+04  0.00000000000E+00 0.  1.
          2   -1    0    0  501    0  0.00000000000E+00 -0.00000000000E+00 -0.16376767349E+04  0.16376767349E+04  0.00000000000E+00 0. -1.
         24    2    1    2    0    0  0.18968952055E+03 -0.11943327954E+04  0.58109613057E+03  0.13441913892E+04  0.82248632958E+02 0.  0.
        254    2    1    2    0    0 -0.18968952055E+03  0.11943327954E+04 -0.80488160078E+03  0.17073766104E+04  0.89715525862E+03 0.  0.
         23    2    4    4    0    0  0.41522516674E+02  0.10974982597E+04 -0.31080959962E+03  0.11450632317E+04  0.91327148839E+02 0.  0.
         23    2    4    4    0    0 -0.23121203722E+03  0.96834535710E+02 -0.49407200116E+03  0.56231337864E+03  0.96193866777E+02 0.  0.
          4    1    3    3  502    0  0.27744466121E+02 -0.35495548344E+03  0.14383118000E+03  0.38399291525E+03  0.00000000000E+00 0. -1.
         -3    1    3    3    0  502  0.16194505443E+03 -0.83937731192E+03  0.43726495058E+03  0.96019847398E+03  0.00000000000E+00 0.  1.
         13    1    5    5    0    0  0.90160887574E+01  0.76818873785E+03 -0.17866420557E+03  0.78874338360E+03  0.00000000000E+00 0.  1.
        -13    1    5    5    0    0  0.32506427917E+02  0.32930952180E+03 -0.13214539405E+03  0.35631984813E+03  0.00000000000E+00 0. -1.
          4    1    6    6  503    0 -0.85941230572E+02  0.80158519439E+02 -0.27343319606E+03  0.29761887719E+03  0.00000000000E+00 0.  1.
         -4    1    6    6    0  503 -0.14527080665E+03  0.16676016271E+02 -0.22063880509E+03  0.26469450145E+03  0.00000000000E+00 0. -1.
<mgrwt>
<rscale>  0 0.30433513E+04</rscale>
<asrwt>0</asrwt>
<pdfrwt beam="1">  1        2 0.25195027E+00 0.30433513E+04</pdfrwt>
<pdfrwt beam="2">  1       -1 0.21752173E+00 0.30433513E+04</pdfrwt>
<totfact> 0.11795919E+00</totfact>
</mgrwt>
</event>
<event>
12    7  0.1605494E-007  0.1101909E+04  0.7818608E-02  0.9203333E-01
         -1   -1    0    0    0  501 -0.00000000000E+00  0.00000000000E+00  0.29998086800E+03  0.29998086800E+03  0.00000000000E+00 0.  1.
          2   -1    0    0  501    0  0.00000000000E+00 -0.00000000000E+00 -0.10119015175E+04  0.10119015175E+04  0.00000000000E+00 0. -1.
         24    2    1    2    0    0 -0.14082102253E+03  0.77036522100E+02 -0.92328903538E+02  0.20211586516E+03  0.81000064187E+02 0.  0.
        254    2    1    2    0    0  0.14082102253E+03 -0.77036522100E+02 -0.61959174598E+03  0.11097665203E+04  0.90659947710E+03 0.  0.
         23    2    4    4    0    0 -0.16997632952E+03 -0.47379582059E+02  0.16602858978E+03  0.25957545005E+03  0.93151190283E+02 0.  0.
         23    2    4    4    0    0  0.31079735205E+03 -0.29656940042E+02 -0.78562033576E+03  0.85019107029E+03  0.90282976813E+02 0.  0.
          4    1    3    3  502    0 -0.20847451674E+02  0.41805938312E+02 -0.53850765177E+02  0.71289954619E+02  0.00000000000E+00 0. -1.
         -3    1    3    3    0  502 -0.11997357086E+03  0.35230583788E+02 -0.38478138362E+02  0.13082591054E+03  0.00000000000E+00 0.  1.
         13    1    5    5    0    0 -0.11623972164E+03 -0.53768541771E+02  0.61950410361E+02  0.14226940049E+03  0.00000000000E+00 0. -1.
        -13    1    5    5    0    0 -0.53736607883E+02  0.63889597124E+01  0.10407817942E+03  0.11730604957E+03  0.00000000000E+00 0.  1.
          1    1    6    6  503    0  0.84486873477E+02 -0.78550169005E+01 -0.12121951506E+03  0.14796588766E+03  0.00000000000E+00 0. -1.
         -1    1    6    6    0  503  0.22631047858E+03 -0.21801923141E+02 -0.66440082071E+03  0.70222518263E+03  0.00000000000E+00 0.  1.
<mgrwt>
<rscale>  0 0.11019094E+04</rscale>
<asrwt>0</asrwt>
<pdfrwt beam="1">  1        2 0.15567715E+00 0.11019094E+04</pdfrwt>
<pdfrwt beam="2">  1       -1 0.46150904E-01 0.11019094E+04</pdfrwt>
<totfact> 0.13081669E+02</totfact>
</mgrwt>
</event>
<event>
12    7  0.1605494E-007  0.1581636E+04  0.7818608E-02  0.8831910E-01
         -1   -1    0    0    0  501 -0.00000000000E+00  0.00000000000E+00  0.37534803563E+03  0.37534803563E+03  0.00000000000E+00 0.  1.
          2   -1    0    0  501    0  0.00000000000E+00 -0.00000000000E+00 -0.16661689481E+04  0.16661689481E+04  0.00000000000E+00 0. -1.
         24    2    1    2    0    0  0.28109069530E+02  0.53253218656E+03 -0.57593561474E+03  0.78901128407E+03  0.80351257314E+02 0.  0.
        254    2    1    2    0    0 -0.28109069530E+02 -0.53253218656E+03 -0.71488529777E+03  0.12525056997E+04  0.87939120379E+03 0.  0.
         23    2    4    4    0    0 -0.10375153076E+03 -0.54886620858E+03 -0.40690222447E+02  0.56770989908E+03  0.92845787476E+02 0.  0.
         23    2    4    4    0    0  0.75642461229E+02  0.16334022022E+02 -0.67419507533E+03  0.68479580062E+03  0.91748061218E+02 0.  0.
          4    1    3    3  502    0  0.26025208187E+02  0.53445671460E+03 -0.57597646126E+03  0.78617439234E+03  0.00000000000E+00 0. -1.
         -3    1    3    3    0  502  0.20838613431E+01 -0.19245280346E+01  0.40846527084E-01  0.28368917308E+01  0.00000000000E+00 0.  1.
         13    1    5    5    0    0 -0.10637563845E+03 -0.32133067638E+03 -0.16598232630E+02  0.33888741695E+03  0.00000000000E+00 0. -1.
        -13    1    5    5    0    0  0.26241076935E+01 -0.22753553220E+03 -0.24091989818E+02  0.22882248213E+03  0.00000000000E+00 0.  1.
          3    1    6    6  503    0  0.32134136874E+02  0.25340079289E+02 -0.57071693161E+03  0.57218225977E+03  0.00000000000E+00 0. -1.
         -3    1    6    6    0  503  0.43508324355E+02 -0.90060572666E+01 -0.10347814372E+03  0.11261354085E+03  0.00000000000E+00 0.  1.
<mgrwt>
<rscale>  0 0.15816362E+04</rscale>
<asrwt>0</asrwt>
<pdfrwt beam="1">  1        2 0.25633369E+00 0.15816362E+04</pdfrwt>
<pdfrwt beam="2">  1       -1 0.57745851E-01 0.15816362E+04</pdfrwt>
<totfact> 0.34034796E+01</totfact>
</mgrwt>
</event>
<event>
12    7  0.1605494E-007  0.1760479E+04  0.7818608E-02  0.8727603E-01
         -1   -1    0    0    0  501 -0.00000000000E+00  0.00000000000E+00  0.35236095735E+03  0.35236095735E+03  0.00000000000E+00 0.  1.
          2   -1    0    0  501    0  0.00000000000E+00 -0.00000000000E+00 -0.21989431251E+04  0.21989431251E+04  0.00000000000E+00 0. -1.
         24    2    1    2    0    0  0.46454123673E+03  0.47667376907E+03 -0.56642160421E+03  0.87768057916E+03  0.80456961032E+02 0.  0.
        254    2    1    2    0    0 -0.46454123673E+03 -0.47667376907E+03 -0.12801605636E+04  0.16736235033E+04  0.84804959738E+03 0.  0.
         23    2    4    4    0    0  0.14495593943E+03 -0.38719909235E+03 -0.72597042519E+03  0.84046452869E+03  0.91718069327E+02 0.  0.
         23    2    4    4    0    0 -0.60949717616E+03 -0.89474676723E+02 -0.55419013837E+03  0.83315897463E+03  0.86802315740E+02 0.  0.
          4    1    3    3  502    0  0.71575290169E+02  0.11195124962E+03 -0.13606975777E+03  0.19018696968E+03  0.00000000000E+00 0. -1.
         -3    1    3    3    0  502  0.39296594656E+03  0.36472251945E+03 -0.43035184644E+03  0.68749360948E+03  0.00000000000E+00 0.  1.
         13    1    5    5    0    0  0.14449000304E+03 -0.27722218493E+03 -0.51226620789E+03  0.60012179476E+03  0.00000000000E+00 0.  1.
        -13    1    5    5    0    0  0.46593639145E+00 -0.10997690742E+03 -0.21370421730E+03  0.24034273394E+03  0.00000000000E+00 0. -1.
          3    1    6    6  503    0  0.26996850903E+01  0.15302494358E+01 -0.18488173814E+01  0.36122138132E+01  0.00000000000E+00 0. -1.
         -3    1    6    6    0  503 -0.61219686125E+03 -0.91004926158E+02 -0.55234132099E+03  0.82954676081E+03  0.00000000000E+00 0.  1.
<mgrwt>
<rscale>  0 0.17604791E+04</rscale>
<asrwt>0</asrwt>
<pdfrwt beam="1">  1        2 0.33829894E+00 0.17604791E+04</pdfrwt>
<pdfrwt beam="2">  1       -1 0.54209378E-01 0.17604791E+04</pdfrwt>
<totfact> 0.19170026E+01</totfact>
</mgrwt>
</event>
<event>
12    7  0.1605494E-007  0.1504998E+04  0.7818608E-02  0.8881136E-01
         -1   -1    0    0    0  501 -0.00000000000E+00  0.00000000000E+00  0.17117712643E+03  0.17117712643E+03  0.00000000000E+00 0.  1.
          2   -1    0    0  501    0  0.00000000000E+00 -0.00000000000E+00 -0.33080060571E+04  0.33080060571E+04  0.00000000000E+00 0. -1.
         24    2    1    2    0    0 -0.13093127407E+02 -0.69887097248E+02  0.85552222415E+02  0.13662253158E+03  0.79315175275E+02 0.  0.
        254    2    1    2    0    0  0.13093127407E+02  0.69887097248E+02 -0.32223811531E+04  0.33425606519E+04  0.88539018505E+03 0.  0.
         23    2    4    4    0    0 -0.42232915145E+03 -0.19913345092E+02 -0.16945374570E+04  0.17490215407E+04  0.94131307965E+02 0.  0.
         23    2    4    4    0    0  0.43542227885E+03  0.89800442340E+02 -0.15278436961E+04  0.15935391113E+04  0.86045680068E+02 0.  0.
          4    1    3    3  502    0 -0.46658996691E+02 -0.41315932086E+02  0.46919214297E+02  0.78009492285E+02  0.00000000000E+00 0. -1.
         -3    1    3    3    0  502  0.33565869284E+02 -0.28571165162E+02  0.38633008118E+02  0.58613039298E+02  0.00000000000E+00 0.  1.
         13    1    5    5    0    0 -0.42262199109E+03 -0.22709094077E+02 -0.16181749601E+04  0.16726073214E+04  0.00000000000E+00 0. -1.
        -13    1    5    5    0    0  0.29283964195E+00  0.27957489847E+01 -0.76362496901E+02  0.76414219229E+02  0.00000000000E+00 0.  1.
          4    1    6    6  503    0  0.39828667740E+03  0.89916195498E+02 -0.14619858565E+04  0.15179327536E+04  0.00000000000E+00 0. -1.
         -4    1    6    6    0  503  0.37135601448E+02 -0.11575315738E+00 -0.65857839538E+02  0.75606357684E+02  0.00000000000E+00 0.  1.
<mgrwt>
<rscale>  0 0.15049983E+04</rscale>
<asrwt>0</asrwt>
<pdfrwt beam="1">  1        2 0.50892402E+00 0.15049983E+04</pdfrwt>
<pdfrwt beam="2">  1       -1 0.26334942E-01 0.15049983E+04</pdfrwt>
<totfact> 0.15669897E+01</totfact>
</mgrwt>
</event>
<event>
12    7  0.1605494E-007  0.2372591E+04  0.7818608E-02  0.8449837E-01
         -1   -1    0    0    0  501 -0.00000000000E+00  0.00000000000E+00  0.52344558587E+03  0.52344558587E+03  0.00000000000E+00 0.  1.
          2   -1    0    0  501    0  0.00000000000E+00 -0.00000000000E+00 -0.26885263754E+04  0.26885263754E+04  0.00000000000E+00 0. -1.
         24    2    1    2    0    0  0.53341932221E+03  0.66129002826E+03 -0.16612516827E+04  0.18676197483E+04  0.80035593381E+02 0.  0.
        254    2    1    2    0    0 -0.53341932221E+03 -0.66129002826E+03 -0.50382910677E+03  0.13443522129E+04  0.91192018769E+03 0.  0.
         23    2    4    4    0    0 -0.23993444551E+03 -0.77373406458E+03 -0.59085408689E+03  0.10068231750E+04  0.91386065376E+02 0.  0.
         23    2    4    4    0    0 -0.29348487671E+03  0.11244403632E+03  0.87024980118E+02  0.33752903787E+03  0.87037176445E+02 0.  0.
          2    1    3    3  502    0  0.52694375482E+03  0.65531402982E+03 -0.16562429410E+04  0.18574840183E+04  0.00000000000E+00 0. -1.
         -1    1    3    3    0  502  0.64755673974E+01  0.59759984347E+01 -0.50087416926E+01  0.10135730055E+02  0.00000000000E+00 0.  1.
         13    1    5    5    0    0 -0.22903163019E+03 -0.75310490176E+03 -0.55171032969E+03  0.96125270796E+03  0.00000000000E+00 0.  1.
        -13    1    5    5    0    0 -0.10902815313E+02 -0.20629162820E+02 -0.39143757203E+02  0.45570467064E+02  0.00000000000E+00 0. -1.
          1    1    6    6  503    0 -0.24485871596E+02  0.79244807122E+00  0.33339088250E+02  0.41372462909E+02  0.00000000000E+00 0. -1.
         -1    1    6    6    0  503 -0.26899900511E+03  0.11165158825E+03  0.53685891868E+02  0.29615657497E+03  0.00000000000E+00 0.  1.
<mgrwt>
<rscale>  0 0.23725912E+04</rscale>
<asrwt>0</asrwt>
<pdfrwt beam="1">  1        2 0.41361945E+00 0.23725912E+04</pdfrwt>
<pdfrwt beam="2">  1       -1 0.80530089E-01 0.23725912E+04</pdfrwt>
<totfact> 0.42540511E+00</totfact>
</mgrwt>
</event>
<event>
12    7  0.1605494E-007  0.2406357E+04  0.7818608E-02  0.8437127E-01
          2   -1    0    0  501    0  0.00000000000E+00  0.00000000000E+00  0.11224022570E+04  0.11224022570E+04  0.00000000000E+00 0. -1.
         -1   -1    0    0    0  501 -0.00000000000E+00 -0.00000000000E+00 -0.12897681754E+04  0.12897681754E+04  0.00000000000E+00 0.  1.
         24    2    1    2    0    0  0.48035497539E+02 -0.35947214808E+03  0.89957282902E+03  0.97322446869E+03  0.80043472416E+02 0.  0.
        254    2    1    2    0    0 -0.48035497539E+02  0.35947214808E+03 -0.10669387474E+04  0.14389459638E+04  0.89480699685E+03 0.  0.
         23    2    4    4    0    0 -0.29087181974E+03  0.44778866247E+03 -0.10267423557E+04  0.11607709375E+04  0.89823174290E+02 0.  0.
         23    2    4    4    0    0  0.24283632220E+03 -0.88316514389E+02 -0.40196391736E+02  0.27817502626E+03  0.94848875746E+02 0.  0.
          2    1    3    3  502    0  0.26241027083E+02 -0.14134383526E+03  0.46136894579E+03  0.48324732323E+03  0.00000000000E+00 0. -1.
         -1    1    3    3    0  502  0.21794470457E+02 -0.21812831282E+03  0.43820388323E+03  0.48997714546E+03  0.00000000000E+00 0.  1.
         13    1    5    5    0    0 -0.21091764563E+03  0.38538675403E+03 -0.85666692163E+03  0.96274992497E+03  0.00000000000E+00 0. -1.
        -13    1    5    5    0    0 -0.79954174115E+02  0.62401908440E+02 -0.17007543407E+03  0.19802101255E+03  0.00000000000E+00 0.  1.
          4    1    6    6  503    0  0.11856054832E+03 -0.93316215732E+02 -0.21950626406E+02  0.15246753666E+03  0.00000000000E+00 0. -1.
         -4    1    6    6    0  503  0.12427577389E+03  0.49997013426E+01 -0.18245765329E+02  0.12570748960E+03  0.00000000000E+00 0.  1.
<mgrwt>
<rscale>  0 0.24063572E+04</rscale>
<asrwt>0</asrwt>
<pdfrwt beam="1">  1        2 0.17267727E+00 0.24063572E+04</pdfrwt>
<pdfrwt beam="2">  1       -1 0.19842587E+00 0.24063572E+04</pdfrwt>
<totfact> 0.33369816E+00</totfact>
</mgrwt>
</event>
<event>
12    7  0.1605494E-007  0.1872757E+04  0.7818608E-02  0.8668537E-01
         -1   -1    0    0    0  501 -0.00000000000E+00  0.00000000000E+00  0.21133345199E+03  0.21133345199E+03  0.00000000000E+00 0.  1.
          2   -1    0    0  501    0  0.00000000000E+00 -0.00000000000E+00 -0.41489176131E+04  0.41489176131E+04  0.00000000000E+00 0. -1.
         24    2    1    2    0    0 -0.62118971638E+03 -0.22138169352E+03 -0.22032595273E+04  0.23011671981E+04  0.78303325008E+02 0.  0.
        254    2    1    2    0    0  0.62118971638E+03  0.22138169352E+03 -0.17343246338E+04  0.20590838671E+04  0.89278100237E+03 0.  0.
         23    2    4    4    0    0  0.69625309897E+03 -0.14904900658E+03 -0.10372757455E+04  0.12613158454E+04  0.89401932632E+02 0.  0.
         23    2    4    4    0    0 -0.75063382593E+02  0.37043070010E+03 -0.69704888831E+03  0.79776802162E+03  0.87768152821E+02 0.  0.
          2    1    3    3  502    0 -0.43839520144E+03 -0.14961616720E+03 -0.16636251608E+04  0.17269117018E+04  0.00000000000E+00 0. -1.
         -1    1    3    3    0  502 -0.18279451494E+03 -0.71765526317E+02 -0.53963436657E+03  0.57425549631E+03  0.00000000000E+00 0.  1.
         13    1    5    5    0    0  0.10606990407E+03 -0.13693291289E+02 -0.10659996499E+03  0.15100292484E+03  0.00000000000E+00 0.  1.
        -13    1    5    5    0    0  0.59018319490E+03 -0.13535571529E+03 -0.93067578051E+03  0.11103129206E+04  0.00000000000E+00 0. -1.
          3    1    6    6  503    0 -0.79696407091E+02  0.19050962760E+03 -0.33697698549E+03  0.39522009597E+03  0.00000000000E+00 0. -1.
         -3    1    6    6    0  503  0.46330244978E+01  0.17992107250E+03 -0.36007190282E+03  0.40254792565E+03  0.00000000000E+00 0.  1.
<mgrwt>
<rscale>  0 0.18727574E+04</rscale>
<asrwt>0</asrwt>
<pdfrwt beam="1">  1        2 0.63829502E+00 0.18727574E+04</pdfrwt>
<pdfrwt beam="2">  1       -1 0.32512839E-01 0.18727574E+04</pdfrwt>
<totfact> 0.24702055E+00</totfact>
</mgrwt>
</event>
<event>
12    7  0.1605494E-007  0.2324624E+04  0.7818608E-02  0.8468275E-01
         -1   -1    0    0    0  501 -0.00000000000E+00  0.00000000000E+00  0.87631061787E+03  0.87631061787E+03  0.00000000000E+00 0.  1.
          2   -1    0    0  501    0  0.00000000000E+00 -0.00000000000E+00 -0.15416554598E+04  0.15416554598E+04  0.00000000000E+00 0. -1.
         24    2    1    2    0    0  0.83870273571E+03  0.43281116651E+03  0.82279513079E+02  0.95095058778E+03  0.82397314207E+02 0.  0.
        254    2    1    2    0    0 -0.83870273571E+03 -0.43281116651E+03 -0.74762435501E+03  0.14670154899E+04  0.83811961357E+03 0.  0.
         23    2    4    4    0    0 -0.10753991159E+03 -0.13187182375E+03 -0.63465472963E+03  0.66324239261E+03  0.90270898015E+02 0.  0.
         23    2    4    4    0    0 -0.73116282412E+03 -0.30093934276E+03 -0.11296962538E+03  0.80377309729E+03  0.90141512470E+02 0.  0.
          4    1    3    3  502    0  0.50794180209E+03  0.25822423943E+03  0.92992097578E+01  0.56988692513E+03  0.00000000000E+00 0. -1.
         -3    1    3    3    0  502  0.33076093362E+03  0.17458692708E+03  0.72980303321E+02  0.38106366265E+03  0.00000000000E+00 0.  1.
         13    1    5    5    0    0 -0.10243948105E+03 -0.76707885864E+02 -0.33711244528E+03  0.36058667168E+03  0.00000000000E+00 0. -1.
        -13    1    5    5    0    0 -0.51004305426E+01 -0.55163937888E+02 -0.29754228435E+03  0.30265572093E+03  0.00000000000E+00 0.  1.
          2    1    6    6  503    0 -0.49945089095E+03 -0.24307714277E+03 -0.56246671832E+02  0.55830222810E+03  0.00000000000E+00 0. -1.
         -2    1    6    6    0  503 -0.23171193317E+03 -0.57862199986E+02 -0.56722953550E+02  0.24547086919E+03  0.00000000000E+00 0.  1.
<mgrwt>
<rscale>  0 0.23246239E+04</rscale>
<asrwt>0</asrwt>
<pdfrwt beam="1">  1        2 0.23717776E+00 0.23246239E+04</pdfrwt>
<pdfrwt beam="2">  1       -1 0.13481702E+00 0.23246239E+04</pdfrwt>
<totfact> 0.57289122E+00</totfact>
</mgrwt>
</event>
<event>
12    7  0.1605494E-007  0.3285505E+04  0.7818608E-02  0.8166593E-01
         -1   -1    0    0    0  501 -0.00000000000E+00  0.00000000000E+00  0.17277905991E+04  0.17277905991E+04  0.00000000000E+00 0.  1.
          2   -1    0    0  501    0  0.00000000000E+00 -0.00000000000E+00 -0.15619000566E+04  0.15619000566E+04  0.00000000000E+00 0. -1.
         24    2    1    2    0    0  0.50247736571E+03  0.33895904760E+03 -0.13217530436E+04  0.14562825228E+04  0.79692779592E+02 0.  0.
        254    2    1    2    0    0 -0.50247736571E+03 -0.33895904760E+03  0.14876435861E+04  0.18334081328E+04  0.88369972451E+03 0.  0.
         23    2    4    4    0    0 -0.43950427461E+03 -0.58052081182E+03  0.13448983639E+04  0.15320659458E+04  0.91137439785E+02 0.  0.
         23    2    4    4    0    0 -0.62973091101E+02  0.24156176422E+03  0.14274522226E+03  0.30134218696E+03  0.90073409103E+02 0.  0.
          2    1    3    3  502    0  0.37812193615E+03  0.28671453845E+03 -0.97901049755E+03  0.10879535741E+04  0.00000000000E+00 0. -1.
         -1    1    3    3    0  502  0.12435542956E+03  0.52244509155E+02 -0.34274254604E+03  0.36832894872E+03  0.00000000000E+00 0.  1.
         13    1    5    5    0    0 -0.38501968376E+03 -0.54180580243E+03  0.11834892596E+04  0.13573652832E+04  0.00000000000E+00 0. -1.
        -13    1    5    5    0    0 -0.54484590851E+02 -0.38715009396E+02  0.16140910421E+03  0.17470066261E+03  0.00000000000E+00 0.  1.
          3    1    6    6  503    0 -0.63302202356E+02  0.72513300374E+02  0.55420821648E+02  0.11107121601E+03  0.00000000000E+00 0. -1.
         -3    1    6    6    0  503  0.32911125530E+00  0.16904846385E+03  0.87324400608E+02  0.19027097095E+03  0.00000000000E+00 0.  1.
<mgrwt>
<rscale>  0 0.32855053E+04</rscale>
<asrwt>0</asrwt>
<pdfrwt beam="1">  1        2 0.24029232E+00 0.32855053E+04</pdfrwt>
<pdfrwt beam="2">  1       -1 0.26581394E+00 0.32855053E+04</pdfrwt>
<totfact> 0.61334624E-01</totfact>
</mgrwt>
</event>
<event>
12    7  0.1605494E-007  0.1686838E+04  0.7818608E-02  0.8768907E-01
         -1   -1    0    0    0  501 -0.00000000000E+00  0.00000000000E+00  0.86204611133E+03  0.86204611133E+03  0.00000000000E+00 0.  1.
          2   -1    0    0  501    0  0.00000000000E+00 -0.00000000000E+00 -0.82519441403E+03  0.82519441403E+03  0.00000000000E+00 0. -1.
         24    2    1    2    0    0 -0.44917406704E+03  0.38088136131E+03 -0.44269479404E+00  0.59345538434E+03  0.73219828780E+02 0.  0.
        254    2    1    2    0    0  0.44917406704E+03 -0.38088136131E+03  0.37294392093E+02  0.10937851410E+04  0.92094902635E+03 0.  0.
         23    2    4    4    0    0  0.42499452996E+03 -0.55223016236E+03 -0.25073508623E+03  0.74577259095E+03  0.87921392291E+02 0.  0.
         23    2    4    4    0    0  0.24179537086E+02  0.17134880105E+03  0.28802947832E+03  0.34801255007E+03  0.90590799702E+02 0.  0.
          4    1    3    3  502    0 -0.39116045328E+03  0.32840500907E+03 -0.25321311637E+02  0.51136828120E+03  0.00000000000E+00 0. -1.
         -3    1    3    3    0  502 -0.58013613760E+02  0.52476352248E+02  0.24878616843E+02  0.82087103145E+02  0.00000000000E+00 0.  1.
         13    1    5    5    0    0  0.22682515517E+02 -0.26561437585E+02 -0.35260904481E+02  0.49632024556E+02  0.00000000000E+00 0. -1.
        -13    1    5    5    0    0  0.40231201444E+03 -0.52566872478E+03 -0.21547418175E+03  0.69614056639E+03  0.00000000000E+00 0.  1.
          3    1    6    6  503    0  0.57252193096E+02  0.11944791058E+03  0.17711589545E+03  0.22116884360E+03  0.00000000000E+00 0. -1.
         -3    1    6    6    0  503 -0.33072656010E+02  0.51900890465E+02  0.11091358288E+03  0.12684370648E+03  0.00000000000E+00 0.  1.
<mgrwt>
<rscale>  0 0.16868380E+04</rscale>
<asrwt>0</asrwt>
<pdfrwt beam="1">  1        2 0.12695299E+00 0.16868380E+04</pdfrwt>
<pdfrwt beam="2">  1       -1 0.13262248E+00 0.16868380E+04</pdfrwt>
<totfact> 0.17322298E+01</totfact>
</mgrwt>
</event>
<event>
12    7  0.1605494E-007  0.1235549E+04  0.7818608E-02  0.9082297E-01
         -1   -1    0    0    0  501 -0.00000000000E+00  0.00000000000E+00  0.46827941704E+03  0.46827941704E+03  0.00000000000E+00 0.  1.
          2   -1    0    0  501    0  0.00000000000E+00 -0.00000000000E+00 -0.81499473131E+03  0.81499473131E+03  0.00000000000E+00 0. -1.
         24    2    1    2    0    0 -0.96492535008E+02 -0.72652996979E+01 -0.35109690765E+03  0.37220819840E+03  0.76852524377E+02 0.  0.
        254    2    1    2    0    0  0.96492535008E+02  0.72652996979E+01  0.43815933861E+01  0.91106594995E+03  0.90590196650E+03 0.  0.
         23    2    4    4    0    0 -0.76382829946E+02  0.13185609183E+03  0.40821108002E+03  0.44516497131E+03  0.91187719396E+02 0.  0.
         23    2    4    4    0    0  0.17287536495E+03 -0.12459079213E+03 -0.40382948663E+03  0.46590097864E+03  0.92610530377E+02 0.  0.
          4    1    3    3  502    0 -0.89324487165E+02  0.70311078383E+01 -0.18725811712E+03  0.20759071008E+03  0.00000000000E+00 0. -1.
         -3    1    3    3    0  502 -0.71680478429E+01 -0.14296407536E+02 -0.16383879052E+03  0.16461748831E+03  0.00000000000E+00 0.  1.
         13    1    5    5    0    0 -0.93585280160E+02  0.10546868472E+03  0.36797608758E+03  0.39406630045E+03  0.00000000000E+00 0.  1.
        -13    1    5    5    0    0  0.17202450214E+02  0.26387407107E+02  0.40234992442E+02  0.51098670863E+02  0.00000000000E+00 0. -1.
          1    1    6    6  503    0  0.28289789321E+02  0.22407933860E+01 -0.11815937899E+03  0.12151943128E+03  0.00000000000E+00 0. -1.
         -1    1    6    6    0  503  0.14458557563E+03 -0.12683158552E+03 -0.28567010764E+03  0.34438154736E+03  0.00000000000E+00 0.  1.
<mgrwt>
<rscale>  0 0.12355489E+04</rscale>
<asrwt>0</asrwt>
<pdfrwt beam="1">  1        2 0.12538380E+00 0.12355489E+04</pdfrwt>
<pdfrwt beam="2">  1       -1 0.72042988E-01 0.12355489E+04</pdfrwt>
<totfact> 0.73440786E+01</totfact>
</mgrwt>
</event>
<event>
12    7  0.1605494E-007  0.1463402E+04  0.7818608E-02  0.8909162E-01
         -1   -1    0    0    0  501 -0.00000000000E+00  0.00000000000E+00  0.13392484065E+04  0.13392484065E+04  0.00000000000E+00 0.  1.
          2   -1    0    0  501    0  0.00000000000E+00 -0.00000000000E+00 -0.39976636137E+03  0.39976636137E+03  0.00000000000E+00 0. -1.
         24    2    1    2    0    0  0.34124409993E+02  0.15340812763E+03 -0.19765143040E+03  0.26595125394E+03  0.83459286780E+02 0.  0.
        254    2    1    2    0    0 -0.34124409993E+02 -0.15340812763E+03  0.11371334755E+04  0.14730635139E+04  0.92311702720E+03 0.  0.
         23    2    4    4    0    0 -0.36090912380E+03 -0.29333255938E+03  0.94919411678E+03  0.10609587509E+04  0.91458262532E+02 0.  0.
         23    2    4    4    0    0  0.32678471381E+03  0.13992443175E+03  0.18793935872E+03  0.41210476298E+03  0.90233238548E+02 0.  0.
          4    1    3    3  502    0 -0.34890057772E+01  0.12714263424E+03 -0.17024950970E+03  0.21251427753E+03  0.00000000000E+00 0. -1.
         -3    1    3    3    0  502  0.37613415770E+02  0.26265493394E+02 -0.27401920705E+02  0.53436976406E+02  0.00000000000E+00 0.  1.
         13    1    5    5    0    0 -0.41839461167E+02 -0.38352450934E+02  0.19718717839E+03  0.20519316344E+03  0.00000000000E+00 0. -1.
        -13    1    5    5    0    0 -0.31906966263E+03 -0.25498010845E+03  0.75200693839E+03  0.85576558748E+03  0.00000000000E+00 0.  1.
          4    1    6    6  503    0  0.51755086364E+02 -0.75483843454E+01  0.11301804061E+02  0.53509792055E+02  0.00000000000E+00 0. -1.
         -4    1    6    6    0  503  0.27502962744E+03  0.14747281610E+03  0.17663755466E+03  0.35859497093E+03  0.00000000000E+00 0.  1.
<mgrwt>
<rscale>  0 0.14634021E+04</rscale>
<asrwt>0</asrwt>
<pdfrwt beam="1">  1        2 0.61502518E-01 0.14634021E+04</pdfrwt>
<pdfrwt beam="2">  1       -1 0.20603821E+00 0.14634021E+04</pdfrwt>
<totfact> 0.12064785E+01</totfact>
</mgrwt>
</event>
<event>
12    7  0.1605494E-007  0.1927539E+04  0.7818608E-02  0.8641269E-01
         -1   -1    0    0    0  501 -0.00000000000E+00  0.00000000000E+00  0.23726085745E+03  0.23726085745E+03  0.00000000000E+00 0.  1.
          2   -1    0    0  501    0  0.00000000000E+00 -0.00000000000E+00 -0.39148960764E+04  0.39148960764E+04  0.00000000000E+00 0. -1.
         24    2    1    2    0    0  0.40652747202E+03  0.18767276889E+03 -0.27588897868E+04  0.27961002152E+04  0.78853686860E+02 0.  0.
        254    2    1    2    0    0 -0.40652747202E+03 -0.18767276889E+03 -0.91874543211E+03  0.13560567186E+04  0.89124127003E+03 0.  0.
         23    2    4    4    0    0  0.17166448699E+02  0.48240469414E+02 -0.85113034842E+03  0.85757357363E+03  0.91584574760E+02 0.  0.
         23    2    4    4    0    0 -0.42369392072E+03 -0.23591323830E+03 -0.67615083691E+02  0.49848314500E+03  0.93498940314E+02 0.  0.
          4    1    3    3  502    0  0.39154504655E+03  0.19102784106E+03 -0.25772489391E+04  0.26138116331E+04  0.00000000000E+00 0. -1.
         -3    1    3    3    0  502  0.14982425471E+02 -0.33550721775E+01 -0.18164084775E+03  0.18228858207E+03  0.00000000000E+00 0.  1.
         13    1    5    5    0    0  0.36062238111E+02 -0.69635441326E+01 -0.52359581756E+03  0.52488242125E+03  0.00000000000E+00 0. -1.
        -13    1    5    5    0    0 -0.18895789413E+02  0.55204013547E+02 -0.32753453086E+03  0.33269115238E+03  0.00000000000E+00 0.  1.
          2    1    6    6  503    0 -0.18748756384E+03 -0.57186072013E+02 -0.69955051842E+01  0.19613967095E+03  0.00000000000E+00 0. -1.
         -2    1    6    6    0  503 -0.23620635688E+03 -0.17872716629E+03 -0.60619578507E+02  0.30234347405E+03  0.00000000000E+00 0.  1.
<mgrwt>
<rscale>  0 0.19275389E+04</rscale>
<asrwt>0</asrwt>
<pdfrwt beam="1">  1        2 0.60229165E+00 0.19275389E+04</pdfrwt>
<pdfrwt beam="2">  1       -1 0.36501674E-01 0.19275389E+04</pdfrwt>
<totfact> 0.30955763E+00</totfact>
</mgrwt>
</event>
<event>
12    7  0.1605494E-007  0.1710518E+04  0.7818608E-02  0.8755388E-01
          2   -1    0    0  501    0  0.00000000000E+00  0.00000000000E+00  0.54200856580E+03  0.54200856580E+03  0.00000000000E+00 0. -1.
         -1   -1    0    0    0  501 -0.00000000000E+00 -0.00000000000E+00 -0.13495508975E+04  0.13495508975E+04  0.00000000000E+00 0.  1.
         24    2    1    2    0    0  0.30748528443E+03 -0.57694727381E+02  0.29316929494E+03  0.43596537575E+03  0.79004377435E+02 0.  0.
        254    2    1    2    0    0 -0.30748528443E+03  0.57694727381E+02 -0.11007116267E+04  0.14555940876E+04  0.89961779716E+03 0.  0.
         23    2    4    4    0    0 -0.10520680498E+03  0.34847783619E+03 -0.97238471956E+02  0.38768083002E+03  0.91300774379E+02 0.  0.
         23    2    4    4    0    0 -0.20227847945E+03 -0.29078310881E+03 -0.10034731547E+04  0.10679132575E+04  0.89492758428E+02 0.  0.
          4    1    3    3  502    0  0.19780382616E+03 -0.69236348676E+02  0.16396007561E+03  0.26608820345E+03  0.00000000000E+00 0. -1.
         -3    1    3    3    0  502  0.10968145826E+03  0.11541621295E+02  0.12920921933E+03  0.16987717230E+03  0.00000000000E+00 0.  1.
         13    1    5    5    0    0 -0.57778692731E+02  0.28179826345E+03 -0.10326099809E+03  0.30563290455E+03  0.00000000000E+00 0.  1.
        -13    1    5    5    0    0 -0.47428112245E+02  0.66679572744E+02  0.60225261322E+01  0.82047925467E+02  0.00000000000E+00 0. -1.
          1    1    6    6  503    0 -0.25802782568E+02 -0.47699633989E+01 -0.11615600921E+03  0.11908297365E+03  0.00000000000E+00 0. -1.
         -1    1    6    6    0  503 -0.17647569688E+03 -0.28601314541E+03 -0.88731714549E+03  0.94883028388E+03  0.00000000000E+00 0.  1.
<mgrwt>
<rscale>  0 0.17105182E+04</rscale>
<asrwt>0</asrwt>
<pdfrwt beam="1">  1        2 0.83385934E-01 0.17105182E+04</pdfrwt>
<pdfrwt beam="2">  1       -1 0.20762321E+00 0.17105182E+04</pdfrwt>
<totfact> 0.81190207E+00</totfact>
</mgrwt>
</event>
<event>
12    7  0.1605494E-007  0.1248541E+04  0.7818608E-02  0.9071398E-01
          2   -1    0    0  501    0  0.00000000000E+00  0.00000000000E+00  0.28121065685E+04  0.28121065685E+04  0.00000000000E+00 0. -1.
         -1   -1    0    0    0  501 -0.00000000000E+00 -0.00000000000E+00 -0.13858428493E+03  0.13858428493E+03  0.00000000000E+00 0.  1.
         24    2    1    2    0    0  0.26534701985E+03 -0.50491258921E+02  0.90665211988E+03  0.94937386989E+03  0.79588128397E+02 0.  0.
        254    2    1    2    0    0 -0.26534701985E+03  0.50491258921E+02  0.17668701637E+04  0.20013169835E+04  0.90026722981E+03 0.  0.
         23    2    4    4    0    0  0.30294243071E+03 -0.89438984223E+02  0.83334214447E+03  0.89571712714E+03  0.89869871932E+02 0.  0.
         23    2    4    4    0    0 -0.56828945056E+03  0.13993024314E+03  0.93352801921E+03  0.11055998564E+04  0.91340611066E+02 0.  0.
          2    1    3    3  502    0  0.17396536059E+03 -0.11099809714E+01  0.63945316972E+03  0.66269565790E+03  0.00000000000E+00 0. -1.
         -1    1    3    3    0  502  0.91381659263E+02 -0.49381277950E+02  0.26719895016E+03  0.28667821199E+03  0.00000000000E+00 0.  1.
         13    1    5    5    0    0  0.13196369514E+03 -0.34702783856E+02  0.24309781636E+03  0.27877454755E+03  0.00000000000E+00 0. -1.
        -13    1    5    5    0    0  0.17097873557E+03 -0.54736200368E+02  0.59024432811E+03  0.61694257959E+03  0.00000000000E+00 0.  1.
          2    1    6    6  503    0 -0.15217305246E+03  0.46604047259E+02  0.18429516587E+03  0.24350212171E+03  0.00000000000E+00 0. -1.
         -2    1    6    6    0  503 -0.41611639810E+03  0.93326195886E+02  0.74923285334E+03  0.86209773467E+03  0.00000000000E+00 0.  1.
<mgrwt>
<rscale>  0 0.12485412E+04</rscale>
<asrwt>0</asrwt>
<pdfrwt beam="1">  1        2 0.43263174E+00 0.12485412E+04</pdfrwt>
<pdfrwt beam="2">  1       -1 0.21320661E-01 0.12485412E+04</pdfrwt>
<totfact> 0.47246772E+01</totfact>
</mgrwt>
</event>
<event>
12    7  0.1605494E-007  0.1438933E+04  0.7818608E-02  0.8926109E-01
          2   -1    0    0  501    0  0.00000000000E+00  0.00000000000E+00  0.18876251551E+04  0.18876251551E+04  0.00000000000E+00 0. -1.
         -1   -1    0    0    0  501 -0.00000000000E+00 -0.00000000000E+00 -0.27422397575E+03  0.27422397575E+03  0.00000000000E+00 0.  1.
         24    2    1    2    0    0  0.11613692122E+03  0.13589249047E+03  0.10944827897E+04  0.11118054252E+04  0.79146528975E+02 0.  0.
        254    2    1    2    0    0 -0.11613692122E+03 -0.13589249047E+03  0.51891838961E+03  0.10500437056E+04  0.89518765365E+03 0.  0.
         23    2    4    4    0    0 -0.27277818759E+03  0.23229460973E+03  0.52270976616E+03  0.64047246537E+03  0.92794148115E+02 0.  0.
         23    2    4    4    0    0  0.15664126637E+03 -0.36818710020E+03 -0.37913765532E+01  0.40957124027E+03  0.87384204731E+02 0.  0.
          4    1    3    3  502    0  0.94309552514E+02  0.63975269297E+02  0.79035892370E+03  0.79853262616E+03  0.00000000000E+00 0. -1.
         -1    1    3    3    0  502  0.21827368710E+02  0.71917221171E+02  0.30412386605E+03  0.31327279905E+03  0.00000000000E+00 0.  1.
         13    1    5    5    0    0 -0.10325094602E+03  0.14195401577E+03  0.28669981951E+03  0.33616734963E+03  0.00000000000E+00 0.  1.
        -13    1    5    5    0    0 -0.16952724157E+03  0.90340593958E+02  0.23600994665E+03  0.30430511575E+03  0.00000000000E+00 0. -1.
          3    1    6    6  503    0  0.87027329983E+02 -0.10041360435E+03 -0.82105271824E+00  0.13288085728E+03  0.00000000000E+00 0. -1.
         -3    1    6    6    0  503  0.69613936386E+02 -0.26777349584E+03 -0.29703238350E+01  0.27669038299E+03  0.00000000000E+00 0.  1.
<mgrwt>
<rscale>  0 0.14389330E+04</rscale>
<asrwt>0</asrwt>
<pdfrwt beam="1">  1        2 0.29040386E+00 0.14389330E+04</pdfrwt>
<pdfrwt beam="2">  1       -1 0.42188305E-01 0.14389330E+04</pdfrwt>
<totfact> 0.47108243E+01</totfact>
</mgrwt>
</event>
<event>
12    7  0.1605494E-007  0.1850809E+04  0.7818608E-02  0.8679737E-01
          2   -1    0    0  501    0  0.00000000000E+00  0.00000000000E+00  0.39404027252E+04  0.39404027252E+04  0.00000000000E+00 0. -1.
         -1   -1    0    0    0  501 -0.00000000000E+00 -0.00000000000E+00 -0.21733140197E+03  0.21733140197E+03  0.00000000000E+00 0.  1.
         24    2    1    2    0    0  0.14321842596E+03 -0.63417388180E+03  0.20289138605E+04  0.21321814103E+04  0.83774001852E+02 0.  0.
        254    2    1    2    0    0 -0.14321842596E+03  0.63417388180E+03  0.16941574627E+04  0.20255527168E+04  0.90000348343E+03 0.  0.
         23    2    4    4    0    0 -0.13049953692E+03  0.16860835199E+03 -0.32900297114E+02  0.23446791895E+03  0.91836103831E+02 0.  0.
         23    2    4    4    0    0 -0.12718889036E+02  0.46556552981E+03  0.17270577598E+04  0.17910847979E+04  0.91341199070E+02 0.  0.
          2    1    3    3  502    0  0.11623997173E+03 -0.60355711054E+03  0.18952260025E+04  0.19924042053E+04  0.00000000000E+00 0. -1.
         -1    1    3    3    0  502  0.26978454232E+02 -0.30616771262E+02  0.13368785799E+03  0.13977720504E+03  0.00000000000E+00 0.  1.
         13    1    5    5    0    0 -0.61177394308E+02  0.14081987069E+03 -0.17422487132E+01  0.15354460259E+03  0.00000000000E+00 0. -1.
        -13    1    5    5    0    0 -0.69322142614E+02  0.27788481307E+02 -0.31158048401E+02  0.80923316357E+02  0.00000000000E+00 0.  1.
          4    1    6    6  503    0  0.18789559082E+02  0.39899239666E+03  0.15065158072E+04  0.15585691699E+04  0.00000000000E+00 0. -1.
         -4    1    6    6    0  503 -0.31508448118E+02  0.66573133146E+02  0.22054195266E+03  0.23251562795E+03  0.00000000000E+00 0.  1.
<mgrwt>
<rscale>  0 0.18508087E+04</rscale>
<asrwt>0</asrwt>
<pdfrwt beam="1">  1        2 0.60621575E+00 0.18508087E+04</pdfrwt>
<pdfrwt beam="2">  1       -1 0.33435603E-01 0.18508087E+04</pdfrwt>
<totfact> 0.34866507E+00</totfact>
</mgrwt>
</event>
<event>
12    7  0.1605494E-007  0.1611128E+04  0.7818608E-02  0.8813740E-01
          2   -1    0    0  501    0  0.00000000000E+00  0.00000000000E+00  0.12112179209E+04  0.12112179209E+04  0.00000000000E+00 0. -1.
         -1   -1    0    0    0  501 -0.00000000000E+00 -0.00000000000E+00 -0.53576961331E+03  0.53576961331E+03  0.00000000000E+00 0.  1.
         24    2    1    2    0    0 -0.50155263153E+03  0.19808908846E+03  0.14557150098E+03  0.56429142774E+03  0.80246023961E+02 0.  0.
        254    2    1    2    0    0  0.50155263153E+03 -0.19808908846E+03  0.52987680657E+03  0.11826961064E+04  0.90950883496E+03 0.  0.
         23    2    4    4    0    0 -0.25710025666E+03 -0.64557305475E+02  0.16222324979E+03  0.32441549789E+03  0.93063660116E+02 0.  0.
         23    2    4    4    0    0  0.75865288819E+03 -0.13353178298E+03  0.36765355679E+03  0.85828060854E+03  0.89952895207E+02 0.  0.
          4    1    3    3  502    0 -0.22706815730E+03  0.84438388538E+02  0.10655382408E+03  0.26465733873E+03  0.00000000000E+00 0. -1.
         -3    1    3    3    0  502 -0.27448447422E+03  0.11365069992E+03  0.39017676906E+02  0.29963408900E+03  0.00000000000E+00 0.  1.
         13    1    5    5    0    0 -0.18974887554E+03 -0.59404778147E+01  0.12714160949E+03  0.22848394672E+03  0.00000000000E+00 0.  1.
        -13    1    5    5    0    0 -0.67351381129E+02 -0.58616827660E+02  0.35081640294E+02  0.95931551174E+02  0.00000000000E+00 0. -1.
          2    1    6    6  503    0  0.39852362926E+03 -0.26250557484E+02  0.20307378865E+03  0.44805037494E+03  0.00000000000E+00 0. -1.
         -2    1    6    6    0  503  0.36012925893E+03 -0.10728122550E+03  0.16457976814E+03  0.41023023361E+03  0.00000000000E+00 0.  1.
<mgrwt>
<rscale>  0 0.16111285E+04</rscale>
<asrwt>0</asrwt>
<pdfrwt beam="1">  1        2 0.18634122E+00 0.16111285E+04</pdfrwt>
<pdfrwt beam="2">  1       -1 0.82426095E-01 0.16111285E+04</pdfrwt>
<totfact> 0.29816710E+01</totfact>
</mgrwt>
</event>
<event>
12    7  0.1605494E-007  0.1687262E+04  0.7818608E-02  0.8768663E-01
         -1   -1    0    0    0  501 -0.00000000000E+00  0.00000000000E+00  0.53989069236E+03  0.53989069236E+03  0.00000000000E+00 0.  1.
          2   -1    0    0  501    0  0.00000000000E+00 -0.00000000000E+00 -0.13182549955E+04  0.13182549955E+04  0.00000000000E+00 0. -1.
         24    2    1    2    0    0  0.43154673964E+03  0.46609340597E+03 -0.27825150496E+03  0.69766142867E+03  0.76366991986E+02 0.  0.
        254    2    1    2    0    0 -0.43154673964E+03 -0.46609340597E+03 -0.50011279820E+03  0.11604842592E+04  0.83254744813E+03 0.  0.
         23    2    4    4    0    0  0.13995970155E+03 -0.16908764468E+02 -0.38602203243E+03  0.41935663261E+03  0.83500607272E+02 0.  0.
         23    2    4    4    0    0 -0.57150644119E+03 -0.44918464150E+03 -0.11409076577E+03  0.74112762661E+03  0.88696119508E+02 0.  0.
          4    1    3    3  502    0  0.29512839093E+03  0.33610627433E+03 -0.23089686288E+03  0.50337019783E+03  0.00000000000E+00 0. -1.
         -3    1    3    3    0  502  0.13641834871E+03  0.12998713164E+03 -0.47354642088E+02  0.19429123084E+03  0.00000000000E+00 0.  1.
         13    1    5    5    0    0 -0.22767039097E+01 -0.16451178805E+02 -0.82561043230E+02  0.84214906780E+02  0.00000000000E+00 0. -1.
        -13    1    5    5    0    0  0.14223640546E+03 -0.45758566308E+00 -0.30346098920E+03  0.33514172583E+03  0.00000000000E+00 0.  1.
          3    1    6    6  503    0 -0.30361919133E+03 -0.21489439402E+03 -0.17588583201E+02  0.37238900653E+03  0.00000000000E+00 0. -1.
         -3    1    6    6    0  503 -0.26788724986E+03 -0.23429024747E+03 -0.96502182568E+02  0.36873862008E+03  0.00000000000E+00 0.  1.
<mgrwt>
<rscale>  0 0.16872624E+04</rscale>
<asrwt>0</asrwt>
<pdfrwt beam="1">  1        2 0.20280846E+00 0.16872624E+04</pdfrwt>
<pdfrwt beam="2">  1       -1 0.83060106E-01 0.16872624E+04</pdfrwt>
<totfact> 0.25210231E+01</totfact>
</mgrwt>
</event>
<event>
12    7  0.1605494E-007  0.1497697E+04  0.7818608E-02  0.8885986E-01
          2   -1    0    0  501    0  0.00000000000E+00  0.00000000000E+00  0.67101342618E+03  0.67101342618E+03  0.00000000000E+00 0. -1.
         -1   -1    0    0    0  501 -0.00000000000E+00 -0.00000000000E+00 -0.83571257968E+03  0.83571257968E+03  0.00000000000E+00 0.  1.
         24    2    1    2    0    0 -0.29384421633E+03  0.27878367719E+03 -0.30021745531E+03  0.51244397997E+03  0.91670878689E+02 0.  0.
        254    2    1    2    0    0  0.29384421633E+03 -0.27878367719E+03  0.13551830182E+03  0.99428202588E+03  0.89786790494E+03 0.  0.
         23    2    4    4    0    0 -0.27171875644E+03 -0.29212375491E+03  0.92119675129E+02  0.41955895303E+03  0.91522181684E+02 0.  0.
         23    2    4    4    0    0  0.56556297277E+03  0.13340077717E+02  0.43398626692E+02  0.57472307285E+03  0.91562742568E+02 0.  0.
          4    1    3    3  502    0 -0.77575106627E+01  0.10515909479E+02 -0.39237105722E+02  0.41355940194E+02  0.00000000000E+00 0. -1.
         -3    1    3    3    0  502 -0.28608670567E+03  0.26826776771E+03 -0.26098034959E+03  0.47108803978E+03  0.00000000000E+00 0.  1.
         13    1    5    5    0    0 -0.46805550752E+02 -0.15037184763E+02 -0.57661892604E+01  0.49498741857E+02  0.00000000000E+00 0. -1.
        -13    1    5    5    0    0 -0.22491320569E+03 -0.27708657014E+03  0.97885864389E+02  0.37006021117E+03  0.00000000000E+00 0.  1.
          4    1    6    6  503    0  0.19611453415E+03 -0.38790183074E+02  0.11177286699E+02  0.20022617348E+03  0.00000000000E+00 0. -1.
         -4    1    6    6    0  503  0.36944843862E+03  0.52130260791E+02  0.32221339993E+02  0.37449689937E+03  0.00000000000E+00 0.  1.
<mgrwt>
<rscale>  0 0.14976974E+04</rscale>
<asrwt>0</asrwt>
<pdfrwt beam="1">  1        2 0.10323284E+00 0.14976974E+04</pdfrwt>
<pdfrwt beam="2">  1       -1 0.12857117E+00 0.14976974E+04</pdfrwt>
<totfact> 0.24883906E+01</totfact>
</mgrwt>
</event>
<event>
12    7  0.1605494E-007  0.1477668E+04  0.7818608E-02  0.8899440E-01
          2   -1    0    0  501    0  0.00000000000E+00  0.00000000000E+00  0.49019251244E+03  0.49019251244E+03  0.00000000000E+00 0. -1.
         -1   -1    0    0    0  501 -0.00000000000E+00 -0.00000000000E+00 -0.11135950229E+04  0.11135950229E+04  0.00000000000E+00 0.  1.
         24    2    1    2    0    0 -0.40783116341E+01 -0.16435215378E+03  0.27686455143E+03  0.33175354992E+03  0.79863477064E+02 0.  0.
        254    2    1    2    0    0  0.40783116341E+01  0.16435215378E+03 -0.90026706184E+03  0.12720339854E+04  0.88349386769E+03 0.  0.
         23    2    4    4    0    0 -0.19901499627E+03  0.83275181975E+02 -0.99202075207E+03  0.10191167768E+04  0.89174590409E+02 0.  0.
         23    2    4    4    0    0  0.20309330790E+03  0.81076971805E+02  0.91753690229E+02  0.25291720857E+03  0.87909087399E+02 0.  0.
          4    1    3    3  502    0 -0.28803402654E+02 -0.15249851149E+03  0.24008224540E+03  0.28587570125E+03  0.00000000000E+00 0. -1.
         -3    1    3    3    0  502  0.24725091020E+02 -0.11853642292E+02  0.36782306031E+02  0.45877848669E+02  0.00000000000E+00 0.  1.
         13    1    5    5    0    0 -0.11121277734E+03  0.81285237951E+02 -0.72662173649E+03  0.73956387127E+03  0.00000000000E+00 0. -1.
        -13    1    5    5    0    0 -0.87802218928E+02  0.19899440246E+01 -0.26539901558E+03  0.27955290554E+03  0.00000000000E+00 0.  1.
          3    1    6    6  503    0  0.19895044396E+03  0.52916051796E+02  0.89126602742E+02  0.22433220680E+03  0.00000000000E+00 0. -1.
         -3    1    6    6    0  503  0.41428639368E+01  0.28160920010E+02  0.26270874874E+01  0.28585001768E+02  0.00000000000E+00 0.  1.
<mgrwt>
<rscale>  0 0.14776684E+04</rscale>
<asrwt>0</asrwt>
<pdfrwt beam="1">  1        2 0.75414234E-01 0.14776684E+04</pdfrwt>
<pdfrwt beam="2">  1       -1 0.17132231E+00 0.14776684E+04</pdfrwt>
<totfact> 0.16776985E+01</totfact>
</mgrwt>
</event>
<event>
12    7  0.1605494E-007  0.1511288E+04  0.7818608E-02  0.8876981E-01
         -1   -1    0    0    0  501 -0.00000000000E+00  0.00000000000E+00  0.31686043945E+03  0.31686043945E+03  0.00000000000E+00 0.  1.
          2   -1    0    0  501    0  0.00000000000E+00 -0.00000000000E+00 -0.18020481538E+04  0.18020481538E+04  0.00000000000E+00 0. -1.
         24    2    1    2    0    0  0.24452919751E+02  0.47621459667E+03 -0.56986409767E+03  0.74735532912E+03  0.80103750219E+02 0.  0.
        254    2    1    2    0    0 -0.24452919751E+02 -0.47621459667E+03 -0.91532361668E+03  0.13715532641E+04  0.90330656241E+03 0.  0.
         23    2    4    4    0    0  0.25624713653E+03 -0.48687848233E+03 -0.91599370825E+03  0.10722442924E+04  0.89163318870E+02 0.  0.
         23    2    4    4    0    0 -0.28070005628E+03  0.10663885662E+02  0.67009156674E+00  0.29930897175E+03  0.10334007689E+03 0.  0.
          4    1    3    3  502    0  0.18433420706E+01  0.33286731374E+03 -0.44624502259E+03  0.55672135458E+03  0.00000000000E+00 0. -1.
         -3    1    3    3    0  502  0.22609577681E+02  0.14334728293E+03 -0.12361907508E+03  0.19063397454E+03  0.00000000000E+00 0.  1.
         13    1    5    5    0    0  0.23846613821E+03 -0.37792371128E+03 -0.74276637640E+03  0.86683004132E+03  0.00000000000E+00 0. -1.
        -13    1    5    5    0    0  0.17780998319E+02 -0.10895477105E+03 -0.17322733185E+03  0.20541425105E+03  0.00000000000E+00 0.  1.
          3    1    6    6  503    0 -0.18369288048E+03 -0.27872035074E+02 -0.34878070088E+02  0.18904074812E+03  0.00000000000E+00 0. -1.
         -3    1    6    6    0  503 -0.97007175804E+02  0.38535920736E+02  0.35548161655E+02  0.11026822362E+03  0.00000000000E+00 0.  1.
<mgrwt>
<rscale>  0 0.15112879E+04</rscale>
<asrwt>0</asrwt>
<pdfrwt beam="1">  1        2 0.27723819E+00 0.15112879E+04</pdfrwt>
<pdfrwt beam="2">  1       -1 0.48747758E-01 0.15112879E+04</pdfrwt>
<totfact> 0.39868389E+01</totfact>
</mgrwt>
</event>
<event>
12    7  0.1605494E-007  0.1225998E+04  0.7818608E-02  0.9090400E-01
         -1   -1    0    0    0  501 -0.00000000000E+00  0.00000000000E+00  0.18001995297E+03  0.18001995297E+03  0.00000000000E+00 0.  1.
          2   -1    0    0  501    0  0.00000000000E+00 -0.00000000000E+00 -0.20873660248E+04  0.20873660248E+04  0.00000000000E+00 0. -1.
         24    2    1    2    0    0 -0.10716398421E+03  0.89640743576E+02  0.27102245285E+01  0.16112042347E+03  0.80205131508E+02 0.  0.
        254    2    1    2    0    0  0.10716398421E+03 -0.89640743576E+02 -0.19100562964E+04  0.21062655543E+04  0.87665269496E+03 0.  0.
         23    2    4    4    0    0 -0.21694813542E+03 -0.28115826567E+03 -0.14905360099E+04  0.15350214003E+04  0.92068664067E+02 0.  0.
         23    2    4    4    0    0  0.32411211963E+03  0.19151752209E+03 -0.41952028650E+03  0.57124415400E+03  0.92709143721E+02 0.  0.
          4    1    3    3  502    0 -0.10571328618E+03  0.63096549831E+02 -0.21723528588E+02  0.12501353994E+03  0.00000000000E+00 0. -1.
         -3    1    3    3    0  502 -0.14506980338E+01  0.26544193745E+02  0.24433753116E+02  0.36106883522E+02  0.00000000000E+00 0.  1.
         13    1    5    5    0    0 -0.10045135816E+03 -0.64346845415E+02 -0.55255982405E+03  0.56529050145E+03  0.00000000000E+00 0.  1.
        -13    1    5    5    0    0 -0.11649677726E+03 -0.21681142025E+03 -0.93797618583E+03  0.96973089888E+03  0.00000000000E+00 0. -1.
          3    1    6    6  503    0  0.29011741838E+03  0.20012415377E+03 -0.37608420847E+03  0.51541936831E+03  0.00000000000E+00 0. -1.
         -3    1    6    6    0  503  0.33994701256E+02 -0.86066316800E+01 -0.43436078032E+02  0.55824785688E+02  0.00000000000E+00 0.  1.
<mgrwt>
<rscale>  0 0.12259976E+04</rscale>
<asrwt>0</asrwt>
<pdfrwt beam="1">  1        2 0.32113324E+00 0.12259976E+04</pdfrwt>
<pdfrwt beam="2">  1       -1 0.27695377E-01 0.12259976E+04</pdfrwt>
<totfact> 0.78782696E+01</totfact>
</mgrwt>
</event>
<event>
12    7  0.1605494E-007  0.1564566E+04  0.7818608E-02  0.8842617E-01
         -1   -1    0    0    0  501 -0.00000000000E+00  0.00000000000E+00  0.22652543912E+03  0.22652543912E+03  0.00000000000E+00 0.  1.
          2   -1    0    0  501    0  0.00000000000E+00 -0.00000000000E+00 -0.27015351651E+04  0.27015351651E+04  0.00000000000E+00 0. -1.
         24    2    1    2    0    0  0.45809253687E+03  0.16726815067E+03 -0.11195451664E+04  0.12237350294E+04  0.79489848255E+02 0.  0.
        254    2    1    2    0    0 -0.45809253687E+03 -0.16726815067E+03 -0.13554645596E+04  0.17043255748E+04  0.91083153557E+03 0.  0.
         23    2    4    4    0    0 -0.33185166616E+03  0.19672880578E+03 -0.12244467786E+04  0.12870711080E+04  0.91947659287E+02 0.  0.
         23    2    4    4    0    0 -0.12624087071E+03 -0.36399695645E+03 -0.13101778103E+03  0.41725446689E+03  0.92223041850E+02 0.  0.
          2    1    3    3  502    0  0.88067646249E+01  0.12651748781E+02 -0.69523461821E+02  0.71211920308E+02  0.00000000000E+00 0. -1.
         -1    1    3    3    0  502  0.44928577224E+03  0.15461640189E+03 -0.10500217046E+04  0.11525231091E+04  0.00000000000E+00 0.  1.
         13    1    5    5    0    0  0.54056670894E+01  0.72799790940E+01 -0.41695703355E+02  0.42670259087E+02  0.00000000000E+00 0.  1.
        -13    1    5    5    0    0 -0.33725733325E+03  0.18944882668E+03 -0.11827510752E+04  0.12444008489E+04  0.00000000000E+00 0. -1.
          1    1    6    6  503    0 -0.13335696283E+03 -0.35717779226E+03 -0.11461154293E+03  0.39811538603E+03  0.00000000000E+00 0. -1.
         -1    1    6    6    0  503  0.71160921258E+01 -0.68191641915E+01 -0.16406238104E+02  0.19139080859E+02  0.00000000000E+00 0.  1.
<mgrwt>
<rscale>  0 0.15645657E+04</rscale>
<asrwt>0</asrwt>
<pdfrwt beam="1">  1        2 0.41562081E+00 0.15645657E+04</pdfrwt>
<pdfrwt beam="2">  1       -1 0.34850066E-01 0.15645657E+04</pdfrwt>
<totfact> 0.22774425E+01</totfact>
</mgrwt>
</event>
<event>
12    7  0.1605494E-007  0.2204812E+04  0.7818608E-02  0.8516428E-01
         -1   -1    0    0    0  501 -0.00000000000E+00  0.00000000000E+00  0.13197873325E+04  0.13197873325E+04  0.00000000000E+00 0.  1.
          2   -1    0    0  501    0  0.00000000000E+00 -0.00000000000E+00 -0.92082902505E+03  0.92082902505E+03  0.00000000000E+00 0. -1.
         24    2    1    2    0    0  0.40668371523E+03  0.81985974034E+03  0.93528817633E+02  0.92326103179E+03  0.78113091285E+02 0.  0.
        254    2    1    2    0    0 -0.40668371523E+03 -0.81985974034E+03  0.30542948984E+03  0.13173553258E+04  0.89698174064E+03 0.  0.
         23    2    4    4    0    0 -0.45219785922E+03 -0.82670670955E+03 -0.48508914565E+02  0.94909748183E+03  0.10249891578E+03 0.  0.
         23    2    4    4    0    0  0.45514143991E+02  0.68469692050E+01  0.35393840440E+03  0.36825784395E+03  0.90680908843E+02 0.  0.
          4    1    3    3  502    0  0.34778530166E+03  0.62956587562E+03  0.68542502264E+02  0.72249974562E+03  0.00000000000E+00 0. -1.
         -3    1    3    3    0  502  0.58898413570E+02  0.19029386472E+03  0.24986315369E+02  0.20076128618E+03  0.00000000000E+00 0.  1.
         13    1    5    5    0    0 -0.44834129732E+03 -0.77058839645E+03 -0.42683193386E+02  0.89254593754E+03  0.00000000000E+00 0.  1.
        -13    1    5    5    0    0 -0.38565619031E+01 -0.56118313096E+02 -0.58257211784E+01  0.56551544291E+02  0.00000000000E+00 0. -1.
          2    1    6    6  503    0  0.38431180152E+02  0.11187877706E+02  0.49285114840E+02  0.63491312479E+02  0.00000000000E+00 0. -1.
         -2    1    6    6    0  503  0.70829638389E+01 -0.43409085008E+01  0.30465328956E+03  0.30476653147E+03  0.00000000000E+00 0.  1.
<mgrwt>
<rscale>  0 0.22048115E+04</rscale>
<asrwt>0</asrwt>
<pdfrwt beam="1">  1        2 0.14166600E+00 0.22048115E+04</pdfrwt>
<pdfrwt beam="2">  1       -1 0.20304420E+00 0.22048115E+04</pdfrwt>
<totfact> 0.42428790E+00</totfact>
</mgrwt>
</event>
<event>
12    7  0.1605494E-007  0.1225446E+04  0.7818608E-02  0.9090871E-01
         -1   -1    0    0    0  501 -0.00000000000E+00  0.00000000000E+00  0.19292045491E+03  0.19292045491E+03  0.00000000000E+00 0.  1.
          2   -1    0    0  501    0  0.00000000000E+00 -0.00000000000E+00 -0.19460322386E+04  0.19460322386E+04  0.00000000000E+00 0. -1.
         24    2    1    2    0    0 -0.22974608116E+03  0.79949798022E+02 -0.43676526934E+03  0.50644987872E+03  0.80946569650E+02 0.  0.
        254    2    1    2    0    0  0.22974608116E+03 -0.79949798022E+02 -0.13163465143E+04  0.16325028148E+04  0.93441000768E+03 0.  0.
         23    2    4    4    0    0 -0.34616130322E+03 -0.11506478134E+03 -0.44355273220E+03  0.58220355096E+03  0.95678611805E+02 0.  0.
         23    2    4    4    0    0  0.57590738438E+03  0.35114983315E+02 -0.87279378211E+03  0.10502992638E+04  0.91962927396E+02 0.  0.
          4    1    3    3  502    0 -0.19065743140E+03  0.72096453720E+02 -0.29070541434E+03  0.35504618392E+03  0.00000000000E+00 0. -1.
         -3    1    3    3    0  502 -0.39088649763E+02  0.78533443019E+01 -0.14605985500E+03  0.15140369480E+03  0.00000000000E+00 0.  1.
         13    1    5    5    0    0 -0.21653884179E+02 -0.27102674633E+02 -0.78988187459E+02  0.86270385593E+02  0.00000000000E+00 0. -1.
        -13    1    5    5    0    0 -0.32450741904E+03 -0.87962106704E+02 -0.36456454474E+03  0.49593316536E+03  0.00000000000E+00 0.  1.
          2    1    6    6  503    0  0.17993950656E+03  0.47789047293E+02 -0.31967310995E+03  0.36993636789E+03  0.00000000000E+00 0. -1.
         -2    1    6    6    0  503  0.39596787782E+03 -0.12674063978E+02 -0.55312067216E+03  0.68036289591E+03  0.00000000000E+00 0.  1.
<mgrwt>
<rscale>  0 0.12254459E+04</rscale>
<asrwt>0</asrwt>
<pdfrwt beam="1">  1        2 0.29938956E+00 0.12254459E+04</pdfrwt>
<pdfrwt beam="2">  1       -1 0.29680072E-01 0.12254459E+04</pdfrwt>
<totfact> 0.83612314E+01</totfact>
</mgrwt>
</event>
<event>
12    7  0.1605494E-007  0.2684122E+04  0.7818608E-02  0.8340175E-01
          2   -1    0    0  501    0  0.00000000000E+00  0.00000000000E+00  0.15776757997E+04  0.15776757997E+04  0.00000000000E+00 0. -1.
         -1   -1    0    0    0  501 -0.00000000000E+00 -0.00000000000E+00 -0.11416332900E+04  0.11416332900E+04  0.00000000000E+00 0.  1.
         24    2    1    2    0    0  0.37325119701E+03  0.43537250725E+03  0.12486912452E+04  0.13764460954E+04  0.80674353672E+02 0.  0.
        254    2    1    2    0    0 -0.37325119701E+03 -0.43537250725E+03 -0.81264873554E+03  0.13428629943E+04  0.90222911618E+03 0.  0.
         23    2    4    4    0    0 -0.21114730126E+03 -0.39425098112E+03 -0.98547494644E+03  0.10859163157E+04  0.89645723101E+02 0.  0.
         23    2    4    4    0    0 -0.16210389575E+03 -0.41121526127E+02  0.17282621090E+03  0.25694667866E+03  0.90465703832E+02 0.  0.
          4    1    3    3  502    0  0.21322189571E+03  0.30777241063E+03  0.80117077057E+03  0.88434271477E+03  0.00000000000E+00 0. -1.
         -3    1    3    3    0  502  0.16002930130E+03  0.12760009662E+03  0.44752047467E+03  0.49210338058E+03  0.00000000000E+00 0.  1.
         13    1    5    5    0    0 -0.93852669471E+02 -0.18180492914E+03 -0.34632289945E+03  0.40224483404E+03  0.00000000000E+00 0. -1.
        -13    1    5    5    0    0 -0.11729463179E+03 -0.21244605198E+03 -0.63915204699E+03  0.68367148165E+03  0.00000000000E+00 0.  1.
          1    1    6    6  503    0 -0.72617968196E+01 -0.33862945148E+02  0.39007267835E+02  0.52163202462E+02  0.00000000000E+00 0. -1.
         -1    1    6    6    0  503 -0.15484209893E+03 -0.72585809794E+01  0.13381894307E+03  0.20478347620E+03  0.00000000000E+00 0.  1.
<mgrwt>
<rscale>  0 0.26841216E+04</rscale>
<asrwt>0</asrwt>
<pdfrwt beam="1">  1        2 0.24271935E+00 0.26841216E+04</pdfrwt>
<pdfrwt beam="2">  1       -1 0.17563589E+00 0.26841216E+04</pdfrwt>
<totfact> 0.25693986E+00</totfact>
</mgrwt>
</event>
<event>
12    7  0.1605494E-007  0.1772825E+04  0.7818608E-02  0.8720886E-01
          2   -1    0    0  501    0  0.00000000000E+00  0.00000000000E+00  0.12588620691E+04  0.12588620691E+04  0.00000000000E+00 0. -1.
         -1   -1    0    0    0  501 -0.00000000000E+00 -0.00000000000E+00 -0.62415655361E+03  0.62415655361E+03  0.00000000000E+00 0.  1.
         24    2    1    2    0    0 -0.59877670066E+03 -0.14039587573E+03  0.48792924550E+03  0.78912844654E+03  0.80026354092E+02 0.  0.
        254    2    1    2    0    0  0.59877670066E+03  0.14039587573E+03  0.14677627002E+03  0.10938901762E+04  0.89264097204E+03 0.  0.
         23    2    4    4    0    0  0.25867739076E+01  0.13770631858E+03  0.40457924990E+03  0.43746450904E+03  0.93386860159E+02 0.  0.
         23    2    4    4    0    0  0.59618992676E+03  0.26895571511E+01 -0.25780297987E+03  0.65642566715E+03  0.94776672158E+02 0.  0.
          2    1    3    3  502    0 -0.31892399516E+03 -0.11170836580E+03  0.28804165205E+03  0.44402620080E+03  0.00000000000E+00 0. -1.
         -1    1    3    3    0  502 -0.27985270550E+03 -0.28687509928E+02  0.19988759345E+03  0.34510224574E+03  0.00000000000E+00 0.  1.
         13    1    5    5    0    0  0.24759356855E+02  0.75437670037E+02  0.11061075157E+03  0.13615655025E+03  0.00000000000E+00 0. -1.
        -13    1    5    5    0    0 -0.22172582948E+02  0.62268648541E+02  0.29396849832E+03  0.30130795879E+03  0.00000000000E+00 0.  1.
          2    1    6    6  503    0  0.38418099833E+02 -0.21824276330E+02 -0.30123971582E+02  0.53476191861E+02  0.00000000000E+00 0. -1.
         -2    1    6    6    0  503  0.55777182692E+03  0.24513833481E+02 -0.22767900829E+03  0.60294947529E+03  0.00000000000E+00 0.  1.
<mgrwt>
<rscale>  0 0.17728249E+04</rscale>
<asrwt>0</asrwt>
<pdfrwt beam="1">  1        2 0.19367109E+00 0.17728249E+04</pdfrwt>
<pdfrwt beam="2">  1       -1 0.96024085E-01 0.17728249E+04</pdfrwt>
<totfact> 0.19704360E+01</totfact>
</mgrwt>
</event>
<event>
12    7  0.1605494E-007  0.1251428E+04  0.7818608E-02  0.9068996E-01
         -1   -1    0    0    0  501 -0.00000000000E+00  0.00000000000E+00  0.13230457259E+03  0.13230457259E+03  0.00000000000E+00 0.  1.
          2   -1    0    0  501    0  0.00000000000E+00 -0.00000000000E+00 -0.29592179240E+04  0.29592179240E+04  0.00000000000E+00 0. -1.
         24    2    1    2    0    0  0.68666821312E+01 -0.18376927577E+03 -0.12516000428E+04  0.12686515849E+04  0.95686355636E+02 0.  0.
        254    2    1    2    0    0 -0.68666821312E+01  0.18376927577E+03 -0.15753133087E+04  0.18228709117E+04  0.89856999863E+03 0.  0.
         23    2    4    4    0    0  0.87004192382E+02  0.50057494257E+03 -0.12392754999E+04  0.13425150080E+04  0.91639397696E+02 0.  0.
         23    2    4    4    0    0 -0.93870874513E+02 -0.31680566680E+03 -0.33603780870E+03  0.48035590378E+03  0.92966735034E+02 0.  0.
          2    1    3    3  502    0 -0.55993275627E+00 -0.19327307868E+03 -0.12099872998E+04  0.12253261045E+04  0.00000000000E+00 0. -1.
         -1    1    3    3    0  502  0.74266148875E+01  0.95038029091E+01 -0.41612742922E+02  0.43325480400E+02  0.00000000000E+00 0.  1.
         13    1    5    5    0    0  0.31191904640E+02  0.15211323443E+03 -0.49556185179E+03  0.51931967029E+03  0.00000000000E+00 0.  1.
        -13    1    5    5    0    0  0.55812287741E+02  0.34846170814E+03 -0.74371364816E+03  0.82319533767E+03  0.00000000000E+00 0. -1.
          1    1    6    6  503    0 -0.93397177015E+02 -0.27843442609E+03 -0.32957890380E+03  0.44144197369E+03  0.00000000000E+00 0. -1.
         -1    1    6    6    0  503 -0.47369749822E+00 -0.38371240705E+02 -0.64589049064E+01  0.38913930091E+02  0.00000000000E+00 0.  1.
<mgrwt>
<rscale>  0 0.12514281E+04</rscale>
<asrwt>0</asrwt>
<pdfrwt beam="1">  1        2 0.45526428E+00 0.12514281E+04</pdfrwt>
<pdfrwt beam="2">  1       -1 0.20354550E-01 0.12514281E+04</pdfrwt>
<totfact> 0.41571098E+01</totfact>
</mgrwt>
</event>
<event>
12    7  0.1605494E-007  0.1206127E+04  0.7818608E-02  0.9107511E-01
         -1   -1    0    0    0  501 -0.00000000000E+00  0.00000000000E+00  0.18597981523E+03  0.18597981523E+03  0.00000000000E+00 0.  1.
          2   -1    0    0  501    0  0.00000000000E+00 -0.00000000000E+00 -0.19555101079E+04  0.19555101079E+04  0.00000000000E+00 0. -1.
         24    2    1    2    0    0 -0.21982281184E+02  0.16478785658E+03 -0.63198056864E+03  0.65810291615E+03  0.77857245930E+02 0.  0.
        254    2    1    2    0    0  0.21982281184E+02 -0.16478785658E+03 -0.11375497240E+04  0.14833870070E+04  0.93743233327E+03 0.  0.
         23    2    4    4    0    0 -0.93582154245E+02 -0.46870522164E+03 -0.27751010880E+03  0.55931657955E+03  0.85912579274E+02 0.  0.
         23    2    4    4    0    0  0.11556443543E+03  0.30391736506E+03 -0.86003961522E+03  0.92407042743E+03  0.92288198461E+02 0.  0.
          2    1    3    3  502    0 -0.93555043727E+01  0.10385415046E+03 -0.51652483691E+03  0.52694507985E+03  0.00000000000E+00 0. -1.
         -1    1    3    3    0  502 -0.12626776812E+02  0.60933706122E+02 -0.11545573173E+03  0.13115783630E+03  0.00000000000E+00 0.  1.
         13    1    5    5    0    0 -0.22899340615E+02 -0.11744649296E+03 -0.28558436251E+02  0.12301887168E+03  0.00000000000E+00 0.  1.
        -13    1    5    5    0    0 -0.70682813630E+02 -0.35125872868E+03 -0.24895167255E+03  0.43629770786E+03  0.00000000000E+00 0. -1.
          4    1    6    6  503    0  0.99777680229E+02  0.30618032934E+03 -0.81756916949E+03  0.87870434530E+03  0.00000000000E+00 0. -1.
         -4    1    6    6    0  503  0.15786755200E+02 -0.22629642805E+01 -0.42470445729E+02  0.45366082126E+02  0.00000000000E+00 0.  1.
<mgrwt>
<rscale>  0 0.12061267E+04</rscale>
<asrwt>0</asrwt>
<pdfrwt beam="1">  1        2 0.30084770E+00 0.12061267E+04</pdfrwt>
<pdfrwt beam="2">  1       -1 0.28612280E-01 0.12061267E+04</pdfrwt>
<totfact> 0.88203039E+01</totfact>
</mgrwt>
</event>
<event>
12    7  0.1605494E-007  0.3163190E+04  0.7818608E-02  0.8198607E-01
          2   -1    0    0  501    0  0.00000000000E+00  0.00000000000E+00  0.12305414074E+04  0.12305414074E+04  0.00000000000E+00 0. -1.
         -1   -1    0    0    0  501 -0.00000000000E+00 -0.00000000000E+00 -0.20327991261E+04  0.20327991261E+04  0.00000000000E+00 0.  1.
         24    2    1    2    0    0 -0.23174306176E+03 -0.46832108873E+03 -0.17688876225E+04  0.18464466645E+04  0.85862534490E+02 0.  0.
        254    2    1    2    0    0  0.23174306176E+03  0.46832108873E+03  0.96662990380E+03  0.14168938690E+04  0.89453081353E+03 0.  0.
         23    2    4    4    0    0 -0.14744903155E+03  0.18857652435E+01 -0.91888189314E+02  0.19599762609E+03  0.90702023569E+02 0.  0.
         23    2    4    4    0    0  0.37919209331E+03  0.46643532348E+03  0.10585180931E+04  0.12208962429E+04  0.93693798940E+02 0.  0.
          2    1    3    3  502    0 -0.23740902107E+02 -0.97227765081E+02 -0.25546586215E+03  0.27437141881E+03  0.00000000000E+00 0. -1.
         -3    1    3    3    0  502 -0.20800215965E+03 -0.37109332364E+03 -0.15134217604E+04  0.15720752457E+04  0.00000000000E+00 0.  1.
         13    1    5    5    0    0 -0.46828230631E+02  0.37472577544E+02 -0.85409022290E+01  0.60580725175E+02  0.00000000000E+00 0.  1.
        -13    1    5    5    0    0 -0.10062080092E+03 -0.35586812301E+02 -0.83347287085E+02  0.13541690091E+03  0.00000000000E+00 0. -1.
          1    1    6    6  503    0  0.29360289423E+03  0.41340519776E+03  0.86161234488E+03  0.99974114144E+03  0.00000000000E+00 0. -1.
         -1    1    6    6    0  503  0.85589199083E+02  0.53030125720E+02  0.19690574823E+03  0.22115510150E+03  0.00000000000E+00 0.  1.
<mgrwt>
<rscale>  0 0.31631905E+04</rscale>
<asrwt>0</asrwt>
<pdfrwt beam="1">  1        2 0.18931406E+00 0.31631905E+04</pdfrwt>
<pdfrwt beam="2">  1       -1 0.31273833E+00 0.31631905E+04</pdfrwt>
<totfact> 0.47687242E-01</totfact>
</mgrwt>
</event>
<event>
12    7  0.1605494E-007  0.1320938E+04  0.7818608E-02  0.9013124E-01
         -1   -1    0    0    0  501 -0.00000000000E+00  0.00000000000E+00  0.11673972450E+04  0.11673972450E+04  0.00000000000E+00 0.  1.
          2   -1    0    0  501    0  0.00000000000E+00 -0.00000000000E+00 -0.37366806067E+03  0.37366806067E+03  0.00000000000E+00 0. -1.
         24    2    1    2    0    0 -0.70154348819E+02 -0.26913332898E+03 -0.27590278352E+01  0.29246265731E+03  0.90401395247E+02 0.  0.
        254    2    1    2    0    0  0.70154348819E+02  0.26913332898E+03  0.79648821217E+03  0.12486026484E+04  0.92046766371E+03 0.  0.
         23    2    4    4    0    0 -0.23214689509E+02  0.56272653847E+03  0.26849934889E+03  0.63062823675E+03  0.91651479646E+02 0.  0.
         23    2    4    4    0    0  0.93369038328E+02 -0.29359320949E+03  0.52798886328E+03  0.61797441161E+03  0.90583572893E+02 0.  0.
          2    1    3    3  502    0  0.37498624570E+01 -0.16216472675E+03 -0.72408568370E+01  0.16236960946E+03  0.00000000000E+00 0. -1.
         -1    1    3    3    0  502 -0.73904211276E+02 -0.10696860223E+03  0.44818290018E+01  0.13009304785E+03  0.00000000000E+00 0.  1.
         13    1    5    5    0    0 -0.75371148187E+01  0.13624798188E+03  0.23283347138E+02  0.13842844693E+03  0.00000000000E+00 0.  1.
        -13    1    5    5    0    0 -0.15677574690E+02  0.42647855660E+03  0.24521600175E+03  0.49219978982E+03  0.00000000000E+00 0. -1.
          1    1    6    6  503    0  0.48574222794E+02 -0.24231854474E+03  0.35955432408E+03  0.43629925993E+03  0.00000000000E+00 0. -1.
         -1    1    6    6    0  503  0.44794815535E+02 -0.51274664748E+02  0.16843453920E+03  0.18167515169E+03  0.00000000000E+00 0.  1.
<mgrwt>
<rscale>  0 0.13209376E+04</rscale>
<asrwt>0</asrwt>
<pdfrwt beam="1">  1        2 0.57487395E-01 0.13209376E+04</pdfrwt>
<pdfrwt beam="2">  1       -1 0.17959957E+00 0.13209376E+04</pdfrwt>
<totfact> 0.20150606E+01</totfact>
</mgrwt>
</event>
<event>
12    7  0.1605494E-007  0.1121408E+04  0.7818608E-02  0.9184574E-01
         -1   -1    0    0    0  501 -0.00000000000E+00  0.00000000000E+00  0.35584303835E+03  0.35584303835E+03  0.00000000000E+00 0.  1.
          2   -1    0    0  501    0  0.00000000000E+00 -0.00000000000E+00 -0.88350456044E+03  0.88350456044E+03  0.00000000000E+00 0. -1.
         24    2    1    2    0    0  0.50788825051E+02 -0.16366824158E+03 -0.42095230345E+02  0.19365796462E+03  0.79778448156E+02 0.  0.
        254    2    1    2    0    0 -0.50788825051E+02  0.16366824158E+03 -0.48556629175E+03  0.10456896342E+04  0.91012383184E+03 0.  0.
         23    2    4    4    0    0 -0.27287882971E+02 -0.26898858355E+03  0.10776451291E+03  0.30490475662E+03  0.90852813525E+02 0.  0.
         23    2    4    4    0    0 -0.23500942079E+02  0.43265682513E+03 -0.59333080465E+03  0.74078487756E+03  0.94744754211E+02 0.  0.
          2    1    3    3  502    0 -0.13739089328E+02 -0.62895612975E+02 -0.36183066519E+02  0.73850084697E+02  0.00000000000E+00 0. -1.
         -1    1    3    3    0  502  0.64527914378E+02 -0.10077262861E+03 -0.59121638256E+01  0.11980787992E+03  0.00000000000E+00 0.  1.
         13    1    5    5    0    0  0.70765315391E+00 -0.25167823890E+03  0.88611850527E+02  0.26682296896E+03  0.00000000000E+00 0.  1.
        -13    1    5    5    0    0 -0.27995536125E+02 -0.17310344650E+02  0.19152662381E+02  0.38081787656E+02  0.00000000000E+00 0. -1.
          1    1    6    6  503    0  0.16018023235E+01  0.34768312229E+03 -0.52123112167E+03  0.62655247306E+03  0.00000000000E+00 0. -1.
         -1    1    6    6    0  503 -0.25102744403E+02  0.84973702842E+02 -0.72099682988E+02  0.11423240450E+03  0.00000000000E+00 0.  1.
<mgrwt>
<rscale>  0 0.11214079E+04</rscale>
<asrwt>0</asrwt>
<pdfrwt beam="1">  1        2 0.13592378E+00 0.11214079E+04</pdfrwt>
<pdfrwt beam="2">  1       -1 0.54745083E-01 0.11214079E+04</pdfrwt>
<totfact> 0.11476901E+02</totfact>
</mgrwt>
</event>
<event>
12    7  0.1605494E-007  0.1662921E+04  0.7818608E-02  0.8782799E-01
         -1   -1    0    0    0  501 -0.00000000000E+00  0.00000000000E+00  0.12091078493E+04  0.12091078493E+04  0.00000000000E+00 0.  1.
          2   -1    0    0  501    0  0.00000000000E+00 -0.00000000000E+00 -0.57176580397E+03  0.57176580397E+03  0.00000000000E+00 0. -1.
         24    2    1    2    0    0 -0.15249455494E+03  0.47396786398E+03  0.37272885652E+03  0.62694764908E+03  0.78971063282E+02 0.  0.
        254    2    1    2    0    0  0.15249455494E+03 -0.47396786398E+03  0.26461318885E+03  0.11539260042E+04  0.10067894309E+04 0.  0.
         23    2    4    4    0    0  0.47522583136E+03 -0.10379457211E+03 -0.13730186944E+03  0.51274182876E+03  0.86252394823E+02 0.  0.
         23    2    4    4    0    0 -0.32273127642E+03 -0.37017329186E+03  0.40191505829E+03  0.64118417547E+03  0.91638910970E+02 0.  0.
          4    1    3    3  502    0 -0.13568152742E+03  0.43471489745E+03  0.36484820895E+03  0.58352440782E+03  0.00000000000E+00 0. -1.
         -3    1    3    3    0  502 -0.16813027523E+02  0.39252966529E+02  0.78806475747E+01  0.43423241265E+02  0.00000000000E+00 0.  1.
         13    1    5    5    0    0  0.36461325746E+03 -0.44564926468E+02 -0.86491508360E+02  0.37737201963E+03  0.00000000000E+00 0. -1.
        -13    1    5    5    0    0  0.11061257391E+03 -0.59229645646E+02 -0.50810361084E+02  0.13536980913E+03  0.00000000000E+00 0.  1.
          2    1    6    6  503    0 -0.17570580801E+03 -0.21575366735E+03  0.16963229920E+03  0.32587926119E+03  0.00000000000E+00 0. -1.
         -2    1    6    6    0  503 -0.14702546841E+03 -0.15441962451E+03  0.23228275910E+03  0.31530491428E+03  0.00000000000E+00 0.  1.
<mgrwt>
<rscale>  0 0.16629210E+04</rscale>
<asrwt>0</asrwt>
<pdfrwt beam="1">  1        2 0.87963970E-01 0.16629210E+04</pdfrwt>
<pdfrwt beam="2">  1       -1 0.18601659E+00 0.16629210E+04</pdfrwt>
<totfact> 0.10802742E+01</totfact>
</mgrwt>
</event>
<event>
12    7  0.1605494E-007  0.3575544E+04  0.7818608E-02  0.8096117E-01
          2   -1    0    0  501    0  0.00000000000E+00  0.00000000000E+00  0.15218359949E+04  0.15218359949E+04  0.00000000000E+00 0. -1.
         -1   -1    0    0    0  501 -0.00000000000E+00 -0.00000000000E+00 -0.21001788918E+04  0.21001788918E+04  0.00000000000E+00 0.  1.
         24    2    1    2    0    0 -0.65741291818E+03  0.12876676997E+04  0.59427106309E+03  0.15652272648E+04  0.80612927774E+02 0.  0.
        254    2    1    2    0    0  0.65741291818E+03 -0.12876676997E+04 -0.11726139601E+04  0.20567876219E+04  0.87468392719E+03 0.  0.
         23    2    4    4    0    0  0.49084423741E+03 -0.41716170179E+03 -0.93358511829E+02  0.65687833788E+03  0.88438612629E+02 0.  0.
         23    2    4    4    0    0  0.16656868077E+03 -0.87050599792E+03 -0.10792554482E+04  0.13999092840E+04  0.97097184199E+02 0.  0.
          2    1    3    3  502    0 -0.62925909005E+03  0.12607669502E+04  0.57914351411E+03  0.15234524985E+04  0.00000000000E+00 0. -1.
         -1    1    3    3    0  502 -0.28153828129E+02  0.26900749472E+02  0.15127548978E+02  0.41774766289E+02  0.00000000000E+00 0.  1.
         13    1    5    5    0    0  0.34544138364E+03 -0.29422668247E+03 -0.24568475223E+02  0.45442568169E+03  0.00000000000E+00 0. -1.
        -13    1    5    5    0    0  0.14540285377E+03 -0.12293501931E+03 -0.68790036606E+02  0.20245265618E+03  0.00000000000E+00 0.  1.
          2    1    6    6  503    0  0.99207436304E+02 -0.71629399037E+03 -0.88662414056E+03  0.11441248021E+04  0.00000000000E+00 0. -1.
         -2    1    6    6    0  503  0.67361244466E+02 -0.15421200755E+03 -0.19263130766E+03  0.25578448198E+03  0.00000000000E+00 0.  1.
<mgrwt>
<rscale>  0 0.35755435E+04</rscale>
<asrwt>0</asrwt>
<pdfrwt beam="1">  1        2 0.23412861E+00 0.35755435E+04</pdfrwt>
<pdfrwt beam="2">  1       -1 0.32310445E+00 0.35755435E+04</pdfrwt>
<totfact> 0.26791130E-01</totfact>
</mgrwt>
</event>
<event>
12    7  0.1605494E-007  0.1555218E+04  0.7818608E-02  0.8848542E-01
         -1   -1    0    0    0  501 -0.00000000000E+00  0.00000000000E+00  0.27915730942E+03  0.27915730942E+03  0.00000000000E+00 0.  1.
          2   -1    0    0  501    0  0.00000000000E+00 -0.00000000000E+00 -0.21660745180E+04  0.21660745180E+04  0.00000000000E+00 0. -1.
         24    2    1    2    0    0  0.50294309780E+03  0.11705419468E+03 -0.60971983967E+03  0.80294153093E+03  0.79393797503E+02 0.  0.
        254    2    1    2    0    0 -0.50294309780E+03 -0.11705419468E+03 -0.12771973689E+04  0.16422902965E+04  0.89399712232E+03 0.  0.
         23    2    4    4    0    0 -0.22805871172E+02  0.29534985483E+02  0.11923044715E+03  0.15550101399E+03  0.92586406654E+02 0.  0.
         23    2    4    4    0    0 -0.48013722663E+03 -0.14658918016E+03 -0.13964278161E+04  0.14867892825E+04  0.92258229820E+02 0.  0.
          2    1    3    3  502    0  0.24773745226E+03  0.60008557543E+02 -0.36195472140E+03  0.44270316531E+03  0.00000000000E+00 0. -1.
         -1    1    3    3    0  502  0.25520564554E+03  0.57045637138E+02 -0.24776511827E+03  0.36023836562E+03  0.00000000000E+00 0.  1.
         13    1    5    5    0    0  0.33688834906E+02  0.59631280942E+01  0.66166449486E+02  0.74488224114E+02  0.00000000000E+00 0.  1.
        -13    1    5    5    0    0 -0.56494706078E+02  0.23571857388E+02  0.53063997666E+02  0.81012789879E+02  0.00000000000E+00 0. -1.
          1    1    6    6  503    0 -0.28729460097E+03 -0.78128388169E+02 -0.95293168107E+03  0.99835916461E+03  0.00000000000E+00 0. -1.
         -1    1    6    6    0  503 -0.19284262566E+03 -0.68460791995E+02 -0.44349613501E+03  0.48843011791E+03  0.00000000000E+00 0.  1.
<mgrwt>
<rscale>  0 0.15552177E+04</rscale>
<asrwt>0</asrwt>
<pdfrwt beam="1">  1        2 0.33324225E+00 0.15552177E+04</pdfrwt>
<pdfrwt beam="2">  1       -1 0.42947276E-01 0.15552177E+04</pdfrwt>
<totfact> 0.31614932E+01</totfact>
</mgrwt>
</event>
<event>
12    7  0.1605494E-007  0.1856039E+04  0.7818608E-02  0.8677053E-01
         -1   -1    0    0    0  501 -0.00000000000E+00  0.00000000000E+00  0.25065837984E+03  0.25065837984E+03  0.00000000000E+00 0.  1.
          2   -1    0    0  501    0  0.00000000000E+00 -0.00000000000E+00 -0.34358321264E+04  0.34358321264E+04  0.00000000000E+00 0. -1.
         24    2    1    2    0    0 -0.48381615149E+03  0.50501396650E+02 -0.22250105033E+04  0.22789471899E+04  0.79373137614E+02 0.  0.
        254    2    1    2    0    0  0.48381615149E+03 -0.50501396650E+02 -0.96016324328E+03  0.14075433164E+04  0.90699298467E+03 0.  0.
         23    2    4    4    0    0 -0.30004386965E+02 -0.34603068688E+03 -0.13067912992E+03  0.38406504647E+03  0.98951631743E+02 0.  0.
         23    2    4    4    0    0  0.51382053846E+03  0.29552929023E+03 -0.82948411336E+03  0.10234782699E+04  0.90082004496E+02 0.  0.
          4    1    3    3  502    0 -0.33310320455E+03  0.68871973818E+02 -0.14731635392E+04  0.15119232477E+04  0.00000000000E+00 0. -1.
         -3    1    3    3    0  502 -0.15071294694E+03 -0.18370577167E+02 -0.75184696405E+03  0.76702394215E+03  0.00000000000E+00 0.  1.
         13    1    5    5    0    0  0.15550626879E+02 -0.27384988486E+02  0.96251405407E+01  0.32930273627E+02  0.00000000000E+00 0. -1.
        -13    1    5    5    0    0 -0.45555013844E+02 -0.31864569839E+03 -0.14030427046E+03  0.35113477284E+03  0.00000000000E+00 0.  1.
          4    1    6    6  503    0  0.33562749175E+03  0.16666648747E+03 -0.58414712599E+03  0.69401109218E+03  0.00000000000E+00 0.  1.
         -4    1    6    6    0  503  0.17819304671E+03  0.12886280276E+03 -0.24533698737E+03  0.32946717773E+03  0.00000000000E+00 0. -1.
<mgrwt>
<rscale>  0 0.18560389E+04</rscale>
<asrwt>0</asrwt>
<pdfrwt beam="1">  1        2 0.52858953E+00 0.18560389E+04</pdfrwt>
<pdfrwt beam="2">  1       -1 0.38562830E-01 0.18560389E+04</pdfrwt>
<totfact> 0.63196873E+00</totfact>
</mgrwt>
</event>
<event>
12    7  0.1605494E-007  0.1094776E+04  0.7818608E-02  0.9210299E-01
         -1   -1    0    0    0  501 -0.00000000000E+00  0.00000000000E+00  0.81470557229E+03  0.81470557229E+03  0.00000000000E+00 0.  1.
          2   -1    0    0  501    0  0.00000000000E+00 -0.00000000000E+00 -0.36778123445E+03  0.36778123445E+03  0.00000000000E+00 0. -1.
         24    2    1    2    0    0  0.14521856355E+03  0.90064113161E+02  0.15635416268E+03  0.24489459898E+03  0.79540962666E+02 0.  0.
        254    2    1    2    0    0 -0.14521856355E+03 -0.90064113161E+02  0.29057017517E+03  0.93759220777E+03  0.87489893456E+03 0.  0.
         23    2    4    4    0    0 -0.48650782168E+03  0.70846309783E+02  0.17739390258E+03  0.53206029764E+03  0.99551511751E+02 0.  0.
         23    2    4    4    0    0  0.34128925813E+03 -0.16091042294E+03  0.11317627259E+03  0.40553191012E+03  0.96315832152E+02 0.  0.
          2    1    3    3  502    0  0.28964902036E+02  0.38684640065E+02  0.70846685579E+01  0.48843212993E+02  0.00000000000E+00 0. -1.
         -1    1    3    3    0  502  0.11625366152E+03  0.51379473096E+02  0.14926949412E+03  0.19605138598E+03  0.00000000000E+00 0.  1.
         13    1    5    5    0    0 -0.29788352288E+03  0.91707630595E+02  0.11679987858E+03  0.33284695334E+03  0.00000000000E+00 0. -1.
        -13    1    5    5    0    0 -0.18862429880E+03 -0.20861320812E+02  0.60594023991E+02  0.19921334430E+03  0.00000000000E+00 0.  1.
          1    1    6    6  503    0  0.16977373318E+02  0.12965034850E+02  0.44123807974E+01  0.21812666910E+02  0.00000000000E+00 0. -1.
         -1    1    6    6    0  503  0.32431188481E+03 -0.17387545779E+03  0.10876389179E+03  0.38371924321E+03  0.00000000000E+00 0.  1.
<mgrwt>
<rscale>  0 0.10947756E+04</rscale>
<asrwt>0</asrwt>
<pdfrwt beam="1">  1        2 0.56581729E-01 0.10947756E+04</pdfrwt>
<pdfrwt beam="2">  1       -1 0.12533932E+00 0.10947756E+04</pdfrwt>
<totfact> 0.55271705E+01</totfact>
</mgrwt>
</event>
<event>
12    7  0.1605494E-007  0.1656251E+04  0.7818608E-02  0.8786717E-01
          2   -1    0    0  501    0  0.00000000000E+00  0.00000000000E+00  0.13225143196E+04  0.13225143196E+04  0.00000000000E+00 0. -1.
         -1   -1    0    0    0  501 -0.00000000000E+00 -0.00000000000E+00 -0.51855129824E+03  0.51855129824E+03  0.00000000000E+00 0.  1.
         24    2    1    2    0    0  0.27638842743E+03  0.42311873467E+03  0.58051558992E+03  0.77383380161E+03  0.80002349493E+02 0.  0.
        254    2    1    2    0    0 -0.27638842743E+03 -0.42311873467E+03  0.22344743148E+03  0.10672318163E+04  0.91303612667E+03 0.  0.
         23    2    4    4    0    0 -0.38718129738E+03  0.15994020486E+03  0.18085730259E+03  0.46508405617E+03  0.90019937991E+02 0.  0.
         23    2    4    4    0    0  0.11079286995E+03 -0.58305893953E+03  0.42590128888E+02  0.60214776011E+03  0.92386248594E+02 0.  0.
          2    1    3    3  502    0  0.20440261005E+03  0.36337018059E+03  0.49392477456E+03  0.64635903186E+03  0.00000000000E+00 0. -1.
         -1    1    3    3    0  502  0.71985817380E+02  0.59748554075E+02  0.86590815360E+02  0.12747476975E+03  0.00000000000E+00 0.  1.
         13    1    5    5    0    0 -0.68969283703E+02  0.90860358715E+01  0.62642927983E+02  0.93613324739E+02  0.00000000000E+00 0.  1.
        -13    1    5    5    0    0 -0.31821201367E+03  0.15085416899E+03  0.11821437461E+03  0.37147073143E+03  0.00000000000E+00 0. -1.
          3    1    6    6  503    0  0.99493784874E+02 -0.57609950838E+03  0.50321457799E+02  0.58678949028E+03  0.00000000000E+00 0. -1.
         -3    1    6    6    0  503  0.11299085073E+02 -0.69594311434E+01 -0.77313289109E+01  0.15358269827E+02  0.00000000000E+00 0.  1.
<mgrwt>
<rscale>  0 0.16562506E+04</rscale>
<asrwt>0</asrwt>
<pdfrwt beam="1">  1        2 0.20346374E+00 0.16562506E+04</pdfrwt>
<pdfrwt beam="2">  1       -1 0.79777123E-01 0.16562506E+04</pdfrwt>
<totfact> 0.27395976E+01</totfact>
</mgrwt>
</event>
<event>
12    7  0.1605494E-007  0.1219926E+04  0.7818608E-02  0.9095592E-01
          2   -1    0    0  501    0  0.00000000000E+00  0.00000000000E+00  0.13109275244E+04  0.13109275244E+04  0.00000000000E+00 0. -1.
         -1   -1    0    0    0  501 -0.00000000000E+00 -0.00000000000E+00 -0.28381061365E+03  0.28381061365E+03  0.00000000000E+00 0.  1.
         24    2    1    2    0    0  0.46450613203E+02 -0.12704023135E+03  0.57721780584E+03  0.59811865010E+03  0.79174771043E+02 0.  0.
        254    2    1    2    0    0 -0.46450613203E+02  0.12704023135E+03  0.44989910495E+03  0.99661948800E+03  0.87894500361E+03 0.  0.
         23    2    4    4    0    0 -0.38209829616E+03  0.24536606617E+03  0.70978472918E+02  0.46869430076E+03  0.91830221557E+02 0.  0.
         23    2    4    4    0    0  0.33564768296E+03 -0.11832583482E+03  0.37892063203E+03  0.52792518723E+03  0.91998846064E+02 0.  0.
          2    1    3    3  502    0  0.44805082211E+02 -0.12196854251E+03  0.57826577624E+03  0.59268467900E+03  0.00000000000E+00 0. -1.
         -1    1    3    3    0  502  0.16455309919E+01 -0.50716888388E+01 -0.10479703997E+01  0.54339710969E+01  0.00000000000E+00 0.  1.
         13    1    5    5    0    0 -0.35858785316E+03  0.20305242390E+03  0.79104267765E+02  0.41961055810E+03  0.00000000000E+00 0. -1.
        -13    1    5    5    0    0 -0.23510443000E+02  0.42313642270E+02 -0.81257948465E+01  0.49083742666E+02  0.00000000000E+00 0.  1.
          1    1    6    6  503    0  0.28566108446E+03 -0.70646184361E+02  0.27256604504E+03  0.40110520746E+03  0.00000000000E+00 0. -1.
         -1    1    6    6    0  503  0.49986598500E+02 -0.47679650459E+02  0.10635458699E+03  0.12681997978E+03  0.00000000000E+00 0.  1.
<mgrwt>
<rscale>  0 0.12199265E+04</rscale>
<asrwt>0</asrwt>
<pdfrwt beam="1">  1        2 0.20168115E+00 0.12199265E+04</pdfrwt>
<pdfrwt beam="2">  1       -1 0.43663172E-01 0.12199265E+04</pdfrwt>
<totfact> 0.94751713E+01</totfact>
</mgrwt>
</event>
<event>
12    7  0.1605494E-007  0.2043354E+04  0.7818608E-02  0.8586615E-01
          2   -1    0    0  501    0  0.00000000000E+00  0.00000000000E+00  0.47332250906E+03  0.47332250906E+03  0.00000000000E+00 0. -1.
         -1   -1    0    0    0  501 -0.00000000000E+00 -0.00000000000E+00 -0.22053122701E+04  0.22053122701E+04  0.00000000000E+00 0.  1.
         24    2    1    2    0    0 -0.15891741283E+03 -0.79224474705E+03 -0.10327027288E+04  0.13135222775E+04  0.77196917368E+02 0.  0.
        254    2    1    2    0    0  0.15891741283E+03  0.79224474705E+03 -0.69928703229E+03  0.13651125017E+04  0.84948414084E+03 0.  0.
         23    2    4    4    0    0 -0.29586386253E+03  0.97167474560E+02 -0.11027860832E+03  0.34229817652E+03  0.89608743625E+02 0.  0.
         23    2    4    4    0    0  0.45478127536E+03  0.69507727249E+03 -0.58900842397E+03  0.10228143252E+04  0.96227840089E+02 0.  0.
          2    1    3    3  502    0 -0.18315220166E+02 -0.13833283740E+03 -0.13609953935E+03  0.19492179407E+03  0.00000000000E+00 0. -1.
         -1    1    3    3    0  502 -0.14060219266E+03 -0.65391190965E+03 -0.89660318943E+03  0.11186004834E+04  0.00000000000E+00 0.  1.
         13    1    5    5    0    0 -0.19363275680E+03  0.10719703651E+03 -0.75499496788E+02  0.23384829091E+03  0.00000000000E+00 0.  1.
        -13    1    5    5    0    0 -0.10223110573E+03 -0.10029561955E+02 -0.34779111535E+02  0.10844988562E+03  0.00000000000E+00 0. -1.
          3    1    6    6  503    0  0.15961794067E+02  0.61196176192E+02 -0.27034396728E+02  0.68779426116E+02  0.00000000000E+00 0. -1.
         -3    1    6    6    0  503  0.43881948129E+03  0.63388109629E+03 -0.56197402724E+03  0.95403489909E+03  0.00000000000E+00 0.  1.
<mgrwt>
<rscale>  0 0.20433540E+04</rscale>
<asrwt>0</asrwt>
<pdfrwt beam="1">  1        2 0.72818847E-01 0.20433540E+04</pdfrwt>
<pdfrwt beam="2">  1       -1 0.33927881E+00 0.20433540E+04</pdfrwt>
<totfact> 0.12712402E+00</totfact>
</mgrwt>
</event>
<event>
12    7  0.1605494E-007  0.1445584E+04  0.7818608E-02  0.8921468E-01
         -1   -1    0    0    0  501 -0.00000000000E+00  0.00000000000E+00  0.18937512225E+03  0.18937512225E+03  0.00000000000E+00 0.  1.
          2   -1    0    0  501    0  0.00000000000E+00 -0.00000000000E+00 -0.27586958650E+04  0.27586958650E+04  0.00000000000E+00 0. -1.
         24    2    1    2    0    0  0.21315266257E+03  0.35682470017E+03 -0.10499080183E+04  0.11318157920E+04  0.77085769983E+02 0.  0.
        254    2    1    2    0    0 -0.21315266257E+03 -0.35682470017E+03 -0.15194127244E+04  0.18162551952E+04  0.90410728499E+03 0.  0.
         23    2    4    4    0    0  0.31319285494E+03  0.36337394457E+02 -0.58098707720E+03  0.66714967300E+03  0.90180550519E+02 0.  0.
         23    2    4    4    0    0 -0.52634551750E+03 -0.39316209463E+03 -0.93842564719E+03  0.11491055222E+04  0.90469715078E+02 0.  0.
          2    1    3    3  502    0 -0.26311625975E+01  0.94263849622E+01 -0.84136954973E+01  0.12906200912E+02  0.00000000000E+00 0. -1.
         -1    1    3    3    0  502  0.21578382517E+03  0.34739831521E+03 -0.10414943228E+04  0.11189095911E+04  0.00000000000E+00 0.  1.
         13    1    5    5    0    0  0.27918966548E+03  0.44341584706E+01 -0.46874560512E+03  0.54560880986E+03  0.00000000000E+00 0.  1.
        -13    1    5    5    0    0  0.34003189460E+02  0.31903235986E+02 -0.11224147208E+03  0.12154086315E+03  0.00000000000E+00 0. -1.
          2    1    6    6  503    0 -0.66817074890E+02 -0.91267011921E+02 -0.14873492372E+03  0.18685894813E+03  0.00000000000E+00 0. -1.
         -2    1    6    6    0  503 -0.45952844261E+03 -0.30189508271E+03 -0.78969072347E+03  0.96224657405E+03  0.00000000000E+00 0.  1.
<mgrwt>
<rscale>  0 0.14455841E+04</rscale>
<asrwt>0</asrwt>
<pdfrwt beam="1">  1        2 0.42441477E+00 0.14455841E+04</pdfrwt>
<pdfrwt beam="2">  1       -1 0.29134633E-01 0.14455841E+04</pdfrwt>
<totfact> 0.29225022E+01</totfact>
</mgrwt>
</event>
<event>
12    7  0.1605494E-007  0.1314021E+04  0.7818608E-02  0.9018520E-01
          2   -1    0    0  501    0  0.00000000000E+00  0.00000000000E+00  0.87685842002E+03  0.87685842002E+03  0.00000000000E+00 0. -1.
         -1   -1    0    0    0  501 -0.00000000000E+00 -0.00000000000E+00 -0.49228319440E+03  0.49228319440E+03  0.00000000000E+00 0.  1.
         24    2    1    2    0    0  0.37161651151E+02  0.24038302760E+03  0.35251476556E+03  0.43577959022E+03  0.80450003352E+02 0.  0.
        254    2    1    2    0    0 -0.37161651151E+02 -0.24038302760E+03  0.32060460050E+02  0.93336202420E+03  0.90053973085E+03 0.  0.
         23    2    4    4    0    0 -0.13185854885E+02  0.33611105362E+03  0.22437192677E+02  0.34907819272E+03  0.90596080960E+02 0.  0.
         23    2    4    4    0    0 -0.23975796266E+02 -0.57649408122E+03  0.96232673738E+01  0.58428383148E+03  0.91513517955E+02 0.  0.
          4    1    3    3  502    0  0.60866221818E+02  0.13356152938E+03  0.20137982807E+03  0.24919312639E+03  0.00000000000E+00 0. -1.
         -3    1    3    3    0  502 -0.23704570667E+02  0.10682149822E+03  0.15113493750E+03  0.18658646383E+03  0.00000000000E+00 0.  1.
         13    1    5    5    0    0 -0.15396977542E+02  0.21531614073E+02 -0.17843200560E+02  0.31922674203E+02  0.00000000000E+00 0. -1.
        -13    1    5    5    0    0  0.22111226562E+01  0.31457943954E+03  0.40280393237E+02  0.31715551852E+03  0.00000000000E+00 0.  1.
          4    1    6    6  503    0 -0.51927683398E+00 -0.11058205938E+03  0.37972247198E+02  0.11692114036E+03  0.00000000000E+00 0. -1.
         -4    1    6    6    0  503 -0.23456519432E+02 -0.46591202184E+03 -0.28348979824E+02  0.46736269112E+03  0.00000000000E+00 0.  1.
<mgrwt>
<rscale>  0 0.13140208E+04</rscale>
<asrwt>0</asrwt>
<pdfrwt beam="1">  1        2 0.13490130E+00 0.13140208E+04</pdfrwt>
<pdfrwt beam="2">  1       -1 0.75735876E-01 0.13140208E+04</pdfrwt>
<totfact> 0.59547817E+01</totfact>
</mgrwt>
</event>
<event>
12    7  0.1605494E-007  0.3133508E+04  0.7818608E-02  0.8206602E-01
         -1   -1    0    0    0  501 -0.00000000000E+00  0.00000000000E+00  0.79034322422E+03  0.79034322422E+03  0.00000000000E+00 0.  1.
          2   -1    0    0  501    0  0.00000000000E+00 -0.00000000000E+00 -0.31058880459E+04  0.31058880459E+04  0.00000000000E+00 0. -1.
         24    2    1    2    0    0  0.12985456954E+03  0.14036530915E+03  0.70922915862E+03  0.73879222495E+03  0.79014700987E+02 0.  0.
        254    2    1    2    0    0 -0.12985456954E+03 -0.14036530915E+03 -0.30247739803E+04  0.31574390451E+04  0.88521130972E+03 0.  0.
         23    2    4    4    0    0  0.31095446203E+03  0.14892555512E+03 -0.14880340194E+04  0.15301325990E+04  0.90493256002E+02 0.  0.
         23    2    4    4    0    0 -0.44080903157E+03 -0.28929086426E+03 -0.15367399609E+04  0.16273064461E+04  0.92491922325E+02 0.  0.
          2    1    3    3  502    0  0.29213212974E+02  0.10670796509E+02  0.45852662019E+02  0.55405273437E+02  0.00000000000E+00 0. -1.
         -1    1    3    3    0  502  0.10064135656E+03  0.12969451264E+03  0.66337649660E+03  0.68338695151E+03  0.00000000000E+00 0.  1.
         13    1    5    5    0    0  0.22477709269E+03  0.14957937508E+03 -0.11532777269E+04  0.11844611628E+04  0.00000000000E+00 0. -1.
        -13    1    5    5    0    0  0.86177369349E+02 -0.65381996078E+00 -0.33475629251E+03  0.34567143625E+03  0.00000000000E+00 0.  1.
          3    1    6    6  503    0 -0.13680601258E+03 -0.13273078565E+03 -0.47328198547E+03  0.51022464102E+03  0.00000000000E+00 0. -1.
         -3    1    6    6    0  503 -0.30400301899E+03 -0.15656007861E+03 -0.10634579754E+04  0.11170818051E+04  0.00000000000E+00 0.  1.
<mgrwt>
<rscale>  0 0.31335077E+04</rscale>
<asrwt>0</asrwt>
<pdfrwt beam="1">  1        2 0.47782893E+00 0.31335077E+04</pdfrwt>
<pdfrwt beam="2">  1       -1 0.12159127E+00 0.31335077E+04</pdfrwt>
<totfact> 0.85924147E-01</totfact>
</mgrwt>
</event>
<event>
12    7  0.1903494E-007  0.2272824E+04  0.7818608E-02  0.8488714E-01
          2   -1    0    0  501    0  0.00000000000E+00  0.00000000000E+00  0.21075906942E+04  0.21075906942E+04  0.00000000000E+00 0. -1.
         -1   -1    0    0    0  501 -0.00000000000E+00 -0.00000000000E+00 -0.61275305423E+03  0.61275305423E+03  0.00000000000E+00 0.  1.
         24    2    1    2    0    0 -0.29277877183E+03  0.41903960316E+03  0.15925232641E+04  0.16744752321E+04  0.80145854889E+02 0.  0.
        254    2    1    2    0    0  0.29277877183E+03 -0.41903960316E+03 -0.97685624153E+02  0.10458685163E+04  0.90718513762E+03 0.  0.
         23    2    4    4    0    0 -0.18945548767E+03  0.13080753301E+03 -0.17669714031E+03  0.30444739105E+03  0.91990988799E+02 0.  0.
         23    2    4    4    0    0  0.48223425950E+03 -0.54984713617E+03  0.79011516160E+02  0.74142112523E+03  0.92632127615E+02 0.  0.
          4    1    3    3  502    0 -0.24174736032E+03  0.37759999739E+03  0.14451889049E+04  0.15131406131E+04  0.00000000000E+00 0. -1.
         -3    1    3    3    0  502 -0.51031411507E+02  0.41439605765E+02  0.14733435922E+03  0.16133461901E+03  0.00000000000E+00 0.  1.
         13    1    5    5    0    0 -0.80390791741E+02  0.68807912808E+02 -0.27145970226E+02  0.10924336118E+03  0.00000000000E+00 0.  1.
        -13    1    5    5    0    0 -0.10906469593E+03  0.61999620205E+02 -0.14955117009E+03  0.19520402987E+03  0.00000000000E+00 0. -1.
          4    1    6    6  503    0  0.45250693787E+03 -0.52809429413E+03  0.55362203647E+02  0.69764682032E+03  0.00000000000E+00 0. -1.
         -4    1    6    6    0  503  0.29727321630E+02 -0.21752842041E+02  0.23649312513E+02  0.43774304912E+02  0.00000000000E+00 0.  1.
<mgrwt>
<rscale>  0 0.22728244E+04</rscale>
<asrwt>0</asrwt>
<pdfrwt beam="1">  1        2 0.32424472E+00 0.22728244E+04</pdfrwt>
<pdfrwt beam="2">  1       -1 0.94269701E-01 0.22728244E+04</pdfrwt>
<totfact> 0.65545376E+00</totfact>
</mgrwt>
</event>
<event>
12    7  0.1605494E-007  0.1340854E+04  0.7818608E-02  0.8997781E-01
         -1   -1    0    0    0  501 -0.00000000000E+00  0.00000000000E+00  0.52797810625E+03  0.52797810625E+03  0.00000000000E+00 0.  1.
          2   -1    0    0  501    0  0.00000000000E+00 -0.00000000000E+00 -0.85130822508E+03  0.85130822508E+03  0.00000000000E+00 0. -1.
         24    2    1    2    0    0  0.30513077821E+03 -0.12417285999E+03 -0.24580645857E+03  0.41875269674E+03  0.80058197489E+02 0.  0.
        254    2    1    2    0    0 -0.30513077821E+03  0.12417285999E+03 -0.77523660259E+02  0.96053363459E+03  0.89893896028E+03 0.  0.
         23    2    4    4    0    0 -0.26055930583E+03 -0.35621560723E+03  0.49402199343E+02  0.45343094187E+03  0.91533223830E+02 0.  0.
         23    2    4    4    0    0 -0.44571472384E+02  0.48038846721E+03 -0.12692585960E+03  0.50710269271E+03  0.91012480126E+02 0.  0.
          2    1    3    3  502    0  0.77903167769E+02 -0.36544523019E+02 -0.11082407917E+03  0.14030816881E+03  0.00000000000E+00 0. -1.
         -1    1    3    3    0  502  0.22722761044E+03 -0.87628336969E+02 -0.13498237940E+03  0.27844452793E+03  0.00000000000E+00 0.  1.
         13    1    5    5    0    0 -0.85811244997E+02 -0.10401788467E+03  0.57278813749E+02  0.14650649338E+03  0.00000000000E+00 0. -1.
        -13    1    5    5    0    0 -0.17474806083E+03 -0.25219772256E+03 -0.78766144068E+01  0.30692444849E+03  0.00000000000E+00 0.  1.
          4    1    6    6  503    0 -0.54687982867E+02  0.23914344012E+03 -0.97001108750E+02  0.26379836148E+03  0.00000000000E+00 0. -1.
         -4    1    6    6    0  503  0.10116510483E+02  0.24124502709E+03 -0.29924750852E+02  0.24330433123E+03  0.00000000000E+00 0.  1.
<mgrwt>
<rscale>  0 0.13408536E+04</rscale>
<asrwt>0</asrwt>
<pdfrwt beam="1">  1        2 0.13097050E+00 0.13408536E+04</pdfrwt>
<pdfrwt beam="2">  1       -1 0.81227401E-01 0.13408536E+04</pdfrwt>
<totfact> 0.53374825E+01</totfact>
</mgrwt>
</event>
<event>
12    7  0.1605494E-007  0.1318127E+04  0.7818608E-02  0.9015312E-01
          2   -1    0    0  501    0  0.00000000000E+00  0.00000000000E+00  0.20583178407E+04  0.20583178407E+04  0.00000000000E+00 0. -1.
         -1   -1    0    0    0  501 -0.00000000000E+00 -0.00000000000E+00 -0.21102911572E+03  0.21102911572E+03  0.00000000000E+00 0.  1.
         24    2    1    2    0    0  0.39559039386E+03  0.64756209844E+02  0.68722920169E+03  0.79982132260E+03  0.82128229025E+02 0.  0.
        254    2    1    2    0    0 -0.39559039386E+03 -0.64756209844E+02  0.11600595233E+04  0.14695256338E+04  0.80813511524E+03 0.  0.
         23    2    4    4    0    0 -0.31116012763E+03  0.22259782923E+03  0.10759823955E+04  0.11456184937E+04  0.91286356763E+02 0.  0.
         23    2    4    4    0    0 -0.84430266222E+02 -0.28735403907E+03  0.84077127756E+02  0.32390714016E+03  0.90255517346E+02 0.  0.
          2    1    3    3  502    0  0.13394830063E+03  0.39239731014E+02  0.17293731782E+03  0.22223685479E+03  0.00000000000E+00 0. -1.
         -1    1    3    3    0  502  0.26164209322E+03  0.25516478831E+02  0.51429188387E+03  0.57758446781E+03  0.00000000000E+00 0.  1.
         13    1    5    5    0    0 -0.28640876767E+03  0.19101433929E+03  0.10215201998E+04  0.10779703051E+04  0.00000000000E+00 0.  1.
        -13    1    5    5    0    0 -0.24751359962E+02  0.31583489937E+02  0.54462195737E+02  0.67648188601E+02  0.00000000000E+00 0. -1.
          3    1    6    6  503    0 -0.64774849119E+02 -0.15142769272E+03  0.87548623980E+02  0.18652315878E+03  0.00000000000E+00 0. -1.
         -3    1    6    6    0  503 -0.19655417103E+02 -0.13592634635E+03 -0.34714962245E+01  0.13738398138E+03  0.00000000000E+00 0.  1.
<mgrwt>
<rscale>  0 0.13181275E+04</rscale>
<asrwt>0</asrwt>
<pdfrwt beam="1">  1        2 0.31666427E+00 0.13181275E+04</pdfrwt>
<pdfrwt beam="2">  1       -1 0.32466019E-01 0.13181275E+04</pdfrwt>
<totfact> 0.61419744E+01</totfact>
</mgrwt>
</event>
<event>
12    7  0.1605494E-007  0.4064960E+04  0.7818608E-02  0.7991569E-01
          2   -1    0    0  501    0  0.00000000000E+00  0.00000000000E+00  0.28732265118E+04  0.28732265118E+04  0.00000000000E+00 0. -1.
         -1   -1    0    0    0  501 -0.00000000000E+00 -0.00000000000E+00 -0.14377477138E+04  0.14377477138E+04  0.00000000000E+00 0.  1.
         24    2    1    2    0    0  0.20298832525E+03 -0.12954205684E+04 -0.82257102999E+03  0.15500130939E+04  0.81232889879E+02 0.  0.
        254    2    1    2    0    0 -0.20298832525E+03  0.12954205684E+04  0.22580498280E+04  0.27609611317E+04  0.89710569928E+03 0.  0.
         23    2    4    4    0    0  0.13736742453E+03  0.59963991781E+03  0.16767192522E+04  0.17883010296E+04  0.90527792850E+02 0.  0.
         23    2    4    4    0    0 -0.34035574978E+03  0.69578065064E+03  0.58133057576E+03  0.97266010211E+03  0.90386313692E+02 0.  0.
          4    1    3    3  502    0  0.31293548521E+02 -0.43736016631E+03 -0.28718411902E+03  0.52415448054E+03  0.00000000000E+00 0. -1.
         -3    1    3    3    0  502  0.17169477673E+03 -0.85806040214E+03 -0.53538691097E+03  0.10258586133E+04  0.00000000000E+00 0.  1.
         13    1    5    5    0    0  0.11040224940E+03  0.29348401098E+03  0.79879276544E+03  0.85813250928E+03  0.00000000000E+00 0. -1.
        -13    1    5    5    0    0  0.26965175128E+02  0.30615590683E+03  0.87792648677E+03  0.93016852028E+03  0.00000000000E+00 0.  1.
          1    1    6    6  503    0 -0.10385591570E+03  0.12969247671E+03  0.11573194082E+03  0.20248474478E+03  0.00000000000E+00 0. -1.
         -1    1    6    6    0  503 -0.23649983409E+03  0.56608817393E+03  0.46559863494E+03  0.77017535733E+03  0.00000000000E+00 0.  1.
<mgrwt>
<rscale>  0 0.40649599E+04</rscale>
<asrwt>0</asrwt>
<pdfrwt beam="1">  1        2 0.44203485E+00 0.40649599E+04</pdfrwt>
<pdfrwt beam="2">  1       -1 0.22119196E+00 0.40649599E+04</pdfrwt>
<totfact> 0.20089869E-01</totfact>
</mgrwt>
</event>
<event>
12    7  0.1605494E-007  0.1632860E+04  0.7818608E-02  0.8800611E-01
          2   -1    0    0  501    0  0.00000000000E+00  0.00000000000E+00  0.31831419874E+04  0.31831419874E+04  0.00000000000E+00 0. -1.
         -1   -1    0    0    0  501 -0.00000000000E+00 -0.00000000000E+00 -0.20940257953E+03  0.20940257953E+03  0.00000000000E+00 0.  1.
         24    2    1    2    0    0  0.77186536929E+02  0.54237185704E+03  0.12899890628E+04  0.14038146758E+04  0.80615563283E+02 0.  0.
        254    2    1    2    0    0 -0.77186536929E+02 -0.54237185704E+03  0.16837503451E+04  0.19887298911E+04  0.90548680970E+03 0.  0.
         23    2    4    4    0    0 -0.64398475381E+02 -0.66350209420E+03  0.62347275376E+03  0.91756833462E+03  0.93974365564E+02 0.  0.
         23    2    4    4    0    0 -0.12788061547E+02  0.12113023716E+03  0.10602775913E+04  0.10711615565E+04  0.91446381187E+02 0.  0.
          2    1    3    3  502    0  0.78611659900E+02  0.46669615260E+03  0.11681366796E+04  0.12603683566E+04  0.00000000000E+00 0. -1.
         -1    1    3    3    0  502 -0.14251229711E+01  0.75675704433E+02  0.12185238317E+03  0.14344631923E+03  0.00000000000E+00 0.  1.
         13    1    5    5    0    0 -0.79208199122E+02 -0.40714370428E+03  0.41590672290E+03  0.58738261542E+03  0.00000000000E+00 0.  1.
        -13    1    5    5    0    0  0.14809723741E+02 -0.25635838992E+03  0.20756603086E+03  0.33018571920E+03  0.00000000000E+00 0. -1.
          1    1    6    6  503    0 -0.20023373679E+02  0.29702431579E+02  0.94872887119E+02  0.10141022949E+03  0.00000000000E+00 0. -1.
         -1    1    6    6    0  503  0.72353121318E+01  0.91427805581E+02  0.96540470418E+03  0.96975132700E+03  0.00000000000E+00 0.  1.
<mgrwt>
<rscale>  0 0.16328602E+04</rscale>
<asrwt>0</asrwt>
<pdfrwt beam="1">  1        2 0.48971412E+00 0.16328602E+04</pdfrwt>
<pdfrwt beam="2">  1       -1 0.32215784E-01 0.16328602E+04</pdfrwt>
<totfact> 0.13129440E+01</totfact>
</mgrwt>
</event>
<event>
12    7  0.1605494E-007  0.1521492E+04  0.7818608E-02  0.8870285E-01
         -1   -1    0    0    0  501 -0.00000000000E+00  0.00000000000E+00  0.27074669795E+03  0.27074669795E+03  0.00000000000E+00 0.  1.
          2   -1    0    0  501    0  0.00000000000E+00 -0.00000000000E+00 -0.21375499148E+04  0.21375499148E+04  0.00000000000E+00 0. -1.
         24    2    1    2    0    0  0.12722032729E+03  0.20670998738E+03  0.64148529617E+02  0.25658988442E+03  0.53002871441E+02 0.  0.
        254    2    1    2    0    0 -0.12722032729E+03 -0.20670998738E+03 -0.19309517465E+04  0.21517067284E+04  0.91779799902E+03 0.  0.
         23    2    4    4    0    0  0.32735235734E+03 -0.32532177952E+03 -0.98310926203E+03  0.10899126588E+04  0.91716719234E+02 0.  0.
         23    2    4    4    0    0 -0.45457268463E+03  0.11861179214E+03 -0.94784248447E+03  0.10617940696E+04  0.91083412248E+02 0.  0.
          2    1    3    3  502    0  0.60348911026E+02  0.12195471031E+03  0.11720520438E+02  0.13657347117E+03  0.00000000000E+00 0. -1.
         -1    1    3    3    0  502  0.66871416261E+02  0.84755277064E+02  0.52428009179E+02  0.12001641325E+03  0.00000000000E+00 0.  1.
         13    1    5    5    0    0  0.32470020480E+03 -0.29695230147E+03 -0.94413040488E+03  0.10416300273E+04  0.00000000000E+00 0.  1.
        -13    1    5    5    0    0  0.26521525396E+01 -0.28369478053E+02 -0.38978857151E+02  0.48282631483E+02  0.00000000000E+00 0. -1.
          1    1    6    6  503    0 -0.75964678306E+02  0.37938886517E+02 -0.11099209091E+03  0.13974704185E+03  0.00000000000E+00 0. -1.
         -1    1    6    6    0  503 -0.37860800632E+03  0.80672905628E+02 -0.83685039356E+03  0.92204702774E+03  0.00000000000E+00 0.  1.
<mgrwt>
<rscale>  0 0.15214921E+04</rscale>
<asrwt>0</asrwt>
<pdfrwt beam="1">  1        2 0.32885383E+00 0.15214921E+04</pdfrwt>
<pdfrwt beam="2">  1       -1 0.41653338E-01 0.15214921E+04</pdfrwt>
<totfact> 0.34800761E+01</totfact>
</mgrwt>
</event>
<event>
12    7  0.1605494E-007  0.1343908E+04  0.7818608E-02  0.8995453E-01
          2   -1    0    0  501    0  0.00000000000E+00  0.00000000000E+00  0.35793503081E+03  0.35793503081E+03  0.00000000000E+00 0. -1.
         -1   -1    0    0    0  501 -0.00000000000E+00 -0.00000000000E+00 -0.12614638556E+04  0.12614638556E+04  0.00000000000E+00 0.  1.
         24    2    1    2    0    0  0.66928683442E+02 -0.25396909843E+03 -0.54432156069E+03  0.60973259066E+03  0.80672914004E+02 0.  0.
        254    2    1    2    0    0 -0.66928683442E+02  0.25396909843E+03 -0.35920726405E+03  0.10096662957E+04  0.90632026266E+03 0.  0.
         23    2    4    4    0    0 -0.37000052313E+03  0.34443805489E+03 -0.43314492868E+03  0.67177220712E+03  0.90141046369E+02 0.  0.
         23    2    4    4    0    0  0.30307183969E+03 -0.90468956461E+02  0.73937664630E+02  0.33789408859E+03  0.93104590399E+02 0.  0.
          4    1    3    3  502    0  0.45020704053E+02 -0.15996170374E+03 -0.25175754114E+03  0.30165621157E+03  0.00000000000E+00 0. -1.
         -3    1    3    3    0  502  0.21907979388E+02 -0.94007394687E+02 -0.29256401955E+03  0.30807637909E+03  0.00000000000E+00 0.  1.
         13    1    5    5    0    0 -0.26127281299E+03  0.29455434226E+03 -0.32592197768E+03  0.51112706726E+03  0.00000000000E+00 0. -1.
        -13    1    5    5    0    0 -0.10872771014E+03  0.49883712631E+02 -0.10722295100E+03  0.16064513985E+03  0.00000000000E+00 0.  1.
          1    1    6    6  503    0  0.21201118638E+03 -0.96090729289E+02  0.80816643490E+02  0.24640109836E+03  0.00000000000E+00 0. -1.
         -1    1    6    6    0  503  0.91060653309E+02  0.56217728280E+01 -0.68789788609E+01  0.91492990229E+02  0.00000000000E+00 0.  1.
<mgrwt>
<rscale>  0 0.13439079E+04</rscale>
<asrwt>0</asrwt>
<pdfrwt beam="1">  1        2 0.55066927E-01 0.13439079E+04</pdfrwt>
<pdfrwt beam="2">  1       -1 0.19407136E+00 0.13439079E+04</pdfrwt>
<totfact> 0.16679659E+01</totfact>
</mgrwt>
</event>
<event>
12    7  0.1605494E-007  0.2086067E+04  0.7818608E-02  0.8567406E-01
         -1   -1    0    0    0  501 -0.00000000000E+00  0.00000000000E+00  0.50688813551E+03  0.50688813551E+03  0.00000000000E+00 0.  1.
          2   -1    0    0  501    0  0.00000000000E+00 -0.00000000000E+00 -0.21462708543E+04  0.21462708543E+04  0.00000000000E+00 0. -1.
         24    2    1    2    0    0 -0.15764174479E+03 -0.83191259291E+03 -0.70748686762E+03  0.11062298655E+04  0.79229827661E+02 0.  0.
        254    2    1    2    0    0  0.15764174479E+03  0.83191259291E+03 -0.93189585119E+03  0.15469291243E+04  0.89868256699E+03 0.  0.
         23    2    4    4    0    0  0.32173375025E+01  0.59272555108E+03 -0.33863922428E+02  0.60060269343E+03  0.90790417770E+02 0.  0.
         23    2    4    4    0    0  0.15442440728E+03  0.23918704183E+03 -0.89803192876E+03  0.94632643087E+03  0.89526700689E+02 0.  0.
          2    1    3    3  502    0 -0.15807245166E+03 -0.71182882329E+03 -0.62692982282E+03  0.96162787833E+03  0.00000000000E+00 0. -1.
         -1    1    3    3    0  502  0.43070687836E+00 -0.12008376962E+03 -0.80557044795E+02  0.14460198719E+03  0.00000000000E+00 0.  1.
         13    1    5    5    0    0 -0.11321108974E+02  0.21280369351E+02 -0.15539006615E+02  0.28678953166E+02  0.00000000000E+00 0.  1.
        -13    1    5    5    0    0  0.14538446477E+02  0.57144518173E+03 -0.18324915814E+02  0.57192374027E+03  0.00000000000E+00 0. -1.
          1    1    6    6  503    0  0.15994738378E+03  0.22669950595E+03 -0.88492812168E+03  0.92740153769E+03  0.00000000000E+00 0. -1.
         -1    1    6    6    0  503 -0.55229764926E+01  0.12487535874E+02 -0.13103807082E+02  0.18924893172E+02  0.00000000000E+00 0.  1.
<mgrwt>
<rscale>  0 0.20860673E+04</rscale>
<asrwt>0</asrwt>
<pdfrwt beam="1">  1        2 0.33019551E+00 0.20860673E+04</pdfrwt>
<pdfrwt beam="2">  1       -1 0.77982791E-01 0.20860673E+04</pdfrwt>
<totfact> 0.95738257E+00</totfact>
</mgrwt>
</event>
<event>
12    7  0.1605494E-007  0.2053250E+04  0.7818608E-02  0.8582121E-01
         -1   -1    0    0    0  501 -0.00000000000E+00  0.00000000000E+00  0.11469038617E+04  0.11469038617E+04  0.00000000000E+00 0.  1.
          2   -1    0    0  501    0  0.00000000000E+00 -0.00000000000E+00 -0.91896015112E+03  0.91896015112E+03  0.00000000000E+00 0. -1.
         24    2    1    2    0    0 -0.67222177467E+03 -0.48204520402E+03  0.37170997032E+02  0.83143350865E+03  0.75168498918E+02 0.  0.
        254    2    1    2    0    0  0.67222177467E+03  0.48204520402E+03  0.19077271351E+03  0.12344305041E+04  0.89620017198E+03 0.  0.
         23    2    4    4    0    0  0.46065067730E+03  0.16698192524E+03 -0.31872924308E+03  0.59211972716E+03  0.94527408972E+02 0.  0.
         23    2    4    4    0    0  0.21157109737E+03  0.31506327878E+03  0.50950195659E+03  0.64231077697E+03  0.94571092667E+02 0.  0.
          2    1    3    3  502    0 -0.33652745681E+03 -0.28338391045E+03  0.42251339247E+01  0.43997161459E+03  0.00000000000E+00 0. -1.
         -1    1    3    3    0  502 -0.33569431786E+03 -0.19866129357E+03  0.32945863107E+02  0.39146189406E+03  0.00000000000E+00 0.  1.
         13    1    5    5    0    0  0.21252600265E+03  0.33412588911E+02 -0.16498061836E+03  0.27111308956E+03  0.00000000000E+00 0. -1.
        -13    1    5    5    0    0  0.24812467465E+03  0.13356933633E+03 -0.15374862472E+03  0.32100663760E+03  0.00000000000E+00 0.  1.
          4    1    6    6  503    0  0.20132477496E+03  0.32031481881E+03  0.48391926193E+03  0.61425654268E+03  0.00000000000E+00 0. -1.
         -4    1    6    6    0  503  0.10246322412E+02 -0.52515400281E+01  0.25582694654E+02  0.28054234286E+02  0.00000000000E+00 0.  1.
<mgrwt>
<rscale>  0 0.20532501E+04</rscale>
<asrwt>0</asrwt>
<pdfrwt beam="1">  1        2 0.14137848E+00 0.20532501E+04</pdfrwt>
<pdfrwt beam="2">  1       -1 0.17644675E+00 0.20532501E+04</pdfrwt>
<totfact> 0.66336924E+00</totfact>
</mgrwt>
</event>
<event>
12    7  0.1605494E-007  0.1273503E+04  0.7818608E-02  0.9050846E-01
         -1   -1    0    0    0  501 -0.00000000000E+00  0.00000000000E+00  0.61687986516E+03  0.61687986516E+03  0.00000000000E+00 0.  1.
          2   -1    0    0  501    0  0.00000000000E+00 -0.00000000000E+00 -0.65726298282E+03  0.65726298282E+03  0.00000000000E+00 0. -1.
         24    2    1    2    0    0  0.25436513291E+03  0.13351082624E+03 -0.12592798263E+03  0.32336306873E+03  0.78606970737E+02 0.  0.
        254    2    1    2    0    0 -0.25436513291E+03 -0.13351082624E+03  0.85544864971E+02  0.95077977924E+03  0.90229568498E+03 0.  0.
         23    2    4    4    0    0 -0.30412311225E+03  0.49273158279E+02 -0.34513459075E+03  0.47137597912E+03  0.90325613368E+02 0.  0.
         23    2    4    4    0    0  0.49757979337E+02 -0.18278398452E+03  0.43067945572E+03  0.47940380012E+03  0.91963952125E+02 0.  0.
          4    1    3    3  502    0  0.23817925116E+03  0.13250263978E+03 -0.95352907658E+02  0.28875332419E+03  0.00000000000E+00 0. -1.
         -3    1    3    3    0  502  0.16185881752E+02  0.10081864587E+01 -0.30575074971E+02  0.34609744545E+02  0.00000000000E+00 0.  1.
         13    1    5    5    0    0 -0.22656870350E+03  0.70043850199E+02 -0.28672437016E+03  0.37208921349E+03  0.00000000000E+00 0.  1.
        -13    1    5    5    0    0 -0.77554408746E+02 -0.20770691920E+02 -0.58410220590E+02  0.99286765625E+02  0.00000000000E+00 0. -1.
          2    1    6    6  503    0  0.41223899162E+02 -0.71757951076E+02  0.96316460341E+02  0.12698611711E+03  0.00000000000E+00 0. -1.
         -2    1    6    6    0  503  0.85340801753E+01 -0.11102603344E+03  0.33436299538E+03  0.35241768302E+03  0.00000000000E+00 0.  1.
<mgrwt>
<rscale>  0 0.12735027E+04</rscale>
<asrwt>0</asrwt>
<pdfrwt beam="1">  1        2 0.10111738E+00 0.12735027E+04</pdfrwt>
<pdfrwt beam="2">  1       -1 0.94904595E-01 0.12735027E+04</pdfrwt>
<totfact> 0.53418469E+01</totfact>
</mgrwt>
</event>
<event>
12    7  0.1605494E-007  0.1758743E+04  0.7818608E-02  0.8728552E-01
          2   -1    0    0  501    0  0.00000000000E+00  0.00000000000E+00  0.89885517767E+03  0.89885517767E+03  0.00000000000E+00 0. -1.
         -1   -1    0    0    0  501 -0.00000000000E+00 -0.00000000000E+00 -0.86031033839E+03  0.86031033839E+03  0.00000000000E+00 0.  1.
         24    2    1    2    0    0 -0.14973225903E+02 -0.20616063990E+03  0.63039610193E+03  0.66968091621E+03  0.91361245950E+02 0.  0.
        254    2    1    2    0    0  0.14973225903E+02  0.20616063990E+03 -0.59185126265E+03  0.10894845999E+04  0.89104566060E+03 0.  0.
         23    2    4    4    0    0 -0.19210860809E+03  0.41896017962E+03 -0.62001837338E+03  0.77764794533E+03  0.88770457569E+02 0.  0.
         23    2    4    4    0    0  0.20708183399E+03 -0.21279953972E+03  0.28167110731E+02  0.31183665452E+03  0.91006499234E+02 0.  0.
          2    1    3    3  502    0  0.72313106754E+01 -0.15829082707E+03  0.55820760744E+03  0.58026201908E+03  0.00000000000E+00 0. -1.
         -1    1    3    3    0  502 -0.22204536579E+02 -0.47869812836E+02  0.72188494491E+02  0.89418897122E+02  0.00000000000E+00 0.  1.
         13    1    5    5    0    0 -0.19658243022E+03  0.35943107243E+03 -0.54048646584E+03  0.67820422253E+03  0.00000000000E+00 0. -1.
        -13    1    5    5    0    0  0.44738221347E+01  0.59529107190E+02 -0.79531907536E+02  0.99443722797E+02  0.00000000000E+00 0.  1.
          4    1    6    6  503    0  0.11299434236E+03 -0.58388900758E+02 -0.79886772910E+01  0.12743941345E+03  0.00000000000E+00 0. -1.
         -4    1    6    6    0  503  0.94087491635E+02 -0.15441063896E+03  0.36155788022E+02  0.18439724107E+03  0.00000000000E+00 0.  1.
<mgrwt>
<rscale>  0 0.17587432E+04</rscale>
<asrwt>0</asrwt>
<pdfrwt beam="1">  1        2 0.13828541E+00 0.17587432E+04</pdfrwt>
<pdfrwt beam="2">  1       -1 0.13235544E+00 0.17587432E+04</pdfrwt>
<totfact> 0.15386789E+01</totfact>
</mgrwt>
</event>
<event>
12    7  0.1605494E-007  0.1855310E+04  0.7818608E-02  0.8677427E-01
         -1   -1    0    0    0  501 -0.00000000000E+00  0.00000000000E+00  0.38676013054E+03  0.38676013054E+03  0.00000000000E+00 0.  1.
          2   -1    0    0  501    0  0.00000000000E+00 -0.00000000000E+00 -0.22250068291E+04  0.22250068291E+04  0.00000000000E+00 0. -1.
         24    2    1    2    0    0 -0.17056138969E+03  0.29969082480E+03 -0.15912760802E+04  0.16302245020E+04  0.81034469369E+02 0.  0.
        254    2    1    2    0    0  0.17056138969E+03 -0.29969082480E+03 -0.24697061828E+03  0.98154245760E+03  0.88516966264E+03 0.  0.
         23    2    4    4    0    0  0.11299457109E+03 -0.57472213472E+03  0.62341142169E+01  0.59238671301E+03  0.88373346318E+02 0.  0.
         23    2    4    4    0    0  0.57566818606E+02  0.27503130991E+03 -0.25320473250E+03  0.38915574459E+03  0.91506267277E+02 0.  0.
          2    1    3    3  502    0 -0.16914468711E+03  0.26649826578E+03 -0.15056294806E+04  0.15383599656E+04  0.00000000000E+00 0. -1.
         -1    1    3    3    0  502 -0.14167025865E+01  0.33192559028E+02 -0.85646599660E+02  0.91864536435E+02  0.00000000000E+00 0.  1.
         13    1    5    5    0    0  0.50403049893E+02 -0.10712069406E+03  0.21712469605E+02  0.12036088181E+03  0.00000000000E+00 0.  1.
        -13    1    5    5    0    0  0.62591521193E+02 -0.46760144066E+03 -0.15478355388E+02  0.47202583120E+03  0.00000000000E+00 0. -1.
          1    1    6    6  503    0  0.67881854967E+02  0.12075447325E+03 -0.14430890419E+03  0.20003661883E+03  0.00000000000E+00 0. -1.
         -1    1    6    6    0  503 -0.10315036361E+02  0.15427683666E+03 -0.10889582830E+03  0.18911912576E+03  0.00000000000E+00 0.  1.
<mgrwt>
<rscale>  0 0.18553101E+04</rscale>
<asrwt>0</asrwt>
<pdfrwt beam="1">  1        2 0.34230874E+00 0.18553101E+04</pdfrwt>
<pdfrwt beam="2">  1       -1 0.59501559E-01 0.18553101E+04</pdfrwt>
<totfact> 0.15323116E+01</totfact>
</mgrwt>
</event>
<event>
12    7  0.1605494E-007  0.1998281E+04  0.7818608E-02  0.8607425E-01
          2   -1    0    0  501    0  0.00000000000E+00  0.00000000000E+00  0.30107848492E+04  0.30107848492E+04  0.00000000000E+00 0. -1.
         -1   -1    0    0    0  501 -0.00000000000E+00 -0.00000000000E+00 -0.33156866395E+03  0.33156866395E+03  0.00000000000E+00 0.  1.
         24    2    1    2    0    0  0.76308252545E+01 -0.34659674658E+03  0.22543985309E+04  0.22823598329E+04  0.81646412532E+02 0.  0.
        254    2    1    2    0    0 -0.76308252545E+01  0.34659674658E+03  0.42481765436E+03  0.10599936802E+04  0.90715435753E+03 0.  0.
         23    2    4    4    0    0 -0.11152969485E+03  0.14177601375E+03 -0.26201663555E+03  0.32999004268E+03  0.87757621066E+02 0.  0.
         23    2    4    4    0    0  0.10389886959E+03  0.20482073283E+03  0.68683428991E+03  0.73000363753E+03  0.91746723755E+02 0.  0.
          4    1    3    3  502    0  0.88977617147E+01 -0.34780795327E+03  0.22538168385E+04  0.22805130748E+04  0.00000000000E+00 0. -1.
         -3    1    3    3    0  502 -0.12669364602E+01  0.12112066846E+01  0.58169231186E+00  0.18467581251E+01  0.00000000000E+00 0.  1.
         13    1    5    5    0    0  0.83816439112E+01  0.88474992936E+01  0.55134375113E+00  0.12199761405E+02  0.00000000000E+00 0.  1.
        -13    1    5    5    0    0 -0.11991133876E+03  0.13292851446E+03 -0.26256797930E+03  0.31779028127E+03  0.00000000000E+00 0. -1.
          4    1    6    6  503    0  0.34242450223E+01  0.80808420420E+02  0.31785113415E+03  0.32798028865E+03  0.00000000000E+00 0. -1.
         -4    1    6    6    0  503  0.10047462457E+03  0.12401231241E+03  0.36898315576E+03  0.40202334888E+03  0.00000000000E+00 0.  1.
<mgrwt>
<rscale>  0 0.19982812E+04</rscale>
<asrwt>0</asrwt>
<pdfrwt beam="1">  1        2 0.46319765E+00 0.19982812E+04</pdfrwt>
<pdfrwt beam="2">  1       -1 0.51010566E-01 0.19982812E+04</pdfrwt>
<totfact> 0.70214211E+00</totfact>
</mgrwt>
</event>
<event>
12    7  0.1605494E-007  0.1349557E+04  0.7818608E-02  0.8991163E-01
         -3   -1    0    0    0  501 -0.00000000000E+00  0.00000000000E+00  0.19810671788E+03  0.19810671788E+03  0.00000000000E+00 0.  1.
          2   -1    0    0  501    0  0.00000000000E+00 -0.00000000000E+00 -0.22983883327E+04  0.22983883327E+04  0.00000000000E+00 0. -1.
         24    2    1    2    0    0 -0.24536984027E+03 -0.27863805839E+03 -0.57297390484E+03  0.68669042285E+03  0.73478671187E+02 0.  0.
        254    2    1    2    0    0  0.24536984027E+03  0.27863805839E+03 -0.15273077099E+04  0.18098046277E+04  0.89715016773E+03 0.  0.
         23    2    4    4    0    0  0.49664673188E+03  0.20538400049E+03 -0.47924653467E+03  0.72564098013E+03  0.89649467961E+02 0.  0.
         23    2    4    4    0    0 -0.25127689161E+03  0.73254057901E+02 -0.10480611753E+04  0.10841636476E+04  0.92045392728E+02 0.  0.
          4    1    3    3  502    0 -0.74372876278E+02 -0.73986744684E+02 -0.22518185565E+03  0.24841946628E+03  0.00000000000E+00 0. -1.
         -3    1    3    3    0  502 -0.17099696399E+03 -0.20465131371E+03 -0.34779204918E+03  0.43827095657E+03  0.00000000000E+00 0.  1.
         13    1    5    5    0    0  0.45368934676E+03  0.21022861279E+03 -0.42475679755E+03  0.65608568805E+03  0.00000000000E+00 0. -1.
        -13    1    5    5    0    0  0.42957385115E+02 -0.48446123007E+01 -0.54489737124E+02  0.69555292079E+02  0.00000000000E+00 0.  1.
          2    1    6    6  503    0 -0.15799683682E+03 -0.43981880121E+00 -0.63229120015E+03  0.65173257988E+03  0.00000000000E+00 0. -1.
         -2    1    6    6    0  503 -0.93280054793E+02  0.73693876702E+02 -0.41576997512E+03  0.43243106768E+03  0.00000000000E+00 0.  1.
<mgrwt>
<rscale>  0 0.13495572E+04</rscale>
<asrwt>0</asrwt>
<pdfrwt beam="1">  1        2 0.35359819E+00 0.13495572E+04</pdfrwt>
<pdfrwt beam="2">  1       -3 0.30477958E-01 0.13495572E+04</pdfrwt>
<totfact> 0.30327017E+01</totfact>
</mgrwt>
</event>
<event>
12    7  0.1605494E-007  0.1454747E+04  0.7818608E-02  0.8915116E-01
         -1   -1    0    0    0  501 -0.00000000000E+00  0.00000000000E+00  0.83272936978E+03  0.83272936978E+03  0.00000000000E+00 0.  1.
          2   -1    0    0  501    0  0.00000000000E+00 -0.00000000000E+00 -0.63534683003E+03  0.63534683003E+03  0.00000000000E+00 0. -1.
         24    2    1    2    0    0  0.42168047179E+03 -0.15260378421E+03 -0.12142861100E+03  0.47255678613E+03  0.86386765778E+02 0.  0.
        254    2    1    2    0    0 -0.42168047179E+03  0.15260378421E+03  0.31881115075E+03  0.99551941368E+03  0.82964812899E+03 0.  0.
         23    2    4    4    0    0  0.59074253818E+02 -0.17442343744E+03 -0.14018814426E+03  0.24903210340E+03  0.91929156092E+02 0.  0.
         23    2    4    4    0    0 -0.48075472561E+03  0.32702722165E+03  0.45899929501E+03  0.74648731028E+03  0.92146848543E+02 0.  0.
          2    1    3    3  502    0  0.42464448226E+03 -0.15529310339E+03 -0.11801607714E+03  0.46729720600E+03  0.00000000000E+00 0. -1.
         -3    1    3    3    0  502 -0.29640104732E+01  0.26893191768E+01 -0.34125338612E+01  0.52595801233E+01  0.00000000000E+00 0.  1.
         13    1    5    5    0    0  0.33348515026E+02 -0.69632904792E+02 -0.11452699338E+03  0.13812058896E+03  0.00000000000E+00 0. -1.
        -13    1    5    5    0    0  0.25725738791E+02 -0.10479053265E+03 -0.25661150882E+02  0.11091151444E+03  0.00000000000E+00 0.  1.
          2    1    6    6  503    0 -0.45380636245E+03  0.29771207391E+03  0.39559471062E+03  0.67161586389E+03  0.00000000000E+00 0. -1.
         -2    1    6    6    0  503 -0.26948363157E+02  0.29315147740E+02  0.63404584383E+02  0.74871446391E+02  0.00000000000E+00 0.  1.
<mgrwt>
<rscale>  0 0.14547467E+04</rscale>
<asrwt>0</asrwt>
<pdfrwt beam="1">  1        2 0.97745667E-01 0.14547467E+04</pdfrwt>
<pdfrwt beam="2">  1       -1 0.12811221E+00 0.14547467E+04</pdfrwt>
<totfact> 0.26961572E+01</totfact>
</mgrwt>
</event>
<event>
12    7  0.1605494E-007  0.2238074E+04  0.7818608E-02  0.8502746E-01
          2   -1    0    0  501    0  0.00000000000E+00  0.00000000000E+00  0.13487472452E+04  0.13487472452E+04  0.00000000000E+00 0. -1.
         -1   -1    0    0    0  501 -0.00000000000E+00 -0.00000000000E+00 -0.92844956405E+03  0.92844956405E+03  0.00000000000E+00 0.  1.
         24    2    1    2    0    0  0.85205913529E+03  0.13959657886E+03 -0.19589507723E+03  0.88892185454E+03  0.79468278731E+02 0.  0.
        254    2    1    2    0    0 -0.85205913529E+03 -0.13959657886E+03  0.61619275842E+03  0.13882749547E+04  0.89561256108E+03 0.  0.
         23    2    4    4    0    0 -0.87561801831E+03  0.18379209692E+03  0.38728474566E+03  0.97899685519E+03  0.89212775849E+02 0.  0.
         23    2    4    4    0    0  0.23558883017E+02 -0.32338867579E+03  0.22890801275E+03  0.40927809955E+03  0.99872057505E+02 0.  0.
          4    1    3    3  502    0  0.15834234286E+03  0.66349697247E+01 -0.60981440894E+02  0.16980888227E+03  0.00000000000E+00 0. -1.
         -3    1    3    3    0  502  0.69371679243E+03  0.13296160914E+03 -0.13491363634E+03  0.71911297226E+03  0.00000000000E+00 0.  1.
         13    1    5    5    0    0 -0.70191172362E+03  0.17471156229E+03  0.28677791511E+03  0.77810395858E+03  0.00000000000E+00 0.  1.
        -13    1    5    5    0    0 -0.17370629469E+03  0.90805346304E+01  0.10050683055E+03  0.20089289662E+03  0.00000000000E+00 0. -1.
          3    1    6    6  503    0 -0.10345076438E+02 -0.70300844414E+01  0.33823537566E+02  0.36062090722E+02  0.00000000000E+00 0. -1.
         -3    1    6    6    0  503  0.33903959455E+02 -0.31635859134E+03  0.19508447519E+03  0.37321600883E+03  0.00000000000E+00 0.  1.
<mgrwt>
<rscale>  0 0.22380740E+04</rscale>
<asrwt>0</asrwt>
<pdfrwt beam="1">  1        2 0.20749958E+00 0.22380740E+04</pdfrwt>
<pdfrwt beam="2">  1       -1 0.14283840E+00 0.22380740E+04</pdfrwt>
<totfact> 0.63946357E+00</totfact>
</mgrwt>
</event>
<event>
12    7  0.1605494E-007  0.1891739E+04  0.7818608E-02  0.8658979E-01
          2   -1    0    0  501    0  0.00000000000E+00  0.00000000000E+00  0.36670840025E+04  0.36670840025E+04  0.00000000000E+00 0. -1.
         -1   -1    0    0    0  501 -0.00000000000E+00 -0.00000000000E+00 -0.24397294704E+03  0.24397294704E+03  0.00000000000E+00 0.  1.
         24    2    1    2    0    0  0.11968127965E+03  0.71403550018E+03  0.11361164557E+04  0.13496116693E+04  0.80751177859E+02 0.  0.
        254    2    1    2    0    0 -0.11968127965E+03 -0.71403550018E+03  0.22869945998E+04  0.25614452803E+04  0.89804639090E+03 0.  0.
         23    2    4    4    0    0  0.38522133799E+02 -0.89138911970E+03  0.18432628967E+04  0.20498196831E+04  0.89911674395E+02 0.  0.
         23    2    4    4    0    0 -0.15820341344E+03  0.17735361953E+03  0.44373170310E+03  0.51162559723E+03  0.91543984085E+02 0.  0.
          2    1    3    3  502    0  0.90875632849E+02  0.46143256966E+03  0.80263445163E+03  0.93026902557E+03  0.00000000000E+00 0. -1.
         -1    1    3    3    0  502  0.28805646797E+02  0.25260293052E+03  0.33348200407E+03  0.41934264371E+03  0.00000000000E+00 0.  1.
         13    1    5    5    0    0 -0.10239590665E+02 -0.52915568640E+03  0.10225556975E+04  0.11514038145E+04  0.00000000000E+00 0.  1.
        -13    1    5    5    0    0  0.48761724464E+02 -0.36223343330E+03  0.82070719919E+03  0.89841586850E+03  0.00000000000E+00 0. -1.
          3    1    6    6  503    0 -0.14005102985E+03  0.92669593827E+02  0.28463850296E+03  0.33048603896E+03  0.00000000000E+00 0. -1.
         -3    1    6    6    0  503 -0.18152383592E+02  0.84684025698E+02  0.15909320014E+03  0.18113955827E+03  0.00000000000E+00 0.  1.
<mgrwt>
<rscale>  0 0.18917392E+04</rscale>
<asrwt>0</asrwt>
<pdfrwt beam="1">  1        2 0.56416673E+00 0.18917392E+04</pdfrwt>
<pdfrwt beam="2">  1       -1 0.37534302E-01 0.18917392E+04</pdfrwt>
<totfact> 0.45426648E+00</totfact>
</mgrwt>
</event>
<event>
12    7  0.1605494E-007  0.2020211E+04  0.7818608E-02  0.8597229E-01
         -1   -1    0    0    0  501 -0.00000000000E+00  0.00000000000E+00  0.82949066388E+03  0.82949066388E+03  0.00000000000E+00 0.  1.
          2   -1    0    0  501    0  0.00000000000E+00 -0.00000000000E+00 -0.12300474139E+04  0.12300474139E+04  0.00000000000E+00 0. -1.
         24    2    1    2    0    0  0.18363319709E+03  0.11149424543E+03 -0.95097339260E+03  0.97819873118E+03  0.79813823490E+02 0.  0.
        254    2    1    2    0    0 -0.18363319709E+03 -0.11149424543E+03  0.55041664259E+03  0.10813393466E+04  0.90564020682E+03 0.  0.
         23    2    4    4    0    0  0.33156848641E+03  0.39580195367E+02  0.37132888904E+03  0.50800591319E+03  0.93169796359E+02 0.  0.
         23    2    4    4    0    0 -0.51520168350E+03 -0.15107444080E+03  0.17908775355E+03  0.57333343340E+03  0.91556217947E+02 0.  0.
          2    1    3    3  502    0  0.12159766339E+03  0.50219760367E+02 -0.70640943567E+03  0.71855570896E+03  0.00000000000E+00 0. -1.
         -1    1    3    3    0  502  0.62035533697E+02  0.61274485067E+02 -0.24456395693E+03  0.25964302223E+03  0.00000000000E+00 0.  1.
         13    1    5    5    0    0  0.25045597201E+02  0.13654721102E+02  0.77597991131E+02  0.82675156941E+02  0.00000000000E+00 0. -1.
        -13    1    5    5    0    0  0.30652288920E+03  0.25925474266E+02  0.29373089791E+03  0.42533075625E+03  0.00000000000E+00 0.  1.
          4    1    6    6  503    0 -0.10027033105E+03 -0.17249211552E+02 -0.68426342013E+00  0.10174548051E+03  0.00000000000E+00 0. -1.
         -4    1    6    6    0  503 -0.41493135245E+03 -0.13382522925E+03  0.17977201697E+03  0.47158795289E+03  0.00000000000E+00 0.  1.
<mgrwt>
<rscale>  0 0.20202107E+04</rscale>
<asrwt>0</asrwt>
<pdfrwt beam="1">  1        2 0.18923806E+00 0.20202107E+04</pdfrwt>
<pdfrwt beam="2">  1       -1 0.12761395E+00 0.20202107E+04</pdfrwt>
<totfact> 0.10214016E+01</totfact>
</mgrwt>
</event>
<event>
12    7  0.1605494E-007  0.2368477E+04  0.7818608E-02  0.8451401E-01
          2   -1    0    0  501    0  0.00000000000E+00  0.00000000000E+00  0.29292511023E+04  0.29292511023E+04  0.00000000000E+00 0. -1.
         -1   -1    0    0    0  501 -0.00000000000E+00 -0.00000000000E+00 -0.47876421368E+03  0.47876421368E+03  0.00000000000E+00 0.  1.
         24    2    1    2    0    0  0.74025759609E+03  0.43499298028E+02  0.20299659156E+04  0.21627101545E+04  0.81731857671E+02 0.  0.
        254    2    1    2    0    0 -0.74025759609E+03 -0.43499298028E+02  0.42052097307E+03  0.12453051615E+04  0.90778497397E+03 0.  0.
         23    2    4    4    0    0 -0.69616637244E+03 -0.22597382936E+03  0.61461454139E+03  0.96009575547E+03  0.91219710072E+02 0.  0.
         23    2    4    4    0    0 -0.44091223646E+02  0.18247453133E+03 -0.19409356832E+03  0.28520940603E+03  0.91821029374E+02 0.  0.
          4    1    3    3  502    0  0.35112248881E+03  0.26516850056E+02  0.10815109624E+04  0.11373900419E+04  0.00000000000E+00 0. -1.
         -1    1    3    3    0  502  0.38913510728E+03  0.16982447972E+02  0.94845495313E+03  0.10253201126E+04  0.00000000000E+00 0.  1.
         13    1    5    5    0    0 -0.62353930362E+03 -0.17118855999E+03  0.53832326214E+03  0.84136717359E+03  0.00000000000E+00 0. -1.
        -13    1    5    5    0    0 -0.72627068820E+02 -0.54785269371E+02  0.76291279246E+02  0.11872858188E+03  0.00000000000E+00 0.  1.
          3    1    6    6  503    0 -0.22504273627E+02  0.11629771646E+03 -0.17792163986E+03  0.21374683884E+03  0.00000000000E+00 0. -1.
         -3    1    6    6    0  503 -0.21586950019E+02  0.66176814878E+02 -0.16171928458E+02  0.71462567184E+02  0.00000000000E+00 0.  1.
<mgrwt>
<rscale>  0 0.23684768E+04</rscale>
<asrwt>0</asrwt>
<pdfrwt beam="1">  1        2 0.45065401E+00 0.23684768E+04</pdfrwt>
<pdfrwt beam="2">  1       -1 0.73656034E-01 0.23684768E+04</pdfrwt>
<totfact> 0.36713488E+00</totfact>
</mgrwt>
</event>
<event>
12    7  0.1605494E-007  0.2004572E+04  0.7818608E-02  0.8604486E-01
          2   -1    0    0  501    0  0.00000000000E+00  0.00000000000E+00  0.17355698765E+04  0.17355698765E+04  0.00000000000E+00 0. -1.
         -1   -1    0    0    0  501 -0.00000000000E+00 -0.00000000000E+00 -0.57881703926E+03  0.57881703926E+03  0.00000000000E+00 0.  1.
         24    2    1    2    0    0  0.53977841580E+03  0.35772445995E+03  0.97797343019E+03  0.11752567123E+04  0.73951215492E+02 0.  0.
        254    2    1    2    0    0 -0.53977841580E+03 -0.35772445995E+03  0.17877940708E+03  0.11391302035E+04  0.91996087779E+03 0.  0.
         23    2    4    4    0    0 -0.74944605709E+03 -0.39905007670E+03  0.25902615594E+03  0.89238446388E+03  0.91351659621E+02 0.  0.
         23    2    4    4    0    0  0.20966764129E+03  0.41325616745E+02 -0.80246748864E+02  0.24674573959E+03  0.93678134601E+02 0.  0.
          4    1    3    3  502    0  0.50358080384E+03  0.34917910663E+03  0.89932961052E+03  0.10882616518E+04  0.00000000000E+00 0. -1.
         -3    1    3    3    0  502  0.36197611958E+02  0.85453533212E+01  0.78643819677E+02  0.86995060482E+02  0.00000000000E+00 0.  1.
         13    1    5    5    0    0 -0.63274262589E+03 -0.29728741305E+03  0.21459298034E+03  0.73129555160E+03  0.00000000000E+00 0.  1.
        -13    1    5    5    0    0 -0.11670343120E+03 -0.10176266365E+03  0.44433175605E+02  0.16108891229E+03  0.00000000000E+00 0. -1.
          4    1    6    6  503    0  0.33822532812E+01 -0.77675970708E+01 -0.26743378070E+02  0.28053225699E+02  0.00000000000E+00 0. -1.
         -4    1    6    6    0  503  0.20628538800E+03  0.49093213816E+02 -0.53503370794E+02  0.21869251389E+03  0.00000000000E+00 0.  1.
<mgrwt>
<rscale>  0 0.20045722E+04</rscale>
<asrwt>0</asrwt>
<pdfrwt beam="1">  1        2 0.26701075E+00 0.20045722E+04</pdfrwt>
<pdfrwt beam="2">  1       -1 0.89048776E-01 0.20045722E+04</pdfrwt>
<totfact> 0.12255153E+01</totfact>
</mgrwt>
</event>
<event>
12    7  0.1605494E-007  0.3446542E+04  0.7818608E-02  0.8126577E-01
         -1   -1    0    0    0  501 -0.00000000000E+00  0.00000000000E+00  0.17244804233E+04  0.17244804233E+04  0.00000000000E+00 0.  1.
          2   -1    0    0  501    0  0.00000000000E+00 -0.00000000000E+00 -0.17220621956E+04  0.17220621956E+04  0.00000000000E+00 0. -1.
         24    2    1    2    0    0  0.67850653112E+02  0.15807305823E+04  0.25397037795E+03  0.16043685339E+04  0.78641939755E+02 0.  0.
        254    2    1    2    0    0 -0.67850653112E+02 -0.15807305823E+04 -0.25155215025E+03  0.18421740850E+04  0.90940309557E+03 0.  0.
         23    2    4    4    0    0 -0.24906071990E+03 -0.72422951215E+03 -0.50998664863E+03  0.92478778391E+03  0.92770873838E+02 0.  0.
         23    2    4    4    0    0  0.18121006678E+03 -0.85650107013E+03  0.25843449837E+03  0.91738630108E+03  0.91531765109E+02 0.  0.
          4    1    3    3  502    0  0.12281454186E+01  0.24195532774E+03  0.11875355137E+02  0.24224969148E+03  0.00000000000E+00 0. -1.
         -3    1    3    3    0  502  0.66622507694E+02  0.13387752545E+04  0.24209502281E+03  0.13621188424E+04  0.00000000000E+00 0.  1.
         13    1    5    5    0    0 -0.23359190074E+03 -0.71722556587E+03 -0.49579214092E+03  0.90265582335E+03  0.00000000000E+00 0. -1.
        -13    1    5    5    0    0 -0.15468819151E+02 -0.70039462859E+01 -0.14194507702E+02  0.22131960564E+02  0.00000000000E+00 0.  1.
          2    1    6    6  503    0  0.11760692797E+03 -0.70744264048E+03  0.22774085214E+03  0.75244426692E+03  0.00000000000E+00 0. -1.
         -2    1    6    6    0  503  0.63603138809E+02 -0.14905842964E+03  0.30693646230E+02  0.16494203416E+03  0.00000000000E+00 0.  1.
<mgrwt>
<rscale>  0 0.34465418E+04</rscale>
<asrwt>0</asrwt>
<pdfrwt beam="1">  1        2 0.26493264E+00 0.34465418E+04</pdfrwt>
<pdfrwt beam="2">  1       -1 0.26530468E+00 0.34465418E+04</pdfrwt>
<totfact> 0.49629232E-01</totfact>
</mgrwt>
</event>
<event>
12    7  0.1605494E-007  0.1996190E+04  0.7818608E-02  0.8608404E-01
          2   -1    0    0  501    0  0.00000000000E+00  0.00000000000E+00  0.23605231662E+04  0.23605231662E+04  0.00000000000E+00 0. -1.
         -1   -1    0    0    0  501 -0.00000000000E+00 -0.00000000000E+00 -0.42202259772E+03  0.42202259772E+03  0.00000000000E+00 0.  1.
         24    2    1    2    0    0  0.12956718036E+03 -0.76486811588E+03  0.10203516214E+04  0.12842655286E+04  0.80060151145E+02 0.  0.
        254    2    1    2    0    0 -0.12956718036E+03  0.76486811588E+03  0.91814894712E+03  0.14982802353E+04  0.89444691602E+03 0.  0.
         23    2    4    4    0    0 -0.10437695149E+03  0.91955559722E+03  0.93295464587E+03  0.13167822392E+04  0.83869242326E+02 0.  0.
         23    2    4    4    0    0 -0.25190228865E+02 -0.15468748134E+03 -0.14805698753E+02  0.18149799614E+03  0.90330224031E+02 0.  0.
          4    1    3    3  502    0  0.39874243208E+02 -0.82793236152E+02  0.11592547696E+03  0.14793036007E+03  0.00000000000E+00 0. -1.
         -3    1    3    3    0  502  0.89692937149E+02 -0.68207487973E+03  0.90442614443E+03  0.11363351685E+04  0.00000000000E+00 0.  1.
         13    1    5    5    0    0 -0.59703004119E+02  0.21090395311E+03  0.22150169649E+03  0.31162144933E+03  0.00000000000E+00 0.  1.
        -13    1    5    5    0    0 -0.44673947373E+02  0.70865164412E+03  0.71145294938E+03  0.10051607899E+04  0.00000000000E+00 0. -1.
          4    1    6    6  503    0  0.27858285147E+02 -0.20721551639E+02 -0.13925782832E+02  0.37408477397E+02  0.00000000000E+00 0.  1.
         -4    1    6    6    0  503 -0.53048514012E+02 -0.13396592970E+03 -0.87991592109E+00  0.14408951875E+03  0.00000000000E+00 0. -1.
<mgrwt>
<rscale>  0 0.19961905E+04</rscale>
<asrwt>0</asrwt>
<pdfrwt beam="1">  1        2 0.36315740E+00 0.19961905E+04</pdfrwt>
<pdfrwt beam="2">  1       -1 0.64926555E-01 0.19961905E+04</pdfrwt>
<totfact> 0.10658824E+01</totfact>
</mgrwt>
</event>
<event>
12    7  0.1605494E-007  0.1416860E+04  0.7818608E-02  0.8941704E-01
         -1   -1    0    0    0  501 -0.00000000000E+00  0.00000000000E+00  0.34551787678E+03  0.34551787678E+03  0.00000000000E+00 0.  1.
          2   -1    0    0  501    0  0.00000000000E+00 -0.00000000000E+00 -0.14525231900E+04  0.14525231900E+04  0.00000000000E+00 0. -1.
         24    2    1    2    0    0 -0.15118382443E+03 -0.32279761164E+03 -0.60865016850E+03  0.70989121059E+03  0.80222542986E+02 0.  0.
        254    2    1    2    0    0  0.15118382443E+03  0.32279761164E+03 -0.49835514468E+03  0.10881498562E+04  0.89925380865E+03 0.  0.
         23    2    4    4    0    0 -0.19591933617E+02 -0.31510341836E+02  0.23289924616E+03  0.25284842937E+03  0.91178527462E+02 0.  0.
         23    2    4    4    0    0  0.17077575805E+03  0.35430795348E+03 -0.73125439084E+03  0.83530142679E+03  0.91087891851E+02 0.  0.
          4    1    3    3  502    0 -0.73448908413E+02 -0.90607427171E+02 -0.15041998216E+03  0.19034342394E+03  0.00000000000E+00 0. -1.
         -3    1    3    3    0  502 -0.77734916022E+02 -0.23219018447E+03 -0.45823018635E+03  0.51954778665E+03  0.00000000000E+00 0.  1.
         13    1    5    5    0    0 -0.30962060966E+02  0.68383169426E+01  0.19561235781E+03  0.19816560329E+03  0.00000000000E+00 0. -1.
        -13    1    5    5    0    0  0.11370127349E+02 -0.38348658779E+02  0.37286888345E+02  0.54682826084E+02  0.00000000000E+00 0.  1.
          1    1    6    6  503    0  0.13362311646E+03  0.29270564634E+03 -0.65891657308E+03  0.73328219870E+03  0.00000000000E+00 0. -1.
         -1    1    6    6    0  503  0.37152641593E+02  0.61602307140E+02 -0.72337817762E+02  0.10201922809E+03  0.00000000000E+00 0.  1.
<mgrwt>
<rscale>  0 0.14168595E+04</rscale>
<asrwt>0</asrwt>
<pdfrwt beam="1">  1        2 0.22346510E+00 0.14168595E+04</pdfrwt>
<pdfrwt beam="2">  1       -1 0.53156598E-01 0.14168595E+04</pdfrwt>
<totfact> 0.53393310E+01</totfact>
</mgrwt>
</event>
<event>
12    7  0.1605494E-007  0.1614559E+04  0.7818608E-02  0.8811654E-01
          2   -1    0    0  501    0  0.00000000000E+00  0.00000000000E+00  0.11270023890E+04  0.11270023890E+04  0.00000000000E+00 0. -1.
         -1   -1    0    0    0  501 -0.00000000000E+00 -0.00000000000E+00 -0.57825971982E+03  0.57825971982E+03  0.00000000000E+00 0.  1.
         24    2    1    2    0    0 -0.46089207225E+03  0.10385747693E+02  0.44332338964E+03  0.64452368950E+03  0.79660482670E+02 0.  0.
        254    2    1    2    0    0  0.46089207225E+03 -0.10385747693E+02  0.10541927949E+03  0.10607384193E+04  0.94948586277E+03 0.  0.
         23    2    4    4    0    0 -0.89756097842E+02 -0.36163439418E+03 -0.40337093239E+02  0.38550756508E+03  0.90296231870E+02 0.  0.
         23    2    4    4    0    0  0.55064817010E+03  0.35124864649E+03  0.14575637273E+03  0.67523085419E+03  0.90015372972E+02 0.  0.
          4    1    3    3  502    0 -0.25967500575E+03  0.65851022758E+01  0.19454457696E+03  0.32453361091E+03  0.00000000000E+00 0. -1.
         -3    1    3    3    0  502 -0.20121706650E+03  0.38006454177E+01  0.24877881268E+03  0.31999007859E+03  0.00000000000E+00 0.  1.
         13    1    5    5    0    0 -0.90435504837E+02 -0.36537801192E+03 -0.45446378505E+02  0.37913723828E+03  0.00000000000E+00 0. -1.
        -13    1    5    5    0    0  0.67940699439E+00  0.37436177403E+01  0.51092852658E+01  0.63703268029E+01  0.00000000000E+00 0.  1.
          2    1    6    6  503    0  0.54219459903E+03  0.35021311533E+03  0.13165072544E+03  0.65875346137E+03  0.00000000000E+00 0. -1.
         -2    1    6    6    0  503  0.84535710687E+01  0.10355311600E+01  0.14105647292E+02  0.16477392819E+02  0.00000000000E+00 0.  1.
<mgrwt>
<rscale>  0 0.16145589E+04</rscale>
<asrwt>0</asrwt>
<pdfrwt beam="1">  1        2 0.17338498E+00 0.16145589E+04</pdfrwt>
<pdfrwt beam="2">  1       -1 0.88963034E-01 0.16145589E+04</pdfrwt>
<totfact> 0.28391818E+01</totfact>
</mgrwt>
</event>
<event>
12    7  0.1605494E-007  0.1441559E+04  0.7818608E-02  0.8924273E-01
         -1   -1    0    0    0  501 -0.00000000000E+00  0.00000000000E+00  0.10813423470E+04  0.10813423470E+04  0.00000000000E+00 0.  1.
          2   -1    0    0  501    0  0.00000000000E+00 -0.00000000000E+00 -0.48044304025E+03  0.48044304025E+03  0.00000000000E+00 0. -1.
         24    2    1    2    0    0  0.23171859505E+03 -0.37018529919E+03  0.14783174372E+03  0.46788977353E+03  0.79598697814E+02 0.  0.
        254    2    1    2    0    0 -0.23171859505E+03  0.37018529919E+03  0.45306756305E+03  0.10938956137E+04  0.89476630134E+03 0.  0.
         23    2    4    4    0    0  0.33292080205E+03  0.91760403456E+02  0.13175160637E+03  0.38093482147E+03  0.92177114031E+02 0.  0.
         23    2    4    4    0    0 -0.56463939710E+03  0.27842489574E+03  0.32131595668E+03  0.71296079226E+03  0.93440226682E+02 0.  0.
          4    1    3    3  502    0  0.18347497190E+03 -0.29323861449E+03  0.81370168258E+02  0.35534920096E+03  0.00000000000E+00 0. -1.
         -3    1    3    3    0  502  0.48243623153E+02 -0.76946684702E+02  0.66461575464E+02  0.11254057257E+03  0.00000000000E+00 0.  1.
         13    1    5    5    0    0  0.31565074630E+03  0.10397828543E+03  0.10873131993E+03  0.34967038396E+03  0.00000000000E+00 0.  1.
        -13    1    5    5    0    0  0.17270055743E+02 -0.12217881977E+02  0.23020286436E+02  0.31264437513E+02  0.00000000000E+00 0. -1.
          3    1    6    6  503    0 -0.27952923263E+03  0.17734116873E+03  0.13379698706E+03  0.35705477979E+03  0.00000000000E+00 0. -1.
         -3    1    6    6    0  503 -0.28511016446E+03  0.10108372700E+03  0.18751896962E+03  0.35590601247E+03  0.00000000000E+00 0.  1.
<mgrwt>
<rscale>  0 0.14415594E+04</rscale>
<asrwt>0</asrwt>
<pdfrwt beam="1">  1        2 0.73914314E-01 0.14415594E+04</pdfrwt>
<pdfrwt beam="2">  1       -1 0.16636036E+00 0.14415594E+04</pdfrwt>
<totfact> 0.18736375E+01</totfact>
</mgrwt>
</event>
<event>
12    7  0.1605494E-007  0.1520277E+04  0.7818608E-02  0.8871080E-01
          2   -1    0    0  501    0  0.00000000000E+00  0.00000000000E+00  0.84515344198E+03  0.84515344198E+03  0.00000000000E+00 0. -1.
         -1   -1    0    0    0  501 -0.00000000000E+00 -0.00000000000E+00 -0.68367490928E+03  0.68367490928E+03  0.00000000000E+00 0.  1.
         24    2    1    2    0    0  0.46927410737E+03 -0.13694714832E+03  0.14097292454E+03  0.51518271004E+03  0.81037953998E+02 0.  0.
        254    2    1    2    0    0 -0.46927410737E+03  0.13694714832E+03  0.20505608167E+02  0.10136456412E+04  0.88774112033E+03 0.  0.
         23    2    4    4    0    0  0.84178693894E+02 -0.15160869535E+03  0.27185937026E+03  0.33507150562E+03  0.91072211281E+02 0.  0.
         23    2    4    4    0    0 -0.55345280126E+03  0.28855584366E+03 -0.25135376209E+03  0.67857413561E+03  0.87804701785E+02 0.  0.
          4    1    3    3  502    0  0.26439242429E+03 -0.98802593124E+02  0.45275427289E+02  0.28585865518E+03  0.00000000000E+00 0. -1.
         -3    1    3    3    0  502  0.20488168308E+03 -0.38144555192E+02  0.95697497247E+02  0.22932405485E+03  0.00000000000E+00 0.  1.
         13    1    5    5    0    0  0.64918945472E+02 -0.16146354723E+03  0.24645080663E+03  0.30170009389E+03  0.00000000000E+00 0.  1.
        -13    1    5    5    0    0  0.19259748422E+02  0.98548518810E+01  0.25408563625E+02  0.33371411723E+02  0.00000000000E+00 0. -1.
          4    1    6    6  503    0 -0.13770421192E+03  0.98369093060E+02 -0.35137821374E+02  0.17283979559E+03  0.00000000000E+00 0. -1.
         -4    1    6    6    0  503 -0.41574858935E+03  0.19018675060E+03 -0.21621594072E+03  0.50573434001E+03  0.00000000000E+00 0.  1.
<mgrwt>
<rscale>  0 0.15202766E+04</rscale>
<asrwt>0</asrwt>
<pdfrwt beam="1">  1        2 0.13002361E+00 0.15202766E+04</pdfrwt>
<pdfrwt beam="2">  1       -1 0.10518076E+00 0.15202766E+04</pdfrwt>
<totfact> 0.29879833E+01</totfact>
</mgrwt>
</event>
<event>
12    7  0.1605494E-007  0.1438684E+04  0.7818608E-02  0.8926283E-01
          2   -1    0    0  501    0  0.00000000000E+00  0.00000000000E+00  0.11006113308E+04  0.11006113308E+04  0.00000000000E+00 0. -1.
         -1   -1    0    0    0  501 -0.00000000000E+00 -0.00000000000E+00 -0.47015074123E+03  0.47015074123E+03  0.00000000000E+00 0.  1.
         24    2    1    2    0    0  0.23014340077E+02  0.42999650328E+03  0.17338619901E+03  0.47065421392E+03  0.77627072549E+02 0.  0.
        254    2    1    2    0    0 -0.23014340077E+02 -0.42999650328E+03  0.45707439052E+03  0.11001078581E+04  0.90326831465E+03 0.  0.
         23    2    4    4    0    0  0.26945195286E+03 -0.95803014120E+02  0.56011248518E+03  0.63544185537E+03  0.90982322910E+02 0.  0.
         23    2    4    4    0    0 -0.29246629294E+03 -0.33419348916E+03 -0.10303809466E+03  0.46466600271E+03  0.89865590848E+02 0.  0.
          4    1    3    3  502    0 -0.23215078025E+00  0.38815585062E+02 -0.66894196513E+01  0.39388473859E+02  0.00000000000E+00 0. -1.
         -3    1    3    3    0  502  0.23246490857E+02  0.39118091822E+03  0.18007561866E+03  0.43126574006E+03  0.00000000000E+00 0.  1.
         13    1    5    5    0    0  0.16903913166E+03 -0.45307920422E+02  0.24657374994E+03  0.30236674725E+03  0.00000000000E+00 0. -1.
        -13    1    5    5    0    0  0.10041282121E+03 -0.50495093697E+02  0.31353873524E+03  0.33307510812E+03  0.00000000000E+00 0.  1.
          1    1    6    6  503    0 -0.27992575012E+03 -0.27631307402E+03 -0.81760878792E+02  0.40173645809E+03  0.00000000000E+00 0. -1.
         -1    1    6    6    0  503 -0.12540542817E+02 -0.57880415143E+02 -0.21277215867E+02  0.62929544622E+02  0.00000000000E+00 0.  1.
<mgrwt>
<rscale>  0 0.14386844E+04</rscale>
<asrwt>0</asrwt>
<pdfrwt beam="1">  1        2 0.16932482E+00 0.14386844E+04</pdfrwt>
<pdfrwt beam="2">  1       -1 0.72330884E-01 0.14386844E+04</pdfrwt>
<totfact> 0.46469056E+01</totfact>
</mgrwt>
</event>
<event>
12    7  0.1605494E-007  0.3127806E+04  0.7818608E-02  0.8208148E-01
         -1   -1    0    0    0  501 -0.00000000000E+00  0.00000000000E+00  0.60633772800E+03  0.60633772800E+03  0.00000000000E+00 0.  1.
          2   -1    0    0  501    0  0.00000000000E+00 -0.00000000000E+00 -0.40337143439E+04  0.40337143439E+04  0.00000000000E+00 0. -1.
         24    2    1    2    0    0 -0.40869156813E+03 -0.94946505085E+03 -0.30556659292E+04  0.32267382574E+04  0.78948274994E+02 0.  0.
        254    2    1    2    0    0  0.40869156813E+03  0.94946505085E+03 -0.37171068669E+03  0.14133138145E+04  0.88925498201E+03 0.  0.
         23    2    4    4    0    0  0.60326952073E+03  0.63165085233E+03 -0.49739609524E+03  0.10096633868E+04  0.95395834571E+02 0.  0.
         23    2    4    4    0    0 -0.19457795260E+03  0.31781419852E+03  0.12568540855E+03  0.40365042768E+03  0.90941747435E+02 0.  0.
          4    1    3    3  502    0 -0.37325881508E+03 -0.90071733071E+03 -0.29140507245E+04  0.30728334608E+04  0.00000000000E+00 0. -1.
         -3    1    3    3    0  502 -0.35432753052E+02 -0.48747720145E+02 -0.14161520475E+03  0.15390479663E+03  0.00000000000E+00 0.  1.
         13    1    5    5    0    0  0.18508627195E+03  0.13362280425E+03 -0.13397204684E+03  0.26468942407E+03  0.00000000000E+00 0. -1.
        -13    1    5    5    0    0  0.41818324878E+03  0.49802804808E+03 -0.36342404840E+03  0.74497396276E+03  0.00000000000E+00 0.  1.
          4    1    6    6  503    0 -0.33762662558E+02  0.13724201919E+03  0.36981371683E+02  0.14609213211E+03  0.00000000000E+00 0. -1.
         -4    1    6    6    0  503 -0.16081529004E+03  0.18057217933E+03  0.88704036864E+02  0.25755829557E+03  0.00000000000E+00 0.  1.
<mgrwt>
<rscale>  0 0.31278064E+04</rscale>
<asrwt>0</asrwt>
<pdfrwt beam="1">  1        2 0.62057145E+00 0.31278064E+04</pdfrwt>
<pdfrwt beam="2">  1       -1 0.93282726E-01 0.31278064E+04</pdfrwt>
<totfact> 0.34418355E-01</totfact>
</mgrwt>
</event>
<event>
12    7  0.1605494E-007  0.1355046E+04  0.7818608E-02  0.8987017E-01
          2   -1    0    0  501    0  0.00000000000E+00  0.00000000000E+00  0.39965996261E+03  0.39965996261E+03  0.00000000000E+00 0. -1.
         -1   -1    0    0    0  501 -0.00000000000E+00 -0.00000000000E+00 -0.11485703611E+04  0.11485703611E+04  0.00000000000E+00 0.  1.
         24    2    1    2    0    0 -0.17715097313E+03  0.11510072256E+03  0.13038594143E+03  0.26098290721E+03  0.80504288826E+02 0.  0.
        254    2    1    2    0    0  0.17715097313E+03 -0.11510072256E+03 -0.87929633988E+03  0.12872474165E+04  0.91608581161E+03 0.  0.
         23    2    4    4    0    0  0.18982596014E+03 -0.46539666399E+03 -0.73996311936E+03  0.89916388379E+03  0.91226760968E+02 0.  0.
         23    2    4    4    0    0 -0.12674987011E+02  0.35029594143E+03 -0.13933322052E+03  0.38808353266E+03  0.91253384071E+02 0.  0.
          2    1    3    3  502    0 -0.17473229151E+03  0.82227321391E+02  0.11186855648E+03  0.22317544670E+03  0.00000000000E+00 0. -1.
         -1    1    3    3    0  502 -0.24186816173E+01  0.32873401165E+02  0.18517384950E+02  0.37807460511E+02  0.00000000000E+00 0.  1.
         13    1    5    5    0    0  0.57090812530E+01 -0.11358491698E+03 -0.16862611165E+03  0.20339344263E+03  0.00000000000E+00 0.  1.
        -13    1    5    5    0    0  0.18411687889E+03 -0.35181174700E+03 -0.57133700771E+03  0.69577044116E+03  0.00000000000E+00 0. -1.
          2    1    6    6  503    0 -0.25364184020E+02  0.31762374001E+03 -0.14896155785E+03  0.35173530924E+03  0.00000000000E+00 0. -1.
         -2    1    6    6    0  503  0.12689197010E+02  0.32672201423E+02  0.96283373256E+01  0.36348223426E+02  0.00000000000E+00 0.  1.
<mgrwt>
<rscale>  0 0.13550463E+04</rscale>
<asrwt>0</asrwt>
<pdfrwt beam="1">  1        2 0.61486149E-01 0.13550463E+04</pdfrwt>
<pdfrwt beam="2">  1       -1 0.17670313E+00 0.13550463E+04</pdfrwt>
<totfact> 0.19549456E+01</totfact>
</mgrwt>
</event>
<event>
12    7  0.1605494E-007  0.1554903E+04  0.7818608E-02  0.8848742E-01
          2   -1    0    0  501    0  0.00000000000E+00  0.00000000000E+00  0.16057929094E+04  0.16057929094E+04  0.00000000000E+00 0. -1.
         -1   -1    0    0    0  501 -0.00000000000E+00 -0.00000000000E+00 -0.37640652646E+03  0.37640652646E+03  0.00000000000E+00 0.  1.
         24    2    1    2    0    0  0.27054755126E+03 -0.31623880883E+03  0.13068026613E+02  0.42413309657E+03  0.80716470353E+02 0.  0.
        254    2    1    2    0    0 -0.27054755126E+03  0.31623880883E+03  0.12163183564E+04  0.15580663393E+04  0.88030529479E+03 0.  0.
         23    2    4    4    0    0 -0.28085138053E+03  0.54688024247E+03  0.11387771173E+04  0.12977053004E+04  0.96282015225E+02 0.  0.
         23    2    4    4    0    0  0.10303829269E+02 -0.23064143364E+03  0.77541239121E+02  0.26036103890E+03  0.92052088533E+02 0.  0.
          4    1    3    3  502    0  0.25180253456E+02 -0.45512915063E+02 -0.23220992454E+02  0.56962137356E+02  0.00000000000E+00 0. -1.
         -3    1    3    3    0  502  0.24536729781E+03 -0.27072589377E+03  0.36289019067E+02  0.36717095922E+03  0.00000000000E+00 0.  1.
         13    1    5    5    0    0 -0.25941551299E+03  0.42455098631E+03  0.93247174321E+03  0.10569027866E+04  0.00000000000E+00 0. -1.
        -13    1    5    5    0    0 -0.21435867540E+02  0.12232925616E+03  0.20630537404E+03  0.24080251387E+03  0.00000000000E+00 0.  1.
          4    1    6    6  503    0  0.40673724295E+02 -0.20364511023E+03  0.69078418265E+02  0.21885499912E+03  0.00000000000E+00 0. -1.
         -4    1    6    6    0  503 -0.30369895026E+02 -0.26996323409E+02  0.84628208563E+01  0.41506039781E+02  0.00000000000E+00 0.  1.
<mgrwt>
<rscale>  0 0.15549031E+04</rscale>
<asrwt>0</asrwt>
<pdfrwt beam="1">  1        2 0.24704506E+00 0.15549031E+04</pdfrwt>
<pdfrwt beam="2">  1       -1 0.57908698E-01 0.15549031E+04</pdfrwt>
<totfact> 0.36656256E+01</totfact>
</mgrwt>
</event>
<event>
12    7  0.1605494E-007  0.1818258E+04  0.7818608E-02  0.8696650E-01
         -1   -1    0    0    0  501 -0.00000000000E+00  0.00000000000E+00  0.61522715770E+03  0.61522715770E+03  0.00000000000E+00 0.  1.
          2   -1    0    0  501    0  0.00000000000E+00 -0.00000000000E+00 -0.13434319031E+04  0.13434319031E+04  0.00000000000E+00 0. -1.
         24    2    1    2    0    0 -0.43964045165E+03  0.46721604744E+03 -0.21105343591E+02  0.64687194521E+03  0.80145594060E+02 0.  0.
        254    2    1    2    0    0  0.43964045165E+03 -0.46721604744E+03 -0.70709940181E+03  0.13117871156E+04  0.89956729090E+03 0.  0.
         23    2    4    4    0    0 -0.25505576120E+03 -0.15031137498E+03 -0.33495648552E+03  0.45724811254E+03  0.96088701007E+02 0.  0.
         23    2    4    4    0    0  0.69469621286E+03 -0.31690467246E+03 -0.37214291629E+03  0.85453900305E+03  0.93355010533E+02 0.  0.
          4    1    3    3  502    0 -0.92566258009E+01  0.36397911189E+02 -0.41913472774E+00  0.37558870245E+02  0.00000000000E+00 0. -1.
         -3    1    3    3    0  502 -0.43038382585E+03  0.43081813626E+03 -0.20686208863E+02  0.60931307496E+03  0.00000000000E+00 0.  1.
         13    1    5    5    0    0 -0.12060514280E+03 -0.65242381659E+02 -0.22623628248E+03  0.26454682827E+03  0.00000000000E+00 0. -1.
        -13    1    5    5    0    0 -0.13445061840E+03 -0.85068993323E+02 -0.10872020304E+03  0.19270128428E+03  0.00000000000E+00 0.  1.
          3    1    6    6  503    0  0.22894920205E+03 -0.12437142233E+03 -0.82685142373E+02  0.27335475225E+03  0.00000000000E+00 0. -1.
         -3    1    6    6    0  503  0.46574701081E+03 -0.19253325013E+03 -0.28945777392E+03  0.58118425079E+03  0.00000000000E+00 0.  1.
<mgrwt>
<rscale>  0 0.18182583E+04</rscale>
<asrwt>0</asrwt>
<pdfrwt beam="1">  1        2 0.20668183E+00 0.18182583E+04</pdfrwt>
<pdfrwt beam="2">  1       -1 0.94650332E-01 0.18182583E+04</pdfrwt>
<totfact> 0.18096562E+01</totfact>
</mgrwt>
</event>
<event>
12    7  0.1605494E-007  0.2356537E+04  0.7818608E-02  0.8455957E-01
         -1   -1    0    0    0  501 -0.00000000000E+00  0.00000000000E+00  0.46527465063E+03  0.46527465063E+03  0.00000000000E+00 0.  1.
          2   -1    0    0  501    0  0.00000000000E+00 -0.00000000000E+00 -0.29838644746E+04  0.29838644746E+04  0.00000000000E+00 0. -1.
         24    2    1    2    0    0  0.64614819763E+03  0.11459909579E+03 -0.21889139559E+04  0.22865583577E+04  0.79777006345E+02 0.  0.
        254    2    1    2    0    0 -0.64614819763E+03 -0.11459909579E+03 -0.32967586810E+03  0.11625807676E+04  0.90125879582E+03 0.  0.
         23    2    4    4    0    0 -0.34839611612E+02 -0.78648580519E+01 -0.50294474007E+03  0.51205833555E+03  0.89301024158E+02 0.  0.
         23    2    4    4    0    0 -0.61130858602E+03 -0.10673423774E+03  0.17326887197E+03  0.65052243201E+03  0.89816188459E+02 0.  0.
          2    1    3    3  502    0  0.29088766556E+03  0.39076069128E+02 -0.11102372499E+04  0.11483768215E+04  0.00000000000E+00 0. -1.
         -1    1    3    3    0  502  0.35526053207E+03  0.75523026663E+02 -0.10786767060E+04  0.11381815362E+04  0.00000000000E+00 0.  1.
         13    1    5    5    0    0 -0.41031327278E+02 -0.16207813930E+02 -0.49899807732E+03  0.50094445223E+03  0.00000000000E+00 0.  1.
        -13    1    5    5    0    0  0.61917156657E+01  0.83429558776E+01 -0.39466627499E+01  0.11113883323E+02  0.00000000000E+00 0. -1.
          1    1    6    6  503    0 -0.17072008051E+03 -0.70627261373E+01  0.13578277986E+02  0.17140477713E+03  0.00000000000E+00 0. -1.
         -1    1    6    6    0  503 -0.44058850551E+03 -0.99671511602E+02  0.15969059399E+03  0.47911765488E+03  0.00000000000E+00 0.  1.
<mgrwt>
<rscale>  0 0.23565369E+04</rscale>
<asrwt>0</asrwt>
<pdfrwt beam="1">  1        2 0.45905609E+00 0.23565369E+04</pdfrwt>
<pdfrwt beam="2">  1       -1 0.71580713E-01 0.23565369E+04</pdfrwt>
<totfact> 0.36067726E+00</totfact>
</mgrwt>
</event>
<event>
12    7  0.1605494E-007  0.1825388E+04  0.7818608E-02  0.8692914E-01
          2   -1    0    0  501    0  0.00000000000E+00  0.00000000000E+00  0.80837002860E+03  0.80837002860E+03  0.00000000000E+00 0. -1.
         -1   -1    0    0    0  501 -0.00000000000E+00 -0.00000000000E+00 -0.10304816032E+04  0.10304816032E+04  0.00000000000E+00 0.  1.
         24    2    1    2    0    0 -0.48397856390E+03  0.20563514796E+03 -0.51977729468E+03  0.74373005194E+03  0.80280070394E+02 0.  0.
        254    2    1    2    0    0  0.48397856390E+03 -0.20563514796E+03  0.29766572009E+03  0.10951215799E+04  0.91332651848E+03 0.  0.
         23    2    4    4    0    0  0.61662045768E+03  0.25992473335E+02  0.45429326048E+03  0.77190864708E+03  0.92542938296E+02 0.  0.
         23    2    4    4    0    0 -0.13264189378E+03 -0.23162762129E+03 -0.15662754039E+03  0.32321293278E+03  0.93215806461E+02 0.  0.
          2    1    3    3  502    0 -0.29982413295E+03  0.16370476112E+03 -0.30781301807E+03  0.45982889601E+03  0.00000000000E+00 0. -1.
         -3    1    3    3    0  502 -0.18415443096E+03  0.41930386835E+02 -0.21196427661E+03  0.28390115593E+03  0.00000000000E+00 0.  1.
         13    1    5    5    0    0  0.53621703110E+03  0.22356887606E+02  0.43040949915E+03  0.68795412043E+03  0.00000000000E+00 0. -1.
        -13    1    5    5    0    0  0.80403426584E+02  0.36355857289E+01  0.23883761324E+02  0.83954526650E+02  0.00000000000E+00 0.  1.
          3    1    6    6  503    0 -0.57414589973E+02 -0.91120366118E+02 -0.11691688537E+03  0.15896199026E+03  0.00000000000E+00 0. -1.
         -3    1    6    6    0  503 -0.75227303803E+02 -0.14050725517E+03 -0.39710655020E+02  0.16425094251E+03  0.00000000000E+00 0.  1.
<mgrwt>
<rscale>  0 0.18253881E+04</rscale>
<asrwt>0</asrwt>
<pdfrwt beam="1">  1        2 0.12436462E+00 0.18253881E+04</pdfrwt>
<pdfrwt beam="2">  1       -1 0.15853563E+00 0.18253881E+04</pdfrwt>
<totfact> 0.10953636E+01</totfact>
</mgrwt>
</event>
<event>
12    7  0.1605494E-007  0.1784601E+04  0.7818608E-02  0.8714532E-01
         -1   -1    0    0    0  501 -0.00000000000E+00  0.00000000000E+00  0.43517649289E+03  0.43517649289E+03  0.00000000000E+00 0.  1.
          2   -1    0    0  501    0  0.00000000000E+00 -0.00000000000E+00 -0.18296024370E+04  0.18296024370E+04  0.00000000000E+00 0. -1.
         24    2    1    2    0    0  0.41410731214E+02 -0.24822528909E+03 -0.12818017779E+04  0.13087401352E+04  0.80338663843E+02 0.  0.
        254    2    1    2    0    0 -0.41410731214E+02  0.24822528909E+03 -0.11262416624E+03  0.95603879469E+03  0.91542084930E+03 0.  0.
         23    2    4    4    0    0 -0.41804832182E+03  0.28733152280E+03  0.81895730210E+02  0.52197984685E+03  0.91827264606E+02 0.  0.
         23    2    4    4    0    0  0.37663759060E+03 -0.39106233705E+02 -0.19451989645E+03  0.43405894784E+03  0.84758527092E+02 0.  0.
          4    1    3    3  502    0  0.47531309752E+02 -0.10761190779E+03 -0.72168987865E+03  0.73121530964E+03  0.00000000000E+00 0. -1.
         -3    1    3    3    0  502 -0.61205785386E+01 -0.14061338130E+03 -0.56011189923E+03  0.57752482557E+03  0.00000000000E+00 0.  1.
         13    1    5    5    0    0 -0.94670161240E+02  0.24074532537E+02  0.38956278087E+01  0.97760925027E+02  0.00000000000E+00 0. -1.
        -13    1    5    5    0    0 -0.32337816058E+03  0.26325699026E+03  0.78000102401E+02  0.42421892182E+03  0.00000000000E+00 0.  1.
          2    1    6    6  503    0  0.14732568614E+03  0.14515834093E+02 -0.43499973107E+02  0.15429781235E+03  0.00000000000E+00 0. -1.
         -2    1    6    6    0  503  0.22931190446E+03 -0.53622067797E+02 -0.15101992335E+03  0.27976113549E+03  0.00000000000E+00 0.  1.
<mgrwt>
<rscale>  0 0.17846008E+04</rscale>
<asrwt>0</asrwt>
<pdfrwt beam="1">  1        2 0.28147730E+00 0.17846008E+04</pdfrwt>
<pdfrwt beam="2">  1       -1 0.66950230E-01 0.17846008E+04</pdfrwt>
<totfact> 0.20214882E+01</totfact>
</mgrwt>
</event>
<event>
12    7  0.1605494E-007  0.2600050E+04  0.7818608E-02  0.8368184E-01
          2   -1    0    0  501    0  0.00000000000E+00  0.00000000000E+00  0.94930516881E+03  0.94930516881E+03  0.00000000000E+00 0. -1.
         -1   -1    0    0    0  501 -0.00000000000E+00 -0.00000000000E+00 -0.17803180679E+04  0.17803180679E+04  0.00000000000E+00 0.  1.
         24    2    1    2    0    0  0.19685339802E+03 -0.91450526443E+03  0.31908509627E+03  0.99152666999E+03  0.78985439534E+02 0.  0.
        254    2    1    2    0    0 -0.19685339802E+03  0.91450526443E+03 -0.11500979953E+04  0.17380965667E+04  0.90729440496E+03 0.  0.
         23    2    4    4    0    0 -0.54904688348E+03  0.55295066068E+03 -0.76643509172E+03  0.10971266130E+04  0.95169016626E+02 0.  0.
         23    2    4    4    0    0  0.35219348546E+03  0.36155460375E+03 -0.38366290360E+03  0.64096995367E+03  0.94251128489E+02 0.  0.
          2    1    3    3  502    0  0.98135566366E+02 -0.62761547260E+03  0.20790593346E+03  0.66839856971E+03  0.00000000000E+00 0. -1.
         -1    1    3    3    0  502  0.98717831652E+02 -0.28688979183E+03  0.11117916282E+03  0.32312810028E+03  0.00000000000E+00 0.  1.
         13    1    5    5    0    0 -0.30496430560E+02  0.58651919564E+02 -0.91395689118E+02  0.11279739330E+03  0.00000000000E+00 0.  1.
        -13    1    5    5    0    0 -0.51855045292E+03  0.49429874112E+03 -0.67503940260E+03  0.98432921970E+03  0.00000000000E+00 0. -1.
          1    1    6    6  503    0  0.29192000682E+03  0.33707306722E+03 -0.31224815735E+03  0.54436610364E+03  0.00000000000E+00 0. -1.
         -1    1    6    6    0  503  0.60273478643E+02  0.24481536521E+02 -0.71414746252E+02  0.96603850029E+02  0.00000000000E+00 0.  1.
<mgrwt>
<rscale>  0 0.26000501E+04</rscale>
<asrwt>0</asrwt>
<pdfrwt beam="1">  1        2 0.14604695E+00 0.26000501E+04</pdfrwt>
<pdfrwt beam="2">  1       -1 0.27389509E+00 0.26000501E+04</pdfrwt>
<totfact> 0.13361532E+00</totfact>
</mgrwt>
</event>
<event>
12    7  0.1605494E-007  0.1693987E+04  0.7818608E-02  0.8764801E-01
         -1   -1    0    0    0  501 -0.00000000000E+00  0.00000000000E+00  0.59926765121E+03  0.59926765121E+03  0.00000000000E+00 0.  1.
          2   -1    0    0  501    0  0.00000000000E+00 -0.00000000000E+00 -0.11971241329E+04  0.11971241329E+04  0.00000000000E+00 0. -1.
         24    2    1    2    0    0  0.50949953731E+03  0.11222167876E+02 -0.55366925272E+03  0.75683492379E+03  0.80831583462E+02 0.  0.
        254    2    1    2    0    0 -0.50949953731E+03 -0.11222167876E+02 -0.44187228946E+02  0.10395568603E+04  0.90499184473E+03 0.  0.
         23    2    4    4    0    0 -0.54207873693E+03  0.14823594182E+03  0.30313518443E+03  0.64522631325E+03  0.92751300802E+02 0.  0.
         23    2    4    4    0    0  0.32579199619E+02 -0.15945810970E+03 -0.34732241338E+03  0.39433054704E+03  0.91517367218E+02 0.  0.
          2    1    3    3  502    0  0.49054353772E+03  0.26875571195E+02 -0.53079046035E+03  0.72325221847E+03  0.00000000000E+00 0. -1.
         -1    1    3    3    0  502  0.18955999582E+02 -0.15653403319E+02 -0.22878792374E+02  0.33582705313E+02  0.00000000000E+00 0.  1.
         13    1    5    5    0    0 -0.10410300503E+03 -0.80864425876E+01  0.50282705544E+02  0.11589295357E+03  0.00000000000E+00 0.  1.
        -13    1    5    5    0    0 -0.43797573190E+03  0.15632238441E+03  0.25285247889E+03  0.52933335969E+03  0.00000000000E+00 0. -1.
          3    1    6    6  503    0 -0.11879608020E+01 -0.12279464359E+03 -0.30552744587E+03  0.32928248652E+03  0.00000000000E+00 0. -1.
         -3    1    6    6    0  503  0.33767160421E+02 -0.36663466104E+02 -0.41794967506E+02  0.65048060528E+02  0.00000000000E+00 0.  1.
<mgrwt>
<rscale>  0 0.16939867E+04</rscale>
<asrwt>0</asrwt>
<pdfrwt beam="1">  1        2 0.18417294E+00 0.16939867E+04</pdfrwt>
<pdfrwt beam="2">  1       -1 0.92195024E-01 0.16939867E+04</pdfrwt>
<totfact> 0.23640082E+01</totfact>
</mgrwt>
</event>
<event>
12    7  0.1605494E-007  0.1585316E+04  0.7818608E-02  0.8829620E-01
         -1   -1    0    0    0  501 -0.00000000000E+00  0.00000000000E+00  0.24654852296E+03  0.24654852296E+03  0.00000000000E+00 0.  1.
          2   -1    0    0  501    0  0.00000000000E+00 -0.00000000000E+00 -0.25484093035E+04  0.25484093035E+04  0.00000000000E+00 0. -1.
         24    2    1    2    0    0  0.30978793130E+03  0.42056856061E+03 -0.63789127412E+03  0.82845481589E+03  0.81151881209E+02 0.  0.
        254    2    1    2    0    0 -0.30978793130E+03 -0.42056856061E+03 -0.16639695064E+04  0.19665030106E+04  0.90856650595E+03 0.  0.
         23    2    4    4    0    0 -0.18373893548E+03  0.26281844056E+03 -0.39456817968E+03  0.51633826948E+03  0.89931257087E+02 0.  0.
         23    2    4    4    0    0 -0.12604899582E+03 -0.68338700117E+03 -0.12694013267E+04  0.14501647411E+04  0.93230388105E+02 0.  0.
          2    1    3    3  502    0  0.15039203554E+03  0.15938527062E+03 -0.21998366106E+03  0.31050642502E+03  0.00000000000E+00 0. -1.
         -3    1    3    3    0  502  0.15939589576E+03  0.26118329000E+03 -0.41790761306E+03  0.51794839088E+03  0.00000000000E+00 0.  1.
         13    1    5    5    0    0 -0.76955998880E+02  0.88593547000E+02 -0.82995853736E+02  0.14373362192E+03  0.00000000000E+00 0. -1.
        -13    1    5    5    0    0 -0.10678293660E+03  0.17422489356E+03 -0.31157232595E+03  0.37260464756E+03  0.00000000000E+00 0.  1.
          4    1    6    6  503    0 -0.19932519893E+02 -0.18297995066E+03 -0.42106424782E+03  0.45953679775E+03  0.00000000000E+00 0. -1.
         -4    1    6    6    0  503 -0.10611647592E+03 -0.50040705051E+03 -0.84833707889E+03  0.99062794332E+03  0.00000000000E+00 0.  1.
<mgrwt>
<rscale>  0 0.15853158E+04</rscale>
<asrwt>0</asrwt>
<pdfrwt beam="1">  1        2 0.39206298E+00 0.15853158E+04</pdfrwt>
<pdfrwt beam="2">  1       -1 0.37930541E-01 0.15853158E+04</pdfrwt>
<totfact> 0.23996568E+01</totfact>
</mgrwt>
</event>
<event>
12    7  0.1605494E-007  0.1145881E+04  0.7818608E-02  0.9161592E-01
         -1   -1    0    0    0  501 -0.00000000000E+00  0.00000000000E+00  0.32328401576E+03  0.32328401576E+03  0.00000000000E+00 0.  1.
          2   -1    0    0  501    0  0.00000000000E+00 -0.00000000000E+00 -0.10153937564E+04  0.10153937564E+04  0.00000000000E+00 0. -1.
         24    2    1    2    0    0  0.10902272382E+03 -0.14799067851E+03 -0.25004739732E+03  0.32029783574E+03  0.79245236050E+02 0.  0.
        254    2    1    2    0    0 -0.10902272382E+03  0.14799067851E+03 -0.44206234336E+03  0.10183799365E+04  0.89882778348E+03 0.  0.
         23    2    4    4    0    0  0.12601936800E+03 -0.17845737310E+03  0.16198524788E+03  0.28703931862E+03  0.91784719747E+02 0.  0.
         23    2    4    4    0    0 -0.23504209181E+03  0.32644805161E+03 -0.60404759124E+03  0.73134061785E+03  0.90401833610E+02 0.  0.
          2    1    3    3  502    0  0.94579334485E+02 -0.15567668442E+03 -0.23922590282E+03  0.30068174730E+03  0.00000000000E+00 0. -1.
         -1    1    3    3    0  502  0.14443389334E+02  0.76860059050E+01 -0.10821494504E+02  0.19616088436E+02  0.00000000000E+00 0.  1.
         13    1    5    5    0    0  0.13818848070E+03 -0.14217467604E+03  0.12921152219E+03  0.23665441507E+03  0.00000000000E+00 0. -1.
        -13    1    5    5    0    0 -0.12169112707E+02 -0.36282697061E+02  0.32773725686E+02  0.50384903547E+02  0.00000000000E+00 0.  1.
          1    1    6    6  503    0 -0.24255866902E+03  0.31047357903E+03 -0.58564449446E+03  0.70583852621E+03  0.00000000000E+00 0. -1.
         -1    1    6    6    0  503  0.75165772091E+01  0.15974472580E+02 -0.18403096778E+02  0.25502091643E+02  0.00000000000E+00 0.  1.
<mgrwt>
<rscale>  0 0.11458806E+04</rscale>
<asrwt>0</asrwt>
<pdfrwt beam="1">  1        2 0.15621442E+00 0.11458806E+04</pdfrwt>
<pdfrwt beam="2">  1       -1 0.49736003E-01 0.11458806E+04</pdfrwt>
<totfact> 0.11270021E+02</totfact>
</mgrwt>
</event>
<event>
12    7  0.1605494E-007  0.2582482E+04  0.7818608E-02  0.8374176E-01
         -1   -1    0    0    0  501 -0.00000000000E+00  0.00000000000E+00  0.96564834447E+03  0.96564834447E+03  0.00000000000E+00 0.  1.
          2   -1    0    0  501    0  0.00000000000E+00 -0.00000000000E+00 -0.17266148307E+04  0.17266148307E+04  0.00000000000E+00 0. -1.
         24    2    1    2    0    0 -0.36676971909E+03  0.77470020317E+03 -0.11290767392E+04  0.14197254500E+04  0.78266460782E+02 0.  0.
        254    2    1    2    0    0  0.36676971909E+03 -0.77470020317E+03  0.36811025291E+03  0.12725377252E+04  0.86554414795E+03 0.  0.
         23    2    4    4    0    0  0.23308345221E+03 -0.87388105168E+03  0.60142403282E+02  0.91096651286E+03  0.90812392914E+02 0.  0.
         23    2    4    4    0    0  0.13368626688E+03  0.99180848511E+02  0.30796784963E+03  0.36157121231E+03  0.90447147550E+02 0.  0.
          2    1    3    3  502    0 -0.12980942665E+03  0.36517565501E+03 -0.50925108385E+03  0.63995344570E+03  0.00000000000E+00 0. -1.
         -1    1    3    3    0  502 -0.23696029245E+03  0.40952454816E+03 -0.61982565530E+03  0.77977200432E+03  0.00000000000E+00 0.  1.
         13    1    5    5    0    0  0.89396669581E+01 -0.15609428923E+03  0.23484021817E+02  0.15810390273E+03  0.00000000000E+00 0.  1.
        -13    1    5    5    0    0  0.22414378526E+03 -0.71778676244E+03  0.36658381465E+02  0.75286261013E+03  0.00000000000E+00 0. -1.
          1    1    6    6  503    0  0.14249759993E+03  0.10371670995E+03  0.27078347504E+03  0.32308886125E+03  0.00000000000E+00 0. -1.
         -1    1    6    6    0  503 -0.88113330543E+01 -0.45358614373E+01  0.37184374592E+02  0.38482351059E+02  0.00000000000E+00 0.  1.
<mgrwt>
<rscale>  0 0.25824816E+04</rscale>
<asrwt>0</asrwt>
<pdfrwt beam="1">  1        2 0.26563305E+00 0.25824816E+04</pdfrwt>
<pdfrwt beam="2">  1       -1 0.14856128E+00 0.25824816E+04</pdfrwt>
<totfact> 0.34226122E+00</totfact>
</mgrwt>
</event>
<event>
12    7  0.1605494E-007  0.2140229E+04  0.7818608E-02  0.8543726E-01
          2   -1    0    0  501    0  0.00000000000E+00  0.00000000000E+00  0.37415233783E+04  0.37415233783E+04  0.00000000000E+00 0. -1.
         -1   -1    0    0    0  501 -0.00000000000E+00 -0.00000000000E+00 -0.30606378888E+03  0.30606378888E+03  0.00000000000E+00 0.  1.
         24    2    1    2    0    0  0.11998985853E+02  0.78410634811E+03  0.66043417308E+03  0.10282539130E+04  0.78524338450E+02 0.  0.
        254    2    1    2    0    0 -0.11998985853E+02 -0.78410634811E+03  0.27750254164E+04  0.30193332542E+04  0.89478516860E+03 0.  0.
         23    2    4    4    0    0 -0.31108700670E+01 -0.27909767136E+03  0.23035114724E+04  0.23221781983E+04  0.91876514046E+02 0.  0.
         23    2    4    4    0    0 -0.88881157863E+01 -0.50500867675E+03  0.47151394399E+03  0.69715505591E+03  0.92666123287E+02 0.  0.
          2    1    3    3  502    0 -0.10911365887E+02  0.19675856776E+02  0.11533098780E+02  0.25282595058E+02  0.00000000000E+00 0. -1.
         -1    1    3    3    0  502  0.22910351740E+02  0.76443049133E+03  0.64890107430E+03  0.10029713179E+04  0.00000000000E+00 0.  1.
         13    1    5    5    0    0  0.19726246325E+02 -0.21924195739E+03  0.14932310072E+04  0.15093690740E+04  0.00000000000E+00 0. -1.
        -13    1    5    5    0    0 -0.22837116392E+02 -0.59855713972E+02  0.81028046513E+03  0.81280912430E+03  0.00000000000E+00 0.  1.
          4    1    6    6  503    0 -0.49235329337E+02 -0.29393291864E+03  0.25737008218E+03  0.39377663404E+03  0.00000000000E+00 0. -1.
         -4    1    6    6    0  503  0.40347213550E+02 -0.21107575811E+03  0.21414386182E+03  0.30337842187E+03  0.00000000000E+00 0.  1.
<mgrwt>
<rscale>  0 0.21402288E+04</rscale>
<asrwt>0</asrwt>
<pdfrwt beam="1">  1        2 0.57561895E+00 0.21402288E+04</pdfrwt>
<pdfrwt beam="2">  1       -1 0.47086739E-01 0.21402288E+04</pdfrwt>
<totfact> 0.25708673E+00</totfact>
</mgrwt>
</event>
<event>
12    7  0.1605494E-007  0.1364371E+04  0.7818608E-02  0.8980020E-01
          2   -1    0    0  501    0  0.00000000000E+00  0.00000000000E+00  0.15078892342E+04  0.15078892342E+04  0.00000000000E+00 0. -1.
         -1   -1    0    0    0  501 -0.00000000000E+00 -0.00000000000E+00 -0.30862821517E+03  0.30862821517E+03  0.00000000000E+00 0.  1.
         24    2    1    2    0    0 -0.13563831373E+03  0.31332605724E+03  0.53117088618E+03  0.63645078098E+03  0.79725253173E+02 0.  0.
        254    2    1    2    0    0  0.13563831373E+03 -0.31332605724E+03  0.66809013284E+03  0.11800666684E+04  0.91084682900E+03 0.  0.
         23    2    4    4    0    0 -0.46297011140E+01 -0.21853893410E+03 -0.18768525859E+03  0.30264804709E+03  0.92678931072E+02 0.  0.
         23    2    4    4    0    0  0.14026801484E+03 -0.94787123142E+02  0.85577539143E+03  0.87741862128E+03  0.94086139697E+02 0.  0.
          4    1    3    3  502    0 -0.84902926341E+02  0.27138230960E+03  0.41862393379E+03  0.50606606565E+03  0.00000000000E+00 0. -1.
         -3    1    3    3    0  502 -0.50735387386E+02  0.41943747641E+02  0.11254695239E+03  0.13038471533E+03  0.00000000000E+00 0.  1.
         13    1    5    5    0    0  0.29760614530E+02 -0.18825993888E+03 -0.13979674544E+03  0.23636968671E+03  0.00000000000E+00 0. -1.
        -13    1    5    5    0    0 -0.34390315644E+02 -0.30278995225E+02 -0.47888513155E+02  0.66278360376E+02  0.00000000000E+00 0.  1.
          1    1    6    6  503    0  0.13866052726E+03 -0.52190042581E+02  0.72091475728E+03  0.73598140576E+03  0.00000000000E+00 0. -1.
         -1    1    6    6    0  503  0.16074875796E+01 -0.42597080561E+02  0.13486063415E+03  0.14143721552E+03  0.00000000000E+00 0.  1.
<mgrwt>
<rscale>  0 0.13643712E+04</rscale>
<asrwt>0</asrwt>
<pdfrwt beam="1">  1        2 0.23198295E+00 0.13643712E+04</pdfrwt>
<pdfrwt beam="2">  1       -1 0.47481265E-01 0.13643712E+04</pdfrwt>
<totfact> 0.61841085E+01</totfact>
</mgrwt>
</event>
<event>
12    7  0.1605494E-007  0.1574294E+04  0.7818608E-02  0.8836498E-01
          2   -1    0    0  501    0  0.00000000000E+00  0.00000000000E+00  0.54257253454E+03  0.54257253454E+03  0.00000000000E+00 0. -1.
         -1   -1    0    0    0  501 -0.00000000000E+00 -0.00000000000E+00 -0.11419674277E+04  0.11419674277E+04  0.00000000000E+00 0.  1.
         24    2    1    2    0    0  0.28677666881E+03  0.19789110524E+03  0.21893866413E+03  0.42077546766E+03  0.87841381077E+02 0.  0.
        254    2    1    2    0    0 -0.28677666881E+03 -0.19789110524E+03 -0.81833355728E+03  0.12637644946E+04  0.89779125604E+03 0.  0.
         23    2    4    4    0    0  0.19541729645E+03 -0.35727416227E+03 -0.21636028685E+03  0.47085043290E+03  0.95160967082E+02 0.  0.
         23    2    4    4    0    0 -0.48219396526E+03  0.15938305703E+03 -0.60197327042E+03  0.79291406166E+03  0.91798212751E+02 0.  0.
          4    1    3    3  502    0  0.28624085867E+03  0.19932822030E+03  0.20060518102E+03  0.40237794079E+03  0.00000000000E+00 0. -1.
         -3    1    3    3    0  502  0.53581013725E+00 -0.14371150585E+01  0.18333483109E+02  0.18397526874E+02  0.00000000000E+00 0.  1.
         13    1    5    5    0    0  0.11478644827E+03 -0.14008019519E+03 -0.13275475705E+03  0.22454891518E+03  0.00000000000E+00 0.  1.
        -13    1    5    5    0    0  0.80630848177E+02 -0.21719396708E+03 -0.83605529802E+02  0.24630151771E+03  0.00000000000E+00 0. -1.
          4    1    6    6  503    0 -0.12954537621E+03  0.43605543199E+02 -0.22922467337E+03  0.26688461698E+03  0.00000000000E+00 0. -1.
         -4    1    6    6    0  503 -0.35264858905E+03  0.11577751383E+03 -0.37274859705E+03  0.52602944468E+03  0.00000000000E+00 0.  1.
<mgrwt>
<rscale>  0 0.15742937E+04</rscale>
<asrwt>0</asrwt>
<pdfrwt beam="1">  1        2 0.83472698E-01 0.15742937E+04</pdfrwt>
<pdfrwt beam="2">  1       -1 0.17568730E+00 0.15742937E+04</pdfrwt>
<totfact> 0.13735247E+01</totfact>
</mgrwt>
</event>
<event>
12    7  0.1605494E-007  0.1561048E+04  0.7818608E-02  0.8844841E-01
          2   -1    0    0  501    0  0.00000000000E+00  0.00000000000E+00  0.17294045291E+04  0.17294045291E+04  0.00000000000E+00 0. -1.
         -1   -1    0    0    0  501 -0.00000000000E+00 -0.00000000000E+00 -0.35227032006E+03  0.35227032006E+03  0.00000000000E+00 0.  1.
         24    2    1    2    0    0  0.24915324126E+03  0.23586343866E+03  0.97059286004E+03  0.10327365789E+04  0.82373794414E+02 0.  0.
        254    2    1    2    0    0 -0.24915324126E+03 -0.23586343866E+03  0.40654134903E+03  0.10489382703E+04  0.90403911817E+03 0.  0.
         23    2    4    4    0    0 -0.35194968166E+03 -0.39492822684E+03  0.56879995754E+03  0.78221013575E+03  0.92100065129E+02 0.  0.
         23    2    4    4    0    0  0.10279644040E+03  0.15906478818E+03 -0.16225860852E+03  0.26672813458E+03  0.94590309968E+02 0.  0.
          4    1    3    3  502    0  0.10768966223E+03  0.13130692818E+03  0.58020728275E+03  0.60454864460E+03  0.00000000000E+00 0. -1.
         -3    1    3    3    0  502  0.14146357903E+03  0.10455651048E+03  0.39038557730E+03  0.42818793425E+03  0.00000000000E+00 0.  1.
         13    1    5    5    0    0 -0.23044547132E+02 -0.43184364977E+01  0.44700055119E+02  0.50475686959E+02  0.00000000000E+00 0.  1.
        -13    1    5    5    0    0 -0.32890513453E+03 -0.39060979034E+03  0.52409990243E+03  0.73173444880E+03  0.00000000000E+00 0. -1.
          3    1    6    6  503    0  0.89439247388E+02  0.77060474782E+02 -0.13487787961E+03  0.17924770056E+03  0.00000000000E+00 0. -1.
         -3    1    6    6    0  503  0.13357193010E+02  0.82004313400E+02 -0.27380728912E+02  0.87480434024E+02  0.00000000000E+00 0.  1.
<mgrwt>
<rscale>  0 0.15610482E+04</rscale>
<asrwt>0</asrwt>
<pdfrwt beam="1">  1        2 0.26606223E+00 0.15610482E+04</pdfrwt>
<pdfrwt beam="2">  1       -1 0.54195435E-01 0.15610482E+04</pdfrwt>
<totfact> 0.35574447E+01</totfact>
</mgrwt>
</event>
<event>
12    7  0.1605494E-007  0.1491319E+04  0.7818608E-02  0.8890246E-01
          2   -1    0    0  501    0  0.00000000000E+00  0.00000000000E+00  0.26613463674E+04  0.26613463674E+04  0.00000000000E+00 0. -1.
         -1   -1    0    0    0  501 -0.00000000000E+00 -0.00000000000E+00 -0.20891978754E+03  0.20891978754E+03  0.00000000000E+00 0.  1.
         24    2    1    2    0    0  0.41373253018E+02 -0.18895322266E+03 -0.38975066335E+02  0.21502402380E+03  0.85447109957E+02 0.  0.
        254    2    1    2    0    0 -0.41373253018E+02  0.18895322266E+03  0.24914016462E+04  0.26552421312E+04  0.89767117913E+03 0.  0.
         23    2    4    4    0    0  0.32690276538E+03 -0.18023645911E+03  0.92360894506E+03  0.10004674921E+04  0.92364062979E+02 0.  0.
         23    2    4    4    0    0 -0.36827601840E+03  0.36918968177E+03  0.15677927012E+04  0.16547746391E+04  0.91525435870E+02 0.  0.
          2    1    3    3  502    0  0.15568287446E+02  0.39166086666E+01  0.19718329268E+01  0.16174038535E+02  0.00000000000E+00 0. -1.
         -1    1    3    3    0  502  0.25804965573E+02 -0.19286983132E+03 -0.40946899261E+02  0.19884998527E+03  0.00000000000E+00 0.  1.
         13    1    5    5    0    0  0.18341631834E+03 -0.79581934515E+02  0.60009794450E+03  0.63252855519E+03  0.00000000000E+00 0. -1.
        -13    1    5    5    0    0  0.14348644704E+03 -0.10065452460E+03  0.32351100055E+03  0.36793893690E+03  0.00000000000E+00 0.  1.
          1    1    6    6  503    0 -0.27261659635E+03  0.23964407523E+03  0.97056689267E+03  0.10362186953E+04  0.00000000000E+00 0. -1.
         -1    1    6    6    0  503 -0.95659422052E+02  0.12954560654E+03  0.59722580850E+03  0.61855594375E+03  0.00000000000E+00 0.  1.
<mgrwt>
<rscale>  0 0.14913188E+04</rscale>
<asrwt>0</asrwt>
<pdfrwt beam="1">  1        2 0.40943788E+00 0.14913188E+04</pdfrwt>
<pdfrwt beam="2">  1       -1 0.32141508E-01 0.14913188E+04</pdfrwt>
<totfact> 0.27963964E+01</totfact>
</mgrwt>
</event>
<event>
12    7  0.1605494E-007  0.1317898E+04  0.7818608E-02  0.9015491E-01
          2   -1    0    0  501    0  0.00000000000E+00  0.00000000000E+00  0.14260653574E+04  0.14260653574E+04  0.00000000000E+00 0. -1.
         -1   -1    0    0    0  501 -0.00000000000E+00 -0.00000000000E+00 -0.30448394244E+03  0.30448394244E+03  0.00000000000E+00 0.  1.
         24    2    1    2    0    0  0.10757799720E+03  0.10445647109E+03 -0.10337617883E+03  0.19821902583E+03  0.78230224428E+02 0.  0.
        254    2    1    2    0    0 -0.10757799720E+03 -0.10445647109E+03  0.12249575938E+04  0.15323302740E+04  0.90831205113E+03 0.  0.
         23    2    4    4    0    0  0.24219639128E+03 -0.12747232949E+03  0.37688943211E+02  0.29091061082E+03  0.91105654684E+02 0.  0.
         23    2    4    4    0    0 -0.34977438848E+03  0.23015858392E+02  0.11872686505E+04  0.12414196632E+04  0.92973538933E+02 0.  0.
          2    1    3    3  502    0  0.37456392441E+02 -0.28718186593E+01 -0.79491951808E+01  0.38398155960E+02  0.00000000000E+00 0. -1.
         -1    1    3    3    0  502  0.70121604758E+02  0.10732828975E+03 -0.95426983654E+02  0.15982086987E+03  0.00000000000E+00 0.  1.
         13    1    5    5    0    0  0.18190435638E+03 -0.13356567439E+03  0.14892199307E+02  0.22616534183E+03  0.00000000000E+00 0. -1.
        -13    1    5    5    0    0  0.60292034897E+02  0.60933449013E+01  0.22796743903E+02  0.64745268991E+02  0.00000000000E+00 0.  1.
          2    1    6    6  503    0 -0.22954632694E+03  0.48806422672E+02  0.87179978280E+03  0.90283356406E+03  0.00000000000E+00 0. -1.
         -2    1    6    6    0  503 -0.12022806154E+03 -0.25790564280E+02  0.31546886775E+03  0.33858609910E+03  0.00000000000E+00 0.  1.
<mgrwt>
<rscale>  0 0.13178983E+04</rscale>
<asrwt>0</asrwt>
<pdfrwt beam="1">  1        2 0.21939467E+00 0.13178983E+04</pdfrwt>
<pdfrwt beam="2">  1       -1 0.46843684E-01 0.13178983E+04</pdfrwt>
<totfact> 0.70830874E+01</totfact>
</mgrwt>
</event>
<event>
12    7  0.1605494E-007  0.2154359E+04  0.7818608E-02  0.8537669E-01
         -1   -1    0    0    0  501 -0.00000000000E+00  0.00000000000E+00  0.85356082939E+03  0.85356082939E+03  0.00000000000E+00 0.  1.
          2   -1    0    0  501    0  0.00000000000E+00 -0.00000000000E+00 -0.13593828204E+04  0.13593828204E+04  0.00000000000E+00 0. -1.
         24    2    1    2    0    0  0.57239989107E+03 -0.55811125224E+03  0.18467138020E+03  0.82447089403E+03  0.80739898771E+02 0.  0.
        254    2    1    2    0    0 -0.57239989107E+03  0.55811125224E+03 -0.69049337125E+03  0.13884727558E+04  0.90108029203E+03 0.  0.
         23    2    4    4    0    0 -0.37415971281E+01 -0.14207242838E+03  0.92691381882E+02  0.19045221336E+03  0.86497276508E+02 0.  0.
         23    2    4    4    0    0 -0.56865829394E+03  0.70018368062E+03 -0.78318475313E+03  0.11980205424E+04  0.90804298957E+02 0.  0.
          2    1    3    3  502    0  0.95744106017E+02 -0.12572004281E+03  0.13859484983E+02  0.15863337709E+03  0.00000000000E+00 0. -1.
         -1    1    3    3    0  502  0.47665578505E+03 -0.43239120943E+03  0.17081189521E+03  0.66583751694E+03  0.00000000000E+00 0.  1.
         13    1    5    5    0    0 -0.97652761194E+01 -0.42962893262E+02 -0.12502569951E+02  0.45798308599E+02  0.00000000000E+00 0. -1.
        -13    1    5    5    0    0  0.60236789913E+01 -0.99109535115E+02  0.10519395183E+03  0.14465390476E+03  0.00000000000E+00 0.  1.
          2    1    6    6  503    0 -0.15660436094E+03  0.13497466751E+03 -0.19312112498E+03  0.28291139187E+03  0.00000000000E+00 0. -1.
         -2    1    6    6    0  503 -0.41205393300E+03  0.56520901312E+03 -0.59006362815E+03  0.91510915058E+03  0.00000000000E+00 0.  1.
<mgrwt>
<rscale>  0 0.21543592E+04</rscale>
<asrwt>0</asrwt>
<pdfrwt beam="1">  1        2 0.20913582E+00 0.21543592E+04</pdfrwt>
<pdfrwt beam="2">  1       -1 0.13131705E+00 0.21543592E+04</pdfrwt>
<totfact> 0.78932222E+00</totfact>
</mgrwt>
</event>
<event>
12    7  0.1605494E-007  0.1183084E+04  0.7818608E-02  0.9127793E-01
          4   -1    0    0  501    0  0.00000000000E+00  0.00000000000E+00  0.16204847199E+04  0.16204847199E+04  0.00000000000E+00 0. -1.
         -3   -1    0    0    0  501 -0.00000000000E+00 -0.00000000000E+00 -0.21593657924E+03  0.21593657924E+03  0.00000000000E+00 0.  1.
         24    2    1    2    0    0 -0.21072234721E+03 -0.65893276125E+02  0.31751310894E+03  0.39522012734E+03  0.81477256053E+02 0.  0.
        254    2    1    2    0    0  0.21072234721E+03  0.65893276125E+02  0.10870350317E+04  0.14412011718E+04  0.92014663284E+03 0.  0.
         23    2    4    4    0    0  0.43897862926E+03  0.28088394467E+03  0.34944523436E+03  0.63403161653E+03  0.91027971608E+02 0.  0.
         23    2    4    4    0    0 -0.22825628205E+03 -0.21499066855E+03  0.73758979733E+03  0.80716955524E+03  0.95718670665E+02 0.  0.
          4    1    3    3  502    0 -0.10511940796E+03 -0.46988137259E+02  0.22829264968E+03  0.25568634862E+03  0.00000000000E+00 0. -1.
         -3    1    3    3    0  502 -0.10560293925E+03 -0.18905138866E+02  0.89220459266E+02  0.13953377872E+03  0.00000000000E+00 0.  1.
         13    1    5    5    0    0  0.36806370018E+03  0.23701553461E+03  0.33049131156E+03  0.54851778281E+03  0.00000000000E+00 0.  1.
        -13    1    5    5    0    0  0.70914929085E+02  0.43868410058E+02  0.18953922798E+02  0.85513833720E+02  0.00000000000E+00 0. -1.
          3    1    6    6  503    0 -0.55760474834E+02 -0.23453848909E+02  0.75971333886E+02  0.97113115256E+02  0.00000000000E+00 0. -1.
         -3    1    6    6    0  503 -0.17249580722E+03 -0.19153681964E+03  0.66161846345E+03  0.71005643998E+03  0.00000000000E+00 0.  1.
<mgrwt>
<rscale>  0 0.11830840E+04</rscale>
<asrwt>0</asrwt>
<pdfrwt beam="1">  1        4 0.24930533E+00 0.11830840E+04</pdfrwt>
<pdfrwt beam="2">  1       -3 0.33221013E-01 0.11830840E+04</pdfrwt>
<totfact> 0.12925729E+00</totfact>
</mgrwt>
</event>
<event>
12    7  0.1605494E-007  0.1365504E+04  0.7818608E-02  0.8979174E-01
          2   -1    0    0  501    0  0.00000000000E+00  0.00000000000E+00  0.14729431867E+04  0.14729431867E+04  0.00000000000E+00 0. -1.
         -1   -1    0    0    0  501 -0.00000000000E+00 -0.00000000000E+00 -0.31647529522E+03  0.31647529522E+03  0.00000000000E+00 0.  1.
         24    2    1    2    0    0 -0.34768181544E+03 -0.79317405987E+02  0.15209822487E+03  0.39503110191E+03  0.75774704178E+02 0.  0.
        254    2    1    2    0    0  0.34768181544E+03  0.79317405987E+02  0.10043696667E+04  0.13943873801E+04  0.89910168651E+03 0.  0.
         23    2    4    4    0    0 -0.24322117111E+01 -0.29891904751E+03  0.75238989606E+03  0.81481285891E+03  0.92037637554E+02 0.  0.
         23    2    4    4    0    0  0.35011402715E+03  0.37823645350E+03  0.25197977059E+03  0.57957452115E+03  0.82281067193E+02 0.  0.
          4    1    3    3  502    0 -0.15046618698E+03 -0.70761812991E+02  0.83392720257E+02  0.18601519667E+03  0.00000000000E+00 0. -1.
         -3    1    3    3    0  502 -0.19721562846E+03 -0.85555929957E+01  0.68705504615E+02  0.20901590524E+03  0.00000000000E+00 0.  1.
         13    1    5    5    0    0 -0.47053906602E+01 -0.29726741138E+03  0.67740533317E+03  0.73977566868E+03  0.00000000000E+00 0. -1.
        -13    1    5    5    0    0  0.22731789491E+01 -0.16516361294E+01  0.74984562894E+02  0.75037190225E+02  0.00000000000E+00 0.  1.
          3    1    6    6  503    0  0.33110147443E+03  0.32356542267E+03  0.21171028169E+03  0.50906189455E+03  0.00000000000E+00 0. -1.
         -3    1    6    6    0  503  0.19012552720E+02  0.54671030828E+02  0.40269488904E+02  0.70512626594E+02  0.00000000000E+00 0.  1.
<mgrwt>
<rscale>  0 0.13655038E+04</rscale>
<asrwt>0</asrwt>
<pdfrwt beam="1">  1        2 0.22660664E+00 0.13655038E+04</pdfrwt>
<pdfrwt beam="2">  1       -1 0.48688508E-01 0.13655038E+04</pdfrwt>
<totfact> 0.61716342E+01</totfact>
</mgrwt>
</event>
<event>
12    7  0.1605494E-007  0.1437835E+04  0.7818608E-02  0.8926878E-01
          2   -1    0    0  501    0  0.00000000000E+00  0.00000000000E+00  0.92638000277E+03  0.92638000277E+03  0.00000000000E+00 0. -1.
         -1   -1    0    0    0  501 -0.00000000000E+00 -0.00000000000E+00 -0.55791632962E+03  0.55791632962E+03  0.00000000000E+00 0.  1.
         24    2    1    2    0    0  0.94432018721E+02  0.40379316532E+03  0.10884559626E+02  0.42278010797E+03  0.81597913777E+02 0.  0.
        254    2    1    2    0    0 -0.94432018721E+02 -0.40379316532E+03  0.35757911353E+03  0.10615162244E+04  0.90938855599E+03 0.  0.
         23    2    4    4    0    0 -0.32326892379E+03 -0.46704889297E+03 -0.54614028757E+02  0.57713025527E+03  0.86366509104E+02 0.  0.
         23    2    4    4    0    0  0.22883690507E+03  0.63255727645E+02  0.41219314229E+03  0.48438596916E+03  0.91427372091E+02 0.  0.
          2    1    3    3  502    0  0.74869550338E+02  0.17543432866E+03  0.28717988981E+02  0.19289213600E+03  0.00000000000E+00 0. -1.
         -1    1    3    3    0  502  0.19562468383E+02  0.22835883667E+03 -0.17833429355E+02  0.22988797197E+03  0.00000000000E+00 0.  1.
         13    1    5    5    0    0 -0.23433205369E+03 -0.39084906691E+03 -0.25373185096E+02  0.45641899940E+03  0.00000000000E+00 0. -1.
        -13    1    5    5    0    0 -0.88936870102E+02 -0.76199826056E+02 -0.29240843661E+02  0.12071125586E+03  0.00000000000E+00 0.  1.
          4    1    6    6  503    0  0.20025805027E+03  0.59729161433E+02  0.40333677085E+03  0.45425918828E+03  0.00000000000E+00 0. -1.
         -4    1    6    6    0  503  0.28578854796E+02  0.35265662128E+01  0.88563714412E+01  0.30126780874E+02  0.00000000000E+00 0.  1.
<mgrwt>
<rscale>  0 0.14378352E+04</rscale>
<asrwt>0</asrwt>
<pdfrwt beam="1">  1        2 0.14252000E+00 0.14378352E+04</pdfrwt>
<pdfrwt beam="2">  1       -1 0.85833281E-01 0.14378352E+04</pdfrwt>
<totfact> 0.41803145E+01</totfact>
</mgrwt>
</event>
<event>
12    7  0.1605494E-007  0.2163737E+04  0.7818608E-02  0.8533675E-01
         -1   -1    0    0    0  501 -0.00000000000E+00  0.00000000000E+00  0.12907288548E+04  0.12907288548E+04  0.00000000000E+00 0.  1.
          2   -1    0    0  501    0  0.00000000000E+00 -0.00000000000E+00 -0.90680483228E+03  0.90680483228E+03  0.00000000000E+00 0. -1.
         24    2    1    2    0    0  0.15212848844E+02  0.78814736977E+03  0.58567156826E+03  0.98513461608E+03  0.77918667149E+02 0.  0.
        254    2    1    2    0    0 -0.15212848844E+02 -0.78814736977E+03 -0.20174754573E+03  0.12123990710E+04  0.89877790801E+03 0.  0.
         23    2    4    4    0    0  0.12627630023E+03  0.16341777761E+03  0.24615446120E+01  0.22504551265E+03  0.89377567237E+02 0.  0.
         23    2    4    4    0    0 -0.14148914907E+03 -0.95156514738E+03 -0.20420909035E+03  0.98735355836E+03  0.87580178149E+02 0.  0.
          4    1    3    3  502    0  0.23386508288E+02  0.56791250655E+03  0.38025732875E+03  0.68386195971E+03  0.00000000000E+00 0. -1.
         -3    1    3    3    0  502 -0.81736594449E+01  0.22023486322E+03  0.20541423951E+03  0.30127265637E+03  0.00000000000E+00 0.  1.
         13    1    5    5    0    0 -0.13727239527E+02  0.10011973352E+02 -0.31577764662E+01  0.17281442869E+02  0.00000000000E+00 0. -1.
        -13    1    5    5    0    0  0.14000353975E+03  0.15340580426E+03  0.56193210781E+01  0.20776406978E+03  0.00000000000E+00 0.  1.
          1    1    6    6  503    0 -0.65848851025E+02 -0.59160783006E+03 -0.88762883692E+02  0.60184279117E+03  0.00000000000E+00 0. -1.
         -1    1    6    6    0  503 -0.75640298043E+02 -0.35995731732E+03 -0.11544620665E+03  0.38551076718E+03  0.00000000000E+00 0.  1.
<mgrwt>
<rscale>  0 0.21637367E+04</rscale>
<asrwt>0</asrwt>
<pdfrwt beam="1">  1        2 0.13950844E+00 0.21637367E+04</pdfrwt>
<pdfrwt beam="2">  1       -1 0.19857367E+00 0.21637367E+04</pdfrwt>
<totfact> 0.46710182E+00</totfact>
</mgrwt>
</event>
<event>
12    7  0.1605494E-007  0.1998861E+04  0.7818608E-02  0.8607154E-01
         -1   -1    0    0    0  501 -0.00000000000E+00  0.00000000000E+00  0.15797822730E+04  0.15797822730E+04  0.00000000000E+00 0.  1.
          2   -1    0    0  501    0  0.00000000000E+00 -0.00000000000E+00 -0.63227755151E+03  0.63227755151E+03  0.00000000000E+00 0. -1.
         24    2    1    2    0    0 -0.97512431317E+02 -0.33993367372E+03  0.11543042777E+04  0.12097187776E+04  0.77055684134E+02 0.  0.
        254    2    1    2    0    0  0.97512431317E+02  0.33993367372E+03 -0.20679955624E+03  0.10023410469E+04  0.91479939938E+03 0.  0.
         23    2    4    4    0    0 -0.32099238103E+03 -0.18572826763E+02  0.12022859296E+03  0.35503788714E+03  0.90641757269E+02 0.  0.
         23    2    4    4    0    0  0.41850481235E+03  0.35850650049E+03 -0.32702814920E+03  0.64730315979E+03  0.91546608113E+02 0.  0.
          4    1    3    3  502    0 -0.47287571791E+02 -0.11144382449E+03  0.28863881792E+03  0.31299873430E+03  0.00000000000E+00 0. -1.
         -3    1    3    3    0  502 -0.50224859526E+02 -0.22848984923E+03  0.86566545979E+03  0.89672004326E+03  0.00000000000E+00 0.  1.
         13    1    5    5    0    0 -0.51563648038E+02 -0.20377787857E+02  0.54406235728E+02  0.77679485857E+02  0.00000000000E+00 0. -1.
        -13    1    5    5    0    0 -0.26942873300E+03  0.18049610938E+01  0.65822357234E+02  0.27735840128E+03  0.00000000000E+00 0.  1.
          4    1    6    6  503    0  0.11261219536E+03  0.15169088864E+03 -0.98492708171E+02  0.21305502999E+03  0.00000000000E+00 0. -1.
         -4    1    6    6    0  503  0.30589261699E+03  0.20681561185E+03 -0.22853544103E+03  0.43424812980E+03  0.00000000000E+00 0.  1.
<mgrwt>
<rscale>  0 0.19988605E+04</rscale>
<asrwt>0</asrwt>
<pdfrwt beam="1">  1        2 0.97273470E-01 0.19988605E+04</pdfrwt>
<pdfrwt beam="2">  1       -1 0.24304343E+00 0.19988605E+04</pdfrwt>
<totfact> 0.38214484E+00</totfact>
</mgrwt>
</event>
<event>
12    7  0.1605494E-007  0.1230415E+04  0.7818608E-02  0.9086643E-01
         -1   -1    0    0    0  501 -0.00000000000E+00  0.00000000000E+00  0.46248242913E+03  0.46248242913E+03  0.00000000000E+00 0.  1.
          2   -1    0    0  501    0  0.00000000000E+00 -0.00000000000E+00 -0.81836658901E+03  0.81836658901E+03  0.00000000000E+00 0. -1.
         24    2    1    2    0    0  0.12413220793E+03 -0.24529500389E+03 -0.65601953958E+02  0.29388442376E+03  0.80535670264E+02 0.  0.
        254    2    1    2    0    0 -0.12413220793E+03  0.24529500389E+03 -0.29028220593E+03  0.98696459437E+03  0.90236184953E+03 0.  0.
         23    2    4    4    0    0  0.38223943327E+03  0.92712056802E+02 -0.15355648723E+03  0.43333084612E+03  0.97434683774E+02 0.  0.
         23    2    4    4    0    0 -0.50637164120E+03  0.15258294709E+03 -0.13672571870E+03  0.55363374826E+03  0.90125525242E+02 0.  0.
          4    1    3    3  502    0  0.12173350044E+03 -0.23380236558E+03 -0.41187630453E+02  0.26679395080E+03  0.00000000000E+00 0. -1.
         -3    1    3    3    0  502  0.23987074899E+01 -0.11492638311E+02 -0.24414323505E+02  0.27090472959E+02  0.00000000000E+00 0.  1.
         13    1    5    5    0    0  0.34361306128E+03  0.54155151262E+02 -0.11448395181E+03  0.36620935476E+03  0.00000000000E+00 0. -1.
        -13    1    5    5    0    0  0.38626371993E+02  0.38556905540E+02 -0.39072535422E+02  0.67121491361E+02  0.00000000000E+00 0.  1.
          1    1    6    6  503    0 -0.44648694974E+03  0.15849606040E+03 -0.13790445878E+03  0.49344628604E+03  0.00000000000E+00 0. -1.
         -1    1    6    6    0  503 -0.59884691460E+02 -0.59131133132E+01  0.11787400806E+01  0.60187462220E+02  0.00000000000E+00 0.  1.
<mgrwt>
<rscale>  0 0.12304148E+04</rscale>
<asrwt>0</asrwt>
<pdfrwt beam="1">  1        2 0.12590255E+00 0.12304148E+04</pdfrwt>
<pdfrwt beam="2">  1       -1 0.71151143E-01 0.12304148E+04</pdfrwt>
<totfact> 0.74964358E+01</totfact>
</mgrwt>
</event>
<event>
12    7  0.1605494E-007  0.1347138E+04  0.7818608E-02  0.8992997E-01
          2   -1    0    0  501    0  0.00000000000E+00  0.00000000000E+00  0.23741269878E+04  0.23741269878E+04  0.00000000000E+00 0. -1.
         -1   -1    0    0    0  501 -0.00000000000E+00 -0.00000000000E+00 -0.19109979007E+03  0.19109979007E+03  0.00000000000E+00 0.  1.
         24    2    1    2    0    0  0.20042971271E+03 -0.30310517937E+03  0.56655638267E+03  0.67793503749E+03  0.81024445789E+02 0.  0.
        254    2    1    2    0    0 -0.20042971271E+03  0.30310517937E+03  0.16164708150E+04  0.18872917403E+04  0.90379610411E+03 0.  0.
         23    2    4    4    0    0 -0.49046623392E+03 -0.27892526547E+02  0.62835084081E+03  0.80158029088E+03  0.79818944648E+02 0.  0.
         23    2    4    4    0    0  0.29003652121E+03  0.33099770592E+03  0.98811997421E+03  0.10857114495E+04  0.93314538404E+02 0.  0.
          4    1    3    3  502    0  0.17220668834E+03 -0.22961361480E+03  0.49149254358E+03  0.56915944691E+03  0.00000000000E+00 0. -1.
         -3    1    3    3    0  502  0.28223024370E+02 -0.73491564570E+02  0.75063839090E+02  0.10877559058E+03  0.00000000000E+00 0.  1.
         13    1    5    5    0    0 -0.10129270167E+01 -0.70229896525E+01  0.15024564324E+02  0.16615833952E+02  0.00000000000E+00 0.  1.
        -13    1    5    5    0    0 -0.48945330691E+03 -0.20869536895E+02  0.61332627649E+03  0.78496445693E+03  0.00000000000E+00 0. -1.
          2    1    6    6  503    0  0.25944335515E+03  0.31036164694E+03  0.95057468411E+03  0.10330670048E+04  0.00000000000E+00 0. -1.
         -2    1    6    6    0  503  0.30593166057E+02  0.20636058974E+02  0.37545290104E+02  0.52644444611E+02  0.00000000000E+00 0.  1.
<mgrwt>
<rscale>  0 0.13471380E+04</rscale>
<asrwt>0</asrwt>
<pdfrwt beam="1">  1        2 0.36525029E+00 0.13471380E+04</pdfrwt>
<pdfrwt beam="2">  1       -1 0.29399969E-01 0.13471380E+04</pdfrwt>
<totfact> 0.48542368E+01</totfact>
</mgrwt>
</event>
<event>
12    7  0.1605494E-007  0.2811509E+04  0.7818608E-02  0.8299704E-01
         -3   -1    0    0    0  501 -0.00000000000E+00  0.00000000000E+00  0.19335073847E+04  0.19335073847E+04  0.00000000000E+00 0.  1.
          2   -1    0    0  501    0  0.00000000000E+00 -0.00000000000E+00 -0.10220522977E+04  0.10220522977E+04  0.00000000000E+00 0. -1.
         24    2    1    2    0    0  0.17547040141E+03  0.52425679290E+03  0.16038852653E+04  0.16982955688E+04  0.78261408400E+02 0.  0.
        254    2    1    2    0    0 -0.17547040141E+03 -0.52425679290E+03 -0.69243017833E+03  0.12572641136E+04  0.89197446870E+03 0.  0.
         23    2    4    4    0    0  0.35261238223E+03 -0.18421453601E+03 -0.34255006131E+03  0.53234656298E+03  0.88214688354E+02 0.  0.
         23    2    4    4    0    0 -0.52808278364E+03 -0.34004225689E+03 -0.34988011702E+03  0.72491755062E+03  0.92677915669E+02 0.  0.
          4    1    3    3  502    0  0.61494233007E+02  0.17389079055E+03  0.42829908830E+03  0.46632569817E+03  0.00000000000E+00 0. -1.
         -3    1    3    3    0  502  0.11397616841E+03  0.35036600235E+03  0.11755861770E+04  0.12319698706E+04  0.00000000000E+00 0.  1.
         13    1    5    5    0    0  0.11049266583E+03 -0.41378066782E+02 -0.54864398711E+02  0.13011869912E+03  0.00000000000E+00 0. -1.
        -13    1    5    5    0    0  0.24211971639E+03 -0.14283646922E+03 -0.28768566260E+03  0.40222786387E+03  0.00000000000E+00 0.  1.
          2    1    6    6  503    0 -0.40424208921E+03 -0.22156214820E+03 -0.28316041981E+03  0.54100025467E+03  0.00000000000E+00 0. -1.
         -2    1    6    6    0  503 -0.12384069443E+03 -0.11848010869E+03 -0.66719697214E+02  0.18391729595E+03  0.00000000000E+00 0.  1.
<mgrwt>
<rscale>  0 0.28115090E+04</rscale>
<asrwt>0</asrwt>
<pdfrwt beam="1">  1        2 0.15723882E+00 0.28115090E+04</pdfrwt>
<pdfrwt beam="2">  1       -3 0.29746267E+00 0.28115090E+04</pdfrwt>
<totfact> 0.52110362E-01</totfact>
</mgrwt>
</event>
<event>
12    7  0.1605494E-007  0.1972695E+04  0.7818608E-02  0.8619494E-01
          2   -1    0    0  501    0  0.00000000000E+00  0.00000000000E+00  0.88425730441E+03  0.88425730441E+03  0.00000000000E+00 0. -1.
         -1   -1    0    0    0  501 -0.00000000000E+00 -0.00000000000E+00 -0.11002238686E+04  0.11002238686E+04  0.00000000000E+00 0.  1.
         24    2    1    2    0    0 -0.73149694676E+03  0.24826441810E+03  0.27893281722E+02  0.77749490898E+03  0.83649829119E+02 0.  0.
        254    2    1    2    0    0  0.73149694676E+03 -0.24826441810E+03 -0.24385984592E+03  0.12069862640E+04  0.89477662727E+03 0.  0.
         23    2    4    4    0    0 -0.92486091672E+02 -0.12251697418E+03 -0.31887092537E+03  0.36498317889E+03  0.89274675633E+02 0.  0.
         23    2    4    4    0    0  0.82398303843E+03 -0.12574744392E+03  0.75011079449E+02  0.84200308515E+03  0.92639441340E+02 0.  0.
          2    1    3    3  502    0 -0.39267343237E+03  0.10115644028E+03  0.43260124332E+02  0.40779466433E+03  0.00000000000E+00 0. -1.
         -1    1    3    3    0  502 -0.33882351439E+03  0.14710797783E+03 -0.15366842610E+02  0.36970024465E+03  0.00000000000E+00 0.  1.
         13    1    5    5    0    0 -0.13528202744E+02  0.11845308422E+02 -0.61793829940E+02  0.64356825743E+02  0.00000000000E+00 0. -1.
        -13    1    5    5    0    0 -0.78957888928E+02 -0.13436228260E+03 -0.25707709543E+03  0.30062635314E+03  0.00000000000E+00 0.  1.
          1    1    6    6  503    0  0.22526707633E+03 -0.76352767565E+02  0.25427362936E+02  0.23921026646E+03  0.00000000000E+00 0. -1.
         -1    1    6    6    0  503  0.59871596209E+03 -0.49394676357E+02  0.49583716513E+02  0.60279281869E+03  0.00000000000E+00 0.  1.
<mgrwt>
<rscale>  0 0.19726946E+04</rscale>
<asrwt>0</asrwt>
<pdfrwt beam="1">  1        2 0.13603959E+00 0.19726946E+04</pdfrwt>
<pdfrwt beam="2">  1       -1 0.16926521E+00 0.19726946E+04</pdfrwt>
<totfact> 0.79555254E+00</totfact>
</mgrwt>
</event>
<event>
12    7  0.1605494E-007  0.1577603E+04  0.7818608E-02  0.8834426E-01
          2   -1    0    0  501    0  0.00000000000E+00  0.00000000000E+00  0.24366271877E+03  0.24366271877E+03  0.00000000000E+00 0. -1.
         -1   -1    0    0    0  501 -0.00000000000E+00 -0.00000000000E+00 -0.25535629410E+04  0.25535629410E+04  0.00000000000E+00 0.  1.
         24    2    1    2    0    0 -0.46765103492E+03  0.94476370391E+02 -0.11746509556E+04  0.12699623935E+04  0.73323518618E+02 0.  0.
        254    2    1    2    0    0  0.46765103492E+03 -0.94476370391E+02 -0.11352492667E+04  0.15272632663E+04  0.90339299982E+03 0.  0.
         23    2    4    4    0    0  0.21185471402E+03  0.33992807626E+03 -0.19062139882E+03  0.45277358232E+03  0.90740742084E+02 0.  0.
         23    2    4    4    0    0  0.25579632089E+03 -0.43440444665E+03 -0.94462786790E+03  0.10744896840E+04  0.89818100739E+02 0.  0.
          4    1    3    3  502    0 -0.49464454235E+02  0.11110580482E+02 -0.74978633078E+02  0.90509516901E+02  0.00000000000E+00 0. -1.
         -1    1    3    3    0  502 -0.41818658068E+03  0.83365789909E+02 -0.10996723225E+04  0.11794528766E+04  0.00000000000E+00 0.  1.
         13    1    5    5    0    0  0.11187950313E+03  0.10343053052E+03 -0.90278652062E+02  0.17710204087E+03  0.00000000000E+00 0.  1.
        -13    1    5    5    0    0  0.99975210897E+02  0.23649754574E+03 -0.10034274675E+03  0.27567154145E+03  0.00000000000E+00 0. -1.
          1    1    6    6  503    0  0.15437376099E+03 -0.18069387336E+03 -0.47579575939E+03  0.53184879299E+03  0.00000000000E+00 0. -1.
         -1    1    6    6    0  503  0.10142255990E+03 -0.25371057330E+03 -0.46883210851E+03  0.54264089104E+03  0.00000000000E+00 0.  1.
<mgrwt>
<rscale>  0 0.15776034E+04</rscale>
<asrwt>0</asrwt>
<pdfrwt beam="1">  1        2 0.37486572E-01 0.15776034E+04</pdfrwt>
<pdfrwt beam="2">  1       -1 0.39285584E+00 0.15776034E+04</pdfrwt>
<totfact> 0.12266689E+00</totfact>
</mgrwt>
</event>
<event>
12    7  0.1605494E-007  0.2254748E+04  0.7818608E-02  0.8495980E-01
          2   -1    0    0  501    0  0.00000000000E+00  0.00000000000E+00  0.30618185772E+04  0.30618185772E+04  0.00000000000E+00 0. -1.
         -1   -1    0    0    0  501 -0.00000000000E+00 -0.00000000000E+00 -0.41510358138E+03  0.41510358138E+03  0.00000000000E+00 0.  1.
         24    2    1    2    0    0  0.36379632599E+03  0.25734606924E+03  0.23981980962E+04  0.24405608614E+04  0.80052754934E+02 0.  0.
        254    2    1    2    0    0 -0.36379632599E+03 -0.25734606924E+03  0.24851689965E+03  0.10363612972E+04  0.90205838100E+03 0.  0.
         23    2    4    4    0    0 -0.35724138970E+03  0.22828235572E+03 -0.83260715200E+02  0.44116906799E+03  0.89238755077E+02 0.  0.
         23    2    4    4    0    0 -0.65549362909E+01 -0.48562842496E+03  0.33177761485E+03  0.59519222920E+03  0.91101425158E+02 0.  0.
          4    1    3    3  502    0  0.32895076224E+03  0.20466334463E+03  0.21369657221E+04  0.21718006783E+04  0.00000000000E+00 0. -1.
         -3    1    3    3    0  502  0.34845563745E+02  0.52682724611E+02  0.26123237405E+03  0.26876018313E+03  0.00000000000E+00 0.  1.
         13    1    5    5    0    0 -0.97719765957E+01  0.59800506630E+01 -0.21107769208E+02  0.24016462134E+02  0.00000000000E+00 0. -1.
        -13    1    5    5    0    0 -0.34746941310E+03  0.22230230506E+03 -0.62152945992E+02  0.41715260585E+03  0.00000000000E+00 0.  1.
          2    1    6    6  503    0 -0.40389639953E+02 -0.12785935932E+03  0.76367312840E+02  0.15430912239E+03  0.00000000000E+00 0. -1.
         -2    1    6    6    0  503  0.33834703662E+02 -0.35776906564E+03  0.25541030201E+03  0.44088310681E+03  0.00000000000E+00 0.  1.
<mgrwt>
<rscale>  0 0.22547478E+04</rscale>
<asrwt>0</asrwt>
<pdfrwt beam="1">  1        2 0.47104900E+00 0.22547478E+04</pdfrwt>
<pdfrwt beam="2">  1       -1 0.63862092E-01 0.22547478E+04</pdfrwt>
<totfact> 0.41022683E+00</totfact>
</mgrwt>
</event>
<event>
12    7  0.1605494E-007  0.2238513E+04  0.7818608E-02  0.8502567E-01
         -1   -1    0    0    0  501 -0.00000000000E+00  0.00000000000E+00  0.46405555164E+03  0.46405555164E+03  0.00000000000E+00 0.  1.
          2   -1    0    0  501    0  0.00000000000E+00 -0.00000000000E+00 -0.26995381596E+04  0.26995381596E+04  0.00000000000E+00 0. -1.
         24    2    1    2    0    0 -0.72816202605E+03  0.47947241515E+03 -0.46135860664E+03  0.98983514090E+03  0.82511266840E+02 0.  0.
        254    2    1    2    0    0  0.72816202605E+03 -0.47947241515E+03 -0.17741240014E+04  0.21737585704E+04  0.90421049376E+03 0.  0.
         23    2    4    4    0    0  0.15881166350E+03 -0.52514018847E+03 -0.40647579187E+03  0.68906358377E+03  0.92696769607E+02 0.  0.
         23    2    4    4    0    0  0.56935036256E+03  0.45667773312E+02 -0.13676482095E+04  0.14846949866E+04  0.87247908234E+02 0.  0.
          2    1    3    3  502    0 -0.16307932255E+03  0.70431704173E+02 -0.80190488988E+02  0.19489998697E+03  0.00000000000E+00 0. -1.
         -1    1    3    3    0  502 -0.56508270350E+03  0.40904071098E+03 -0.38116811765E+03  0.79493515393E+03  0.00000000000E+00 0.  1.
         13    1    5    5    0    0  0.89662495700E+02 -0.28247156101E+03 -0.16210061638E+03  0.33779602684E+03  0.00000000000E+00 0. -1.
        -13    1    5    5    0    0  0.69149167795E+02 -0.24266862745E+03 -0.24437517549E+03  0.35126755693E+03  0.00000000000E+00 0.  1.
          3    1    6    6  503    0  0.51333552494E+02 -0.19716918139E+02 -0.11032844352E+03  0.12327309489E+03  0.00000000000E+00 0. -1.
         -3    1    6    6    0  503  0.51801681006E+03  0.65384691451E+02 -0.12573197660E+04  0.13614218917E+04  0.00000000000E+00 0.  1.
<mgrwt>
<rscale>  0 0.22385135E+04</rscale>
<asrwt>0</asrwt>
<pdfrwt beam="1">  1        2 0.41531356E+00 0.22385135E+04</pdfrwt>
<pdfrwt beam="2">  1       -1 0.71393162E-01 0.22385135E+04</pdfrwt>
<totfact> 0.54593053E+00</totfact>
</mgrwt>
</event>
<event>
12    7  0.1605494E-007  0.1628988E+04  0.7818608E-02  0.8802935E-01
         -1   -1    0    0    0  501 -0.00000000000E+00  0.00000000000E+00  0.10301655262E+04  0.10301655262E+04  0.00000000000E+00 0.  1.
          2   -1    0    0  501    0  0.00000000000E+00 -0.00000000000E+00 -0.64397484101E+03  0.64397484101E+03  0.00000000000E+00 0. -1.
         24    2    1    2    0    0 -0.14853834393E+03 -0.32102148365E+03 -0.31207296194E+03  0.47793340713E+03  0.76891972857E+02 0.  0.
        254    2    1    2    0    0  0.14853834393E+03  0.32102148365E+03  0.69826364710E+03  0.11962069601E+04  0.90455543659E+03 0.  0.
         23    2    4    4    0    0 -0.35802548181E+03  0.15949647715E+03  0.44651246253E+03  0.60070751520E+03  0.88627127737E+02 0.  0.
         23    2    4    4    0    0  0.50656382574E+03  0.16152500651E+03  0.25175118457E+03  0.59549944487E+03  0.92432097389E+02 0.  0.
          2    1    3    3  502    0 -0.15479795299E+03 -0.31795614501E+03 -0.31089360054E+03  0.47086446803E+03  0.00000000000E+00 0. -1.
         -1    1    3    3    0  502  0.62596090638E+01 -0.30653386489E+01 -0.11793614033E+01  0.70689390989E+01  0.00000000000E+00 0.  1.
         13    1    5    5    0    0 -0.12492182127E+03  0.10166008621E+03  0.19558496954E+03  0.25336478617E+03  0.00000000000E+00 0. -1.
        -13    1    5    5    0    0 -0.23310366054E+03  0.57836390936E+02  0.25092749299E+03  0.34734272903E+03  0.00000000000E+00 0.  1.
          1    1    6    6  503    0  0.65411121481E+02  0.45598783234E+02  0.13420583911E+02  0.80857751133E+02  0.00000000000E+00 0. -1.
         -1    1    6    6    0  503  0.44115270426E+03  0.11592622328E+03  0.23833060066E+03  0.51464169373E+03  0.00000000000E+00 0.  1.
<mgrwt>
<rscale>  0 0.16289883E+04</rscale>
<asrwt>0</asrwt>
<pdfrwt beam="1">  1        2 0.99073052E-01 0.16289883E+04</pdfrwt>
<pdfrwt beam="2">  1       -1 0.15848700E+00 0.16289883E+04</pdfrwt>
<totfact> 0.14917846E+01</totfact>
</mgrwt>
</event>
<event>
12    7  0.1605494E-007  0.1385115E+04  0.7818608E-02  0.8964664E-01
         -1   -1    0    0    0  501 -0.00000000000E+00  0.00000000000E+00  0.72555226476E+03  0.72555226476E+03  0.00000000000E+00 0.  1.
          2   -1    0    0  501    0  0.00000000000E+00 -0.00000000000E+00 -0.66106275403E+03  0.66106275403E+03  0.00000000000E+00 0. -1.
         24    2    1    2    0    0 -0.25952096367E+03 -0.96213758397E+02 -0.26646047502E+03  0.39266380121E+03  0.81089198661E+02 0.  0.
        254    2    1    2    0    0  0.25952096367E+03  0.96213758397E+02  0.33094998576E+03  0.99395121759E+03  0.89543448224E+03 0.  0.
         23    2    4    4    0    0  0.23461860739E+03 -0.36711578046E+03  0.25988051828E+03  0.51567408160E+03  0.92531008096E+02 0.  0.
         23    2    4    4    0    0  0.24902356282E+02  0.46332953886E+03  0.71069467478E+02  0.47827713599E+03  0.91672027765E+02 0.  0.
          4    1    3    3  502    0 -0.17394113551E+03 -0.60689052506E+02 -0.22595294755E+03  0.29153630001E+03  0.00000000000E+00 0. -1.
         -1    1    3    3    0  502 -0.85579828159E+02 -0.35524705891E+02 -0.40507527473E+02  0.10112750120E+03  0.00000000000E+00 0.  1.
         13    1    5    5    0    0  0.11610807868E+02 -0.56129831518E+02  0.88308567104E+01  0.57994421075E+02  0.00000000000E+00 0.  1.
        -13    1    5    5    0    0  0.22300779952E+03 -0.31098594894E+03  0.25104966157E+03  0.45767966053E+03  0.00000000000E+00 0. -1.
          3    1    6    6  503    0  0.36704566188E+02  0.40719054217E+03  0.88521634979E+02  0.41831500412E+03  0.00000000000E+00 0. -1.
         -3    1    6    6    0  503 -0.11802209906E+02  0.56138996686E+02 -0.17452167501E+02  0.59962131867E+02  0.00000000000E+00 0.  1.
<mgrwt>
<rscale>  0 0.13851145E+04</rscale>
<asrwt>0</asrwt>
<pdfrwt beam="1">  1        2 0.10170196E+00 0.13851145E+04</pdfrwt>
<pdfrwt beam="2">  1       -1 0.11162343E+00 0.13851145E+04</pdfrwt>
<totfact> 0.36140318E+01</totfact>
</mgrwt>
</event>
<event>
12    7  0.1605494E-007  0.3667167E+04  0.7818608E-02  0.8075277E-01
         -1   -1    0    0    0  501 -0.00000000000E+00  0.00000000000E+00  0.21957233802E+04  0.21957233802E+04  0.00000000000E+00 0.  1.
          2   -1    0    0  501    0  0.00000000000E+00 -0.00000000000E+00 -0.15311709272E+04  0.15311709272E+04  0.00000000000E+00 0. -1.
         24    2    1    2    0    0 -0.10439637718E+03 -0.14135631627E+04  0.12806570602E+04  0.19119342625E+04  0.79691277694E+02 0.  0.
        254    2    1    2    0    0  0.10439637718E+03  0.14135631627E+04 -0.61610460719E+03  0.18149600449E+04  0.95154382934E+03 0.  0.
         23    2    4    4    0    0  0.16862763026E+03  0.19717868008E+03  0.20529540036E+03  0.34297894615E+03  0.90408221567E+02 0.  0.
         23    2    4    4    0    0 -0.64231253074E+02  0.12163844826E+04 -0.82140000756E+03  0.14719810987E+04  0.91178502448E+02 0.  0.
          2    1    3    3  502    0 -0.46695039870E+02 -0.28956253277E+03  0.29227558851E+03  0.41406751475E+03  0.00000000000E+00 0. -1.
         -1    1    3    3    0  502 -0.57701337315E+02 -0.11240006299E+04  0.98838147169E+03  0.14978667477E+04  0.00000000000E+00 0.  1.
         13    1    5    5    0    0  0.37534200807E+02 -0.25225525237E-01  0.34807664906E+02  0.51189749001E+02  0.00000000000E+00 0. -1.
        -13    1    5    5    0    0  0.13109342945E+03  0.19720390561E+03  0.17048773546E+03  0.29178919715E+03  0.00000000000E+00 0.  1.
          3    1    6    6  503    0  0.21985892838E+02  0.21055897196E+03 -0.13080903894E+03  0.24885631361E+03  0.00000000000E+00 0. -1.
         -3    1    6    6    0  503 -0.86217145912E+02  0.10058255106E+04 -0.69059096862E+03  0.12231247851E+04  0.00000000000E+00 0.  1.
<mgrwt>
<rscale>  0 0.36671666E+04</rscale>
<asrwt>0</asrwt>
<pdfrwt beam="1">  1        2 0.23556476E+00 0.36671666E+04</pdfrwt>
<pdfrwt beam="2">  1       -1 0.33780360E+00 0.36671666E+04</pdfrwt>
<totfact> 0.21038488E-01</totfact>
</mgrwt>
</event>
<event>
12    7  0.1605494E-007  0.1288818E+04  0.7818608E-02  0.9038480E-01
         -1   -1    0    0    0  501 -0.00000000000E+00  0.00000000000E+00  0.32494120032E+03  0.32494120032E+03  0.00000000000E+00 0.  1.
          2   -1    0    0  501    0  0.00000000000E+00 -0.00000000000E+00 -0.12779630026E+04  0.12779630026E+04  0.00000000000E+00 0. -1.
         24    2    1    2    0    0 -0.83004380324E+02  0.22321543091E+03 -0.51862232954E+03  0.57611717898E+03  0.78911516717E+02 0.  0.
        254    2    1    2    0    0  0.83004380324E+02 -0.22321543091E+03 -0.43439947273E+03  0.10267870239E+04  0.89937413507E+03 0.  0.
         23    2    4    4    0    0  0.40369800070E+03 -0.37827736281E+03 -0.23553526829E+03  0.60882586169E+03  0.95531294754E+02 0.  0.
         23    2    4    4    0    0 -0.32069362037E+03  0.15506193190E+03 -0.19886420444E+03  0.41796116223E+03  0.90862315904E+02 0.  0.
          4    1    3    3  502    0 -0.34504621101E+02  0.90274779860E+02 -0.30441051253E+03  0.31938357017E+03  0.00000000000E+00 0. -1.
         -3    1    3    3    0  502 -0.48499759223E+02  0.13294065105E+03 -0.21421181701E+03  0.25673360881E+03  0.00000000000E+00 0.  1.
         13    1    5    5    0    0  0.38818632412E+03 -0.37634001133E+03 -0.24142583473E+03  0.59212064652E+03  0.00000000000E+00 0. -1.
        -13    1    5    5    0    0  0.15511676575E+02 -0.19373514804E+01  0.58905664405E+01  0.16705215171E+02  0.00000000000E+00 0.  1.
          4    1    6    6  503    0 -0.26587770069E+03  0.16350338277E+03 -0.17073971728E+03  0.35577571440E+03  0.00000000000E+00 0. -1.
         -4    1    6    6    0  503 -0.54815919686E+02 -0.84414508679E+01 -0.28124487155E+02  0.62185447827E+02  0.00000000000E+00 0.  1.
<mgrwt>
<rscale>  0 0.12888178E+04</rscale>
<asrwt>0</asrwt>
<pdfrwt beam="1">  1        2 0.19660969E+00 0.12888178E+04</pdfrwt>
<pdfrwt beam="2">  1       -1 0.49990954E-01 0.12888178E+04</pdfrwt>
<totfact> 0.76439137E+01</totfact>
</mgrwt>
</event>
<event>
12    7  0.2199118E-007  0.1959540E+04  0.7818608E-02  0.8625774E-01
         -1   -1    0    0    0  501 -0.00000000000E+00  0.00000000000E+00  0.74965450788E+03  0.74965450788E+03  0.00000000000E+00 0.  1.
          2   -1    0    0  501    0  0.00000000000E+00 -0.00000000000E+00 -0.12805223104E+04  0.12805223104E+04  0.00000000000E+00 0. -1.
         24    2    1    2    0    0  0.31969876327E+02  0.69904016347E+03 -0.54804183053E+03  0.89373370092E+03  0.93439055127E+02 0.  0.
        254    2    1    2    0    0 -0.31969876327E+02 -0.69904016347E+03  0.17174027987E+02  0.11364431174E+04  0.89528140194E+03 0.  0.
         23    2    4    4    0    0 -0.37091103763E+03 -0.39649906088E+03 -0.24767906874E+03  0.60338216693E+03  0.89098906607E+02 0.  0.
         23    2    4    4    0    0  0.33894116130E+03 -0.30254110259E+03  0.26485309672E+03  0.53306095045E+03  0.87146913157E+02 0.  0.
          2    1    3    3  502    0 -0.49145553324E+01  0.59787806353E+03 -0.45327099209E+03  0.75029122611E+03  0.00000000000E+00 0. -1.
         -1    1    3    3    0  502  0.36884431659E+02  0.10116209994E+03 -0.94770838439E+02  0.14344247481E+03  0.00000000000E+00 0.  1.
         13    1    5    5    0    0 -0.59883354940E+02 -0.11926276531E+03 -0.55159153996E+02  0.14440275502E+03  0.00000000000E+00 0.  1.
        -13    1    5    5    0    0 -0.31102768269E+03 -0.27723629558E+03 -0.19251991474E+03  0.45897941191E+03  0.00000000000E+00 0. -1.
          4    1    6    6  503    0  0.27633510276E+03 -0.28166815310E+03  0.24362839184E+03  0.46373789019E+03  0.00000000000E+00 0. -1.
         -4    1    6    6    0  503  0.62606058543E+02 -0.20872949489E+02  0.21224704880E+02  0.69323060260E+02  0.00000000000E+00 0.  1.
<mgrwt>
<rscale>  0 0.19595401E+04</rscale>
<asrwt>0</asrwt>
<pdfrwt beam="1">  1        2 0.19700343E+00 0.19595401E+04</pdfrwt>
<pdfrwt beam="2">  1       -1 0.11533146E+00 0.19595401E+04</pdfrwt>
<totfact> 0.12293295E+01</totfact>
</mgrwt>
</event>
<event>
12    7  0.1605494E-007  0.1615577E+04  0.7818608E-02  0.8811035E-01
         -1   -1    0    0    0  501 -0.00000000000E+00  0.00000000000E+00  0.31218873404E+03  0.31218873404E+03  0.00000000000E+00 0.  1.
          2   -1    0    0  501    0  0.00000000000E+00 -0.00000000000E+00 -0.20901529067E+04  0.20901529067E+04  0.00000000000E+00 0. -1.
         24    2    1    2    0    0 -0.37561814091E+03 -0.38517958236E+03 -0.38547814924E+03  0.66661126763E+03  0.79529115073E+02 0.  0.
        254    2    1    2    0    0  0.37561814091E+03  0.38517958236E+03 -0.13924860234E+04  0.17357303731E+04  0.88560166229E+03 0.  0.
         23    2    4    4    0    0  0.61308925722E+03  0.10656759294E+03 -0.65934512744E+03  0.91124804185E+03  0.91661919551E+02 0.  0.
         23    2    4    4    0    0 -0.23747111632E+03  0.27861198942E+03 -0.73314089596E+03  0.82448233124E+03  0.90875571349E+02 0.  0.
          2    1    3    3  502    0 -0.26153366368E+03 -0.27155377231E+03 -0.31310712857E+03  0.49007895532E+03  0.00000000000E+00 0. -1.
         -1    1    3    3    0  502 -0.11408447723E+03 -0.11362581005E+03 -0.72371020668E+02  0.17653231231E+03  0.00000000000E+00 0.  1.
         13    1    5    5    0    0  0.47419229440E+03  0.46702966159E+02 -0.52448366977E+03  0.70860610989E+03  0.00000000000E+00 0. -1.
        -13    1    5    5    0    0  0.13889696282E+03  0.59864626780E+02 -0.13486145767E+03  0.20264193195E+03  0.00000000000E+00 0.  1.
          1    1    6    6  503    0 -0.14415990128E+03  0.15496358797E+03 -0.32405304155E+03  0.38704801313E+03  0.00000000000E+00 0. -1.
         -1    1    6    6    0  503 -0.93311215035E+02  0.12364840146E+03 -0.40908785441E+03  0.43743431811E+03  0.00000000000E+00 0.  1.
<mgrwt>
<rscale>  0 0.16155769E+04</rscale>
<asrwt>0</asrwt>
<pdfrwt beam="1">  1        2 0.32156198E+00 0.16155769E+04</pdfrwt>
<pdfrwt beam="2">  1       -1 0.48029036E-01 0.16155769E+04</pdfrwt>
<totfact> 0.28137068E+01</totfact>
</mgrwt>
</event>
<event>
12    7  0.1605494E-007  0.1790824E+04  0.7818608E-02  0.8711194E-01
          2   -1    0    0  501    0  0.00000000000E+00  0.00000000000E+00  0.19118063551E+04  0.19118063551E+04  0.00000000000E+00 0. -1.
         -1   -1    0    0    0  501 -0.00000000000E+00 -0.00000000000E+00 -0.41937444767E+03  0.41937444767E+03  0.00000000000E+00 0.  1.
         24    2    1    2    0    0  0.33274440429E+03 -0.38313112874E+03  0.11561761875E+04  0.12651257003E+04  0.79318098706E+02 0.  0.
        254    2    1    2    0    0 -0.33274440429E+03  0.38313112874E+03  0.33625571999E+03  0.10660551025E+04  0.87515557009E+03 0.  0.
         23    2    4    4    0    0 -0.60305294540E+03  0.36313978973E+03  0.32225996466E+03  0.77947449039E+03  0.90474496477E+02 0.  0.
         23    2    4    4    0    0  0.27030854111E+03  0.19991339017E+02  0.13995755329E+02  0.28658061206E+03  0.92011982973E+02 0.  0.
          4    1    3    3  502    0  0.31367092652E+03 -0.36770122688E+03  0.11311564272E+04  0.12300847553E+04  0.00000000000E+00 0. -1.
         -3    1    3    3    0  502  0.19073477767E+02 -0.15429901859E+02  0.25019760242E+02  0.35040945023E+02  0.00000000000E+00 0.  1.
         13    1    5    5    0    0 -0.59519913678E+03  0.35733252819E+03  0.32835420903E+03  0.76796161018E+03  0.00000000000E+00 0.  1.
        -13    1    5    5    0    0 -0.78538086246E+01  0.58072615315E+01 -0.60942443667E+01  0.11512880213E+02  0.00000000000E+00 0. -1.
          3    1    6    6  503    0  0.24565773158E+03  0.21283642956E+02  0.41034160404E+02  0.24996903180E+03  0.00000000000E+00 0. -1.
         -3    1    6    6    0  503  0.24650809533E+02 -0.12923039389E+01 -0.27038405075E+02  0.36611580259E+02  0.00000000000E+00 0.  1.
<mgrwt>
<rscale>  0 0.17908241E+04</rscale>
<asrwt>0</asrwt>
<pdfrwt beam="1">  1        2 0.29412405E+00 0.17908241E+04</pdfrwt>
<pdfrwt beam="2">  1       -1 0.64519147E-01 0.17908241E+04</pdfrwt>
<totfact> 0.19603779E+01</totfact>
</mgrwt>
</event>
<event>
12    7  0.1605494E-007  0.1443833E+04  0.7818608E-02  0.8922687E-01
         -1   -1    0    0    0  501 -0.00000000000E+00  0.00000000000E+00  0.12250123280E+04  0.12250123280E+04  0.00000000000E+00 0.  1.
          2   -1    0    0  501    0  0.00000000000E+00 -0.00000000000E+00 -0.42543538952E+03  0.42543538952E+03  0.00000000000E+00 0. -1.
         24    2    1    2    0    0  0.53893065684E+02  0.42915308984E+03  0.27063290036E+03  0.51607753579E+03  0.77569447231E+02 0.  0.
        254    2    1    2    0    0 -0.53893065684E+02 -0.42915308984E+03  0.52894403815E+03  0.11343701818E+04  0.90550376959E+03 0.  0.
         23    2    4    4    0    0  0.72803197558E+02 -0.20194431671E+03 -0.22941597039E+03  0.32707020520E+03  0.90892348625E+02 0.  0.
         23    2    4    4    0    0 -0.12669626324E+03 -0.22720877313E+03  0.75836000854E+03  0.80729997656E+03  0.94591648189E+02 0.  0.
          2    1    3    3  502    0  0.24915296185E+02  0.31653649934E+03  0.23307298218E+03  0.39387706511E+03  0.00000000000E+00 0. -1.
         -1    1    3    3    0  502  0.28977769500E+02  0.11261659050E+03  0.37559918183E+02  0.12220047068E+03  0.00000000000E+00 0.  1.
         13    1    5    5    0    0 -0.18298169870E+02 -0.31903127478E+02 -0.59768931046E+02  0.70178042733E+02  0.00000000000E+00 0.  1.
        -13    1    5    5    0    0  0.91101367428E+02 -0.17004118923E+03 -0.16964703934E+03  0.25689216247E+03  0.00000000000E+00 0. -1.
          3    1    6    6  503    0 -0.86152231268E+02 -0.21089042926E+03  0.56786866931E+03  0.61185930221E+03  0.00000000000E+00 0.  1.
         -3    1    6    6    0  503 -0.40544031974E+02 -0.16318343868E+02  0.19049133922E+03  0.19544067436E+03  0.00000000000E+00 0. -1.
<mgrwt>
<rscale>  0 0.14438332E+04</rscale>
<asrwt>0</asrwt>
<pdfrwt beam="1">  1        2 0.65451599E-01 0.14438332E+04</pdfrwt>
<pdfrwt beam="2">  1       -1 0.18846343E+00 0.14438332E+04</pdfrwt>
<totfact> 0.14906424E+01</totfact>
</mgrwt>
</event>
<event>
12    7  0.1605494E-007  0.1417659E+04  0.7818608E-02  0.8941134E-01
         -1   -1    0    0    0  501 -0.00000000000E+00  0.00000000000E+00  0.37970805613E+03  0.37970805613E+03  0.00000000000E+00 0.  1.
          2   -1    0    0  501    0  0.00000000000E+00 -0.00000000000E+00 -0.13232259877E+04  0.13232259877E+04  0.00000000000E+00 0. -1.
         24    2    1    2    0    0 -0.35628494609E+03  0.23980676416E+03 -0.24556775254E+03  0.50122491803E+03  0.80477639237E+02 0.  0.
        254    2    1    2    0    0  0.35628494609E+03 -0.23980676416E+03 -0.69795017907E+03  0.12017091258E+04  0.87893351497E+03 0.  0.
         23    2    4    4    0    0  0.40511899456E+03  0.22595487907E+03 -0.49217499370E+03  0.68262505512E+03  0.92540446989E+02 0.  0.
         23    2    4    4    0    0 -0.48834048473E+02 -0.46576164323E+03 -0.20577518537E+03  0.51908407073E+03  0.88239293806E+02 0.  0.
          2    1    3    3  502    0 -0.18849566280E+03  0.89939642098E+02 -0.14815933442E+03  0.25606823796E+03  0.00000000000E+00 0. -1.
         -1    1    3    3    0  502 -0.16778928329E+03  0.14986712207E+03 -0.97408418124E+02  0.24515668007E+03  0.00000000000E+00 0.  1.
         13    1    5    5    0    0  0.29528777529E+03  0.20085590259E+03 -0.33833926262E+03  0.49194656262E+03  0.00000000000E+00 0. -1.
        -13    1    5    5    0    0  0.10983121927E+03  0.25098976474E+02 -0.15383573108E+03  0.19067849250E+03  0.00000000000E+00 0.  1.
          2    1    6    6  503    0 -0.38884699866E+02 -0.40702391670E+03 -0.20944009176E+03  0.45939704036E+03  0.00000000000E+00 0. -1.
         -2    1    6    6    0  503 -0.99493486069E+01 -0.58737726529E+02  0.36649063898E+01  0.59687030370E+02  0.00000000000E+00 0.  1.
<mgrwt>
<rscale>  0 0.14176594E+04</rscale>
<asrwt>0</asrwt>
<pdfrwt beam="1">  1        2 0.20357323E+00 0.14176594E+04</pdfrwt>
<pdfrwt beam="2">  1       -1 0.58416623E-01 0.14176594E+04</pdfrwt>
<totfact> 0.52720351E+01</totfact>
</mgrwt>
</event>
<event>
12    7  0.1605494E-007  0.1988949E+04  0.7818608E-02  0.8611805E-01
          2   -1    0    0  501    0  0.00000000000E+00  0.00000000000E+00  0.11491021121E+04  0.11491021121E+04  0.00000000000E+00 0. -1.
         -1   -1    0    0    0  501 -0.00000000000E+00 -0.00000000000E+00 -0.86065434186E+03  0.86065434186E+03  0.00000000000E+00 0.  1.
         24    2    1    2    0    0  0.25697448591E+03 -0.39059368147E+03  0.74704296475E+03  0.88494395767E+03  0.80332475493E+02 0.  0.
        254    2    1    2    0    0 -0.25697448591E+03  0.39059368147E+03 -0.45859519447E+03  0.11248124963E+04  0.91449127337E+03 0.  0.
         23    2    4    4    0    0  0.29970254101E+03  0.15073113647E+03 -0.36231074836E+03  0.50442149771E+03  0.10310422098E+03 0.  0.
         23    2    4    4    0    0 -0.55667702692E+03  0.23986254500E+03 -0.96284446110E+02  0.62039099861E+03  0.90503833099E+02 0.  0.
          2    1    3    3  502    0  0.21045265603E+03 -0.31287143787E+03  0.53659912826E+03  0.65583342513E+03  0.00000000000E+00 0. -1.
         -1    1    3    3    0  502  0.46521829886E+02 -0.77722243606E+02  0.21044383648E+03  0.22911053254E+03  0.00000000000E+00 0.  1.
         13    1    5    5    0    0  0.30039989494E+03  0.12735285706E+03 -0.34783706951E+03  0.47691663213E+03  0.00000000000E+00 0.  1.
        -13    1    5    5    0    0 -0.69735393001E+00  0.23378279416E+02 -0.14473678852E+02  0.27504865578E+02  0.00000000000E+00 0. -1.
          1    1    6    6  503    0 -0.10070735281E+03  0.82957003132E+02 -0.26798082867E+02  0.13319899595E+03  0.00000000000E+00 0. -1.
         -1    1    6    6    0  503 -0.45596967411E+03  0.15690554187E+03 -0.69486363243E+02  0.48719200266E+03  0.00000000000E+00 0.  1.
<mgrwt>
<rscale>  0 0.19889492E+04</rscale>
<asrwt>0</asrwt>
<pdfrwt beam="1">  1        2 0.17678494E+00 0.19889492E+04</pdfrwt>
<pdfrwt beam="2">  1       -1 0.13240836E+00 0.19889492E+04</pdfrwt>
<totfact> 0.10434642E+01</totfact>
</mgrwt>
</event>
<event>
12    7  0.1605494E-007  0.2207668E+04  0.7818608E-02  0.8515243E-01
         -3   -1    0    0    0  501 -0.00000000000E+00  0.00000000000E+00  0.29302325541E+03  0.29302325541E+03  0.00000000000E+00 0.  1.
          2   -1    0    0  501    0  0.00000000000E+00 -0.00000000000E+00 -0.41581999503E+04  0.41581999503E+04  0.00000000000E+00 0. -1.
         24    2    1    2    0    0 -0.82861616494E+03  0.11507312787E+03 -0.85174397894E+03  0.11964085274E+04  0.77967847363E+02 0.  0.
        254    2    1    2    0    0  0.82861616494E+03 -0.11507312787E+03 -0.30134327160E+04  0.32548146783E+04  0.90177340999E+03 0.  0.
         23    2    4    4    0    0  0.63364381715E+03 -0.98194680226E+02 -0.79124941779E+03  0.10221194685E+04  0.86636507633E+02 0.  0.
         23    2    4    4    0    0  0.19497234780E+03 -0.16878447642E+02 -0.22221832982E+04  0.22326952098E+04  0.92359032774E+02 0.  0.
          4    1    3    3  502    0 -0.11503472813E+03 -0.24577500364E+01 -0.14634800740E+03  0.18616328446E+03  0.00000000000E+00 0. -1.
         -1    1    3    3    0  502 -0.71358143682E+03  0.11753087790E+03 -0.70539597155E+03  0.10102452430E+04  0.00000000000E+00 0.  1.
         13    1    5    5    0    0  0.49051430218E+03 -0.73157149528E+02 -0.55076433691E+03  0.74114614212E+03  0.00000000000E+00 0.  1.
        -13    1    5    5    0    0  0.14312951497E+03 -0.25037530697E+02 -0.24048508088E+03  0.28097332636E+03  0.00000000000E+00 0. -1.
          4    1    6    6  503    0  0.27750715224E+02 -0.10594848333E+02 -0.11150479626E+03  0.11539355526E+03  0.00000000000E+00 0. -1.
         -4    1    6    6    0  503  0.16722163257E+03 -0.62835993081E+01 -0.21106785019E+04  0.21173016546E+04  0.00000000000E+00 0.  1.
<mgrwt>
<rscale>  0 0.22076678E+04</rscale>
<asrwt>0</asrwt>
<pdfrwt beam="1">  1        2 0.63972309E+00 0.22076678E+04</pdfrwt>
<pdfrwt beam="2">  1       -3 0.45080499E-01 0.22076678E+04</pdfrwt>
<totfact> 0.73882858E-01</totfact>
</mgrwt>
</event>
<event>
12    7  0.1605494E-007  0.2308797E+04  0.7818608E-02  0.8474461E-01
         -1   -1    0    0    0  501 -0.00000000000E+00  0.00000000000E+00  0.10755742210E+04  0.10755742210E+04  0.00000000000E+00 0.  1.
          2   -1    0    0  501    0  0.00000000000E+00 -0.00000000000E+00 -0.12389992415E+04  0.12389992415E+04  0.00000000000E+00 0. -1.
         24    2    1    2    0    0 -0.26863767935E+03 -0.41255578443E+03 -0.91113972271E+03  0.10389768665E+04  0.83239755216E+02 0.  0.
        254    2    1    2    0    0  0.26863767935E+03  0.41255578443E+03  0.74771470230E+03  0.12755965960E+04  0.90868086896E+03 0.  0.
         23    2    4    4    0    0  0.34135332970E+03  0.50071145223E+03  0.11163713384E+03  0.62305730902E+03  0.92214459714E+02 0.  0.
         23    2    4    4    0    0 -0.72715650350E+02 -0.88155667804E+02  0.63607756846E+03  0.65253928696E+03  0.90298728420E+02 0.  0.
          2    1    3    3  502    0 -0.31069306150E+02 -0.82996666489E+02 -0.22149134979E+03  0.23856270971E+03  0.00000000000E+00 0. -1.
         -1    1    3    3    0  502 -0.23756837320E+03 -0.32955911794E+03 -0.68964837292E+03  0.80041415682E+03  0.00000000000E+00 0.  1.
         13    1    5    5    0    0  0.15847488388E+03  0.24092650382E+03  0.66180996409E+01  0.28845046075E+03  0.00000000000E+00 0. -1.
        -13    1    5    5    0    0  0.18287844581E+03  0.25978494841E+03  0.10501903420E+03  0.33460684827E+03  0.00000000000E+00 0.  1.
          1    1    6    6  503    0  0.20464934506E+02 -0.22872642804E+02  0.17214346771E+03  0.17485807047E+03  0.00000000000E+00 0. -1.
         -1    1    6    6    0  503 -0.93180584856E+02 -0.65283025000E+02  0.46393410075E+03  0.47768121649E+03  0.00000000000E+00 0.  1.
<mgrwt>
<rscale>  0 0.23087968E+04</rscale>
<asrwt>0</asrwt>
<pdfrwt beam="1">  1        2 0.19061527E+00 0.23087968E+04</pdfrwt>
<pdfrwt beam="2">  1       -1 0.16547296E+00 0.23087968E+04</pdfrwt>
<totfact> 0.49285112E+00</totfact>
</mgrwt>
</event>
<event>
12    7  0.1605494E-007  0.2609498E+04  0.7818608E-02  0.8364982E-01
         -1   -1    0    0    0  501 -0.00000000000E+00  0.00000000000E+00  0.12765284263E+04  0.12765284263E+04  0.00000000000E+00 0.  1.
          2   -1    0    0  501    0  0.00000000000E+00 -0.00000000000E+00 -0.13335933773E+04  0.13335933773E+04  0.00000000000E+00 0. -1.
         24    2    1    2    0    0  0.14396133704E+03  0.85168236704E+03 -0.79043941953E+03  0.11735899668E+04  0.80194845347E+02 0.  0.
        254    2    1    2    0    0 -0.14396133704E+03 -0.85168236704E+03  0.73337446848E+03  0.14365318368E+04  0.88300503184E+03 0.  0.
         23    2    4    4    0    0  0.20500204451E+03 -0.65379053663E+03  0.12635740043E+03  0.70252451345E+03  0.90036633237E+02 0.  0.
         23    2    4    4    0    0 -0.34896338156E+03 -0.19789183042E+03  0.60701706805E+03  0.73400732335E+03  0.96749220267E+02 0.  0.
          2    1    3    3  502    0  0.13182580839E+03  0.71252710146E+03 -0.69778407433E+03  0.10059699441E+04  0.00000000000E+00 0. -1.
         -1    1    3    3    0  502  0.12135528652E+02  0.13915526558E+03 -0.92655345199E+02  0.16762002263E+03  0.00000000000E+00 0.  1.
         13    1    5    5    0    0  0.19916009453E+03 -0.62129119564E+03  0.13916227419E+03  0.66710841067E+03  0.00000000000E+00 0. -1.
        -13    1    5    5    0    0  0.58419499837E+01 -0.32499340986E+02 -0.12804873762E+02  0.35416102781E+02  0.00000000000E+00 0.  1.
          1    1    6    6  503    0 -0.35542761786E+03 -0.19609035949E+03  0.59600771693E+03  0.72111401267E+03  0.00000000000E+00 0. -1.
         -1    1    6    6    0  503  0.64642363031E+01 -0.18014709310E+01  0.11009351117E+02  0.12893310688E+02  0.00000000000E+00 0.  1.
<mgrwt>
<rscale>  0 0.26094979E+04</rscale>
<asrwt>0</asrwt>
<pdfrwt beam="1">  1        2 0.20516821E+00 0.26094979E+04</pdfrwt>
<pdfrwt beam="2">  1       -1 0.19638899E+00 0.26094979E+04</pdfrwt>
<totfact> 0.25372414E+00</totfact>
</mgrwt>
</event>
<event>
12    7  0.2371314E-007  0.1384120E+04  0.7818608E-02  0.8965394E-01
         -1   -1    0    0    0  501 -0.00000000000E+00  0.00000000000E+00  0.31560129916E+03  0.31560129916E+03  0.00000000000E+00 0.  1.
          2   -1    0    0  501    0  0.00000000000E+00 -0.00000000000E+00 -0.15175706054E+04  0.15175706054E+04  0.00000000000E+00 0. -1.
         24    2    1    2    0    0 -0.14943800764E+03 -0.14044524762E+03  0.99419424420E+02  0.24106749713E+03  0.78566726487E+02 0.  0.
        254    2    1    2    0    0  0.14943800764E+03  0.14044524762E+03 -0.13013887307E+04  0.15921044075E+04  0.89393916470E+03 0.  0.
         23    2    4    4    0    0 -0.23405415650E+03  0.24785058252E+03 -0.17498922228E+03  0.39398437019E+03  0.91603474871E+02 0.  0.
         23    2    4    4    0    0  0.38349216414E+03 -0.10740533490E+03 -0.11263995084E+04  0.11981200373E+04  0.90075664033E+02 0.  0.
          4    1    3    3  502    0 -0.20487805801E+02 -0.75614122709E+01 -0.12046107113E+02  0.24940606221E+02  0.00000000000E+00 0. -1.
         -3    1    3    3    0  502 -0.12895020184E+03 -0.13288383535E+03  0.11146553153E+03  0.21612689090E+03  0.00000000000E+00 0.  1.
         13    1    5    5    0    0 -0.25564759171E+01  0.44886764798E+02 -0.26297791768E+02  0.52085804928E+02  0.00000000000E+00 0.  1.
        -13    1    5    5    0    0 -0.23149768058E+03  0.20296381772E+03 -0.14869143051E+03  0.34189856526E+03  0.00000000000E+00 0. -1.
          4    1    6    6  503    0  0.18942710910E+02 -0.10536202589E+02 -0.21179252836E+02  0.30305092184E+02  0.00000000000E+00 0.  1.
         -4    1    6    6    0  503  0.36454945323E+03 -0.96869132307E+02 -0.11052202556E+04  0.11678149451E+04  0.00000000000E+00 0. -1.
<mgrwt>
<rscale>  0 0.13841203E+04</rscale>
<asrwt>0</asrwt>
<pdfrwt beam="1">  1        2 0.23347241E+00 0.13841203E+04</pdfrwt>
<pdfrwt beam="2">  1       -1 0.48554045E-01 0.13841203E+04</pdfrwt>
<totfact> 0.58458492E+01</totfact>
</mgrwt>
</event>
<event>
12    7  0.1605494E-007  0.1882950E+04  0.7818608E-02  0.8663390E-01
          2   -1    0    0  501    0  0.00000000000E+00  0.00000000000E+00  0.10299471876E+04  0.10299471876E+04  0.00000000000E+00 0. -1.
         -1   -1    0    0    0  501 -0.00000000000E+00 -0.00000000000E+00 -0.86060272057E+03  0.86060272057E+03  0.00000000000E+00 0.  1.
         24    2    1    2    0    0  0.98590810325E+02  0.28183705859E+03 -0.59975372477E+03  0.67462456115E+03  0.79129594040E+02 0.  0.
        254    2    1    2    0    0 -0.98590810325E+02 -0.28183705859E+03  0.76909819182E+03  0.12159253470E+04  0.89320218621E+03 0.  0.
         23    2    4    4    0    0  0.20338583404E+03  0.17688937441E+03  0.54694358300E+03  0.61674837046E+03  0.92604650016E+02 0.  0.
         23    2    4    4    0    0 -0.30197664436E+03 -0.45872643300E+03  0.22215460882E+03  0.59917697659E+03  0.89669085983E+02 0.  0.
          4    1    3    3  502    0  0.33591700574E+02  0.12487084091E+03 -0.34480945361E+03  0.36825899657E+03  0.00000000000E+00 0. -1.
         -3    1    3    3    0  502  0.64999109751E+02  0.15696621767E+03 -0.25494427116E+03  0.30636556457E+03  0.00000000000E+00 0.  1.
         13    1    5    5    0    0  0.18622439793E+03  0.11234952415E+03  0.39887515766E+03  0.45431633622E+03  0.00000000000E+00 0. -1.
        -13    1    5    5    0    0  0.17161436108E+02  0.64539850264E+02  0.14806842535E+03  0.16243203424E+03  0.00000000000E+00 0.  1.
          2    1    6    6  503    0 -0.23922730079E+03 -0.41413914272E+03  0.17723642316E+03  0.51005262540E+03  0.00000000000E+00 0. -1.
         -2    1    6    6    0  503 -0.62749343570E+02 -0.44587290279E+02  0.44918185654E+02  0.89124351192E+02  0.00000000000E+00 0.  1.
<mgrwt>
<rscale>  0 0.18829502E+04</rscale>
<asrwt>0</asrwt>
<pdfrwt beam="1">  1        2 0.15845341E+00 0.18829502E+04</pdfrwt>
<pdfrwt beam="2">  1       -1 0.13240042E+00 0.18829502E+04</pdfrwt>
<totfact> 0.12484343E+01</totfact>
</mgrwt>
</event>
<event>
12    7  0.1605494E-007  0.1276099E+04  0.7818608E-02  0.9048737E-01
          2   -1    0    0  501    0  0.00000000000E+00  0.00000000000E+00  0.71178416654E+03  0.71178416654E+03  0.00000000000E+00 0. -1.
         -1   -1    0    0    0  501 -0.00000000000E+00 -0.00000000000E+00 -0.57195306673E+03  0.57195306673E+03  0.00000000000E+00 0.  1.
         24    2    1    2    0    0  0.86785311317E+02  0.16981690153E+03  0.28365462223E+03  0.35101349779E+03  0.79881541142E+02 0.  0.
        254    2    1    2    0    0 -0.86785311317E+02 -0.16981690153E+03 -0.14382352242E+03  0.93272373548E+03  0.90162014775E+03 0.  0.
         23    2    4    4    0    0 -0.25656746651E+03 -0.12395662586E+03 -0.46614383962E+03  0.55452614103E+03  0.94958158744E+02 0.  0.
         23    2    4    4    0    0  0.16978215519E+03 -0.45860275661E+02  0.32232031719E+03  0.37819759445E+03  0.90630505159E+02 0.  0.
          2    1    3    3  502    0  0.59514788889E+02  0.13593143572E+03  0.15226888901E+03  0.21261509794E+03  0.00000000000E+00 0. -1.
         -1    1    3    3    0  502  0.27270522428E+02  0.33885465803E+02  0.13138573322E+03  0.13839839985E+03  0.00000000000E+00 0.  1.
         13    1    5    5    0    0 -0.21515333593E+03 -0.12762349819E+03 -0.43772772767E+03  0.50416691564E+03  0.00000000000E+00 0. -1.
        -13    1    5    5    0    0 -0.41414130580E+02  0.36668723286E+01 -0.28416111943E+02  0.50359225394E+02  0.00000000000E+00 0.  1.
          4    1    6    6  503    0  0.16085374441E+03 -0.17618386970E+02  0.30087820286E+03  0.34163142069E+03  0.00000000000E+00 0. -1.
         -4    1    6    6    0  503  0.89284107856E+01 -0.28241888690E+02  0.21442114333E+02  0.36566173754E+02  0.00000000000E+00 0.  1.
<mgrwt>
<rscale>  0 0.12760990E+04</rscale>
<asrwt>0</asrwt>
<pdfrwt beam="1">  1        2 0.10950526E+00 0.12760990E+04</pdfrwt>
<pdfrwt beam="2">  1       -1 0.87992779E-01 0.12760990E+04</pdfrwt>
<totfact> 0.57127817E+01</totfact>
</mgrwt>
</event>
<event>
12    7  0.1605494E-007  0.1589225E+04  0.7818608E-02  0.8827195E-01
          2   -1    0    0  501    0  0.00000000000E+00  0.00000000000E+00  0.21019551799E+04  0.21019551799E+04  0.00000000000E+00 0. -1.
         -1   -1    0    0    0  501 -0.00000000000E+00 -0.00000000000E+00 -0.30039129219E+03  0.30039129219E+03  0.00000000000E+00 0.  1.
         24    2    1    2    0    0  0.36608248060E+03 -0.33870546878E+03  0.92438271934E+03  0.10534073585E+04  0.80286199899E+02 0.  0.
        254    2    1    2    0    0 -0.36608248060E+03  0.33870546878E+03  0.87718116834E+03  0.13489391136E+04  0.89523860108E+03 0.  0.
         23    2    4    4    0    0  0.52975709997E+02  0.49476297721E+03  0.68943863544E+03  0.85530610001E+03  0.92876602022E+02 0.  0.
         23    2    4    4    0    0 -0.41905819060E+03 -0.15605750843E+03  0.18774253289E+03  0.49363301357E+03  0.91992284369E+02 0.  0.
          2    1    3    3  502    0  0.30021193308E+03 -0.24840819556E+03  0.76790957738E+03  0.86111494901E+03  0.00000000000E+00 0. -1.
         -1    1    3    3    0  502  0.65870547523E+02 -0.90297273224E+02  0.15647314196E+03  0.19229240947E+03  0.00000000000E+00 0.  1.
         13    1    5    5    0    0  0.56010732157E+02  0.47196696949E+03  0.68173065671E+03  0.83105156922E+03  0.00000000000E+00 0. -1.
        -13    1    5    5    0    0 -0.30350221606E+01  0.22796007725E+02  0.77079787326E+01  0.24254530790E+02  0.00000000000E+00 0.  1.
          2    1    6    6  503    0 -0.41104093659E+03 -0.16504993705E+03  0.17545508349E+03  0.47642483100E+03  0.00000000000E+00 0. -1.
         -2    1    6    6    0  503 -0.80172540089E+01  0.89924286236E+01  0.12287449404E+02  0.17208182567E+02  0.00000000000E+00 0.  1.
<mgrwt>
<rscale>  0 0.15892250E+04</rscale>
<asrwt>0</asrwt>
<pdfrwt beam="1">  1        2 0.32337771E+00 0.15892250E+04</pdfrwt>
<pdfrwt beam="2">  1       -1 0.46214046E-01 0.15892250E+04</pdfrwt>
<totfact> 0.29863685E+01</totfact>
</mgrwt>
</event>
<event>
12    7  0.1605494E-007  0.2727608E+04  0.7818608E-02  0.8326102E-01
          2   -1    0    0  501    0  0.00000000000E+00  0.00000000000E+00  0.23637549414E+04  0.23637549414E+04  0.00000000000E+00 0. -1.
         -1   -1    0    0    0  501 -0.00000000000E+00 -0.00000000000E+00 -0.78686703166E+03  0.78686703166E+03  0.00000000000E+00 0.  1.
         24    2    1    2    0    0 -0.74915165602E+03  0.39244151659E+03  0.17110041830E+04  0.19103060714E+04  0.80594196718E+02 0.  0.
        254    2    1    2    0    0  0.74915165602E+03 -0.39244151659E+03 -0.13411627323E+03  0.12403159017E+04  0.89730586399E+03 0.  0.
         23    2    4    4    0    0  0.58069232929E+03 -0.62248227324E+03 -0.28865220463E+03  0.90337878909E+03  0.89918738525E+02 0.  0.
         23    2    4    4    0    0  0.16845932673E+03  0.23004075666E+03  0.15453593140E+03  0.33693711259E+03  0.91367222044E+02 0.  0.
          4    1    3    3  502    0 -0.65181652957E+03  0.32013690137E+03  0.15103679705E+04  0.16758770332E+04  0.00000000000E+00 0. -1.
         -3    1    3    3    0  502 -0.97335126449E+02  0.72304615212E+02  0.20063621247E+03  0.23442903825E+03  0.00000000000E+00 0.  1.
         13    1    5    5    0    0  0.18377634117E+02 -0.51196525568E+02 -0.20033775427E+02  0.57967006338E+02  0.00000000000E+00 0. -1.
        -13    1    5    5    0    0  0.56231469518E+03 -0.57128574767E+03 -0.26861842920E+03  0.84541178275E+03  0.00000000000E+00 0.  1.
          2    1    6    6  503    0  0.57601897032E+02  0.40074979723E+02  0.37575713574E+01  0.70271629297E+02  0.00000000000E+00 0. -1.
         -2    1    6    6    0  503  0.11085742969E+03  0.18996577693E+03  0.15077836004E+03  0.26666548329E+03  0.00000000000E+00 0.  1.
<mgrwt>
<rscale>  0 0.27276076E+04</rscale>
<asrwt>0</asrwt>
<pdfrwt beam="1">  1        2 0.36365460E+00 0.27276076E+04</pdfrwt>
<pdfrwt beam="2">  1       -1 0.12105647E+00 0.27276076E+04</pdfrwt>
<totfact> 0.25142707E+00</totfact>
</mgrwt>
</event>
<event>
12    7  0.1605494E-007  0.2390218E+04  0.7818608E-02  0.8443175E-01
          2   -1    0    0  501    0  0.00000000000E+00  0.00000000000E+00  0.12900089628E+04  0.12900089628E+04  0.00000000000E+00 0. -1.
         -1   -1    0    0    0  501 -0.00000000000E+00 -0.00000000000E+00 -0.11071906546E+04  0.11071906546E+04  0.00000000000E+00 0.  1.
         24    2    1    2    0    0  0.22585520569E+03  0.80266624177E+03  0.67719218678E+03  0.10771783080E+04  0.80250730668E+02 0.  0.
        254    2    1    2    0    0 -0.22585520569E+03 -0.80266624177E+03 -0.49437387863E+03  0.13200213094E+04  0.89597268695E+03 0.  0.
         23    2    4    4    0    0 -0.21391269473E+03 -0.90405534395E+03 -0.14679523855E+03  0.94533935890E+03  0.95094455836E+02 0.  0.
         23    2    4    4    0    0 -0.11942510962E+02  0.10138910218E+03 -0.34757864008E+03  0.37468195049E+03  0.95672772387E+02 0.  0.
          2    1    3    3  502    0  0.87063701480E+02  0.33755344105E+03  0.33350656497E+03  0.48244071403E+03  0.00000000000E+00 0. -1.
         -1    1    3    3    0  502  0.13879150421E+03  0.46511280073E+03  0.34368562181E+03  0.59473759397E+03  0.00000000000E+00 0.  1.
         13    1    5    5    0    0 -0.13682260780E+03 -0.74074262365E+03 -0.11977194966E+03  0.76273545901E+03  0.00000000000E+00 0. -1.
        -13    1    5    5    0    0 -0.77090086925E+02 -0.16331272030E+03 -0.27023288887E+02  0.18260389989E+03  0.00000000000E+00 0.  1.
          1    1    6    6  503    0  0.34234859549E+02  0.83296837664E+02 -0.21302395506E+03  0.23127817493E+03  0.00000000000E+00 0.  1.
         -1    1    6    6    0  503 -0.46177370511E+02  0.18092264517E+02 -0.13455468502E+03  0.14340377556E+03  0.00000000000E+00 0. -1.
<mgrwt>
<rscale>  0 0.23902183E+04</rscale>
<asrwt>0</asrwt>
<pdfrwt beam="1">  1        2 0.19846292E+00 0.23902183E+04</pdfrwt>
<pdfrwt beam="2">  1       -1 0.17033702E+00 0.23902183E+04</pdfrwt>
<totfact> 0.42044134E+00</totfact>
</mgrwt>
</event>
<event>
12    7  0.1605494E-007  0.2393531E+04  0.7818608E-02  0.8441929E-01
         -1   -1    0    0    0  501 -0.00000000000E+00  0.00000000000E+00  0.37858663529E+03  0.37858663529E+03  0.00000000000E+00 0.  1.
          2   -1    0    0  501    0  0.00000000000E+00 -0.00000000000E+00 -0.37831445246E+04  0.37831445246E+04  0.00000000000E+00 0. -1.
         24    2    1    2    0    0  0.50202567959E+02 -0.10086503012E+04 -0.12833023898E+04  0.16349680438E+04  0.79748057859E+02 0.  0.
        254    2    1    2    0    0 -0.50202567959E+02  0.10086503012E+04 -0.21212554995E+04  0.25267631161E+04  0.93000603373E+03 0.  0.
         23    2    4    4    0    0 -0.47735223026E+03  0.50768808714E+03 -0.97416248561E+03  0.12011001215E+04  0.89647130533E+02 0.  0.
         23    2    4    4    0    0  0.42714966230E+03  0.50096221401E+03 -0.11470930139E+04  0.13256629946E+04  0.90222052337E+02 0.  0.
          2    1    3    3  502    0  0.33945592253E+02 -0.32540951374E+03 -0.46955086867E+03  0.57229509270E+03  0.00000000000E+00 0. -1.
         -1    1    3    3    0  502  0.16256975706E+02 -0.68324078741E+03 -0.81375152111E+03  0.10626729511E+04  0.00000000000E+00 0.  1.
         13    1    5    5    0    0 -0.11647151173E+03  0.18246628663E+03 -0.31740828297E+03  0.38419731506E+03  0.00000000000E+00 0. -1.
        -13    1    5    5    0    0 -0.36088071853E+03  0.32522180051E+03 -0.65675420264E+03  0.81690280647E+03  0.00000000000E+00 0.  1.
          4    1    6    6  503    0  0.11648143966E+03  0.18181235538E+03 -0.43727828487E+03  0.48768427981E+03  0.00000000000E+00 0. -1.
         -4    1    6    6    0  503  0.31066822264E+03  0.31914985863E+03 -0.70981472905E+03  0.83797871477E+03  0.00000000000E+00 0.  1.
<mgrwt>
<rscale>  0 0.23935312E+04</rscale>
<asrwt>0</asrwt>
<pdfrwt beam="1">  1        2 0.58202227E+00 0.23935312E+04</pdfrwt>
<pdfrwt beam="2">  1       -1 0.58244095E-01 0.23935312E+04</pdfrwt>
<totfact> 0.15513164E+00</totfact>
</mgrwt>
</event>
<event>
12    7  0.1605494E-007  0.3110776E+04  0.7818608E-02  0.8212787E-01
          2   -1    0    0  501    0  0.00000000000E+00  0.00000000000E+00  0.20410618823E+04  0.20410618823E+04  0.00000000000E+00 0. -1.
         -1   -1    0    0    0  501 -0.00000000000E+00 -0.00000000000E+00 -0.11852811756E+04  0.11852811756E+04  0.00000000000E+00 0.  1.
         24    2    1    2    0    0  0.32339382412E+03 -0.12909471343E+04  0.92070341918E+03  0.16202759019E+04  0.80443416264E+02 0.  0.
        254    2    1    2    0    0 -0.32339382412E+03  0.12909471343E+04 -0.64922712458E+02  0.16060671559E+04  0.89672107252E+03 0.  0.
         23    2    4    4    0    0 -0.37510771466E+03  0.88835412240E+02 -0.52288318874E+02  0.39932519427E+03  0.90161047129E+02 0.  0.
         23    2    4    4    0    0  0.51713890547E+02  0.12021117220E+04 -0.12634393584E+02  0.12067419617E+04  0.91211926288E+02 0.  0.
          2    1    3    3  502    0  0.24402896299E+03 -0.99159996483E+03  0.74659211445E+03  0.12649981859E+04  0.00000000000E+00 0. -1.
         -1    1    3    3    0  502  0.79364861132E+02 -0.29934716942E+03  0.17411130473E+03  0.35527771596E+03  0.00000000000E+00 0.  1.
         13    1    5    5    0    0 -0.65080351921E+02 -0.15666014650E+02 -0.23296035401E+02  0.70877228265E+02  0.00000000000E+00 0.  1.
        -13    1    5    5    0    0 -0.31002736274E+03  0.10450142689E+03 -0.28992283473E+02  0.32844796600E+03  0.00000000000E+00 0. -1.
          4    1    6    6  503    0  0.49405534705E+02  0.11913109573E+04 -0.21578033699E+02  0.11925302157E+04  0.00000000000E+00 0. -1.
         -4    1    6    6    0  503  0.23083558422E+01  0.10800764730E+02  0.89436401151E+01  0.14211745986E+02  0.00000000000E+00 0.  1.
<mgrwt>
<rscale>  0 0.31107763E+04</rscale>
<asrwt>0</asrwt>
<pdfrwt beam="1">  1        2 0.31400952E+00 0.31107763E+04</pdfrwt>
<pdfrwt beam="2">  1       -1 0.18235095E+00 0.31107763E+04</pdfrwt>
<totfact> 0.12242299E+00</totfact>
</mgrwt>
</event>
<event>
12    7  0.1605494E-007  0.2548347E+04  0.7818608E-02  0.8385961E-01
          2   -1    0    0  501    0  0.00000000000E+00  0.00000000000E+00  0.25152541155E+04  0.25152541155E+04  0.00000000000E+00 0. -1.
         -1   -1    0    0    0  501 -0.00000000000E+00 -0.00000000000E+00 -0.64546865523E+03  0.64546865523E+03  0.00000000000E+00 0.  1.
         24    2    1    2    0    0 -0.71938486378E+03  0.20413139082E+03 -0.20257773723E+03  0.77896802024E+03  0.81050786405E+02 0.  0.
        254    2    1    2    0    0  0.71938486378E+03 -0.20413139082E+03  0.20723631975E+04  0.23817547505E+04  0.90492113589E+03 0.  0.
         23    2    4    4    0    0  0.23658686609E+03 -0.11488093269E+03  0.17828431280E+04  0.18043844507E+04  0.90014736763E+02 0.  0.
         23    2    4    4    0    0  0.48279799770E+03 -0.89250458133E+02  0.28952006947E+03  0.57737029980E+03  0.92059989180E+02 0.  0.
          4    1    3    3  502    0 -0.30279680307E+02  0.25668674672E+02 -0.18012042816E+02  0.43590980550E+02  0.00000000000E+00 0. -1.
         -1    1    3    3    0  502 -0.68910518348E+03  0.17846271615E+03 -0.18456569442E+03  0.73537703969E+03  0.00000000000E+00 0.  1.
         13    1    5    5    0    0  0.13122486722E+03 -0.89960603357E+02  0.12909408003E+04  0.13007078942E+04  0.00000000000E+00 0.  1.
        -13    1    5    5    0    0  0.10536199886E+03 -0.24920329331E+02  0.49190232769E+03  0.50367655654E+03  0.00000000000E+00 0. -1.
          1    1    6    6  503    0  0.16869197928E+03 -0.38816826224E+02  0.15359466283E+03  0.23141964117E+03  0.00000000000E+00 0. -1.
         -1    1    6    6    0  503  0.31410601842E+03 -0.50433631909E+02  0.13592540664E+03  0.34595065863E+03  0.00000000000E+00 0.  1.
<mgrwt>
<rscale>  0 0.25483467E+04</rscale>
<asrwt>0</asrwt>
<pdfrwt beam="1">  1        2 0.38696217E+00 0.25483467E+04</pdfrwt>
<pdfrwt beam="2">  1       -1 0.99302871E-01 0.25483467E+04</pdfrwt>
<totfact> 0.33366615E+00</totfact>
</mgrwt>
</event>
<event>
12    7  0.1605494E-007  0.3443498E+04  0.7818608E-02  0.8127312E-01
         -1   -1    0    0    0  501 -0.00000000000E+00  0.00000000000E+00  0.65366342669E+03  0.65366342669E+03  0.00000000000E+00 0.  1.
          2   -1    0    0  501    0  0.00000000000E+00 -0.00000000000E+00 -0.45350860527E+04  0.45350860527E+04  0.00000000000E+00 0. -1.
         24    2    1    2    0    0  0.77290515406E+03 -0.92428447038E+03 -0.21287175262E+03  0.12260700518E+04  0.79052067825E+02 0.  0.
        254    2    1    2    0    0 -0.77290515406E+03  0.92428447038E+03 -0.36685508734E+04  0.39626794277E+04  0.89043729484E+03 0.  0.
         23    2    4    4    0    0 -0.57587513196E+03  0.10816041774E+04 -0.30921164049E+04  0.33273006280E+04  0.90806625338E+02 0.  0.
         23    2    4    4    0    0 -0.19703002210E+03 -0.15731970705E+03 -0.57643446850E+03  0.63537879965E+03  0.88652144576E+02 0.  0.
          2    1    3    3  502    0  0.23234398538E+02 -0.50863900775E+02 -0.17372243352E+02  0.58555687311E+02  0.00000000000E+00 0. -1.
         -1    1    3    3    0  502  0.74967075552E+03 -0.87342056960E+03 -0.19549950927E+03  0.11675143645E+04  0.00000000000E+00 0.  1.
         13    1    5    5    0    0 -0.25766773110E+03  0.57158883416E+03 -0.15268820161E+04  0.16505984206E+04  0.00000000000E+00 0. -1.
        -13    1    5    5    0    0 -0.31820740085E+03  0.51001534326E+03 -0.15652343889E+04  0.16767022074E+04  0.00000000000E+00 0.  1.
          2    1    6    6  503    0 -0.11789376421E+03 -0.14191355343E+03 -0.43635510999E+03  0.47375539923E+03  0.00000000000E+00 0. -1.
         -2    1    6    6    0  503 -0.79136257896E+02 -0.15406153615E+02 -0.14007935851E+03  0.16162340042E+03  0.00000000000E+00 0.  1.
<mgrwt>
<rscale>  0 0.34434982E+04</rscale>
<asrwt>0</asrwt>
<pdfrwt beam="1">  1        2 0.69770555E+00 0.34434982E+04</pdfrwt>
<pdfrwt beam="2">  1       -1 0.10056360E+00 0.34434982E+04</pdfrwt>
<totfact> 0.99726063E-02</totfact>
</mgrwt>
</event>
<event>
12    7  0.1605494E-007  0.1766011E+04  0.7818608E-02  0.8724586E-01
          2   -1    0    0  501    0  0.00000000000E+00  0.00000000000E+00  0.22116458083E+04  0.22116458083E+04  0.00000000000E+00 0. -1.
         -1   -1    0    0    0  501 -0.00000000000E+00 -0.00000000000E+00 -0.35254245311E+03  0.35254245311E+03  0.00000000000E+00 0.  1.
         24    2    1    2    0    0  0.65299946514E+02  0.18614570709E+03 -0.21034941979E+03  0.29913025014E+03  0.79484091876E+02 0.  0.
        254    2    1    2    0    0 -0.65299946514E+02 -0.18614570709E+03  0.20694527750E+04  0.22650580113E+04  0.89941019519E+03 0.  0.
         23    2    4    4    0    0 -0.19969918860E+03  0.39223024342E+02  0.56450364419E+02  0.23310716100E+03  0.98661508716E+02 0.  0.
         23    2    4    4    0    0  0.13439924209E+03 -0.22536873143E+03  0.20130024106E+04  0.20319508503E+04  0.88268519549E+02 0.  0.
          4    1    3    3  502    0  0.34946509863E+02  0.11687426857E+03 -0.72522856869E+02  0.14191694041E+03  0.00000000000E+00 0. -1.
         -3    1    3    3    0  502  0.30353436651E+02  0.69271438512E+02 -0.13782656292E+03  0.15721330973E+03  0.00000000000E+00 0.  1.
         13    1    5    5    0    0 -0.18869883688E+03  0.50617633025E+01  0.37256469634E+02  0.19240820413E+03  0.00000000000E+00 0. -1.
        -13    1    5    5    0    0 -0.11000351726E+02  0.34161261039E+02  0.19193894785E+02  0.40698956877E+02  0.00000000000E+00 0.  1.
          3    1    6    6  503    0  0.12216691234E+03 -0.12227735177E+03  0.12934215743E+04  0.13049198727E+04  0.00000000000E+00 0. -1.
         -3    1    6    6    0  503  0.12232329747E+02 -0.10309137966E+03  0.71958083625E+03  0.72703097757E+03  0.00000000000E+00 0.  1.
<mgrwt>
<rscale>  0 0.17660114E+04</rscale>
<asrwt>0</asrwt>
<pdfrwt beam="1">  1        2 0.34025319E+00 0.17660114E+04</pdfrwt>
<pdfrwt beam="2">  1       -1 0.54237302E-01 0.17660114E+04</pdfrwt>
<totfact> 0.18829887E+01</totfact>
</mgrwt>
</event>
<event>
12    7  0.1605494E-007  0.2759079E+04  0.7818608E-02  0.8316087E-01
          2   -1    0    0  501    0  0.00000000000E+00  0.00000000000E+00  0.24977689739E+04  0.24977689739E+04  0.00000000000E+00 0. -1.
         -1   -1    0    0    0  501 -0.00000000000E+00 -0.00000000000E+00 -0.76193156926E+03  0.76193156926E+03  0.00000000000E+00 0.  1.
         24    2    1    2    0    0 -0.79022864112E+03  0.14604863490E+03  0.18461097409E+04  0.20150415413E+04  0.80496763504E+02 0.  0.
        254    2    1    2    0    0  0.79022864112E+03 -0.14604863490E+03 -0.11027233623E+03  0.12446590018E+04  0.94404689167E+03 0.  0.
         23    2    4    4    0    0  0.96725577415E+03 -0.57800522358E+02 -0.22096794563E+03  0.99823221462E+03  0.93359992987E+02 0.  0.
         23    2    4    4    0    0 -0.17702713303E+03 -0.88248112540E+02  0.11069560939E+03  0.24642678720E+03  0.96676306901E+02 0.  0.
          4    1    3    3  502    0 -0.50638496923E+03  0.11376748464E+03  0.12711576180E+04  0.13730296674E+04  0.00000000000E+00 0. -1.
         -3    1    3    3    0  502 -0.28384367189E+03  0.32281150262E+02  0.57495212285E+03  0.64201187395E+03  0.00000000000E+00 0.  1.
         13    1    5    5    0    0  0.66090319188E+03  0.51082149241E+00 -0.13224998566E+03  0.67400545152E+03  0.00000000000E+00 0. -1.
        -13    1    5    5    0    0  0.30635258227E+03 -0.58311343850E+02 -0.88717959962E+02  0.32422676309E+03  0.00000000000E+00 0.  1.
          3    1    6    6  503    0 -0.16393748772E+03 -0.68069403930E+02  0.55118410907E+02  0.18586818676E+03  0.00000000000E+00 0. -1.
         -3    1    6    6    0  503 -0.13089645318E+02 -0.20178708610E+02  0.55577198487E+02  0.60558600441E+02  0.00000000000E+00 0.  1.
<mgrwt>
<rscale>  0 0.27590789E+04</rscale>
<asrwt>0</asrwt>
<pdfrwt beam="1">  1        2 0.38427215E+00 0.27590789E+04</pdfrwt>
<pdfrwt beam="2">  1       -1 0.11722024E+00 0.27590789E+04</pdfrwt>
<totfact> 0.22711531E+00</totfact>
</mgrwt>
</event>
<event>
12    7  0.1605494E-007  0.2509477E+04  0.7818608E-02  0.8399617E-01
          2   -1    0    0  501    0  0.00000000000E+00  0.00000000000E+00  0.16778412534E+04  0.16778412534E+04  0.00000000000E+00 0. -1.
         -1   -1    0    0    0  501 -0.00000000000E+00 -0.00000000000E+00 -0.93832968161E+03  0.93832968161E+03  0.00000000000E+00 0.  1.
         24    2    1    2    0    0 -0.55515208837E+03 -0.71252998411E+02 -0.65430937263E+03  0.86522212584E+03  0.84957288802E+02 0.  0.
        254    2    1    2    0    0  0.55515208837E+03  0.71252998411E+02  0.13938209444E+04  0.17509488091E+04  0.89989670307E+03 0.  0.
         23    2    4    4    0    0  0.29559692260E+03  0.46288557730E+03  0.56225616621E+03  0.79145016127E+03  0.92848064127E+02 0.  0.
         23    2    4    4    0    0  0.25955516577E+03 -0.39163257889E+03  0.83156477817E+03  0.95949864786E+03  0.91611757021E+02 0.  0.
          4    1    3    3  502    0 -0.43006110061E+03 -0.38623603669E+02 -0.54914258239E+03  0.69857133409E+03  0.00000000000E+00 0. -1.
         -3    1    3    3    0  502 -0.12509098776E+03 -0.32629394742E+02 -0.10516679024E+03  0.16665079175E+03  0.00000000000E+00 0.  1.
         13    1    5    5    0    0  0.25403336401E+03  0.41947854439E+03  0.53407520155E+03  0.72507345845E+03  0.00000000000E+00 0. -1.
        -13    1    5    5    0    0  0.41563558589E+02  0.43407032910E+02  0.28180964661E+02  0.66376702825E+02  0.00000000000E+00 0.  1.
          3    1    6    6  503    0  0.17166255307E+03 -0.26650648064E+03  0.46985602047E+03  0.56679662695E+03  0.00000000000E+00 0. -1.
         -3    1    6    6    0  503  0.87892612704E+02 -0.12512609826E+03  0.36170875769E+03  0.39270202091E+03  0.00000000000E+00 0.  1.
<mgrwt>
<rscale>  0 0.25094766E+04</rscale>
<asrwt>0</asrwt>
<pdfrwt beam="1">  1        2 0.25812942E+00 0.25094766E+04</pdfrwt>
<pdfrwt beam="2">  1       -1 0.14435841E+00 0.25094766E+04</pdfrwt>
<totfact> 0.39580422E+00</totfact>
</mgrwt>
</event>
<event>
12    7  0.1686856E-007  0.1784698E+04  0.7818608E-02  0.8714479E-01
          2   -1    0    0  501    0  0.00000000000E+00  0.00000000000E+00  0.13871356749E+04  0.13871356749E+04  0.00000000000E+00 0. -1.
         -1   -1    0    0    0  501 -0.00000000000E+00 -0.00000000000E+00 -0.57405116885E+03  0.57405116885E+03  0.00000000000E+00 0.  1.
         24    2    1    2    0    0 -0.44069584754E+03  0.32512277625E+03  0.71129043100E+03  0.90121537617E+03  0.79607960207E+02 0.  0.
        254    2    1    2    0    0  0.44069584754E+03 -0.32512277625E+03  0.10179407502E+03  0.10599714676E+04  0.90180919748E+03 0.  0.
         23    2    4    4    0    0  0.58692283183E+01 -0.92746559972E+02  0.43790377397E+03  0.45661306373E+03  0.89996680408E+02 0.  0.
         23    2    4    4    0    0  0.43482661922E+03 -0.23237621628E+03 -0.33610969895E+03  0.60335840383E+03  0.89435670030E+02 0.  0.
          4    1    3    3  502    0 -0.43547934462E+03  0.32417409877E+03  0.71251601337E+03  0.89577350665E+03  0.00000000000E+00 0. -1.
         -3    1    3    3    0  502 -0.52165029218E+01  0.94867748271E+00 -0.12255823712E+01  0.54418695177E+01  0.00000000000E+00 0.  1.
         13    1    5    5    0    0  0.18225164727E+02 -0.11699322902E+02  0.16283230122E+02  0.27095652214E+02  0.00000000000E+00 0. -1.
        -13    1    5    5    0    0 -0.12355936409E+02 -0.81047237070E+02  0.42162054384E+03  0.42951741151E+03  0.00000000000E+00 0.  1.
          2    1    6    6  503    0  0.56684419382E+02 -0.30935097223E+02 -0.84985838859E+02  0.10673657502E+03  0.00000000000E+00 0. -1.
         -2    1    6    6    0  503  0.37814219984E+03 -0.20144111906E+03 -0.25112386009E+03  0.49662182881E+03  0.00000000000E+00 0.  1.
<mgrwt>
<rscale>  0 0.17846981E+04</rscale>
<asrwt>0</asrwt>
<pdfrwt beam="1">  1        2 0.21340549E+00 0.17846981E+04</pdfrwt>
<pdfrwt beam="2">  1       -1 0.88315565E-01 0.17846981E+04</pdfrwt>
<totfact> 0.19968840E+01</totfact>
</mgrwt>
</event>
<event>
12    7  0.1605494E-007  0.1773711E+04  0.7818608E-02  0.8720406E-01
          2   -1    0    0  501    0  0.00000000000E+00  0.00000000000E+00  0.62821094128E+03  0.62821094128E+03  0.00000000000E+00 0. -1.
         -1   -1    0    0    0  501 -0.00000000000E+00 -0.00000000000E+00 -0.12519888754E+04  0.12519888754E+04  0.00000000000E+00 0.  1.
         24    2    1    2    0    0 -0.29226694834E+03  0.17947547388E+03 -0.82746507414E+03  0.89921268424E+03  0.79079629254E+02 0.  0.
        254    2    1    2    0    0  0.29226694834E+03 -0.17947547388E+03  0.20368714003E+03  0.98098713243E+03  0.89622312410E+03 0.  0.
         23    2    4    4    0    0 -0.26825803856E+02 -0.21231977487E+03 -0.29955570422E+03  0.37740699065E+03  0.83084933082E+02 0.  0.
         23    2    4    4    0    0  0.31909275219E+03  0.32844300990E+02  0.50324284424E+03  0.60358014178E+03  0.90314421115E+02 0.  0.
          4    1    3    3  502    0 -0.43308752670E+01 -0.69445172273E+01 -0.11832003252E+02  0.14386768263E+02  0.00000000000E+00 0. -1.
         -3    1    3    3    0  502 -0.28793607307E+03  0.18641999111E+03 -0.81563307088E+03  0.88482591598E+03  0.00000000000E+00 0.  1.
         13    1    5    5    0    0  0.12760081900E+02 -0.17358191586E+03 -0.23265631093E+03  0.29055543399E+03  0.00000000000E+00 0.  1.
        -13    1    5    5    0    0 -0.39585885757E+02 -0.38737859013E+02 -0.66899393287E+02  0.86851556660E+02  0.00000000000E+00 0. -1.
          3    1    6    6  503    0  0.25053773747E+03 -0.32214860378E+01  0.33476414717E+03  0.41814658925E+03  0.00000000000E+00 0. -1.
         -3    1    6    6    0  503  0.68555014720E+02  0.36065787027E+02  0.16847869707E+03  0.18543355253E+03  0.00000000000E+00 0.  1.
<mgrwt>
<rscale>  0 0.17737115E+04</rscale>
<asrwt>0</asrwt>
<pdfrwt beam="1">  1        2 0.96647838E-01 0.17737115E+04</pdfrwt>
<pdfrwt beam="2">  1       -1 0.19261367E+00 0.17737115E+04</pdfrwt>
<totfact> 0.85821748E+00</totfact>
</mgrwt>
</event>
<event>
12    7  0.1605494E-007  0.2304784E+04  0.7818608E-02  0.8476037E-01
          2   -1    0    0  501    0  0.00000000000E+00  0.00000000000E+00  0.13227209637E+04  0.13227209637E+04  0.00000000000E+00 0. -1.
         -1   -1    0    0    0  501 -0.00000000000E+00 -0.00000000000E+00 -0.10039965248E+04  0.10039965248E+04  0.00000000000E+00 0.  1.
         24    2    1    2    0    0  0.47744209587E+03 -0.58205179678E+03  0.76086109076E+03  0.10733978466E+04  0.80858447947E+02 0.  0.
        254    2    1    2    0    0 -0.47744209587E+03  0.58205179678E+03 -0.44213665183E+03  0.12533196420E+04  0.89921635716E+03 0.  0.
         23    2    4    4    0    0  0.10781103964E+03  0.53282008933E+03 -0.34643192096E+03  0.65119612714E+03  0.92308462680E+02 0.  0.
         23    2    4    4    0    0 -0.58525313551E+03  0.49231707453E+02 -0.95704730866E+02  0.60212351481E+03  0.91914840710E+02 0.  0.
          4    1    3    3  502    0  0.41387248290E+03 -0.48100934842E+03  0.67439921166E+03  0.92599930996E+03  0.00000000000E+00 0. -1.
         -3    1    3    3    0  502  0.63569612970E+02 -0.10104244836E+03  0.86461879104E+02  0.14739853664E+03  0.00000000000E+00 0.  1.
         13    1    5    5    0    0  0.12085939637E+02  0.29196689968E+03 -0.18481149091E+03  0.34575428793E+03  0.00000000000E+00 0.  1.
        -13    1    5    5    0    0  0.95725100000E+02  0.24085318965E+03 -0.16162043005E+03  0.30544183922E+03  0.00000000000E+00 0. -1.
          4    1    6    6  503    0 -0.26442007769E+03 -0.21829959665E+02 -0.29997985364E+02  0.26701011919E+03  0.00000000000E+00 0.  1.
         -4    1    6    6    0  503 -0.32083305782E+03  0.71061667118E+02 -0.65706745502E+02  0.33511339563E+03  0.00000000000E+00 0. -1.
<mgrwt>
<rscale>  0 0.23047839E+04</rscale>
<asrwt>0</asrwt>
<pdfrwt beam="1">  1        2 0.20349553E+00 0.23047839E+04</pdfrwt>
<pdfrwt beam="2">  1       -1 0.15446100E+00 0.23047839E+04</pdfrwt>
<totfact> 0.53358617E+00</totfact>
</mgrwt>
</event>
<event>
12    7  0.1605494E-007  0.1668758E+04  0.7818608E-02  0.8779386E-01
         -1   -1    0    0    0  501 -0.00000000000E+00  0.00000000000E+00  0.27443394984E+03  0.27443394984E+03  0.00000000000E+00 0.  1.
          2   -1    0    0  501    0  0.00000000000E+00 -0.00000000000E+00 -0.25368142523E+04  0.25368142523E+04  0.00000000000E+00 0. -1.
         24    2    1    2    0    0  0.23912330111E+02 -0.17060745865E+03  0.13971903960E+03  0.23585485259E+03  0.80171048288E+02 0.  0.
        254    2    1    2    0    0 -0.23912330111E+02  0.17060745865E+03 -0.24020993421E+04  0.25753933495E+04  0.91262859438E+03 0.  0.
         23    2    4    4    0    0 -0.27958935838E+03  0.35706614424E+03 -0.67885764596E+03  0.82101373927E+03  0.86887374805E+02 0.  0.
         23    2    4    4    0    0  0.25567702827E+03 -0.18645868559E+03 -0.17232416961E+04  0.17543796103E+04  0.90267876662E+02 0.  0.
          2    1    3    3  502    0  0.59251226346E+01  0.80818081536E+01  0.41863367238E+01  0.10860392094E+02  0.00000000000E+00 0. -1.
         -1    1    3    3    0  502  0.17987207476E+02 -0.17868926680E+03  0.13553270288E+03  0.22499446049E+03  0.00000000000E+00 0.  1.
         13    1    5    5    0    0 -0.26545637057E+03  0.35999892680E+03 -0.65925481680E+03  0.79667008570E+03  0.00000000000E+00 0. -1.
        -13    1    5    5    0    0 -0.14132987816E+02 -0.29327825520E+01 -0.19602829154E+02  0.24343653566E+02  0.00000000000E+00 0.  1.
          1    1    6    6  503    0  0.22746361449E+03 -0.18227151633E+03 -0.14082782233E+04  0.14381273086E+04  0.00000000000E+00 0. -1.
         -1    1    6    6    0  503  0.28213413783E+02 -0.41871692678E+01 -0.31496347284E+03  0.31625230170E+03  0.00000000000E+00 0.  1.
<mgrwt>
<rscale>  0 0.16687576E+04</rscale>
<asrwt>0</asrwt>
<pdfrwt beam="1">  1        2 0.39027912E+00 0.16687576E+04</pdfrwt>
<pdfrwt beam="2">  1       -1 0.42220607E-01 0.16687576E+04</pdfrwt>
<totfact> 0.19886051E+01</totfact>
</mgrwt>
</event>
<event>
12    7  0.1605494E-007  0.1573317E+04  0.7818608E-02  0.8837110E-01
          2   -1    0    0  501    0  0.00000000000E+00  0.00000000000E+00  0.68393061636E+03  0.68393061636E+03  0.00000000000E+00 0. -1.
         -1   -1    0    0    0  501 -0.00000000000E+00 -0.00000000000E+00 -0.90481669107E+03  0.90481669107E+03  0.00000000000E+00 0.  1.
         24    2    1    2    0    0  0.23148125066E+03 -0.25521378112E+03  0.32746582451E+03  0.48228574810E+03  0.81535471571E+02 0.  0.
        254    2    1    2    0    0 -0.23148125066E+03  0.25521378112E+03 -0.54835189921E+03  0.11064615593E+04  0.89713417805E+03 0.  0.
         23    2    4    4    0    0  0.99261942446E+02  0.47514439936E+03 -0.48902839785E+03  0.69486542222E+03  0.89855704542E+02 0.  0.
         23    2    4    4    0    0 -0.33074319311E+03 -0.21993061824E+03 -0.59323501357E+02  0.41159613710E+03  0.90175194145E+02 0.  0.
          4    1    3    3  502    0  0.21986564615E+03 -0.22294433832E+03  0.26157318978E+03  0.40800197789E+03  0.00000000000E+00 0. -1.
         -3    1    3    3    0  502  0.11615604510E+02 -0.32269442794E+02  0.65892634727E+02  0.74283770217E+02  0.00000000000E+00 0.  1.
         13    1    5    5    0    0  0.94922210134E+02  0.46684645421E+03 -0.45211553943E+03  0.65678329667E+03  0.00000000000E+00 0. -1.
        -13    1    5    5    0    0  0.43397323124E+01  0.82979451469E+01 -0.36912858420E+02  0.38082125557E+02  0.00000000000E+00 0.  1.
          4    1    6    6  503    0 -0.19609037577E+03 -0.15865705752E+03 -0.74166579712E+02  0.26291477501E+03  0.00000000000E+00 0. -1.
         -4    1    6    6    0  503 -0.13465281734E+03 -0.61273560721E+02  0.14843078355E+02  0.14868136210E+03  0.00000000000E+00 0.  1.
<mgrwt>
<rscale>  0 0.15733173E+04</rscale>
<asrwt>0</asrwt>
<pdfrwt beam="1">  1        2 0.10522009E+00 0.15733173E+04</pdfrwt>
<pdfrwt beam="2">  1       -1 0.13920257E+00 0.15733173E+04</pdfrwt>
<totfact> 0.19705354E+01</totfact>
</mgrwt>
</event>
<event>
12    7  0.1605494E-007  0.1868789E+04  0.7818608E-02  0.8670550E-01
          2   -1    0    0  501    0  0.00000000000E+00  0.00000000000E+00  0.91276196813E+03  0.91276196813E+03  0.00000000000E+00 0. -1.
         -1   -1    0    0    0  501 -0.00000000000E+00 -0.00000000000E+00 -0.95653956864E+03  0.95653956864E+03  0.00000000000E+00 0.  1.
         24    2    1    2    0    0 -0.41034032518E+03  0.19953245566E+03  0.52537245596E+03  0.70040474071E+03  0.79738321976E+02 0.  0.
        254    2    1    2    0    0  0.41034032518E+03 -0.19953245566E+03 -0.56915005647E+03  0.11688967961E+04  0.91334306246E+03 0.  0.
         23    2    4    4    0    0 -0.24825448418E+03 -0.50192795011E+02  0.17118129760E+02  0.27083047676E+03  0.94374314255E+02 0.  0.
         23    2    4    4    0    0  0.65859480936E+03 -0.14933966065E+03 -0.58626818623E+03  0.89806631930E+03  0.82239105780E+02 0.  0.
          4    1    3    3  502    0 -0.56099228746E+02  0.36891098828E+02  0.41007500714E+02  0.78674594079E+02  0.00000000000E+00 0. -1.
         -3    1    3    3    0  502 -0.35424109644E+03  0.16264135683E+03  0.48436495524E+03  0.62173014663E+03  0.00000000000E+00 0.  1.
         13    1    5    5    0    0 -0.24980132959E+03 -0.40097047576E+02  0.29575047514E+02  0.25472173234E+03  0.00000000000E+00 0. -1.
        -13    1    5    5    0    0  0.15468454125E+01 -0.10095747434E+02 -0.12456917754E+02  0.16108744424E+02  0.00000000000E+00 0.  1.
          4    1    6    6  503    0  0.61816222249E+03 -0.15745651693E+03 -0.53717684069E+03  0.83395206470E+03  0.00000000000E+00 0. -1.
         -4    1    6    6    0  503  0.40432586874E+02  0.81168562786E+01 -0.49091345534E+02  0.64114254604E+02  0.00000000000E+00 0.  1.
<mgrwt>
<rscale>  0 0.18687888E+04</rscale>
<asrwt>0</asrwt>
<pdfrwt beam="1">  1        2 0.14042492E+00 0.18687888E+04</pdfrwt>
<pdfrwt beam="2">  1       -1 0.14715993E+00 0.18687888E+04</pdfrwt>
<totfact> 0.11312331E+01</totfact>
</mgrwt>
</event>
<event>
12    7  0.1605494E-007  0.1932852E+04  0.7818608E-02  0.8638675E-01
         -1   -1    0    0    0  501 -0.00000000000E+00  0.00000000000E+00  0.12832972061E+04  0.12832972061E+04  0.00000000000E+00 0.  1.
          2   -1    0    0  501    0  0.00000000000E+00 -0.00000000000E+00 -0.72779640945E+03  0.72779640945E+03  0.00000000000E+00 0. -1.
         24    2    1    2    0    0  0.17989187263E+03 -0.35394277910E+03 -0.45008014181E+03  0.60521889890E+03  0.77982080137E+02 0.  0.
        254    2    1    2    0    0 -0.17989187263E+03  0.35394277910E+03  0.10055809385E+04  0.14058747166E+04  0.89869578746E+03 0.  0.
         23    2    4    4    0    0  0.34052202115E+03  0.23057124933E+03  0.30664838659E+03  0.52112247486E+03  0.91744497933E+02 0.  0.
         23    2    4    4    0    0 -0.52041389378E+03  0.12337152977E+03  0.69893255187E+03  0.88475224179E+03  0.90711973217E+02 0.  0.
          4    1    3    3  502    0  0.96886540960E+02 -0.26346374265E+03 -0.29190636308E+03  0.40498082710E+03  0.00000000000E+00 0. -1.
         -3    1    3    3    0  502  0.83005331669E+02 -0.90479036448E+02 -0.15817377873E+03  0.20023807180E+03  0.00000000000E+00 0.  1.
         13    1    5    5    0    0  0.21942773944E+03  0.19786086923E+03  0.22618834788E+03  0.37210028906E+03  0.00000000000E+00 0.  1.
        -13    1    5    5    0    0  0.12109428171E+03  0.32710380103E+02  0.80460038712E+02  0.14902218580E+03  0.00000000000E+00 0. -1.
          3    1    6    6  503    0 -0.45101107338E+02  0.22423087757E+02  0.32351771377E+02  0.59862691711E+02  0.00000000000E+00 0. -1.
         -3    1    6    6    0  503 -0.47531278644E+03  0.10094844201E+03  0.66658078049E+03  0.82488955008E+03  0.00000000000E+00 0.  1.
<mgrwt>
<rscale>  0 0.19328519E+04</rscale>
<asrwt>0</asrwt>
<pdfrwt beam="1">  1        2 0.11196868E+00 0.19328519E+04</pdfrwt>
<pdfrwt beam="2">  1       -1 0.19743034E+00 0.19328519E+04</pdfrwt>
<totfact> 0.65174598E+00</totfact>
</mgrwt>
</event>
<event>
12    7  0.1605494E-007  0.3129758E+04  0.7818608E-02  0.8207618E-01
          2   -1    0    0  501    0  0.00000000000E+00  0.00000000000E+00  0.13428762594E+04  0.13428762594E+04  0.00000000000E+00 0. -1.
         -1   -1    0    0    0  501 -0.00000000000E+00 -0.00000000000E+00 -0.18235832150E+04  0.18235832150E+04  0.00000000000E+00 0.  1.
         24    2    1    2    0    0 -0.47253478908E+03 -0.60916750595E+03 -0.14464742343E+04  0.16410141551E+04  0.79155350575E+02 0.  0.
        254    2    1    2    0    0  0.47253478908E+03  0.60916750595E+03  0.96576727870E+03  0.15254453193E+04  0.89437285749E+03 0.  0.
         23    2    4    4    0    0  0.16967389105E+03  0.76981379156E+03  0.82173275986E+03  0.11421443818E+04  0.88580795123E+02 0.  0.
         23    2    4    4    0    0  0.30286089803E+03 -0.16064628561E+03  0.14403451884E+03  0.38330093745E+03  0.92960816476E+02 0.  0.
          2    1    3    3  502    0 -0.99314741308E+02 -0.85708815811E+02 -0.21597164672E+03  0.25269185016E+03  0.00000000000E+00 0. -1.
         -1    1    3    3    0  502 -0.37322004778E+03 -0.52345869014E+03 -0.12305025876E+04  0.13883223050E+04  0.00000000000E+00 0.  1.
         13    1    5    5    0    0  0.15945944224E+03  0.70425067873E+03  0.71306080988E+03  0.10148162646E+04  0.00000000000E+00 0.  1.
        -13    1    5    5    0    0  0.10214448810E+02  0.65563112824E+02  0.10867194999E+03  0.12732811725E+03  0.00000000000E+00 0. -1.
          1    1    6    6  503    0  0.10909389428E+03 -0.83236848934E+02  0.10065995495E+03  0.17018307002E+03  0.00000000000E+00 0. -1.
         -1    1    6    6    0  503  0.19376700375E+03 -0.77409436674E+02  0.43374563889E+02  0.21311786744E+03  0.00000000000E+00 0.  1.
<mgrwt>
<rscale>  0 0.31297582E+04</rscale>
<asrwt>0</asrwt>
<pdfrwt beam="1">  1        2 0.20659635E+00 0.31297582E+04</pdfrwt>
<pdfrwt beam="2">  1       -1 0.28055126E+00 0.31297582E+04</pdfrwt>
<totfact> 0.66458480E-01</totfact>
</mgrwt>
</event>
<event>
12    7  0.1605494E-007  0.1563420E+04  0.7818608E-02  0.8843341E-01
         -1   -1    0    0    0  501 -0.00000000000E+00  0.00000000000E+00  0.36421185442E+03  0.36421185442E+03  0.00000000000E+00 0.  1.
          2   -1    0    0  501    0  0.00000000000E+00 -0.00000000000E+00 -0.16777885356E+04  0.16777885356E+04  0.00000000000E+00 0. -1.
         24    2    1    2    0    0  0.27143797498E+03  0.33239399831E+03 -0.79956191639E+03  0.91095564743E+03  0.79853547577E+02 0.  0.
        254    2    1    2    0    0 -0.27143797498E+03 -0.33239399831E+03 -0.51401476479E+03  0.11310447426E+04  0.91152986069E+03 0.  0.
         23    2    4    4    0    0 -0.41167695071E+03  0.27800450436E+02  0.67143326741E+02  0.42738759931E+03  0.88888452188E+02 0.  0.
         23    2    4    4    0    0  0.14023897572E+03 -0.36019444875E+03 -0.58115809153E+03  0.70365714328E+03  0.89340006205E+02 0.  0.
          4    1    3    3  502    0  0.64596263578E+02  0.94188935318E+02 -0.28951155483E+03  0.31122527723E+03  0.00000000000E+00 0. -1.
         -3    1    3    3    0  502  0.20684171141E+03  0.23820506299E+03 -0.51005036156E+03  0.59973037020E+03  0.00000000000E+00 0.  1.
         13    1    5    5    0    0 -0.44363063667E+02  0.18532339981E+02 -0.15993446715E+02  0.50668721919E+02  0.00000000000E+00 0. -1.
        -13    1    5    5    0    0 -0.36731388704E+03  0.92681104552E+01  0.83136773456E+02  0.37671887739E+03  0.00000000000E+00 0.  1.
          1    1    6    6  503    0  0.47238780090E+02 -0.20153694449E+03 -0.24731590090E+03  0.32251170084E+03  0.00000000000E+00 0. -1.
         -1    1    6    6    0  503  0.93000195631E+02 -0.15865750426E+03 -0.33384219064E+03  0.38114544244E+03  0.00000000000E+00 0.  1.
<mgrwt>
<rscale>  0 0.15634199E+04</rscale>
<asrwt>0</asrwt>
<pdfrwt beam="1">  1        2 0.25812131E+00 0.15634199E+04</pdfrwt>
<pdfrwt beam="2">  1       -1 0.56032593E-01 0.15634199E+04</pdfrwt>
<totfact> 0.35616699E+01</totfact>
</mgrwt>
</event>
<event>
12    7  0.1605494E-007  0.1693814E+04  0.7818608E-02  0.8764900E-01
         -1   -1    0    0    0  501 -0.00000000000E+00  0.00000000000E+00  0.70559809042E+03  0.70559809042E+03  0.00000000000E+00 0.  1.
          2   -1    0    0  501    0  0.00000000000E+00 -0.00000000000E+00 -0.10165157406E+04  0.10165157406E+04  0.00000000000E+00 0. -1.
         24    2    1    2    0    0 -0.33163267115E+03 -0.41259284684E+03  0.18019116774E+03  0.56481678271E+03  0.79599342130E+02 0.  0.
        254    2    1    2    0    0  0.33163267115E+03  0.41259284684E+03 -0.49110881794E+03  0.11572970483E+04  0.90439786662E+03 0.  0.
         23    2    4    4    0    0  0.49372456349E+03  0.58880768648E+03 -0.27290815602E+03  0.82092951354E+03  0.94804896120E+02 0.  0.
         23    2    4    4    0    0 -0.16209189234E+03 -0.17621483964E+03 -0.21820066192E+03  0.33636753478E+03  0.90587738232E+02 0.  0.
          2    1    3    3  502    0 -0.13681561060E+03 -0.20560361789E+03  0.11861967157E+03  0.27397442486E+03  0.00000000000E+00 0. -1.
         -1    1    3    3    0  502 -0.19481706055E+03 -0.20698922895E+03  0.61571496172E+02  0.29084235786E+03  0.00000000000E+00 0.  1.
         13    1    5    5    0    0  0.24085001583E+03  0.33608524257E+03 -0.18376259357E+03  0.45247177944E+03  0.00000000000E+00 0. -1.
        -13    1    5    5    0    0  0.25287454766E+03  0.25272244392E+03 -0.89145562448E+02  0.36845773410E+03  0.00000000000E+00 0.  1.
          2    1    6    6  503    0 -0.15289938550E+03 -0.16849558931E+03 -0.16303148690E+03  0.27990757658E+03  0.00000000000E+00 0. -1.
         -2    1    6    6    0  503 -0.91925068387E+01 -0.77192503295E+01 -0.55169175022E+02  0.56459958203E+02  0.00000000000E+00 0.  1.
<mgrwt>
<rscale>  0 0.16938141E+04</rscale>
<asrwt>0</asrwt>
<pdfrwt beam="1">  1        2 0.15638704E+00 0.16938141E+04</pdfrwt>
<pdfrwt beam="2">  1       -1 0.10855355E+00 0.16938141E+04</pdfrwt>
<totfact> 0.21026829E+01</totfact>
</mgrwt>
</event>
<event>
12    7  0.1605494E-007  0.3049635E+04  0.7818608E-02  0.8229698E-01
         -1   -1    0    0    0  501 -0.00000000000E+00  0.00000000000E+00  0.25701123505E+04  0.25701123505E+04  0.00000000000E+00 0.  1.
          2   -1    0    0  501    0  0.00000000000E+00 -0.00000000000E+00 -0.90465610905E+03  0.90465610905E+03  0.00000000000E+00 0. -1.
         24    2    1    2    0    0 -0.16341358500E+03 -0.44956588975E+03  0.22430330998E+04  0.22948404862E+04  0.79258322288E+02 0.  0.
        254    2    1    2    0    0  0.16341358500E+03  0.44956588975E+03 -0.57757685829E+03  0.11799279733E+04  0.91094539136E+03 0.  0.
         23    2    4    4    0    0  0.18045147223E+03  0.29165276493E+03 -0.81021105502E+03  0.88453741925E+03  0.91325917797E+02 0.  0.
         23    2    4    4    0    0 -0.17037887231E+02  0.15791312481E+03  0.23263419673E+03  0.29539055409E+03  0.88938548271E+02 0.  0.
          4    1    3    3  502    0 -0.58234989048E+01 -0.29298043136E+02  0.25642551745E+03  0.25815951361E+03  0.00000000000E+00 0. -1.
         -3    1    3    3    0  502 -0.15759008610E+03 -0.42026784661E+03  0.19866075823E+04  0.20366809726E+04  0.00000000000E+00 0.  1.
         13    1    5    5    0    0  0.17699530355E+03  0.21951103351E+03 -0.66661188165E+03  0.72379819845E+03  0.00000000000E+00 0. -1.
        -13    1    5    5    0    0  0.34561686787E+01  0.72141731420E+02 -0.14359917336E+03  0.16073922080E+03  0.00000000000E+00 0.  1.
          4    1    6    6  503    0  0.31083847786E+02  0.91190745652E+02  0.15358249021E+03  0.18129958352E+03  0.00000000000E+00 0. -1.
         -4    1    6    6    0  503 -0.48121735017E+02  0.66722379160E+02  0.79051706519E+02  0.11409097057E+03  0.00000000000E+00 0.  1.
<mgrwt>
<rscale>  0 0.30496346E+04</rscale>
<asrwt>0</asrwt>
<pdfrwt beam="1">  1        2 0.13917786E+00 0.30496346E+04</pdfrwt>
<pdfrwt beam="2">  1       -1 0.39540190E+00 0.30496346E+04</pdfrwt>
<totfact> 0.21737672E-01</totfact>
</mgrwt>
</event>
<event>
12    7  0.1605494E-007  0.2312581E+04  0.7818608E-02  0.8472977E-01
         -1   -1    0    0    0  501 -0.00000000000E+00  0.00000000000E+00  0.12914416727E+04  0.12914416727E+04  0.00000000000E+00 0.  1.
          2   -1    0    0  501    0  0.00000000000E+00 -0.00000000000E+00 -0.10352827686E+04  0.10352827686E+04  0.00000000000E+00 0. -1.
         24    2    1    2    0    0 -0.23448370944E+03 -0.62145811792E+03  0.83822468026E+03  0.10727144710E+04  0.83083809137E+02 0.  0.
        254    2    1    2    0    0  0.23448370944E+03  0.62145811792E+03 -0.58206577621E+03  0.12540099703E+04  0.89025144505E+03 0.  0.
         23    2    4    4    0    0 -0.68063909683E+02 -0.96814242829E+02 -0.43093236404E+03  0.45548074545E+03  0.88058580998E+02 0.  0.
         23    2    4    4    0    0  0.30254761912E+03  0.71827236075E+03 -0.15113341217E+03  0.79852922483E+03  0.85775104670E+02 0.  0.
          2    1    3    3  502    0 -0.60832401779E+02 -0.93980445366E+02  0.17436912688E+03  0.20721365212E+03  0.00000000000E+00 0. -1.
         -1    1    3    3    0  502 -0.17365130766E+03 -0.52747767256E+03  0.66385555338E+03  0.86550081887E+03  0.00000000000E+00 0.  1.
         13    1    5    5    0    0 -0.18858672004E+02 -0.92830189768E+02 -0.23379253764E+03  0.25225392821E+03  0.00000000000E+00 0.  1.
        -13    1    5    5    0    0 -0.49205237679E+02 -0.39840530612E+01 -0.19713982640E+03  0.20322681725E+03  0.00000000000E+00 0. -1.
          3    1    6    6  503    0  0.13111202821E+02  0.37191582613E+02  0.11012436258E+02  0.40943756655E+02  0.00000000000E+00 0. -1.
         -3    1    6    6    0  503  0.28943641630E+03  0.68108077814E+03 -0.16214584843E+03  0.75758546818E+03  0.00000000000E+00 0.  1.
<mgrwt>
<rscale>  0 0.23125806E+04</rscale>
<asrwt>0</asrwt>
<pdfrwt beam="1">  1        2 0.15927427E+00 0.23125806E+04</pdfrwt>
<pdfrwt beam="2">  1       -1 0.19868333E+00 0.23125806E+04</pdfrwt>
<totfact> 0.37956453E+00</totfact>
</mgrwt>
</event>
<event>
12    7  0.1605494E-007  0.2034782E+04  0.7818608E-02  0.8590529E-01
          2   -1    0    0  501    0  0.00000000000E+00  0.00000000000E+00  0.11141760968E+04  0.11141760968E+04  0.00000000000E+00 0. -1.
         -1   -1    0    0    0  501 -0.00000000000E+00 -0.00000000000E+00 -0.92901328828E+03  0.92901328828E+03  0.00000000000E+00 0.  1.
         24    2    1    2    0    0  0.70386381794E+03 -0.14163633186E+03 -0.32148763658E+03  0.79078783129E+03  0.80659586783E+02 0.  0.
        254    2    1    2    0    0 -0.70386381794E+03  0.14163633186E+03  0.50665044514E+03  0.12524015538E+04  0.89237315837E+03 0.  0.
         23    2    4    4    0    0 -0.30934754022E+03  0.28785125362E+03  0.66650242557E+03  0.79443508374E+03  0.91363965172E+02 0.  0.
         23    2    4    4    0    0 -0.39451627772E+03 -0.14621492176E+03 -0.15985198043E+03  0.45796647009E+03  0.84609310063E+02 0.  0.
          2    1    3    3  502    0  0.54457005972E+02 -0.22364768167E+02 -0.64847981460E+01  0.59226691294E+02  0.00000000000E+00 0. -1.
         -1    1    3    3    0  502  0.64940681196E+03 -0.11927156370E+03 -0.31500283843E+03  0.73156114000E+03  0.00000000000E+00 0.  1.
         13    1    5    5    0    0 -0.80337902656E+02  0.12790947641E+03  0.19889267697E+03  0.24974649089E+03  0.00000000000E+00 0. -1.
        -13    1    5    5    0    0 -0.22900963756E+03  0.15994177721E+03  0.46760974860E+03  0.54468859285E+03  0.00000000000E+00 0.  1.
          1    1    6    6  503    0 -0.54914088867E+02 -0.12272861307E+01  0.16103487358E+01  0.54951402260E+02  0.00000000000E+00 0. -1.
         -1    1    6    6    0  503 -0.33960218885E+03 -0.14498763563E+03 -0.16146232917E+03  0.40301506783E+03  0.00000000000E+00 0.  1.
<mgrwt>
<rscale>  0 0.20347820E+04</rscale>
<asrwt>0</asrwt>
<pdfrwt beam="1">  1        2 0.17141171E+00 0.20347820E+04</pdfrwt>
<pdfrwt beam="2">  1       -1 0.14292512E+00 0.20347820E+04</pdfrwt>
<totfact> 0.89554894E+00</totfact>
</mgrwt>
</event>
<event>
12    7  0.2506172E-007  0.3225793E+04  0.7818608E-02  0.8182038E-01
          4   -1    0    0  501    0  0.00000000000E+00  0.00000000000E+00  0.23033303646E+04  0.23033303646E+04  0.00000000000E+00 0. -1.
         -3   -1    0    0    0  501 -0.00000000000E+00 -0.00000000000E+00 -0.11294235324E+04  0.11294235324E+04  0.00000000000E+00 0.  1.
         24    2    1    2    0    0 -0.32822797643E+02  0.12912922583E+04 -0.23894523452E+03  0.13160646644E+04  0.80114565007E+02 0.  0.
        254    2    1    2    0    0  0.32822797643E+02 -0.12912922583E+04  0.14128520668E+04  0.21166892326E+04  0.90316627055E+03 0.  0.
         23    2    4    4    0    0 -0.17484605472E+03 -0.15701757861E+03 -0.43621649526E+02  0.25680708101E+03  0.93922125743E+02 0.  0.
         23    2    4    4    0    0  0.20766885236E+03 -0.11342746797E+04  0.14564737163E+04  0.18598821516E+04  0.90224886538E+02 0.  0.
          4    1    3    3  502    0 -0.68198863823E+01  0.72476850281E+02 -0.32050903133E+02  0.79540336110E+02  0.00000000000E+00 0. -1.
         -3    1    3    3    0  502 -0.26002911260E+02  0.12188154080E+04 -0.20689433139E+03  0.12365243283E+04  0.00000000000E+00 0.  1.
         13    1    5    5    0    0 -0.60636593461E+02 -0.11180104089E+02 -0.36033550292E+02  0.71415740146E+02  0.00000000000E+00 0. -1.
        -13    1    5    5    0    0 -0.11420946126E+03 -0.14583747453E+03 -0.75880992342E+01  0.18539134086E+03  0.00000000000E+00 0.  1.
          4    1    6    6  503    0  0.24122474532E+02 -0.24041516624E+03  0.25677633339E+03  0.35258393515E+03  0.00000000000E+00 0. -1.
         -4    1    6    6    0  503  0.18354637783E+03 -0.89385951342E+03  0.11996973829E+04  0.15072982164E+04  0.00000000000E+00 0.  1.
<mgrwt>
<rscale>  0 0.32257932E+04</rscale>
<asrwt>0</asrwt>
<pdfrwt beam="1">  1        4 0.35435852E+00 0.32257932E+04</pdfrwt>
<pdfrwt beam="2">  1       -3 0.17375747E+00 0.32257932E+04</pdfrwt>
<totfact> 0.57331613E-03</totfact>
</mgrwt>
</event>
<event>
12    7  0.1605494E-007  0.2951523E+04  0.7818608E-02  0.8257711E-01
         -1   -1    0    0    0  501 -0.00000000000E+00  0.00000000000E+00  0.11798846782E+04  0.11798846782E+04  0.00000000000E+00 0.  1.
          2   -1    0    0  501    0  0.00000000000E+00 -0.00000000000E+00 -0.18458344211E+04  0.18458344211E+04  0.00000000000E+00 0. -1.
         24    2    1    2    0    0  0.10198490561E+04 -0.72449191958E+02  0.58144629289E+03  0.11787007970E+04  0.76907703356E+02 0.  0.
        254    2    1    2    0    0 -0.10198490561E+04  0.72449191958E+02 -0.12473960358E+04  0.18470183023E+04  0.90007708348E+03 0.  0.
         23    2    4    4    0    0 -0.78798589187E+03 -0.34095113087E+03 -0.65807733952E+03  0.10856062752E+04  0.91135945131E+02 0.  0.
         23    2    4    4    0    0 -0.23186316422E+03  0.41340032283E+03 -0.58931869625E+03  0.76141202708E+03  0.88268881217E+02 0.  0.
          4    1    3    3  502    0  0.25036382178E+02 -0.13066982621E+02  0.10336537303E+02  0.30073418010E+02  0.00000000000E+00 0. -1.
         -3    1    3    3    0  502  0.99481267391E+03 -0.59382209337E+02  0.57110975559E+03  0.11486273790E+04  0.00000000000E+00 0.  1.
         13    1    5    5    0    0 -0.14791732189E+03 -0.58696991471E+02 -0.79964090453E+02  0.17809864313E+03  0.00000000000E+00 0. -1.
        -13    1    5    5    0    0 -0.64006856998E+03 -0.28225413940E+03 -0.57811324907E+03  0.90750763205E+03  0.00000000000E+00 0.  1.
          1    1    6    6  503    0 -0.93301121353E+02  0.87444519313E+02 -0.16227848453E+03  0.20660578342E+03  0.00000000000E+00 0. -1.
         -1    1    6    6    0  503 -0.13856204287E+03  0.32595580352E+03 -0.42704021172E+03  0.55480624366E+03  0.00000000000E+00 0.  1.
<mgrwt>
<rscale>  0 0.29515228E+04</rscale>
<asrwt>0</asrwt>
<pdfrwt beam="1">  1        2 0.28397452E+00 0.29515228E+04</pdfrwt>
<pdfrwt beam="2">  1       -1 0.18152072E+00 0.29515228E+04</pdfrwt>
<totfact> 0.16151448E+00</totfact>
</mgrwt>
</event>
<event>
12    7  0.1605494E-007  0.1719463E+04  0.7818608E-02  0.8750341E-01
          2   -1    0    0  501    0  0.00000000000E+00  0.00000000000E+00  0.30184119384E+04  0.30184119384E+04  0.00000000000E+00 0. -1.
         -1   -1    0    0    0  501 -0.00000000000E+00 -0.00000000000E+00 -0.24487647342E+03  0.24487647342E+03  0.00000000000E+00 0.  1.
         24    2    1    2    0    0  0.21118389096E+03 -0.23399083044E+03  0.20383496498E+04  0.20641093833E+04  0.79548143337E+02 0.  0.
        254    2    1    2    0    0 -0.21118389096E+03  0.23399083044E+03  0.73518581523E+03  0.11991790285E+04  0.89341021652E+03 0.  0.
         23    2    4    4    0    0 -0.41174766766E+03 -0.10041296314E+03  0.66380847743E+03  0.79303051608E+03  0.92934384008E+02 0.  0.
         23    2    4    4    0    0  0.20056377671E+03  0.33440379358E+03  0.71377337797E+02  0.40614851243E+03  0.88375132881E+02 0.  0.
          4    1    3    3  502    0  0.16693962555E+03 -0.18899738885E+03  0.17987317742E+04  0.18163217907E+04  0.00000000000E+00 0. -1.
         -3    1    3    3    0  502  0.44244265406E+02 -0.44993441588E+02  0.23961787552E+03  0.24778759266E+03  0.00000000000E+00 0.  1.
         13    1    5    5    0    0 -0.64350085469E+02 -0.50484246115E+02  0.10412617978E+03  0.13240790732E+03  0.00000000000E+00 0.  1.
        -13    1    5    5    0    0 -0.34739758219E+03 -0.49928717029E+02  0.55968229765E+03  0.66062260876E+03  0.00000000000E+00 0. -1.
          2    1    6    6  503    0  0.19596625349E+03  0.29258039773E+03  0.41581351412E+02  0.35459141336E+03  0.00000000000E+00 0. -1.
         -2    1    6    6    0  503  0.45975232184E+01  0.41823395855E+02  0.29795986386E+02  0.51557099078E+02  0.00000000000E+00 0.  1.
<mgrwt>
<rscale>  0 0.17194628E+04</rscale>
<asrwt>0</asrwt>
<pdfrwt beam="1">  1        2 0.46437104E+00 0.17194628E+04</pdfrwt>
<pdfrwt beam="2">  1       -1 0.37673306E-01 0.17194628E+04</pdfrwt>
<totfact> 0.12520705E+01</totfact>
</mgrwt>
</event>
<event>
12    7  0.1605494E-007  0.2672650E+04  0.7818608E-02  0.8343934E-01
         -1   -1    0    0    0  501 -0.00000000000E+00  0.00000000000E+00  0.17352737428E+04  0.17352737428E+04  0.00000000000E+00 0.  1.
          2   -1    0    0  501    0  0.00000000000E+00 -0.00000000000E+00 -0.10290965674E+04  0.10290965674E+04  0.00000000000E+00 0. -1.
         24    2    1    2    0    0  0.12155980233E+03  0.50378795381E+03 -0.78842413640E+03  0.94682541184E+03  0.79288420977E+02 0.  0.
        254    2    1    2    0    0 -0.12155980233E+03 -0.50378795381E+03  0.14946013118E+04  0.18175448984E+04  0.89501803797E+03 0.  0.
         23    2    4    4    0    0 -0.28079500656E+03  0.13446287295E+03  0.76314984771E+03  0.82954628410E+03  0.93932142947E+02 0.  0.
         23    2    4    4    0    0  0.15923520423E+03 -0.63825082675E+03  0.73145146412E+03  0.98799861427E+03  0.91651782921E+02 0.  0.
          4    1    3    3  502    0  0.85197416683E+02  0.42332746547E+03 -0.69544897168E+03  0.81860491999E+03  0.00000000000E+00 0. -1.
         -3    1    3    3    0  502  0.36362385648E+02  0.80460488341E+02 -0.92975164717E+02  0.12822049184E+03  0.00000000000E+00 0.  1.
         13    1    5    5    0    0 -0.17144249078E+03  0.11553512845E+03  0.57585025596E+03  0.61183691523E+03  0.00000000000E+00 0. -1.
        -13    1    5    5    0    0 -0.10935251578E+03  0.18927744497E+02  0.18729959176E+03  0.21770936887E+03  0.00000000000E+00 0.  1.
          1    1    6    6  503    0  0.16976341498E+03 -0.57433090995E+03  0.64831697486E+03  0.88260439104E+03  0.00000000000E+00 0. -1.
         -1    1    6    6    0  503 -0.10528210742E+02 -0.63919916802E+02  0.83134489258E+02  0.10539422323E+03  0.00000000000E+00 0.  1.
<mgrwt>
<rscale>  0 0.26726498E+04</rscale>
<asrwt>0</asrwt>
<pdfrwt beam="1">  1        2 0.15832255E+00 0.26726498E+04</pdfrwt>
<pdfrwt beam="2">  1       -1 0.26696519E+00 0.26726498E+04</pdfrwt>
<totfact> 0.13075939E+00</totfact>
</mgrwt>
</event>
<event>
12    7  0.1605494E-007  0.1158771E+04  0.7818608E-02  0.9149730E-01
          2   -1    0    0  501    0  0.00000000000E+00  0.00000000000E+00  0.48643718277E+03  0.48643718277E+03  0.00000000000E+00 0. -1.
         -1   -1    0    0    0  501 -0.00000000000E+00 -0.00000000000E+00 -0.69009383807E+03  0.69009383807E+03  0.00000000000E+00 0.  1.
         24    2    1    2    0    0 -0.12712741048E+03 -0.10857698356E+03  0.91466834920E+02  0.20627630694E+03  0.78951840124E+02 0.  0.
        254    2    1    2    0    0  0.12712741048E+03  0.10857698356E+03 -0.29512349022E+03  0.97025471390E+03  0.90903575040E+03 0.  0.
         23    2    4    4    0    0 -0.84102155397E+02 -0.41854036319E+02  0.29368717321E+03  0.32091470985E+03  0.88933471697E+02 0.  0.
         23    2    4    4    0    0  0.21122956588E+03  0.15043101988E+03 -0.58881066344E+03  0.64934000405E+03  0.87732674861E+02 0.  0.
          4    1    3    3  502    0 -0.92592555287E+02 -0.10723126237E+03  0.96404389095E+02  0.17136432289E+03  0.00000000000E+00 0. -1.
         -3    1    3    3    0  502 -0.34534855193E+02 -0.13457211930E+01 -0.49375541742E+01  0.34911984045E+02  0.00000000000E+00 0.  1.
         13    1    5    5    0    0 -0.18900748319E+02 -0.58404666768E+02  0.12349906798E+03  0.13791433275E+03  0.00000000000E+00 0.  1.
        -13    1    5    5    0    0 -0.65201407078E+02  0.16550630449E+02  0.17018810523E+03  0.18300037709E+03  0.00000000000E+00 0. -1.
          4    1    6    6  503    0  0.11018520806E+03  0.67823041455E+02 -0.39524644147E+03  0.41588519392E+03  0.00000000000E+00 0. -1.
         -4    1    6    6    0  503  0.10104435782E+03  0.82607978428E+02 -0.19356422197E+03  0.23345481013E+03  0.00000000000E+00 0.  1.
<mgrwt>
<rscale>  0 0.11587706E+04</rscale>
<asrwt>0</asrwt>
<pdfrwt beam="1">  1        2 0.74836490E-01 0.11587706E+04</pdfrwt>
<pdfrwt beam="2">  1       -1 0.10616828E+00 0.11587706E+04</pdfrwt>
<totfact> 0.59717660E+01</totfact>
</mgrwt>
</event>
<event>
12    7  0.1605494E-007  0.2155097E+04  0.7818608E-02  0.8537354E-01
          2   -1    0    0  501    0  0.00000000000E+00  0.00000000000E+00  0.26384778539E+04  0.26384778539E+04  0.00000000000E+00 0. -1.
         -1   -1    0    0    0  501 -0.00000000000E+00 -0.00000000000E+00 -0.44006824095E+03  0.44006824095E+03  0.00000000000E+00 0.  1.
         24    2    1    2    0    0  0.22409968682E+03 -0.23765697634E+03  0.20598141508E+04  0.20870876209E+04  0.79993085352E+02 0.  0.
        254    2    1    2    0    0 -0.22409968682E+03  0.23765697634E+03  0.13859546213E+03  0.99145847388E+03  0.92578598783E+03 0.  0.
         23    2    4    4    0    0  0.26445221044E+03 -0.17012274179E+03 -0.25759439788E+02  0.32817880556E+03  0.90338589780E+02 0.  0.
         23    2    4    4    0    0 -0.48855189726E+03  0.40777971812E+03  0.16435490192E+03  0.66327966831E+03  0.89219559435E+02 0.  0.
          2    1    3    3  502    0  0.20358032037E+03 -0.23659068014E+03  0.18369328624E+04  0.18632612371E+04  0.00000000000E+00 0. -1.
         -1    1    3    3    0  502  0.20519366448E+02 -0.10662961904E+01  0.22288128835E+03  0.22382638380E+03  0.00000000000E+00 0.  1.
         13    1    5    5    0    0  0.21100739583E+03 -0.17217262779E+03 -0.32508477412E+02  0.27427055249E+03  0.00000000000E+00 0. -1.
        -13    1    5    5    0    0  0.53444814607E+02  0.20498860064E+01  0.67490376239E+01  0.53908253077E+02  0.00000000000E+00 0.  1.
          1    1    6    6  503    0 -0.31181009456E+03  0.28448985513E+03  0.69256981222E+02  0.42773419572E+03  0.00000000000E+00 0. -1.
         -1    1    6    6    0  503 -0.17674180269E+03  0.12328986300E+03  0.95097920699E+02  0.23554547259E+03  0.00000000000E+00 0.  1.
<mgrwt>
<rscale>  0 0.21550966E+04</rscale>
<asrwt>0</asrwt>
<pdfrwt beam="1">  1        2 0.40591966E+00 0.21550966E+04</pdfrwt>
<pdfrwt beam="2">  1       -1 0.67702808E-01 0.21550966E+04</pdfrwt>
<totfact> 0.66650097E+00</totfact>
</mgrwt>
</event>
<event>
12    7  0.1605494E-007  0.2532836E+04  0.7818608E-02  0.8391380E-01
          2   -1    0    0  501    0  0.00000000000E+00  0.00000000000E+00  0.14754673279E+04  0.14754673279E+04  0.00000000000E+00 0. -1.
         -1   -1    0    0    0  501 -0.00000000000E+00 -0.00000000000E+00 -0.10869875215E+04  0.10869875215E+04  0.00000000000E+00 0.  1.
         24    2    1    2    0    0 -0.76359181047E+03  0.46430242333E+03  0.82349368760E+03  0.12179918339E+04  0.81933269763E+02 0.  0.
        254    2    1    2    0    0  0.76359181047E+03 -0.46430242333E+03 -0.43501388116E+03  0.13444630155E+04  0.90536983042E+03 0.  0.
         23    2    4    4    0    0  0.12542188887E+03 -0.30460153765E+03 -0.57211990185E+03  0.66646464747E+03  0.91330155444E+02 0.  0.
         23    2    4    4    0    0  0.63816992160E+03 -0.15970088568E+03  0.13710602068E+03  0.67799836800E+03  0.90102743462E+02 0.  0.
          2    1    3    3  502    0 -0.73182458530E+03  0.45679282753E+03  0.80748854041E+03  0.11816364305E+04  0.00000000000E+00 0. -1.
         -1    1    3    3    0  502 -0.31767225175E+02  0.75095957975E+01  0.16005147183E+02  0.36355403460E+02  0.00000000000E+00 0.  1.
         13    1    5    5    0    0  0.12387319172E+03 -0.27818912771E+03 -0.55982560555E+03  0.63728993953E+03  0.00000000000E+00 0.  1.
        -13    1    5    5    0    0  0.15486971542E+01 -0.26412409941E+02 -0.12294296295E+02  0.29174707936E+02  0.00000000000E+00 0. -1.
          1    1    6    6  503    0  0.15170810521E+03 -0.48310033765E+02  0.71928398944E+02  0.17470805111E+03  0.00000000000E+00 0. -1.
         -1    1    6    6    0  503  0.48646181639E+03 -0.11139085192E+03  0.65177621737E+02  0.50329031689E+03  0.00000000000E+00 0.  1.
<mgrwt>
<rscale>  0 0.25328360E+04</rscale>
<asrwt>0</asrwt>
<pdfrwt beam="1">  1        2 0.22699497E+00 0.25328360E+04</pdfrwt>
<pdfrwt beam="2">  1       -1 0.16722885E+00 0.25328360E+04</pdfrwt>
<totfact> 0.34252214E+00</totfact>
</mgrwt>
</event>
<event>
12    7  0.1605494E-007  0.1469062E+04  0.7818608E-02  0.8905291E-01
         -1   -1    0    0    0  501 -0.00000000000E+00  0.00000000000E+00  0.12428208750E+04  0.12428208750E+04  0.00000000000E+00 0.  1.
          2   -1    0    0  501    0  0.00000000000E+00 -0.00000000000E+00 -0.43412212481E+03  0.43412212481E+03  0.00000000000E+00 0. -1.
         24    2    1    2    0    0  0.10697020738E+03 -0.17098154952E+03  0.67114799795E+03  0.70548338601E+03  0.81177935727E+02 0.  0.
        254    2    1    2    0    0 -0.10697020738E+03  0.17098154952E+03  0.13755075229E+03  0.97145961385E+03  0.94028519947E+03 0.  0.
         23    2    4    4    0    0 -0.19213088322E+03 -0.26505198691E+03 -0.21050808514E+03  0.39979195447E+03  0.91395409625E+02 0.  0.
         23    2    4    4    0    0  0.85160675834E+02  0.43603353642E+03  0.34805883743E+03  0.57166765938E+03  0.91002048726E+02 0.  0.
          2    1    3    3  502    0 -0.13132021527E+02 -0.26066145127E+02  0.92129026411E+02  0.96641871973E+02  0.00000000000E+00 0. -1.
         -1    1    3    3    0  502  0.12010222891E+03 -0.14491540439E+03  0.57901897154E+03  0.60884151404E+03  0.00000000000E+00 0.  1.
         13    1    5    5    0    0 -0.87785558821E+02 -0.72786431551E+02 -0.34858345971E+02  0.11924459417E+03  0.00000000000E+00 0. -1.
        -13    1    5    5    0    0 -0.10434532439E+03 -0.19226555535E+03 -0.17564973917E+03  0.28054736030E+03  0.00000000000E+00 0.  1.
          3    1    6    6  503    0  0.10129301075E+03  0.40040527547E+03  0.30453555427E+03  0.51315354668E+03  0.00000000000E+00 0. -1.
         -3    1    6    6    0  503 -0.16132334915E+02  0.35628260949E+02  0.43523283161E+02  0.58514112701E+02  0.00000000000E+00 0.  1.
<mgrwt>
<rscale>  0 0.14690623E+04</rscale>
<asrwt>0</asrwt>
<pdfrwt beam="1">  1        2 0.66788020E-01 0.14690623E+04</pdfrwt>
<pdfrwt beam="2">  1       -1 0.19120321E+00 0.14690623E+04</pdfrwt>
<totfact> 0.13907906E+01</totfact>
</mgrwt>
</event>
<event>
12    7  0.1605494E-007  0.2074759E+04  0.7818608E-02  0.8572445E-01
         -1   -1    0    0    0  501 -0.00000000000E+00  0.00000000000E+00  0.80415841774E+03  0.80415841774E+03  0.00000000000E+00 0.  1.
          2   -1    0    0  501    0  0.00000000000E+00 -0.00000000000E+00 -0.13382386579E+04  0.13382386579E+04  0.00000000000E+00 0. -1.
         24    2    1    2    0    0  0.75482127726E+03 -0.19986285442E+03 -0.53336554044E+03  0.95163643789E+03  0.10692422093E+03 0.  0.
        254    2    1    2    0    0 -0.75482127726E+03  0.19986285442E+03 -0.71469968192E+00  0.11907606377E+04  0.89900504133E+03 0.  0.
         23    2    4    4    0    0 -0.37479348282E+03 -0.29124016626E+03 -0.21378922575E+03  0.52822349482E+03  0.89572530501E+02 0.  0.
         23    2    4    4    0    0 -0.38002779444E+03  0.49110302068E+03  0.21307452607E+03  0.66253714289E+03  0.89170682300E+02 0.  0.
          4    1    3    3  502    0  0.51639479858E+03 -0.17805456223E+03 -0.33551390425E+03  0.64104336442E+03  0.00000000000E+00 0. -1.
         -3    1    3    3    0  502  0.23842647868E+03 -0.21808292189E+02 -0.19785163619E+03  0.31059307347E+03  0.00000000000E+00 0.  1.
         13    1    5    5    0    0 -0.95551157215E+02 -0.28928817893E+02 -0.40611774169E+02  0.10777855237E+03  0.00000000000E+00 0. -1.
        -13    1    5    5    0    0 -0.27924232560E+03 -0.26231134837E+03 -0.17317745158E+03  0.42044494245E+03  0.00000000000E+00 0.  1.
          3    1    6    6  503    0 -0.82155884968E+02  0.73210154092E+02  0.95202338791E+01  0.11045338813E+03  0.00000000000E+00 0. -1.
         -3    1    6    6    0  503 -0.29787190947E+03  0.41789286659E+03  0.20355429219E+03  0.55208375476E+03  0.00000000000E+00 0.  1.
<mgrwt>
<rscale>  0 0.20747587E+04</rscale>
<asrwt>0</asrwt>
<pdfrwt beam="1">  1        2 0.20588287E+00 0.20747587E+04</pdfrwt>
<pdfrwt beam="2">  1       -1 0.12371668E+00 0.20747587E+04</pdfrwt>
<totfact> 0.94920732E+00</totfact>
</mgrwt>
</event>
<event>
12    7  0.1605494E-007  0.2049271E+04  0.7818608E-02  0.8583925E-01
         -1   -1    0    0    0  501 -0.00000000000E+00  0.00000000000E+00  0.16275545281E+04  0.16275545281E+04  0.00000000000E+00 0.  1.
          2   -1    0    0  501    0  0.00000000000E+00 -0.00000000000E+00 -0.64506488064E+03  0.64506488064E+03  0.00000000000E+00 0. -1.
         24    2    1    2    0    0  0.31180269994E+03  0.58357342168E+03 -0.14943277326E+03  0.68292120542E+03  0.79198212754E+02 0.  0.
        254    2    1    2    0    0 -0.31180269994E+03 -0.58357342168E+03  0.11319224207E+04  0.15896982033E+04  0.89895113823E+03 0.  0.
         23    2    4    4    0    0  0.17371883374E+03  0.93164431274E+02  0.48445754992E+03  0.53073730508E+03  0.90139474585E+02 0.  0.
         23    2    4    4    0    0 -0.48552153368E+03 -0.67673785295E+03  0.64746487078E+03  0.10589608982E+04  0.92098554820E+02 0.  0.
          2    1    3    3  502    0  0.24321872572E+03  0.39359077512E+03 -0.12638664652E+03  0.47962759639E+03  0.00000000000E+00 0. -1.
         -1    1    3    3    0  502  0.68583974224E+02  0.18998264656E+03 -0.23046126737E+02  0.20329360903E+03  0.00000000000E+00 0.  1.
         13    1    5    5    0    0  0.10770141772E+03  0.14643512742E+02  0.18962416187E+03  0.21856658163E+03  0.00000000000E+00 0. -1.
        -13    1    5    5    0    0  0.66017416020E+02  0.78520918532E+02  0.29483338805E+03  0.31217072344E+03  0.00000000000E+00 0.  1.
          4    1    6    6  503    0  0.38300841326E+00 -0.13880390384E+02  0.22569920184E+02  0.26499306213E+02  0.00000000000E+00 0. -1.
         -4    1    6    6    0  503 -0.48590454209E+03 -0.66285746257E+03  0.62489495060E+03  0.10324615920E+04  0.00000000000E+00 0.  1.
<mgrwt>
<rscale>  0 0.20492714E+04</rscale>
<asrwt>0</asrwt>
<pdfrwt beam="1">  1        2 0.99240751E-01 0.20492714E+04</pdfrwt>
<pdfrwt beam="2">  1       -1 0.25039300E+00 0.20492714E+04</pdfrwt>
<totfact> 0.33234307E+00</totfact>
</mgrwt>
</event>
<event>
12    7  0.1605494E-007  0.1329393E+04  0.7818608E-02  0.9006575E-01
          2   -1    0    0  501    0  0.00000000000E+00  0.00000000000E+00  0.10566137019E+04  0.10566137019E+04  0.00000000000E+00 0. -1.
         -1   -1    0    0    0  501 -0.00000000000E+00 -0.00000000000E+00 -0.41814872909E+03  0.41814872909E+03  0.00000000000E+00 0.  1.
         24    2    1    2    0    0 -0.77758696586E+02  0.92553301798E+02  0.54449292493E+03  0.56334271789E+03  0.79182977525E+02 0.  0.
        254    2    1    2    0    0  0.77758696586E+02 -0.92553301798E+02  0.93972047835E+02  0.91141971306E+03  0.89846681575E+03 0.  0.
         23    2    4    4    0    0 -0.36492331630E+03 -0.76841646375E+02 -0.13232336805E+03  0.40583082058E+03  0.90086157645E+02 0.  0.
         23    2    4    4    0    0  0.44268201289E+03 -0.15711655423E+02  0.22629541588E+03  0.50558889248E+03  0.90533376715E+02 0.  0.
          4    1    3    3  502    0 -0.64129198001E+02  0.10584260619E+03  0.49702099206E+03  0.51219632747E+03  0.00000000000E+00 0. -1.
         -3    1    3    3    0  502 -0.13629498585E+02 -0.13289304388E+02  0.47471932869E+02  0.51146390422E+02  0.00000000000E+00 0.  1.
         13    1    5    5    0    0 -0.28680626317E+03 -0.51824673835E+02 -0.14021822748E+03  0.32342662341E+03  0.00000000000E+00 0. -1.
        -13    1    5    5    0    0 -0.78117053130E+02 -0.25016972541E+02  0.78948594354E+01  0.82404197164E+02  0.00000000000E+00 0.  1.
          3    1    6    6  503    0  0.22259982817E+03 -0.13831188882E+02  0.16405198682E+03  0.27686646541E+03  0.00000000000E+00 0. -1.
         -3    1    6    6    0  503  0.22008218472E+03 -0.18804665407E+01  0.62243429060E+02  0.22872242707E+03  0.00000000000E+00 0.  1.
<mgrwt>
<rscale>  0 0.13293934E+04</rscale>
<asrwt>0</asrwt>
<pdfrwt beam="1">  1        2 0.16255595E+00 0.13293934E+04</pdfrwt>
<pdfrwt beam="2">  1       -1 0.64330574E-01 0.13293934E+04</pdfrwt>
<totfact> 0.63391841E+01</totfact>
</mgrwt>
</event>
<event>
12    7  0.1605494E-007  0.1846053E+04  0.7818608E-02  0.8682185E-01
          2   -1    0    0  501    0  0.00000000000E+00  0.00000000000E+00  0.66905940330E+03  0.66905940330E+03  0.00000000000E+00 0. -1.
         -1   -1    0    0    0  501 -0.00000000000E+00 -0.00000000000E+00 -0.12733970905E+04  0.12733970905E+04  0.00000000000E+00 0.  1.
         24    2    1    2    0    0 -0.30404435127E+03  0.11507224332E+03 -0.88448391853E+03  0.94450778103E+03  0.64019977807E+02 0.  0.
        254    2    1    2    0    0  0.30404435127E+03 -0.11507224332E+03  0.28014623130E+03  0.99794871279E+03  0.90096344750E+03 0.  0.
         23    2    4    4    0    0  0.26190729796E+03  0.30779262709E+03  0.36749991966E+03  0.55415435856E+03  0.93269116786E+02 0.  0.
         23    2    4    4    0    0  0.42137053312E+02 -0.42286487040E+03 -0.87353688359E+02  0.44379435423E+03  0.93448018138E+02 0.  0.
          4    1    3    3  502    0 -0.53544979728E+02  0.15118538161E+02 -0.93446214467E+02  0.10875582765E+03  0.00000000000E+00 0. -1.
         -3    1    3    3    0  502 -0.25049937154E+03  0.99953705155E+02 -0.79103770406E+03  0.83575195337E+03  0.00000000000E+00 0.  1.
         13    1    5    5    0    0  0.16815163320E+03  0.13535292549E+03  0.22347060490E+03  0.31070001198E+03  0.00000000000E+00 0. -1.
        -13    1    5    5    0    0  0.93755664762E+02  0.17243970159E+03  0.14402931476E+03  0.24345434659E+03  0.00000000000E+00 0.  1.
          1    1    6    6  503    0 -0.16676714336E+02 -0.24886343394E+03 -0.71349216632E+02  0.25942596683E+03  0.00000000000E+00 0. -1.
         -1    1    6    6    0  503  0.58813767648E+02 -0.17400143647E+03 -0.16004471728E+02  0.18436838740E+03  0.00000000000E+00 0.  1.
<mgrwt>
<rscale>  0 0.18460534E+04</rscale>
<asrwt>0</asrwt>
<pdfrwt beam="1">  1        2 0.10293222E+00 0.18460534E+04</pdfrwt>
<pdfrwt beam="2">  1       -1 0.19590724E+00 0.18460534E+04</pdfrwt>
<totfact> 0.74835901E+00</totfact>
</mgrwt>
</event>
<event>
12    7  0.1605494E-007  0.1555297E+04  0.7818608E-02  0.8848491E-01
          2   -1    0    0  501    0  0.00000000000E+00  0.00000000000E+00  0.63622394886E+03  0.63622394886E+03  0.00000000000E+00 0. -1.
         -1   -1    0    0    0  501 -0.00000000000E+00 -0.00000000000E+00 -0.95051045508E+03  0.95051045508E+03  0.00000000000E+00 0.  1.
         24    2    1    2    0    0 -0.15761130671E+03 -0.25350011636E+03  0.29805873230E+03  0.42930385816E+03  0.79744352354E+02 0.  0.
        254    2    1    2    0    0  0.15761130671E+03  0.25350011636E+03 -0.61234523851E+03  0.11574305458E+04  0.93572172370E+03 0.  0.
         23    2    4    4    0    0 -0.38574406111E+03  0.10477570677E+03 -0.29119165437E+03  0.50295298291E+03  0.91611647914E+02 0.  0.
         23    2    4    4    0    0  0.54335536782E+03  0.14872440959E+03 -0.32115358415E+03  0.65447756288E+03  0.88584704935E+02 0.  0.
          4    1    3    3  502    0 -0.10346081393E+03 -0.22460217878E+03  0.23098475416E+03  0.33838474461E+03  0.00000000000E+00 0. -1.
         -3    1    3    3    0  502 -0.54150492781E+02 -0.28897937581E+02  0.67073978135E+02  0.90919113544E+02  0.00000000000E+00 0.  1.
         13    1    5    5    0    0 -0.35004978317E+03  0.10193734810E+03 -0.22709419078E+03  0.42953212350E+03  0.00000000000E+00 0. -1.
        -13    1    5    5    0    0 -0.35694277940E+02  0.28383586703E+01 -0.64097463587E+02  0.73420859406E+02  0.00000000000E+00 0.  1.
          3    1    6    6  503    0  0.27144964955E+03  0.28631303022E+02 -0.15859588898E+03  0.31568547599E+03  0.00000000000E+00 0. -1.
         -3    1    6    6    0  503  0.27190571828E+03  0.12009310657E+03 -0.16255769517E+03  0.33879208689E+03  0.00000000000E+00 0.  1.
<mgrwt>
<rscale>  0 0.15552974E+04</rscale>
<asrwt>0</asrwt>
<pdfrwt beam="1">  1        2 0.97880608E-01 0.15552974E+04</pdfrwt>
<pdfrwt beam="2">  1       -1 0.14623238E+00 0.15552974E+04</pdfrwt>
<totfact> 0.18960000E+01</totfact>
</mgrwt>
</event>
<event>
12    7  0.1605494E-007  0.1694443E+04  0.7818608E-02  0.8764540E-01
          2   -1    0    0  501    0  0.00000000000E+00  0.00000000000E+00  0.11512610321E+04  0.11512610321E+04  0.00000000000E+00 0. -1.
         -1   -1    0    0    0  501 -0.00000000000E+00 -0.00000000000E+00 -0.62347620722E+03  0.62347620722E+03  0.00000000000E+00 0.  1.
         24    2    1    2    0    0 -0.21820597974E+03 -0.52960209501E+03 -0.70815746450E+00  0.57963071806E+03  0.88763952111E+02 0.  0.
        254    2    1    2    0    0  0.21820597974E+03  0.52960209501E+03  0.52849298230E+03  0.11951065212E+04  0.90602568180E+03 0.  0.
         23    2    4    4    0    0  0.46159357267E+03  0.55679908740E+03  0.16546398517E+03  0.74750884784E+03  0.91089500810E+02 0.  0.
         23    2    4    4    0    0 -0.24338759293E+03 -0.27196992387E+02  0.36302899714E+03  0.44759767338E+03  0.92609004241E+02 0.  0.
          2    1    3    3  502    0 -0.59658657240E+02 -0.14253620316E+03  0.39316356931E+02  0.15944121336E+03  0.00000000000E+00 0. -1.
         -1    1    3    3    0  502 -0.15854732250E+03 -0.38706589186E+03 -0.40024514395E+02  0.42018950470E+03  0.00000000000E+00 0.  1.
         13    1    5    5    0    0  0.39727376248E+03  0.49592934849E+03  0.11553980830E+03  0.64584967938E+03  0.00000000000E+00 0.  1.
        -13    1    5    5    0    0  0.64319810185E+02  0.60869738914E+02  0.49924176866E+02  0.10165916847E+03  0.00000000000E+00 0. -1.
          1    1    6    6  503    0 -0.26698460068E+02  0.26986438676E+02  0.63044939340E+02  0.73591711618E+02  0.00000000000E+00 0. -1.
         -1    1    6    6    0  503 -0.21668913286E+03 -0.54183431063E+02  0.29998405780E+03  0.37400596176E+03  0.00000000000E+00 0.  1.
<mgrwt>
<rscale>  0 0.16944425E+04</rscale>
<asrwt>0</asrwt>
<pdfrwt beam="1">  1        2 0.17711708E+00 0.16944425E+04</pdfrwt>
<pdfrwt beam="2">  1       -1 0.95919416E-01 0.16944425E+04</pdfrwt>
<totfact> 0.23056716E+01</totfact>
</mgrwt>
</event>
<event>
12    7  0.1605494E-007  0.2535595E+04  0.7818608E-02  0.8390413E-01
         -1   -1    0    0    0  501 -0.00000000000E+00  0.00000000000E+00  0.73915880758E+03  0.73915880758E+03  0.00000000000E+00 0.  1.
          2   -1    0    0  501    0  0.00000000000E+00 -0.00000000000E+00 -0.21745130060E+04  0.21745130060E+04  0.00000000000E+00 0. -1.
         24    2    1    2    0    0 -0.60039642330E+02 -0.56284429410E+03 -0.17258658293E+04  0.18179604497E+04  0.77258513321E+02 0.  0.
        254    2    1    2    0    0  0.60039642330E+02  0.56284429410E+03  0.29051163091E+03  0.10957113638E+04  0.89206946316E+03 0.  0.
         23    2    4    4    0    0 -0.33628083706E+03 -0.14949942308E+02  0.11966917265E+03  0.36868642107E+03  0.91107980193E+02 0.  0.
         23    2    4    4    0    0  0.39632047939E+03  0.57779423641E+03  0.17084245826E+03  0.72702494277E+03  0.91989237680E+02 0.  0.
          2    1    3    3  502    0 -0.68130512670E+02 -0.42202278220E+03 -0.12165073168E+04  0.12894320639E+04  0.00000000000E+00 0. -1.
         -1    1    3    3    0  502  0.80908703394E+01 -0.14082151190E+03 -0.50935851248E+03  0.52852838584E+03  0.00000000000E+00 0.  1.
         13    1    5    5    0    0 -0.26765027485E+02 -0.97363808868E+01 -0.13717111304E+02  0.31612069714E+02  0.00000000000E+00 0.  1.
        -13    1    5    5    0    0 -0.30951580957E+03 -0.52135614216E+01  0.13338628396E+03  0.33707435136E+03  0.00000000000E+00 0. -1.
          3    1    6    6  503    0  0.29719341253E+03  0.35617887316E+03  0.11037077295E+03  0.47683227833E+03  0.00000000000E+00 0. -1.
         -3    1    6    6    0  503  0.99127066855E+02  0.22161536325E+03  0.60471685307E+02  0.25019266444E+03  0.00000000000E+00 0.  1.
<mgrwt>
<rscale>  0 0.25355950E+04</rscale>
<asrwt>0</asrwt>
<pdfrwt beam="1">  1        2 0.33454046E+00 0.25355950E+04</pdfrwt>
<pdfrwt beam="2">  1       -1 0.11371674E+00 0.25355950E+04</pdfrwt>
<totfact> 0.38065924E+00</totfact>
</mgrwt>
</event>
<event>
12    7  0.1605494E-007  0.1549596E+04  0.7818608E-02  0.8852126E-01
          2   -1    0    0  501    0  0.00000000000E+00  0.00000000000E+00  0.17982286013E+04  0.17982286013E+04  0.00000000000E+00 0. -1.
         -1   -1    0    0    0  501 -0.00000000000E+00 -0.00000000000E+00 -0.33383526967E+03  0.33383526967E+03  0.00000000000E+00 0.  1.
         24    2    1    2    0    0 -0.31253262848E+03 -0.35770810492E+03  0.74314102327E+03  0.88568160701E+03  0.80880135689E+02 0.  0.
        254    2    1    2    0    0  0.31253262848E+03  0.35770810492E+03  0.72125230836E+03  0.12463822639E+04  0.89868355019E+03 0.  0.
         23    2    4    4    0    0 -0.24591370194E+03 -0.75900645712E+02  0.75019714991E+02  0.28355644991E+03  0.92422106802E+02 0.  0.
         23    2    4    4    0    0  0.55844633042E+03  0.43360875063E+03  0.64623259337E+03  0.96282581404E+03  0.97663354793E+02 0.  0.
          4    1    3    3  502    0 -0.30695111944E+03 -0.34609373898E+03  0.73953156317E+03  0.87229971845E+03  0.00000000000E+00 0. -1.
         -1    1    3    3    0  502 -0.55815090371E+01 -0.11614365935E+02  0.36094600972E+01  0.13381888558E+02  0.00000000000E+00 0.  1.
         13    1    5    5    0    0 -0.68645482025E+02 -0.67010374824E+02  0.24272425617E+02  0.98953237349E+02  0.00000000000E+00 0. -1.
        -13    1    5    5    0    0 -0.17726821992E+03 -0.88902708879E+01  0.50747289374E+02  0.18460321256E+03  0.00000000000E+00 0.  1.
          1    1    6    6  503    0  0.72871138112E+02  0.10334442289E+03  0.11820966061E+03  0.17310053834E+03  0.00000000000E+00 0. -1.
         -1    1    6    6    0  503  0.48557519231E+03  0.33026432774E+03  0.52802293276E+03  0.78972527570E+03  0.00000000000E+00 0.  1.
<mgrwt>
<rscale>  0 0.15495962E+04</rscale>
<asrwt>0</asrwt>
<pdfrwt beam="1">  1        2 0.27665055E+00 0.15495962E+04</pdfrwt>
<pdfrwt beam="2">  1       -1 0.51359273E-01 0.15495962E+04</pdfrwt>
<totfact> 0.36162830E+01</totfact>
</mgrwt>
</event>
<event>
12    7  0.1605494E-007  0.4084940E+04  0.7818608E-02  0.7987627E-01
          2   -1    0    0  501    0  0.00000000000E+00  0.00000000000E+00  0.20622256467E+04  0.20622256467E+04  0.00000000000E+00 0. -1.
         -1   -1    0    0    0  501 -0.00000000000E+00 -0.00000000000E+00 -0.20229035896E+04  0.20229035896E+04  0.00000000000E+00 0.  1.
         24    2    1    2    0    0 -0.14333358462E+04  0.20512819019E+03  0.13151674838E+04  0.19577154148E+04  0.80342469431E+02 0.  0.
        254    2    1    2    0    0  0.14333358462E+04 -0.20512819019E+03 -0.12758454268E+04  0.21274138215E+04  0.89530932766E+03 0.  0.
         23    2    4    4    0    0 -0.51461534196E+02  0.13511250533E+03 -0.83263107267E+02  0.19013996609E+03  0.91196398352E+02 0.  0.
         23    2    4    4    0    0  0.14847973804E+04 -0.34024069552E+03 -0.11925823196E+04  0.19372738554E+04  0.10193336095E+03 0.  0.
          2    1    3    3  502    0 -0.13851349409E+04  0.21214733362E+03  0.12654280350E+04  0.18880978278E+04  0.00000000000E+00 0. -1.
         -1    1    3    3    0  502 -0.48200905344E+02 -0.70191434302E+01  0.49739448852E+02  0.69617587021E+02  0.00000000000E+00 0.  1.
         13    1    5    5    0    0 -0.66368482535E+02  0.56301540466E+02 -0.62912803395E+02  0.10739022192E+03  0.00000000000E+00 0. -1.
        -13    1    5    5    0    0  0.14906948339E+02  0.78810964866E+02 -0.20350303872E+02  0.82749744167E+02  0.00000000000E+00 0.  1.
          2    1    6    6  503    0  0.57462895517E+03 -0.98443101895E+02 -0.40879761176E+03  0.71204281319E+03  0.00000000000E+00 0. -1.
         -2    1    6    6    0  503  0.91016842525E+03 -0.24179759363E+03 -0.78378470780E+03  0.12252310422E+04  0.00000000000E+00 0.  1.
<mgrwt>
<rscale>  0 0.40849400E+04</rscale>
<asrwt>0</asrwt>
<pdfrwt beam="1">  1        2 0.31726548E+00 0.40849400E+04</pdfrwt>
<pdfrwt beam="2">  1       -1 0.31121594E+00 0.40849400E+04</pdfrwt>
<totfact> 0.15352396E-01</totfact>
</mgrwt>
</event>
<event>
12    7  0.1605494E-007  0.1228145E+04  0.7818608E-02  0.9088572E-01
          2   -1    0    0  501    0  0.00000000000E+00  0.00000000000E+00  0.58184251475E+03  0.58184251475E+03  0.00000000000E+00 0. -1.
         -1   -1    0    0    0  501 -0.00000000000E+00 -0.00000000000E+00 -0.64808767888E+03  0.64808767888E+03  0.00000000000E+00 0.  1.
         24    2    1    2    0    0 -0.19359115050E+03  0.96746853704E+01  0.17884250984E+03  0.27596658010E+03  0.81251319489E+02 0.  0.
        254    2    1    2    0    0  0.19359115050E+03 -0.96746853704E+01 -0.24508767397E+03  0.95396361353E+03  0.90133649372E+03 0.  0.
         23    2    4    4    0    0  0.85949724243E+02  0.43292734137E+03 -0.17770978845E+03  0.48477779223E+03  0.92818645348E+02 0.  0.
         23    2    4    4    0    0  0.10764142626E+03 -0.44260202674E+03 -0.67377885524E+02  0.46918582130E+03  0.90068444733E+02 0.  0.
          2    1    3    3  502    0 -0.11750900863E+03  0.28724098965E+02  0.14930112196E+03  0.19215687858E+03  0.00000000000E+00 0. -1.
         -1    1    3    3    0  502 -0.76082141874E+02 -0.19049413594E+02  0.29541387880E+02  0.83809701516E+02  0.00000000000E+00 0.  1.
         13    1    5    5    0    0  0.10341039426E+03  0.30843263543E+03 -0.12666114635E+03  0.34909518220E+03  0.00000000000E+00 0.  1.
        -13    1    5    5    0    0 -0.17460670017E+02  0.12449470594E+03 -0.51048642098E+02  0.13568261003E+03  0.00000000000E+00 0. -1.
          3    1    6    6  503    0  0.35969775606E+02 -0.35070791559E+02 -0.12571839023E+02  0.51786449137E+02  0.00000000000E+00 0. -1.
         -3    1    6    6    0  503  0.71671650651E+02 -0.40753123518E+03 -0.54806046501E+02  0.41739937217E+03  0.00000000000E+00 0.  1.
<mgrwt>
<rscale>  0 0.12281449E+04</rscale>
<asrwt>0</asrwt>
<pdfrwt beam="1">  1        2 0.89514233E-01 0.12281449E+04</pdfrwt>
<pdfrwt beam="2">  1       -1 0.99705797E-01 0.12281449E+04</pdfrwt>
<totfact> 0.55631103E+01</totfact>
</mgrwt>
</event>
<event>
12    7  0.1605494E-007  0.1465686E+04  0.7818608E-02  0.8907598E-01
          2   -1    0    0  501    0  0.00000000000E+00  0.00000000000E+00  0.94883701988E+03  0.94883701988E+03  0.00000000000E+00 0. -1.
         -1   -1    0    0    0  501 -0.00000000000E+00 -0.00000000000E+00 -0.56601776523E+03  0.56601776523E+03  0.00000000000E+00 0.  1.
         24    2    1    2    0    0  0.13169113941E+03 -0.17295277940E+03  0.52842932609E+03  0.57687348917E+03  0.79311094613E+02 0.  0.
        254    2    1    2    0    0 -0.13169113941E+03  0.17295277940E+03 -0.14561007144E+03  0.93798129594E+03  0.90075046408E+03 0.  0.
         23    2    4    4    0    0  0.23643191651E+03  0.23364700449E+03 -0.35929543375E+03  0.49862462445E+03  0.95091185400E+02 0.  0.
         23    2    4    4    0    0 -0.36812305592E+03 -0.60694225091E+02  0.21368536231E+03  0.43935667150E+03  0.90412816924E+02 0.  0.
          4    1    3    3  502    0  0.97224168770E+02 -0.17091708921E+03  0.43980366850E+03  0.48175975050E+03  0.00000000000E+00 0. -1.
         -3    1    3    3    0  502  0.34466970641E+02 -0.20356901947E+01  0.88625657595E+02  0.95113738671E+02  0.00000000000E+00 0.  1.
         13    1    5    5    0    0  0.49862023140E+01 -0.15730381982E+01 -0.36955808086E+02  0.37323831716E+02  0.00000000000E+00 0. -1.
        -13    1    5    5    0    0  0.23144571419E+03  0.23522004269E+03 -0.32233962566E+03  0.46130079273E+03  0.00000000000E+00 0.  1.
          3    1    6    6  503    0 -0.54872208067E+02  0.23239640607E+02  0.32956370763E+02  0.68096714220E+02  0.00000000000E+00 0. -1.
         -3    1    6    6    0  503 -0.31325084785E+03 -0.83933865699E+02  0.18072899155E+03  0.37125995728E+03  0.00000000000E+00 0.  1.
<mgrwt>
<rscale>  0 0.14656857E+04</rscale>
<asrwt>0</asrwt>
<pdfrwt beam="1">  1        2 0.14597493E+00 0.14656857E+04</pdfrwt>
<pdfrwt beam="2">  1       -1 0.87079656E-01 0.14656857E+04</pdfrwt>
<totfact> 0.39057721E+01</totfact>
</mgrwt>
</event>
<event>
12    7  0.1605494E-007  0.1246893E+04  0.7818608E-02  0.9072773E-01
         -1   -1    0    0    0  501 -0.00000000000E+00  0.00000000000E+00  0.58173682270E+03  0.58173682270E+03  0.00000000000E+00 0.  1.
          2   -1    0    0  501    0  0.00000000000E+00 -0.00000000000E+00 -0.66814669828E+03  0.66814669828E+03  0.00000000000E+00 0. -1.
         24    2    1    2    0    0 -0.19289943462E+02  0.22857768599E+03  0.15805700671E+03  0.28994247211E+03  0.80403726984E+02 0.  0.
        254    2    1    2    0    0  0.19289943462E+02 -0.22857768599E+03 -0.24446688229E+03  0.95994104887E+03  0.89950147322E+03 0.  0.
         23    2    4    4    0    0  0.23533730515E+03  0.25058506363E+03  0.37991648179E+02  0.35740112381E+03  0.90087050462E+02 0.  0.
         23    2    4    4    0    0 -0.21604736169E+03 -0.47916274962E+03 -0.28245853047E+03  0.60253992506E+03  0.83654866839E+02 0.  0.
          2    1    3    3  502    0 -0.85513906123E+01  0.57819381730E+01  0.32235858469E+02  0.33848303675E+02  0.00000000000E+00 0. -1.
         -1    1    3    3    0  502 -0.10738552849E+02  0.22279574782E+03  0.12582114824E+03  0.25609416843E+03  0.00000000000E+00 0.  1.
         13    1    5    5    0    0  0.15886902765E+03  0.10884655202E+03  0.30496885162E+01  0.19260384324E+03  0.00000000000E+00 0. -1.
        -13    1    5    5    0    0  0.76468277503E+02  0.14173851161E+03  0.34941959663E+02  0.16479728057E+03  0.00000000000E+00 0.  1.
          4    1    6    6  503    0 -0.19496919599E+03 -0.35657647581E+03 -0.19701891708E+03  0.45163727057E+03  0.00000000000E+00 0. -1.
         -4    1    6    6    0  503 -0.21078165699E+02 -0.12258627381E+03 -0.85439613382E+02  0.15090265449E+03  0.00000000000E+00 0.  1.
<mgrwt>
<rscale>  0 0.12468930E+04</rscale>
<asrwt>0</asrwt>
<pdfrwt beam="1">  1        2 0.10279180E+00 0.12468930E+04</pdfrwt>
<pdfrwt beam="2">  1       -1 0.89497973E-01 0.12468930E+04</pdfrwt>
<totfact> 0.59743437E+01</totfact>
</mgrwt>
</event>
<event>
12    7  0.1605494E-007  0.1594194E+04  0.7818608E-02  0.8824123E-01
         -1   -1    0    0    0  501 -0.00000000000E+00  0.00000000000E+00  0.45676454266E+03  0.45676454266E+03  0.00000000000E+00 0.  1.
          2   -1    0    0  501    0  0.00000000000E+00 -0.00000000000E+00 -0.13910084441E+04  0.13910084441E+04  0.00000000000E+00 0. -1.
         24    2    1    2    0    0 -0.31509787726E+03 -0.11222068052E+03 -0.81729958069E+03  0.88670180026E+03  0.79883193464E+02 0.  0.
        254    2    1    2    0    0  0.31509787726E+03  0.11222068052E+03 -0.11694432071E+03  0.96107118647E+03  0.89336537761E+03 0.  0.
         23    2    4    4    0    0 -0.67452327331E+02  0.37748963921E+03 -0.25249412145E+03  0.46805947389E+03  0.90984314917E+02 0.  0.
         23    2    4    4    0    0  0.38255020459E+03 -0.26526895869E+03  0.13554980074E+03  0.49301171258E+03  0.89300172335E+02 0.  0.
          4    1    3    3  502    0 -0.19474741901E+03 -0.10084317541E+03 -0.46222575332E+03  0.51161367287E+03  0.00000000000E+00 0. -1.
         -3    1    3    3    0  502 -0.12035045825E+03 -0.11377505104E+02 -0.35507382737E+03  0.37508812738E+03  0.00000000000E+00 0.  1.
         13    1    5    5    0    0 -0.75157432508E+02  0.36704184989E+03 -0.22341436110E+03  0.43621363571E+03  0.00000000000E+00 0. -1.
        -13    1    5    5    0    0  0.77051051771E+01  0.10447789315E+02 -0.29079760353E+02  0.31845838183E+02  0.00000000000E+00 0.  1.
          3    1    6    6  503    0  0.25338771804E+03 -0.21651716970E+03  0.11929872902E+03  0.35400170504E+03  0.00000000000E+00 0. -1.
         -3    1    6    6    0  503  0.12916248655E+03 -0.48751788991E+02  0.16251071717E+02  0.13901000753E+03  0.00000000000E+00 0.  1.
<mgrwt>
<rscale>  0 0.15941936E+04</rscale>
<asrwt>0</asrwt>
<pdfrwt beam="1">  1        2 0.21400130E+00 0.15941936E+04</pdfrwt>
<pdfrwt beam="2">  1       -1 0.70271468E-01 0.15941936E+04</pdfrwt>
<totfact> 0.32773740E+01</totfact>
</mgrwt>
</event>
<event>
12    7  0.2322451E-007  0.1442288E+04  0.7818608E-02  0.8923765E-01
          2   -1    0    0  501    0  0.00000000000E+00  0.00000000000E+00  0.25886253603E+04  0.25886253603E+04  0.00000000000E+00 0. -1.
         -1   -1    0    0    0  501 -0.00000000000E+00 -0.00000000000E+00 -0.20089756842E+03  0.20089756842E+03  0.00000000000E+00 0.  1.
         24    2    1    2    0    0  0.25274078563E+03  0.10871087717E+03  0.81680174432E+02  0.29995501296E+03  0.87208940878E+02 0.  0.
        254    2    1    2    0    0 -0.25274078563E+03 -0.10871087717E+03  0.23060476174E+04  0.24895679157E+04  0.89688172779E+03 0.  0.
         23    2    4    4    0    0  0.76915350678E+02  0.34693800612E+03  0.86561555781E+03  0.94045626652E+03  0.94264224669E+02 0.  0.
         23    2    4    4    0    0 -0.32965613631E+03 -0.45564888328E+03  0.14404320596E+04  0.15491116492E+04  0.92807921501E+02 0.  0.
          2    1    3    3  502    0 -0.59467351622E+01  0.10013054384E+02  0.48604365194E+01  0.12619380347E+02  0.00000000000E+00 0. -1.
         -1    1    3    3    0  502  0.25868752080E+03  0.98697822782E+02  0.76819737913E+02  0.28733563261E+03  0.00000000000E+00 0.  1.
         13    1    5    5    0    0  0.71036298401E+02  0.33418748941E+03  0.75195850230E+03  0.82593524138E+03  0.00000000000E+00 0. -1.
        -13    1    5    5    0    0  0.58790522762E+01  0.12750516705E+02  0.11365705550E+03  0.11452102513E+03  0.00000000000E+00 0.  1.
          1    1    6    6  503    0 -0.61734248499E+02 -0.52918890604E+02  0.14384262803E+03  0.16523385869E+03  0.00000000000E+00 0.  1.
         -1    1    6    6    0  503 -0.26792188781E+03 -0.40272999268E+03  0.12965894316E+04  0.13838777905E+04  0.00000000000E+00 0. -1.
<mgrwt>
<rscale>  0 0.14422878E+04</rscale>
<asrwt>0</asrwt>
<pdfrwt beam="1">  1        2 0.39825003E+00 0.14422878E+04</pdfrwt>
<pdfrwt beam="2">  1       -1 0.30907320E-01 0.14422878E+04</pdfrwt>
<totfact> 0.33198578E+01</totfact>
</mgrwt>
</event>
<event>
12    7  0.1605494E-007  0.2303858E+04  0.7818608E-02  0.8476402E-01
          2   -1    0    0  501    0  0.00000000000E+00  0.00000000000E+00  0.18403820822E+04  0.18403820822E+04  0.00000000000E+00 0. -1.
         -1   -1    0    0    0  501 -0.00000000000E+00 -0.00000000000E+00 -0.72101342533E+03  0.72101342533E+03  0.00000000000E+00 0.  1.
         24    2    1    2    0    0 -0.70877004561E+03 -0.12602903489E+02 -0.26854737136E+03  0.76224572612E+03  0.79918993965E+02 0.  0.
        254    2    1    2    0    0  0.70877004561E+03  0.12602903489E+02  0.13879160283E+04  0.17991497815E+04  0.89895229232E+03 0.  0.
         23    2    4    4    0    0 -0.28143445945E+02 -0.28226283977E+03  0.63495629353E+03  0.70137523502E+03  0.91067894143E+02 0.  0.
         23    2    4    4    0    0  0.73691349156E+03  0.29486574326E+03  0.75295973473E+03  0.10977745464E+04  0.90406261275E+02 0.  0.
          4    1    3    3  502    0 -0.11100381320E+03  0.19972123983E+02 -0.22537870959E+02  0.11501603326E+03  0.00000000000E+00 0. -1.
         -3    1    3    3    0  502 -0.59776623242E+03 -0.32575027472E+02 -0.24600950040E+03  0.64722969286E+03  0.00000000000E+00 0.  1.
         13    1    5    5    0    0 -0.41691665073E+02 -0.17139322637E+03  0.47138373293E+03  0.50330553013E+03  0.00000000000E+00 0. -1.
        -13    1    5    5    0    0  0.13548219128E+02 -0.11086961340E+03  0.16357256060E+03  0.19806970490E+03  0.00000000000E+00 0.  1.
          2    1    6    6  503    0  0.50404766646E+03  0.24464316090E+03  0.51334946582E+03  0.75989604572E+03  0.00000000000E+00 0. -1.
         -2    1    6    6    0  503  0.23286582510E+03  0.50222582362E+02  0.23961026891E+03  0.33787850071E+03  0.00000000000E+00 0.  1.
<mgrwt>
<rscale>  0 0.23038578E+04</rscale>
<asrwt>0</asrwt>
<pdfrwt beam="1">  1        2 0.28313570E+00 0.23038578E+04</pdfrwt>
<pdfrwt beam="2">  1       -1 0.11092514E+00 0.23038578E+04</pdfrwt>
<totfact> 0.63254319E+00</totfact>
</mgrwt>
</event>
<event>
12    7  0.1724399E-007  0.2142820E+04  0.7818608E-02  0.8542612E-01
         -1   -1    0    0    0  501 -0.00000000000E+00  0.00000000000E+00  0.93437304142E+03  0.93437304142E+03  0.00000000000E+00 0.  1.
          2   -1    0    0  501    0  0.00000000000E+00 -0.00000000000E+00 -0.12285452097E+04  0.12285452097E+04  0.00000000000E+00 0. -1.
         24    2    1    2    0    0  0.27182905009E+03  0.38433968050E+03 -0.87096434693E+03  0.99318991546E+03  0.78989189597E+02 0.  0.
        254    2    1    2    0    0 -0.27182905009E+03 -0.38433968050E+03  0.57679217867E+03  0.11697283356E+04  0.90220127429E+03 0.  0.
         23    2    4    4    0    0  0.22063243356E+03 -0.13688742762E+02 -0.90933534429E+02  0.25659643008E+03  0.93310062866E+02 0.  0.
         23    2    4    4    0    0 -0.49246148365E+03 -0.37065093774E+03  0.66772571310E+03  0.91313190555E+03  0.89731925648E+02 0.  0.
          2    1    3    3  502    0  0.70243951585E+02  0.10066949899E+03 -0.30524856388E+03  0.32900645360E+03  0.00000000000E+00 0. -1.
         -3    1    3    3    0  502  0.20158509851E+03  0.28367018150E+03 -0.56571578305E+03  0.66418346186E+03  0.00000000000E+00 0.  1.
         13    1    5    5    0    0  0.21261843494E+03 -0.27964290430E+02 -0.10134954001E+03  0.23719260038E+03  0.00000000000E+00 0. -1.
        -13    1    5    5    0    0  0.80139986205E+01  0.14275547667E+02  0.10416005577E+02  0.19403829706E+02  0.00000000000E+00 0.  1.
          3    1    6    6  503    0 -0.47044631544E+03 -0.32928190036E+03  0.63399707358E+03  0.85539382446E+03  0.00000000000E+00 0. -1.
         -3    1    6    6    0  503 -0.22015168211E+02 -0.41369037371E+02  0.33728639524E+02  0.57738081095E+02  0.00000000000E+00 0.  1.
<mgrwt>
<rscale>  0 0.21428201E+04</rscale>
<asrwt>0</asrwt>
<pdfrwt beam="1">  1        2 0.18900695E+00 0.21428201E+04</pdfrwt>
<pdfrwt beam="2">  1       -1 0.14374970E+00 0.21428201E+04</pdfrwt>
<totfact> 0.74548856E+00</totfact>
</mgrwt>
</event>
<event>
12    7  0.1605494E-007  0.1313125E+04  0.7818608E-02  0.9019222E-01
         -1   -1    0    0    0  501 -0.00000000000E+00  0.00000000000E+00  0.15751068358E+04  0.15751068358E+04  0.00000000000E+00 0.  1.
          2   -1    0    0  501    0  0.00000000000E+00 -0.00000000000E+00 -0.27367923495E+03  0.27367923495E+03  0.00000000000E+00 0. -1.
         24    2    1    2    0    0  0.31014666392E+03  0.77775456949E+02  0.20805046063E+03  0.38947926149E+03  0.78543784720E+02 0.  0.
        254    2    1    2    0    0 -0.31014666392E+03 -0.77775456949E+02  0.10933771402E+04  0.14593068093E+04  0.91206513909E+03 0.  0.
         23    2    4    4    0    0 -0.31053959474E+03 -0.15803727739E+01 -0.34747443125E+02  0.32490782705E+03  0.88996481929E+02 0.  0.
         23    2    4    4    0    0  0.39293081709E+00 -0.76195084175E+02  0.11281245833E+04  0.11343989822E+04  0.91597653065E+02 0.  0.
          4    1    3    3  502    0  0.28233937840E+03  0.82237706126E+02  0.16265783420E+03  0.33605972078E+03  0.00000000000E+00 0. -1.
         -3    1    3    3    0  502  0.27807285521E+02 -0.44622491769E+01  0.45392626424E+02  0.53419540708E+02  0.00000000000E+00 0.  1.
         13    1    5    5    0    0 -0.14824037695E+02 -0.54456814652E+01 -0.24301924802E+02  0.28982599768E+02  0.00000000000E+00 0. -1.
        -13    1    5    5    0    0 -0.29571555704E+03  0.38653086913E+01 -0.10445518323E+02  0.29592522728E+03  0.00000000000E+00 0.  1.
          1    1    6    6  503    0 -0.23105947709E+02 -0.53163980804E+02  0.29592360834E+03  0.30154779994E+03  0.00000000000E+00 0. -1.
         -1    1    6    6    0  503  0.23498878526E+02 -0.23031103371E+02  0.83220097500E+03  0.83285118226E+03  0.00000000000E+00 0.  1.
<mgrwt>
<rscale>  0 0.13131246E+04</rscale>
<asrwt>0</asrwt>
<pdfrwt beam="1">  1        2 0.42104499E-01 0.13131246E+04</pdfrwt>
<pdfrwt beam="2">  1       -1 0.24232412E+00 0.13131246E+04</pdfrwt>
<totfact> 0.10696802E+01</totfact>
</mgrwt>
</event>
<event>
12    7  0.1605494E-007  0.2290950E+04  0.7818608E-02  0.8481498E-01
         -1   -1    0    0    0  501 -0.00000000000E+00  0.00000000000E+00  0.79380595924E+03  0.79380595924E+03  0.00000000000E+00 0.  1.
          2   -1    0    0  501    0  0.00000000000E+00 -0.00000000000E+00 -0.16529396819E+04  0.16529396819E+04  0.00000000000E+00 0. -1.
         24    2    1    2    0    0  0.41093071382E+03  0.32110245495E+03 -0.12353839948E+04  0.13432363815E+04  0.78355112776E+02 0.  0.
        254    2    1    2    0    0 -0.41093071382E+03 -0.32110245495E+03  0.37625027212E+03  0.11035092597E+04  0.89677064007E+03 0.  0.
         23    2    4    4    0    0  0.18847637543E+03 -0.26701376636E+02  0.37282721027E+03  0.42944937706E+03  0.95866214739E+02 0.  0.
         23    2    4    4    0    0 -0.59940708925E+03 -0.29440107831E+03  0.34230618492E+01  0.67405988266E+03  0.91565028880E+02 0.  0.
          4    1    3    3  502    0  0.27312373116E+03  0.16541755905E+03 -0.76303705173E+03  0.82715481240E+03  0.00000000000E+00 0. -1.
         -3    1    3    3    0  502  0.13780698266E+03  0.15568489590E+03 -0.47234694307E+03  0.51608156905E+03  0.00000000000E+00 0.  1.
         13    1    5    5    0    0  0.37871340642E+02  0.10499700044E+01  0.15957658364E+02  0.41109460462E+02  0.00000000000E+00 0. -1.
        -13    1    5    5    0    0  0.15060503479E+03 -0.27751346641E+02  0.35686955191E+03  0.38833991660E+03  0.00000000000E+00 0.  1.
          1    1    6    6  503    0 -0.13316494101E+03 -0.98913180959E+02  0.26412190113E+02  0.16797119595E+03  0.00000000000E+00 0. -1.
         -1    1    6    6    0  503 -0.46624214823E+03 -0.19548789735E+03 -0.22989128264E+02  0.50608868671E+03  0.00000000000E+00 0.  1.
<mgrwt>
<rscale>  0 0.22909503E+04</rscale>
<asrwt>0</asrwt>
<pdfrwt beam="1">  1        2 0.25429841E+00 0.22909503E+04</pdfrwt>
<pdfrwt beam="2">  1       -1 0.12212399E+00 0.22909503E+04</pdfrwt>
<totfact> 0.63816658E+00</totfact>
</mgrwt>
</event>
<event>
12    7  0.1605494E-007  0.1297066E+04  0.7818608E-02  0.9031895E-01
          2   -1    0    0  501    0  0.00000000000E+00  0.00000000000E+00  0.59146878178E+03  0.59146878178E+03  0.00000000000E+00 0. -1.
         -1   -1    0    0    0  501 -0.00000000000E+00 -0.00000000000E+00 -0.71110320899E+03  0.71110320899E+03  0.00000000000E+00 0.  1.
         24    2    1    2    0    0 -0.29004820297E+03 -0.66490924001E+02  0.10411555924E+03  0.32357308443E+03  0.72873097040E+02 0.  0.
        254    2    1    2    0    0  0.29004820297E+03  0.66490924001E+02 -0.22374998645E+03  0.97899890633E+03  0.90544232237E+03 0.  0.
         23    2    4    4    0    0 -0.28473904897E+03  0.18769057579E+03 -0.13316498305E+03  0.37770770678E+03  0.92876912107E+02 0.  0.
         23    2    4    4    0    0  0.57478725194E+03 -0.12119965179E+03 -0.90585003408E+02  0.60129119955E+03  0.90971002103E+02 0.  0.
          4    1    3    3  502    0 -0.28000459100E+03 -0.64280995106E+02  0.11421469933E+03  0.30915952979E+03  0.00000000000E+00 0. -1.
         -3    1    3    3    0  502 -0.10043611966E+02 -0.22099288953E+01 -0.10099140086E+02  0.14413554646E+02  0.00000000000E+00 0.  1.
         13    1    5    5    0    0 -0.24509847385E+03  0.18003619604E+03 -0.14314420115E+03  0.33611985375E+03  0.00000000000E+00 0. -1.
        -13    1    5    5    0    0 -0.39640575125E+02  0.76543797576E+01  0.99792181006E+01  0.41587853030E+02  0.00000000000E+00 0.  1.
          2    1    6    6  503    0  0.56176626340E+03 -0.13249333557E+03 -0.87286524476E+02  0.58374202866E+03  0.00000000000E+00 0. -1.
         -2    1    6    6    0  503  0.13020988541E+02  0.11293683774E+02 -0.32984789320E+01  0.17549170893E+02  0.00000000000E+00 0.  1.
<mgrwt>
<rscale>  0 0.12970665E+04</rscale>
<asrwt>0</asrwt>
<pdfrwt beam="1">  1        2 0.90995197E-01 0.12970665E+04</pdfrwt>
<pdfrwt beam="2">  1       -1 0.10940049E+00 0.12970665E+04</pdfrwt>
<totfact> 0.43733833E+01</totfact>
</mgrwt>
</event>
<event>
12    7  0.1605494E-007  0.2727844E+04  0.7818608E-02  0.8326027E-01
         -1   -1    0    0    0  501 -0.00000000000E+00  0.00000000000E+00  0.13865422504E+04  0.13865422504E+04  0.00000000000E+00 0.  1.
          2   -1    0    0  501    0  0.00000000000E+00 -0.00000000000E+00 -0.13416705690E+04  0.13416705690E+04  0.00000000000E+00 0. -1.
         24    2    1    2    0    0  0.73819508049E+03  0.84307395863E+03  0.48519823438E+03  0.12236637265E+04  0.78929794381E+02 0.  0.
        254    2    1    2    0    0 -0.73819508049E+03 -0.84307395863E+03 -0.44032655297E+03  0.15045490929E+04  0.90226095071E+03 0.  0.
         23    2    4    4    0    0 -0.93422181629E+03 -0.64647045426E+03 -0.29260306568E+03  0.11767567501E+04  0.91899100258E+02 0.  0.
         23    2    4    4    0    0  0.19602673580E+03 -0.19660350436E+03 -0.14772348729E+03  0.32779234280E+03  0.92445509508E+02 0.  0.
          4    1    3    3  502    0  0.30691012084E+03  0.38846335664E+03  0.18134812035E+03  0.52724258409E+03  0.00000000000E+00 0. -1.
         -3    1    3    3    0  502  0.43128495965E+03  0.45461060199E+03  0.30385011403E+03  0.69642114245E+03  0.00000000000E+00 0.  1.
         13    1    5    5    0    0 -0.26756251851E+03 -0.19347133733E+03 -0.12794425043E+03  0.35410533871E+03  0.00000000000E+00 0. -1.
        -13    1    5    5    0    0 -0.66665929777E+03 -0.45299911693E+03 -0.16465881525E+03  0.82265141141E+03  0.00000000000E+00 0.  1.
          1    1    6    6  503    0  0.33707386656E+02 -0.62741732172E+02 -0.79209585996E+02  0.10652169443E+03  0.00000000000E+00 0. -1.
         -1    1    6    6    0  503  0.16231934914E+03 -0.13386177219E+03 -0.68513901291E+02  0.22127064837E+03  0.00000000000E+00 0.  1.
<mgrwt>
<rscale>  0 0.27278438E+04</rscale>
<asrwt>0</asrwt>
<pdfrwt beam="1">  1        2 0.20641086E+00 0.27278438E+04</pdfrwt>
<pdfrwt beam="2">  1       -1 0.21331419E+00 0.27278438E+04</pdfrwt>
<totfact> 0.19031030E+00</totfact>
</mgrwt>
</event>
<event>
12    7  0.1605494E-007  0.1806352E+04  0.7818608E-02  0.8702929E-01
          2   -1    0    0  501    0  0.00000000000E+00  0.00000000000E+00  0.26391866741E+04  0.26391866741E+04  0.00000000000E+00 0. -1.
         -1   -1    0    0    0  501 -0.00000000000E+00 -0.00000000000E+00 -0.30908279141E+03  0.30908279141E+03  0.00000000000E+00 0.  1.
         24    2    1    2    0    0  0.69234343334E+02 -0.51899599377E+03  0.17518295661E+03  0.55793904745E+03  0.80353447554E+02 0.  0.
        254    2    1    2    0    0 -0.69234343334E+02  0.51899599377E+03  0.21549209261E+04  0.23903304181E+04  0.89210149310E+03 0.  0.
         23    2    4    4    0    0  0.38912753885E+02 -0.12615667261E+02  0.16161832365E+04  0.16193527242E+04  0.92637107874E+02 0.  0.
         23    2    4    4    0    0 -0.10814709722E+03  0.53161166103E+03  0.53873768958E+03  0.77097769392E+03  0.99305355141E+02 0.  0.
          2    1    3    3  502    0  0.54231597002E+01 -0.16826690633E+03  0.21444565711E+02  0.16971455985E+03  0.00000000000E+00 0. -1.
         -1    1    3    3    0  502  0.63811183634E+02 -0.35072908744E+03  0.15373839090E+03  0.38822448760E+03  0.00000000000E+00 0.  1.
         13    1    5    5    0    0 -0.17051224393E+02  0.22478881710E+02  0.25268766629E+03  0.25425794200E+03  0.00000000000E+00 0. -1.
        -13    1    5    5    0    0  0.55963978278E+02 -0.35094548971E+02  0.13634955702E+04  0.13650947822E+04  0.00000000000E+00 0.  1.
          1    1    6    6  503    0 -0.66402917592E+02  0.12579046697E+03  0.11661964750E+03  0.18393675877E+03  0.00000000000E+00 0. -1.
         -1    1    6    6    0  503 -0.41744179627E+02  0.40582119406E+03  0.42211804208E+03  0.58704093515E+03  0.00000000000E+00 0.  1.
<mgrwt>
<rscale>  0 0.18063523E+04</rscale>
<asrwt>0</asrwt>
<pdfrwt beam="1">  1        2 0.40602870E+00 0.18063523E+04</pdfrwt>
<pdfrwt beam="2">  1       -1 0.47551200E-01 0.18063523E+04</pdfrwt>
<totfact> 0.13711568E+01</totfact>
</mgrwt>
</event>
<event>
12    7  0.1605494E-007  0.1242165E+04  0.7818608E-02  0.9076730E-01
         -1   -1    0    0    0  501 -0.00000000000E+00  0.00000000000E+00  0.87941070580E+03  0.87941070580E+03  0.00000000000E+00 0.  1.
          2   -1    0    0  501    0  0.00000000000E+00 -0.00000000000E+00 -0.43863847929E+03  0.43863847929E+03  0.00000000000E+00 0. -1.
         24    2    1    2    0    0  0.86856354487E+02 -0.16767327568E+02  0.40685780958E+03  0.42393967229E+03  0.79789716974E+02 0.  0.
        254    2    1    2    0    0 -0.86856354487E+02  0.16767327568E+02  0.33914416931E+02  0.89410951281E+03  0.88907618550E+03 0.  0.
         23    2    4    4    0    0 -0.30662764981E+03  0.31401845749E+01 -0.32912317299E+03  0.45906833992E+03  0.91604046469E+02 0.  0.
         23    2    4    4    0    0  0.21977129532E+03  0.13627142993E+02  0.36303758992E+03  0.43504117289E+03  0.94759744291E+02 0.  0.
          4    1    3    3  502    0  0.13512906939E+02  0.20542190322E+02  0.33115354859E+02  0.41245690255E+02  0.00000000000E+00 0. -1.
         -3    1    3    3    0  502  0.73343447548E+02 -0.37309517890E+02  0.37374245472E+03  0.38269398203E+03  0.00000000000E+00 0.  1.
         13    1    5    5    0    0 -0.30934527635E+02  0.72596852543E+01 -0.85209613250E+02  0.90941333947E+02  0.00000000000E+00 0. -1.
        -13    1    5    5    0    0 -0.27569312217E+03 -0.41195006794E+01 -0.24391355974E+03  0.36812700597E+03  0.00000000000E+00 0.  1.
          1    1    6    6  503    0  0.14000685716E+02 -0.64690681773E+01 -0.19680231311E+01  0.15548027484E+02  0.00000000000E+00 0. -1.
         -1    1    6    6    0  503  0.20577060960E+03  0.20096211171E+02  0.36500561306E+03  0.41949314541E+03  0.00000000000E+00 0.  1.
<mgrwt>
<rscale>  0 0.12421648E+04</rscale>
<asrwt>0</asrwt>
<pdfrwt beam="1">  1        2 0.67482843E-01 0.12421648E+04</pdfrwt>
<pdfrwt beam="2">  1       -1 0.13529395E+00 0.12421648E+04</pdfrwt>
<totfact> 0.36939461E+01</totfact>
</mgrwt>
</event>
<event>
12    7  0.1605494E-007  0.2163099E+04  0.7818608E-02  0.8533946E-01
          2   -1    0    0  501    0  0.00000000000E+00  0.00000000000E+00  0.15210973176E+04  0.15210973176E+04  0.00000000000E+00 0. -1.
         -1   -1    0    0    0  501 -0.00000000000E+00 -0.00000000000E+00 -0.76901640973E+03  0.76901640973E+03  0.00000000000E+00 0.  1.
         24    2    1    2    0    0  0.87441679314E+02 -0.32545039964E+03 -0.56454171369E+03  0.66234554733E+03  0.80188949775E+02 0.  0.
        254    2    1    2    0    0 -0.87441679314E+02  0.32545039964E+03  0.13166226216E+04  0.16277681800E+04  0.89586277424E+03 0.  0.
         23    2    4    4    0    0  0.25453391431E+01  0.22346739774E+03  0.14156235335E+04  0.14360650663E+04  0.91371382412E+02 0.  0.
         23    2    4    4    0    0 -0.89987018457E+02  0.10198300190E+03 -0.99000911941E+02  0.19170311366E+03  0.91927727332E+02 0.  0.
          4    1    3    3  502    0  0.10594381164E+02 -0.18311338822E+03 -0.32763595806E+03  0.37548378776E+03  0.00000000000E+00 0. -1.
         -3    1    3    3    0  502  0.76847298149E+02 -0.14233701142E+03 -0.23690575563E+03  0.28686175957E+03  0.00000000000E+00 0.  1.
         13    1    5    5    0    0 -0.17809312558E+02  0.32146517459E+02  0.44761146567E+03  0.44911757302E+03  0.00000000000E+00 0. -1.
        -13    1    5    5    0    0  0.20354651701E+02  0.19132088028E+03  0.96801206785E+03  0.98694749332E+03  0.00000000000E+00 0.  1.
          2    1    6    6  503    0 -0.21293118450E+01  0.41466011239E+02 -0.69598103583E+02  0.81042335106E+02  0.00000000000E+00 0. -1.
         -2    1    6    6    0  503 -0.87857706612E+02  0.60516990665E+02 -0.29402808358E+02  0.11066077855E+03  0.00000000000E+00 0.  1.
<mgrwt>
<rscale>  0 0.21630985E+04</rscale>
<asrwt>0</asrwt>
<pdfrwt beam="1">  1        2 0.23401497E+00 0.21630985E+04</pdfrwt>
<pdfrwt beam="2">  1       -1 0.11831022E+00 0.21630985E+04</pdfrwt>
<totfact> 0.82678704E+00</totfact>
</mgrwt>
</event>
<event>
12    7  0.1605494E-007  0.1226350E+04  0.7818608E-02  0.9090100E-01
          2   -1    0    0  501    0  0.00000000000E+00  0.00000000000E+00  0.16159677787E+04  0.16159677787E+04  0.00000000000E+00 0. -1.
         -1   -1    0    0    0  501 -0.00000000000E+00 -0.00000000000E+00 -0.23266775554E+03  0.23266775554E+03  0.00000000000E+00 0.  1.
         24    2    1    2    0    0 -0.13689900398E+03 -0.13975809813E+03  0.57806735189E+03  0.61555461200E+03  0.80448453958E+02 0.  0.
        254    2    1    2    0    0  0.13689900398E+03  0.13975809813E+03  0.80523267127E+03  0.12330809222E+04  0.91313484362E+03 0.  0.
         23    2    4    4    0    0  0.28208290708E+03  0.39882287827E+03  0.77787575215E+03  0.92207465604E+03  0.80625869505E+02 0.  0.
         23    2    4    4    0    0 -0.14518390311E+03 -0.25906478014E+03  0.27356919123E+02  0.31100626621E+03  0.88224546263E+02 0.  0.
          4    1    3    3  502    0 -0.98674393625E+01 -0.46429508215E+02  0.20740139461E+03  0.21276372830E+03  0.00000000000E+00 0. -1.
         -3    1    3    3    0  502 -0.12703156461E+03 -0.93328589911E+02  0.37066595728E+03  0.40279088370E+03  0.00000000000E+00 0.  1.
         13    1    5    5    0    0  0.21557368188E+03  0.27865107358E+03  0.49446517603E+03  0.60713609960E+03  0.00000000000E+00 0. -1.
        -13    1    5    5    0    0  0.66509225198E+02  0.12017180468E+03  0.28341057611E+03  0.31493855644E+03  0.00000000000E+00 0.  1.
          1    1    6    6  503    0 -0.14197885389E+03 -0.20034727630E+03  0.44931209301E+02  0.24963140757E+03  0.00000000000E+00 0. -1.
         -1    1    6    6    0  503 -0.32050492145E+01 -0.58717503839E+02 -0.17574290178E+02  0.61374858638E+02  0.00000000000E+00 0.  1.
<mgrwt>
<rscale>  0 0.12263500E+04</rscale>
<asrwt>0</asrwt>
<pdfrwt beam="1">  1        2 0.24861042E+00 0.12263500E+04</pdfrwt>
<pdfrwt beam="2">  1       -1 0.35795040E-01 0.12263500E+04</pdfrwt>
<totfact> 0.91347814E+01</totfact>
</mgrwt>
</event>
<event>
12    7  0.1605494E-007  0.2574421E+04  0.7818608E-02  0.8376942E-01
          2   -1    0    0  501    0  0.00000000000E+00  0.00000000000E+00  0.20034850284E+04  0.20034850284E+04  0.00000000000E+00 0. -1.
         -1   -1    0    0    0  501 -0.00000000000E+00 -0.00000000000E+00 -0.82701454144E+03  0.82701454144E+03  0.00000000000E+00 0.  1.
         24    2    1    2    0    0 -0.80920527728E+03 -0.76997370546E+03  0.69416189656E+03  0.13175336933E+04  0.79759679989E+02 0.  0.
        254    2    1    2    0    0  0.80920527728E+03  0.76997370546E+03  0.48230859042E+03  0.15129658765E+04  0.89931722949E+03 0.  0.
         23    2    4    4    0    0  0.18690604148E+03 -0.11184629272E+03 -0.12909293621E+03  0.26917057846E+03  0.91347427947E+02 0.  0.
         23    2    4    4    0    0  0.62229923579E+03  0.88181999818E+03  0.61140152663E+03  0.12437952981E+04  0.91389652884E+02 0.  0.
          4    1    3    3  502    0 -0.24701016081E+03 -0.19124679725E+03  0.21334884280E+03  0.37829497185E+03  0.00000000000E+00 0. -1.
         -3    1    3    3    0  502 -0.56219511646E+03 -0.57872690821E+03  0.48081305376E+03  0.93923872148E+03  0.00000000000E+00 0.  1.
         13    1    5    5    0    0  0.28212998086E+02 -0.52292041253E+02 -0.60605911379E+01  0.59725719790E+02  0.00000000000E+00 0. -1.
        -13    1    5    5    0    0  0.15869304339E+03 -0.59554251464E+02 -0.12303234508E+03  0.20944485867E+03  0.00000000000E+00 0.  1.
          2    1    6    6  503    0  0.40190322462E+03  0.49450239021E+03  0.34561236766E+03  0.72491842614E+03  0.00000000000E+00 0. -1.
         -2    1    6    6    0  503  0.22039601118E+03  0.38731760797E+03  0.26578915898E+03  0.51887687192E+03  0.00000000000E+00 0.  1.
<mgrwt>
<rscale>  0 0.25744213E+04</rscale>
<asrwt>0</asrwt>
<pdfrwt beam="1">  1        2 0.30822846E+00 0.25744213E+04</pdfrwt>
<pdfrwt beam="2">  1       -1 0.12723301E+00 0.25744213E+04</pdfrwt>
<totfact> 0.35915049E+00</totfact>
</mgrwt>
</event>
<event>
12    7  0.1605494E-007  0.1402986E+04  0.7818608E-02  0.8951660E-01
         -1   -1    0    0    0  501 -0.00000000000E+00  0.00000000000E+00  0.38973916887E+03  0.38973916887E+03  0.00000000000E+00 0.  1.
          2   -1    0    0  501    0  0.00000000000E+00 -0.00000000000E+00 -0.12626197764E+04  0.12626197764E+04  0.00000000000E+00 0. -1.
         24    2    1    2    0    0  0.88051751919E+02 -0.85518840518E+02 -0.57019027106E+03  0.58898977243E+03  0.82008680712E+02 0.  0.
        254    2    1    2    0    0 -0.88051751919E+02  0.85518840518E+02 -0.30269033651E+03  0.10633691729E+04  0.10119614493E+04 0.  0.
         23    2    4    4    0    0  0.30780054396E+03 -0.27048180903E+03  0.43351208469E+02  0.42232734789E+03  0.92625469622E+02 0.  0.
         23    2    4    4    0    0 -0.39585229588E+03  0.35600064955E+03 -0.34604154498E+03  0.64104182499E+03  0.88058888880E+02 0.  0.
          4    1    3    3  502    0  0.94950409796E+02 -0.94971471040E+02 -0.54351625680E+03  0.55986166330E+03  0.00000000000E+00 0. -1.
         -3    1    3    3    0  502 -0.68986578776E+01  0.94526305221E+01 -0.26674014262E+02  0.29128109124E+02  0.00000000000E+00 0.  1.
         13    1    5    5    0    0  0.66520349346E+02 -0.19529346023E+02  0.25062893120E+02  0.73719067037E+02  0.00000000000E+00 0.  1.
        -13    1    5    5    0    0  0.24128019461E+03 -0.25095246300E+03  0.18288315349E+02  0.34860828085E+03  0.00000000000E+00 0. -1.
          1    1    6    6  503    0 -0.16766971805E+03  0.14705944244E+03 -0.94172537409E+02  0.24209105883E+03  0.00000000000E+00 0. -1.
         -1    1    6    6    0  503 -0.22818257783E+03  0.20894120711E+03 -0.25186900757E+03  0.39895076617E+03  0.00000000000E+00 0.  1.
<mgrwt>
<rscale>  0 0.14029859E+04</rscale>
<asrwt>0</asrwt>
<pdfrwt beam="1">  1        2 0.19424919E+00 0.14029859E+04</pdfrwt>
<pdfrwt beam="2">  1       -1 0.59959873E-01 0.14029859E+04</pdfrwt>
<totfact> 0.54396697E+01</totfact>
</mgrwt>
</event>
<event>
12    7  0.1605494E-007  0.2593595E+04  0.7818608E-02  0.8370380E-01
          2   -1    0    0  501    0  0.00000000000E+00  0.00000000000E+00  0.25633585345E+04  0.25633585345E+04  0.00000000000E+00 0. -1.
         -1   -1    0    0    0  501 -0.00000000000E+00 -0.00000000000E+00 -0.65604711345E+03  0.65604711345E+03  0.00000000000E+00 0.  1.
         24    2    1    2    0    0 -0.10979055323E+04 -0.25898172514E+03  0.10709434442E+04  0.15575022993E+04  0.80158966903E+02 0.  0.
        254    2    1    2    0    0  0.10979055323E+04  0.25898172514E+03  0.83636797683E+03  0.16619033486E+04  0.88878751997E+03 0.  0.
         23    2    4    4    0    0  0.10820778475E+03  0.36415474493E+03  0.58052878115E+02  0.39519336730E+03  0.92141510537E+02 0.  0.
         23    2    4    4    0    0  0.98969774753E+03 -0.10517301979E+03  0.77831509871E+03  0.12667099813E+04  0.90646501754E+02 0.  0.
          4    1    3    3  502    0 -0.91159233462E+03 -0.19357985662E+03  0.91330055141E+03  0.13048339521E+04  0.00000000000E+00 0. -1.
         -3    1    3    3    0  502 -0.18631319766E+03 -0.65401868520E+02  0.15764289276E+03  0.25266834718E+03  0.00000000000E+00 0.  1.
         13    1    5    5    0    0  0.59787753660E+02  0.81056214656E+02 -0.61033635916E+01  0.10090558195E+03  0.00000000000E+00 0.  1.
        -13    1    5    5    0    0  0.48420031092E+02  0.28309853028E+03  0.64156241706E+02  0.29428778535E+03  0.00000000000E+00 0. -1.
          3    1    6    6  503    0  0.81693914620E+03 -0.90146918165E+02  0.68415093167E+03  0.10693823137E+04  0.00000000000E+00 0. -1.
         -3    1    6    6    0  503  0.17275860133E+03 -0.15026101626E+02  0.94164167038E+02  0.19732766764E+03  0.00000000000E+00 0.  1.
<mgrwt>
<rscale>  0 0.25935952E+04</rscale>
<asrwt>0</asrwt>
<pdfrwt beam="1">  1        2 0.39436285E+00 0.25935952E+04</pdfrwt>
<pdfrwt beam="2">  1       -1 0.10093033E+00 0.25935952E+04</pdfrwt>
<totfact> 0.30019212E+00</totfact>
</mgrwt>
</event>
<event>
12    7  0.1605494E-007  0.1949537E+04  0.7818608E-02  0.8630584E-01
         -1   -1    0    0    0  501 -0.00000000000E+00  0.00000000000E+00  0.31106951657E+03  0.31106951657E+03  0.00000000000E+00 0.  1.
          2   -1    0    0  501    0  0.00000000000E+00 -0.00000000000E+00 -0.30545390150E+04  0.30545390150E+04  0.00000000000E+00 0. -1.
         24    2    1    2    0    0  0.14877466386E+03  0.73238537493E+02  0.20767137437E+03  0.27704463923E+03  0.78285045904E+02 0.  0.
        254    2    1    2    0    0 -0.14877466386E+03 -0.73238537493E+02 -0.29511408728E+04  0.30885638923E+04  0.89582179142E+03 0.  0.
         23    2    4    4    0    0 -0.35079411230E+03  0.10729363163E+03 -0.26367486808E+04  0.26637146976E+04  0.91454646577E+02 0.  0.
         23    2    4    4    0    0  0.20201944844E+03 -0.18053216913E+03 -0.31439219202E+03  0.42484919467E+03  0.90833177706E+02 0.  0.
          2    1    3    3  502    0  0.10106883280E+03  0.49538943327E+02  0.78234710989E+02  0.13707547510E+03  0.00000000000E+00 0. -1.
         -1    1    3    3    0  502  0.47705831060E+02  0.23699594167E+02  0.12943666338E+03  0.13996916413E+03  0.00000000000E+00 0.  1.
         13    1    5    5    0    0 -0.34345520908E+03  0.10933648080E+03 -0.26255215546E+04  0.26501470488E+04  0.00000000000E+00 0.  1.
        -13    1    5    5    0    0 -0.73389032217E+01 -0.20428491680E+01 -0.11227126184E+02  0.13567648859E+02  0.00000000000E+00 0. -1.
          1    1    6    6  503    0 -0.15871716502E+01  0.76298072603E+01 -0.14370027189E+02  0.16347194074E+02  0.00000000000E+00 0. -1.
         -1    1    6    6    0  503  0.20360662009E+03 -0.18816197639E+03 -0.30002216483E+03  0.40850200059E+03  0.00000000000E+00 0.  1.
<mgrwt>
<rscale>  0 0.19495374E+04</rscale>
<asrwt>0</asrwt>
<pdfrwt beam="1">  1        2 0.46992907E+00 0.19495374E+04</pdfrwt>
<pdfrwt beam="2">  1       -1 0.47856849E-01 0.19495374E+04</pdfrwt>
<totfact> 0.74733986E+00</totfact>
</mgrwt>
</event>
<event>
12    7  0.1605494E-007  0.2938696E+04  0.7818608E-02  0.8261456E-01
         -1   -1    0    0    0  501 -0.00000000000E+00  0.00000000000E+00  0.67337627597E+03  0.67337627597E+03  0.00000000000E+00 0.  1.
          2   -1    0    0  501    0  0.00000000000E+00 -0.00000000000E+00 -0.32062077782E+04  0.32062077782E+04  0.00000000000E+00 0. -1.
         24    2    1    2    0    0  0.95308982633E+03 -0.82217568503E+03 -0.16753740850E+04  0.20970777253E+04  0.80644820554E+02 0.  0.
        254    2    1    2    0    0 -0.95308982633E+03  0.82217568503E+03 -0.85745741723E+03  0.17825063289E+04  0.92614389599E+03 0.  0.
         23    2    4    4    0    0 -0.58072938502E+03  0.50942607511E+03  0.16491096177E+02  0.77820588901E+03  0.92579181329E+02 0.  0.
         23    2    4    4    0    0 -0.37236044131E+03  0.31274960991E+03 -0.87394851341E+03  0.10043004399E+04  0.91480887059E+02 0.  0.
          4    1    3    3  502    0  0.92800301685E+03 -0.78210217237E+03 -0.16021031559E+04  0.20098775907E+04  0.00000000000E+00 0. -1.
         -3    1    3    3    0  502  0.25086809475E+02 -0.40073512660E+02 -0.73270929036E+02  0.87200134566E+02  0.00000000000E+00 0.  1.
         13    1    5    5    0    0 -0.89422604673E+02  0.85245533120E+02 -0.31036203249E+02  0.12738307994E+03  0.00000000000E+00 0. -1.
        -13    1    5    5    0    0 -0.49130678034E+03  0.42418054199E+03  0.47527299426E+02  0.65082280907E+03  0.00000000000E+00 0.  1.
          1    1    6    6  503    0 -0.16597190056E+03  0.12974434004E+03 -0.47118116903E+03  0.51613172698E+03  0.00000000000E+00 0. -1.
         -1    1    6    6    0  503 -0.20638854076E+03  0.18300526987E+03 -0.40276734438E+03  0.48816871290E+03  0.00000000000E+00 0.  1.
<mgrwt>
<rscale>  0 0.29386965E+04</rscale>
<asrwt>0</asrwt>
<pdfrwt beam="1">  1        2 0.49326274E+00 0.29386965E+04</pdfrwt>
<pdfrwt beam="2">  1       -1 0.10359635E+00 0.29386965E+04</pdfrwt>
<totfact> 0.11024939E+00</totfact>
</mgrwt>
</event>
<event>
12    7  0.1789178E-007  0.3185629E+04  0.7818608E-02  0.8192623E-01
          2   -1    0    0  501    0  0.00000000000E+00  0.00000000000E+00  0.14583827475E+04  0.14583827475E+04  0.00000000000E+00 0. -1.
         -1   -1    0    0    0  501 -0.00000000000E+00 -0.00000000000E+00 -0.17396382098E+04  0.17396382098E+04  0.00000000000E+00 0.  1.
         24    2    1    2    0    0 -0.37218959154E+03 -0.52974727681E+03 -0.14222968125E+04  0.15646943854E+04  0.78632231202E+02 0.  0.
        254    2    1    2    0    0  0.37218959154E+03  0.52974727681E+03  0.11410413501E+04  0.16333265719E+04  0.97294555777E+03 0.  0.
         23    2    4    4    0    0 -0.12194638430E+03 -0.16113614597E+02  0.80405039519E+03  0.81807436084E+03  0.87281456377E+02 0.  0.
         23    2    4    4    0    0  0.49413597585E+03  0.54586089141E+03  0.33699095491E+03  0.81525221103E+03  0.94545166485E+02 0.  0.
          4    1    3    3  502    0 -0.14498331755E+02 -0.38094602220E+02 -0.13534779354E+03  0.14135213320E+03  0.00000000000E+00 0. -1.
         -3    1    3    3    0  502 -0.35769125979E+03 -0.49165267459E+03 -0.12869490189E+04  0.14233422523E+04  0.00000000000E+00 0.  1.
         13    1    5    5    0    0 -0.24971142944E+02  0.21841775356E+02  0.80499722951E+02  0.87067942009E+02  0.00000000000E+00 0. -1.
        -13    1    5    5    0    0 -0.96975241359E+02 -0.37955389953E+02  0.72355067224E+03  0.73100641883E+03  0.00000000000E+00 0.  1.
          1    1    6    6  503    0 -0.38971948930E+00  0.90591468073E+01 -0.36859173320E+01  0.97880543897E+01  0.00000000000E+00 0. -1.
         -1    1    6    6    0  503  0.49452569534E+03  0.53680174460E+03  0.34067687224E+03  0.80546415664E+03  0.00000000000E+00 0.  1.
<mgrwt>
<rscale>  0 0.31856292E+04</rscale>
<asrwt>0</asrwt>
<pdfrwt beam="1">  1        2 0.22436658E+00 0.31856292E+04</pdfrwt>
<pdfrwt beam="2">  1       -1 0.26763665E+00 0.31856292E+04</pdfrwt>
<totfact> 0.68860103E-01</totfact>
</mgrwt>
</event>
<event>
12    7  0.1605494E-007  0.1109135E+04  0.7818608E-02  0.9196333E-01
         -1   -1    0    0    0  501 -0.00000000000E+00  0.00000000000E+00  0.13641426552E+03  0.13641426552E+03  0.00000000000E+00 0.  1.
          2   -1    0    0  501    0  0.00000000000E+00 -0.00000000000E+00 -0.22544950847E+04  0.22544950847E+04  0.00000000000E+00 0. -1.
         24    2    1    2    0    0 -0.18220388409E+03 -0.20868402247E+02 -0.37425798238E+03  0.42435036070E+03  0.79815071684E+02 0.  0.
        254    2    1    2    0    0  0.18220388409E+03  0.20868402247E+02 -0.17438228368E+04  0.19665589895E+04  0.89039453474E+03 0.  0.
         23    2    4    4    0    0  0.48987255434E+03 -0.13134668011E+03 -0.74175503259E+03  0.90301691003E+03  0.89509449606E+02 0.  0.
         23    2    4    4    0    0 -0.30766867025E+03  0.15221508236E+03 -0.10020678042E+04  0.10635420795E+04  0.95668326166E+02 0.  0.
          2    1    3    3  502    0 -0.53907772551E+02 -0.43095734887E+02 -0.14800144021E+03  0.16330253094E+03  0.00000000000E+00 0. -1.
         -1    1    3    3    0  502 -0.12829611154E+03  0.22227332640E+02 -0.22625654217E+03  0.26104782976E+03  0.00000000000E+00 0.  1.
         13    1    5    5    0    0  0.22724532254E+03 -0.20746405731E+02 -0.36821815638E+03  0.43319217520E+03  0.00000000000E+00 0.  1.
        -13    1    5    5    0    0  0.26262723179E+03 -0.11060027438E+03 -0.37353687621E+03  0.46982473483E+03  0.00000000000E+00 0. -1.
          1    1    6    6  503    0 -0.27408904344E+03  0.13287484469E+03 -0.95595076686E+03  0.10033057344E+04  0.00000000000E+00 0. -1.
         -1    1    6    6    0  503 -0.33579626814E+02  0.19340237671E+02 -0.46117037337E+02  0.60236345033E+02  0.00000000000E+00 0.  1.
<mgrwt>
<rscale>  0 0.11091353E+04</rscale>
<asrwt>0</asrwt>
<pdfrwt beam="1">  1        2 0.34684537E+00 0.11091353E+04</pdfrwt>
<pdfrwt beam="2">  1       -1 0.20986812E-01 0.11091353E+04</pdfrwt>
<totfact> 0.10309091E+02</totfact>
</mgrwt>
</event>
<event>
12    7  0.1605494E-007  0.1303933E+04  0.7818608E-02  0.9026452E-01
          2   -1    0    0  501    0  0.00000000000E+00  0.00000000000E+00  0.17986880835E+04  0.17986880835E+04  0.00000000000E+00 0. -1.
         -1   -1    0    0    0  501 -0.00000000000E+00 -0.00000000000E+00 -0.23631688875E+03  0.23631688875E+03  0.00000000000E+00 0.  1.
         24    2    1    2    0    0 -0.18343907060E+03  0.13809225359E+03  0.78119583954E+03  0.81807660325E+03  0.79139281982E+02 0.  0.
        254    2    1    2    0    0  0.18343907060E+03 -0.13809225359E+03  0.78117535517E+03  0.12169283690E+04  0.90441160792E+03 0.  0.
         23    2    4    4    0    0  0.95419774680E+02  0.25481715584E+03  0.74939321957E+03  0.80255115991E+03  0.91986142574E+02 0.  0.
         23    2    4    4    0    0  0.88019295917E+02 -0.39290940943E+03  0.31782135595E+02  0.41437720905E+03  0.92591396836E+02 0.  0.
          4    1    3    3  502    0 -0.10995818350E+03  0.43092254474E+02  0.46718696635E+03  0.48188318713E+03  0.00000000000E+00 0. -1.
         -3    1    3    3    0  502 -0.73480887100E+02  0.94999999115E+02  0.31400887319E+03  0.33619341612E+03  0.00000000000E+00 0.  1.
         13    1    5    5    0    0  0.73589404410E+02  0.14568075465E+03  0.32329949378E+03  0.36216135271E+03  0.00000000000E+00 0. -1.
        -13    1    5    5    0    0  0.21830370270E+02  0.10913640119E+03  0.42609372579E+03  0.44038980720E+03  0.00000000000E+00 0.  1.
          2    1    6    6  503    0  0.50506865938E+02 -0.64254704263E+02  0.15517711424E+02  0.83189001044E+02  0.00000000000E+00 0. -1.
         -2    1    6    6    0  503  0.37512429978E+02 -0.32865470517E+03  0.16264424171E+02  0.33118820801E+03  0.00000000000E+00 0.  1.
<mgrwt>
<rscale>  0 0.13039331E+04</rscale>
<asrwt>0</asrwt>
<pdfrwt beam="1">  1        2 0.27672124E+00 0.13039331E+04</pdfrwt>
<pdfrwt beam="2">  1       -1 0.36356446E-01 0.13039331E+04</pdfrwt>
<totfact> 0.69927407E+01</totfact>
</mgrwt>
</event>
<event>
12    7  0.1605494E-007  0.1329975E+04  0.7818608E-02  0.9006127E-01
         -1   -1    0    0    0  501 -0.00000000000E+00  0.00000000000E+00  0.67562396520E+03  0.67562396520E+03  0.00000000000E+00 0.  1.
          2   -1    0    0  501    0  0.00000000000E+00 -0.00000000000E+00 -0.65451862050E+03  0.65451862050E+03  0.00000000000E+00 0. -1.
         24    2    1    2    0    0  0.16907809954E+03  0.27205196811E+03 -0.26154870280E+03  0.42145450890E+03  0.81341883677E+02 0.  0.
        254    2    1    2    0    0 -0.16907809954E+03 -0.27205196811E+03  0.28265404750E+03  0.90868807681E+03  0.80201061918E+03 0.  0.
         23    2    4    4    0    0 -0.14469892370E+03 -0.34345984334E+03 -0.18540684190E+03  0.42608723909E+03  0.90951612339E+02 0.  0.
         23    2    4    4    0    0 -0.24379175836E+02  0.71407875230E+02  0.46806088940E+03  0.48260083772E+03  0.90161763100E+02 0.  0.
          2    1    3    3  502    0  0.16301246883E+03  0.23929945401E+03 -0.25824948411E+03  0.38798207397E+03  0.00000000000E+00 0. -1.
         -1    1    3    3    0  502  0.60656307039E+01  0.32752514102E+02 -0.32992186921E+01  0.33472434925E+02  0.00000000000E+00 0.  1.
         13    1    5    5    0    0 -0.15705790113E+03 -0.30559302829E+03 -0.17037532993E+03  0.38351275898E+03  0.00000000000E+00 0. -1.
        -13    1    5    5    0    0  0.12358977433E+02 -0.37866815043E+02 -0.15031511967E+02  0.42574480111E+02  0.00000000000E+00 0.  1.
          3    1    6    6  503    0  0.56943904524E+01  0.84189460114E+02  0.31633045425E+03  0.32739158138E+03  0.00000000000E+00 0. -1.
         -3    1    6    6    0  503 -0.30073566289E+02 -0.12781584885E+02  0.15173043515E+03  0.15520925633E+03  0.00000000000E+00 0.  1.
<mgrwt>
<rscale>  0 0.13299751E+04</rscale>
<asrwt>0</asrwt>
<pdfrwt beam="1">  1        2 0.10069517E+00 0.13299751E+04</pdfrwt>
<pdfrwt beam="2">  1       -1 0.10394215E+00 0.13299751E+04</pdfrwt>
<totfact> 0.43444620E+01</totfact>
</mgrwt>
</event>
<event>
12    7  0.1605494E-007  0.1598901E+04  0.7818608E-02  0.8821223E-01
         -1   -1    0    0    0  501 -0.00000000000E+00  0.00000000000E+00  0.87165822117E+03  0.87165822117E+03  0.00000000000E+00 0.  1.
          2   -1    0    0  501    0  0.00000000000E+00 -0.00000000000E+00 -0.73322435884E+03  0.73322435884E+03  0.00000000000E+00 0. -1.
         24    2    1    2    0    0  0.40860461673E+03 -0.10338049136E+03  0.40392041302E+03  0.58918026318E+03  0.79601656088E+02 0.  0.
        254    2    1    2    0    0 -0.40860461673E+03  0.10338049136E+03 -0.26548655069E+03  0.10157023168E+04  0.88516824899E+03 0.  0.
         23    2    4    4    0    0 -0.49044337150E+03 -0.10458959062E+03 -0.47511180212E+03  0.69557660791E+03  0.81375118044E+02 0.  0.
         23    2    4    4    0    0  0.81838754768E+02  0.20797008198E+03  0.20962525143E+03  0.32012570893E+03  0.92674628149E+02 0.  0.
          4    1    3    3  502    0  0.54503034678E+02 -0.13504701824E+02  0.21021688172E+02  0.59957227538E+02  0.00000000000E+00 0. -1.
         -3    1    3    3    0  502  0.35410158206E+03 -0.89875789535E+02  0.38289872485E+03  0.52922303564E+03  0.00000000000E+00 0.  1.
         13    1    5    5    0    0 -0.25898707155E+03 -0.79137748006E+02 -0.20975310915E+03  0.34253971038E+03  0.00000000000E+00 0. -1.
        -13    1    5    5    0    0 -0.23145629995E+03 -0.25451842616E+02 -0.26535869297E+03  0.35303689753E+03  0.00000000000E+00 0.  1.
          3    1    6    6  503    0  0.61650687846E+02  0.72394004405E+02  0.42980206740E+02  0.10435035868E+03  0.00000000000E+00 0. -1.
         -3    1    6    6    0  503  0.20188066922E+02  0.13557607758E+03  0.16664504469E+03  0.21577535025E+03  0.00000000000E+00 0.  1.
<mgrwt>
<rscale>  0 0.15989009E+04</rscale>
<asrwt>0</asrwt>
<pdfrwt beam="1">  1        2 0.11280375E+00 0.15989009E+04</pdfrwt>
<pdfrwt beam="2">  1       -1 0.13410126E+00 0.15989009E+04</pdfrwt>
<totfact> 0.19819559E+01</totfact>
</mgrwt>
</event>
<event>
12    7  0.1605494E-007  0.1344801E+04  0.7818608E-02  0.8994773E-01
          2   -1    0    0  501    0  0.00000000000E+00  0.00000000000E+00  0.69269387782E+03  0.69269387782E+03  0.00000000000E+00 0. -1.
         -1   -1    0    0    0  501 -0.00000000000E+00 -0.00000000000E+00 -0.65270139755E+03  0.65270139755E+03  0.00000000000E+00 0.  1.
         24    2    1    2    0    0 -0.22759092159E+03  0.14001281552E+03  0.25181450145E+03  0.37591647292E+03  0.80631478762E+02 0.  0.
        254    2    1    2    0    0  0.22759092159E+03 -0.14001281552E+03 -0.21182202118E+03  0.96947880246E+03  0.90753477270E+03 0.  0.
         23    2    4    4    0    0  0.45314666908E+03 -0.21376719608E+03 -0.40404349551E+03  0.65075600529E+03  0.95884901517E+02 0.  0.
         23    2    4    4    0    0 -0.22555574749E+03  0.73754380554E+02  0.19222147433E+03  0.31872279717E+03  0.91214156607E+02 0.  0.
          4    1    3    3  502    0 -0.52420657402E+02  0.52532456529E+02  0.11569179295E+03  0.13744880963E+03  0.00000000000E+00 0. -1.
         -3    1    3    3    0  502 -0.17517026419E+03  0.87480358995E+02  0.13612270850E+03  0.23846766329E+03  0.00000000000E+00 0.  1.
         13    1    5    5    0    0  0.44736247860E+03 -0.19458617316E+03 -0.39863282826E+03  0.63000404587E+03  0.00000000000E+00 0.  1.
        -13    1    5    5    0    0  0.57841904801E+01 -0.19181022916E+02 -0.54106672441E+01  0.20751959416E+02  0.00000000000E+00 0. -1.
          4    1    6    6  503    0 -0.10814115932E+03 -0.10260041903E+02  0.67153726260E+02  0.12770826813E+03  0.00000000000E+00 0. -1.
         -4    1    6    6    0  503 -0.11741458817E+03  0.84014422457E+02  0.12506774807E+03  0.19101452904E+03  0.00000000000E+00 0.  1.
<mgrwt>
<rscale>  0 0.13448007E+04</rscale>
<asrwt>0</asrwt>
<pdfrwt beam="1">  1        2 0.10656829E+00 0.13448007E+04</pdfrwt>
<pdfrwt beam="2">  1       -1 0.10041560E+00 0.13448007E+04</pdfrwt>
<totfact> 0.43773335E+01</totfact>
</mgrwt>
</event>
<event>
12    7  0.1605494E-007  0.1303312E+04  0.7818608E-02  0.9026943E-01
         -1   -1    0    0    0  501 -0.00000000000E+00  0.00000000000E+00  0.15673402890E+03  0.15673402890E+03  0.00000000000E+00 0.  1.
          2   -1    0    0  501    0  0.00000000000E+00 -0.00000000000E+00 -0.27094025877E+04  0.27094025877E+04  0.00000000000E+00 0. -1.
         24    2    1    2    0    0  0.11899043095E+03  0.22520446296E+03 -0.19446322969E+03  0.32968650345E+03  0.77469155538E+02 0.  0.
        254    2    1    2    0    0 -0.11899043095E+03 -0.22520446296E+03 -0.23582053291E+04  0.25364501131E+04  0.89864955878E+03 0.  0.
         23    2    4    4    0    0 -0.34185656984E+03 -0.16760650416E+02 -0.33069977559E+03  0.48409739980E+03  0.88550082870E+02 0.  0.
         23    2    4    4    0    0  0.22286613889E+03 -0.20844381254E+03 -0.20275055535E+04  0.20523527133E+04  0.90855663634E+02 0.  0.
          2    1    3    3  502    0  0.70309709387E+02  0.84643316553E+02 -0.12177203072E+03  0.16412304450E+03  0.00000000000E+00 0. -1.
         -1    1    3    3    0  502  0.48680721559E+02  0.14056114640E+03 -0.72691198978E+02  0.16556345895E+03  0.00000000000E+00 0.  1.
         13    1    5    5    0    0 -0.15224929231E+03 -0.18879108055E+01 -0.20795784622E+03  0.25773994068E+03  0.00000000000E+00 0.  1.
        -13    1    5    5    0    0 -0.18960727753E+03 -0.14872739611E+02 -0.12274192937E+03  0.22635745913E+03  0.00000000000E+00 0. -1.
          4    1    6    6  503    0  0.22384045404E+03 -0.18228081284E+03 -0.19265814771E+04  0.19480880451E+04  0.00000000000E+00 0. -1.
         -4    1    6    6    0  503 -0.97431514324E+00 -0.26162999704E+02 -0.10092407642E+03  0.10426466825E+03  0.00000000000E+00 0.  1.
<mgrwt>
<rscale>  0 0.13033121E+04</rscale>
<asrwt>0</asrwt>
<pdfrwt beam="1">  1        2 0.41683115E+00 0.13033121E+04</pdfrwt>
<pdfrwt beam="2">  1       -1 0.24112928E-01 0.13033121E+04</pdfrwt>
<totfact> 0.43914296E+01</totfact>
</mgrwt>
</event>
<event>
12    7  0.1605494E-007  0.1493152E+04  0.7818608E-02  0.8889019E-01
         -1   -1    0    0    0  501 -0.00000000000E+00  0.00000000000E+00  0.41324540260E+03  0.41324540260E+03  0.00000000000E+00 0.  1.
          2   -1    0    0  501    0  0.00000000000E+00 -0.00000000000E+00 -0.13487771077E+04  0.13487771077E+04  0.00000000000E+00 0. -1.
         24    2    1    2    0    0  0.36970653389E+03  0.30124930264E+03 -0.49445427796E+03  0.69193358150E+03  0.82782755879E+02 0.  0.
        254    2    1    2    0    0 -0.36970653389E+03 -0.30124930264E+03 -0.44107742715E+03  0.10700889288E+04  0.85035695757E+03 0.  0.
         23    2    4    4    0    0 -0.16160291716E+03 -0.32374541392E+03 -0.65628199416E+03  0.75641710946E+03  0.10263621078E+03 0.  0.
         23    2    4    4    0    0 -0.20810361673E+03  0.22496111272E+02  0.21520456701E+03  0.31367181935E+03  0.90905523894E+02 0.  0.
          4    1    3    3  502    0  0.28496879489E+03  0.26917417151E+03 -0.37992308486E+03  0.54589696745E+03  0.00000000000E+00 0. -1.
         -3    1    3    3    0  502  0.84737739003E+02  0.32075131130E+02 -0.11453119310E+03  0.14603661404E+03  0.00000000000E+00 0.  1.
         13    1    5    5    0    0 -0.68271703611E+02 -0.15996959178E+03 -0.41689213759E+03  0.45171932679E+03  0.00000000000E+00 0. -1.
        -13    1    5    5    0    0 -0.93331213552E+02 -0.16377582214E+03 -0.23938985657E+03  0.30469778268E+03  0.00000000000E+00 0.  1.
          4    1    6    6  503    0 -0.51959659062E+02  0.42226894210E+02  0.92069293599E+02  0.11384055336E+03  0.00000000000E+00 0.  1.
         -4    1    6    6    0  503 -0.15614395766E+03 -0.19730782938E+02  0.12313527341E+03  0.19983126599E+03  0.00000000000E+00 0. -1.
<mgrwt>
<rscale>  0 0.14931523E+04</rscale>
<asrwt>0</asrwt>
<pdfrwt beam="1">  1        2 0.20750417E+00 0.14931523E+04</pdfrwt>
<pdfrwt beam="2">  1       -1 0.63576215E-01 0.14931523E+04</pdfrwt>
<totfact> 0.42817631E+01</totfact>
</mgrwt>
</event>
<event>
12    7  0.1605494E-007  0.1676715E+04  0.7818608E-02  0.8774757E-01
         -1   -1    0    0    0  501 -0.00000000000E+00  0.00000000000E+00  0.73505204756E+03  0.73505204756E+03  0.00000000000E+00 0.  1.
          2   -1    0    0  501    0  0.00000000000E+00 -0.00000000000E+00 -0.95618219752E+03  0.95618219752E+03  0.00000000000E+00 0. -1.
         24    2    1    2    0    0 -0.50238223184E+03 -0.31661289258E+03 -0.11313142730E+03  0.60983869447E+03  0.80454228089E+02 0.  0.
        254    2    1    2    0    0  0.50238223184E+03  0.31661289258E+03 -0.10799872266E+03  0.10813955506E+04  0.89728534045E+03 0.  0.
         23    2    4    4    0    0 -0.28129839707E+02 -0.12051085306E+03  0.25591277839E+03  0.29831954970E+03  0.90493369934E+02 0.  0.
         23    2    4    4    0    0  0.53051207155E+03  0.43712374563E+03 -0.36391150105E+03  0.78307600092E+03  0.90863719752E+02 0.  0.
          4    1    3    3  502    0 -0.14303346816E+02  0.41503878269E+01 -0.59564286460E+01  0.16040277163E+02  0.00000000000E+00 0. -1.
         -3    1    3    3    0  502 -0.48807888502E+03 -0.32076328040E+03 -0.10717499865E+03  0.59379841731E+03  0.00000000000E+00 0.  1.
         13    1    5    5    0    0 -0.23698498645E+02 -0.12424490827E+03  0.26136564394E+03  0.29036255940E+03  0.00000000000E+00 0.  1.
        -13    1    5    5    0    0 -0.44313410615E+01  0.37340552107E+01 -0.54528655495E+01  0.79569902992E+01  0.00000000000E+00 0. -1.
          1    1    6    6  503    0  0.19755540298E+03  0.11342186564E+03 -0.98275547864E+02  0.24809421630E+03  0.00000000000E+00 0. -1.
         -1    1    6    6    0  503  0.33295666857E+03  0.32370187999E+03 -0.26563595318E+03  0.53498178462E+03  0.00000000000E+00 0.  1.
<mgrwt>
<rscale>  0 0.16767155E+04</rscale>
<asrwt>0</asrwt>
<pdfrwt beam="1">  1        2 0.14710495E+00 0.16767155E+04</pdfrwt>
<pdfrwt beam="2">  1       -1 0.11308493E+00 0.16767155E+04</pdfrwt>
<totfact> 0.20910717E+01</totfact>
</mgrwt>
</event>
<event>
12    7  0.1605494E-007  0.1521009E+04  0.7818608E-02  0.8870601E-01
          2   -1    0    0  501    0  0.00000000000E+00  0.00000000000E+00  0.39155911940E+04  0.39155911940E+04  0.00000000000E+00 0. -1.
         -1   -1    0    0    0  501 -0.00000000000E+00 -0.00000000000E+00 -0.14770871256E+03  0.14770871256E+03  0.00000000000E+00 0.  1.
         24    2    1    2    0    0  0.26831918885E+03 -0.20807018131E+03  0.35189432935E+03  0.49591712765E+03  0.82557804037E+02 0.  0.
        254    2    1    2    0    0 -0.26831918885E+03  0.20807018131E+03  0.34159881521E+04  0.35673827789E+04  0.97054440839E+03 0.  0.
         23    2    4    4    0    0 -0.58011394824E+03 -0.74589800720E+02  0.21554378989E+04  0.22352272270E+04  0.90732513241E+02 0.  0.
         23    2    4    4    0    0  0.31179475938E+03  0.28265998203E+03  0.12605502532E+04  0.13321555520E+04  0.92405823974E+02 0.  0.
          4    1    3    3  502    0  0.15479364407E+03 -0.16274353197E+03  0.25592604821E+03  0.34050649273E+03  0.00000000000E+00 0. -1.
         -3    1    3    3    0  502  0.11352554478E+03 -0.45326649339E+02  0.95968281144E+02  0.15541063491E+03  0.00000000000E+00 0.  1.
         13    1    5    5    0    0 -0.16017072235E+02  0.54094532577E+00  0.14234123351E+03  0.14324058776E+03  0.00000000000E+00 0.  1.
        -13    1    5    5    0    0 -0.56409687600E+03 -0.75130746046E+02  0.20130966654E+04  0.20919866392E+04  0.00000000000E+00 0. -1.
          3    1    6    6  503    0  0.11544585502E+03  0.85227394805E+02  0.30885247621E+03  0.34056028295E+03  0.00000000000E+00 0. -1.
         -3    1    6    6    0  503  0.19634890436E+03  0.19743258722E+03  0.95169777702E+03  0.99159526901E+03  0.00000000000E+00 0.  1.
<mgrwt>
<rscale>  0 0.15210088E+04</rscale>
<asrwt>0</asrwt>
<pdfrwt beam="1">  1        2 0.60239857E+00 0.15210088E+04</pdfrwt>
<pdfrwt beam="2">  1       -1 0.22724420E-01 0.15210088E+04</pdfrwt>
<totfact> 0.73927479E+00</totfact>
</mgrwt>
</event>
<event>
12    7  0.1605494E-007  0.1286010E+04  0.7818608E-02  0.9040734E-01
         -1   -1    0    0    0  501 -0.00000000000E+00  0.00000000000E+00  0.50711377877E+03  0.50711377877E+03  0.00000000000E+00 0.  1.
          2   -1    0    0  501    0  0.00000000000E+00 -0.00000000000E+00 -0.81531039601E+03  0.81531039601E+03  0.00000000000E+00 0. -1.
         24    2    1    2    0    0 -0.21612337962E+03  0.38980016863E+02 -0.31338868440E+03  0.39130399322E+03  0.81716526306E+02 0.  0.
        254    2    1    2    0    0  0.21612337962E+03 -0.38980016863E+02  0.51920671529E+01  0.93112018156E+03  0.90483649242E+03 0.  0.
         23    2    4    4    0    0 -0.12303705430E+02  0.33484670858E+03  0.24305155554E+03  0.42406392960E+03  0.92100262347E+02 0.  0.
         23    2    4    4    0    0  0.22842708505E+03 -0.37382672544E+03 -0.23785948839E+03  0.50705625196E+03  0.92755337302E+02 0.  0.
          2    1    3    3  502    0 -0.73253369671E+02  0.53497131428E+02 -0.12280092218E+03  0.15266979311E+03  0.00000000000E+00 0. -1.
         -1    1    3    3    0  502 -0.14287000995E+03 -0.14517114566E+02 -0.19058776221E+03  0.23863420011E+03  0.00000000000E+00 0.  1.
         13    1    5    5    0    0 -0.14722817595E+02  0.75313773952E+01  0.28678981478E+00  0.16539808095E+02  0.00000000000E+00 0. -1.
        -13    1    5    5    0    0  0.24191121650E+01  0.32731533118E+03  0.24276476573E+03  0.40752412151E+03  0.00000000000E+00 0.  1.
          4    1    6    6  503    0  0.64778014605E+02 -0.69115739257E+02 -0.15806988526E+02  0.96036646524E+02  0.00000000000E+00 0. -1.
         -4    1    6    6    0  503  0.16364907044E+03 -0.30471098618E+03 -0.22205249986E+03  0.41101960544E+03  0.00000000000E+00 0.  1.
<mgrwt>
<rscale>  0 0.12860095E+04</rscale>
<asrwt>0</asrwt>
<pdfrwt beam="1">  1        2 0.12543237E+00 0.12860095E+04</pdfrwt>
<pdfrwt beam="2">  1       -1 0.78017505E-01 0.12860095E+04</pdfrwt>
<totfact> 0.61913626E+01</totfact>
</mgrwt>
</event>
<event>
12    7  0.1605494E-007  0.2177029E+04  0.7818608E-02  0.8528050E-01
          2   -1    0    0  501    0  0.00000000000E+00  0.00000000000E+00  0.35401291226E+04  0.35401291226E+04  0.00000000000E+00 0. -1.
         -1   -1    0    0    0  501 -0.00000000000E+00 -0.00000000000E+00 -0.33469519590E+03  0.33469519590E+03  0.00000000000E+00 0.  1.
         24    2    1    2    0    0  0.76212425655E+03 -0.47290856797E+03  0.11924291309E+04  0.14942135152E+04  0.79441177253E+02 0.  0.
        254    2    1    2    0    0 -0.76212425655E+03  0.47290856797E+03  0.20130047958E+04  0.23806108033E+04  0.90035748061E+03 0.  0.
         23    2    4    4    0    0 -0.57203442186E+03  0.73414256358E+03  0.14966526477E+04  0.17647028287E+04  0.89544638252E+02 0.  0.
         23    2    4    4    0    0 -0.19008983469E+03 -0.26123399561E+03  0.51635214804E+03  0.61590797459E+03  0.91355058214E+02 0.  0.
          2    1    3    3  502    0  0.74250831981E+03 -0.47281863275E+03  0.11734168332E+04  0.14668957458E+04  0.00000000000E+00 0. -1.
         -1    1    3    3    0  502  0.19615936744E+02 -0.89935212464E-01  0.19012297694E+02  0.27317769424E+02  0.00000000000E+00 0.  1.
         13    1    5    5    0    0 -0.46989444693E+03  0.65172833676E+03  0.12710129406E+04  0.15036703467E+04  0.00000000000E+00 0. -1.
        -13    1    5    5    0    0 -0.10213997493E+03  0.82414226817E+02  0.22563970710E+03  0.26103248204E+03  0.00000000000E+00 0.  1.
          4    1    6    6  503    0 -0.18676305232E+03 -0.26262292176E+03  0.47264799554E+03  0.57205538581E+03  0.00000000000E+00 0. -1.
         -4    1    6    6    0  503 -0.33267823677E+01  0.13889261500E+01  0.43704152502E+02  0.43852588780E+02  0.00000000000E+00 0.  1.
<mgrwt>
<rscale>  0 0.21770294E+04</rscale>
<asrwt>0</asrwt>
<pdfrwt beam="1">  1        2 0.54463522E+00 0.21770294E+04</pdfrwt>
<pdfrwt beam="2">  1       -1 0.51491571E-01 0.21770294E+04</pdfrwt>
<totfact> 0.30240512E+00</totfact>
</mgrwt>
</event>
<event>
12    7  0.1605494E-007  0.1472698E+04  0.7818608E-02  0.8902814E-01
          2   -1    0    0  501    0  0.00000000000E+00  0.00000000000E+00  0.13509426895E+04  0.13509426895E+04  0.00000000000E+00 0. -1.
         -1   -1    0    0    0  501 -0.00000000000E+00 -0.00000000000E+00 -0.40135681097E+03  0.40135681097E+03  0.00000000000E+00 0.  1.
         24    2    1    2    0    0 -0.43246045565E+03  0.70437089206E+02  0.11865067630E+03  0.46072543055E+03  0.78781407287E+02 0.  0.
        254    2    1    2    0    0  0.43246045565E+03 -0.70437089206E+02  0.83093520220E+03  0.12915740699E+04  0.88641234114E+03 0.  0.
         23    2    4    4    0    0  0.38777117084E+03  0.27705215413E+03  0.12908476551E+03  0.50222114561E+03  0.91863079452E+02 0.  0.
         23    2    4    4    0    0  0.44689284805E+02 -0.34748924334E+03  0.70185043669E+03  0.78935292428E+03  0.87966454794E+02 0.  0.
          2    1    3    3  502    0 -0.35085863082E+02  0.17412929045E+02  0.31981729278E+02  0.50567369852E+02  0.00000000000E+00 0. -1.
         -1    1    3    3    0  502 -0.39737459257E+03  0.53024160161E+02  0.86668947019E+02  0.41015806070E+03  0.00000000000E+00 0.  1.
         13    1    5    5    0    0  0.15635490636E+03  0.65817155255E+02  0.69246310632E+02  0.18323156443E+03  0.00000000000E+00 0. -1.
        -13    1    5    5    0    0  0.23141626449E+03  0.21123499888E+03  0.59838454876E+02  0.31898958118E+03  0.00000000000E+00 0.  1.
          2    1    6    6  503    0 -0.22700736852E+02 -0.76340000908E+02  0.19414468562E+03  0.20984584377E+03  0.00000000000E+00 0. -1.
         -2    1    6    6    0  503  0.67390021658E+02 -0.27114924243E+03  0.50770575108E+03  0.57950708051E+03  0.00000000000E+00 0.  1.
<mgrwt>
<rscale>  0 0.14726983E+04</rscale>
<asrwt>0</asrwt>
<pdfrwt beam="1">  1        2 0.20783733E+00 0.14726983E+04</pdfrwt>
<pdfrwt beam="2">  1       -1 0.61747202E-01 0.14726983E+04</pdfrwt>
<totfact> 0.45332114E+01</totfact>
</mgrwt>
</event>
<event>
12    7  0.1605494E-007  0.1633740E+04  0.7818608E-02  0.8800084E-01
         -1   -1    0    0    0  501 -0.00000000000E+00  0.00000000000E+00  0.83867699448E+03  0.83867699448E+03  0.00000000000E+00 0.  1.
          2   -1    0    0  501    0  0.00000000000E+00 -0.00000000000E+00 -0.79562981836E+03  0.79562981836E+03  0.00000000000E+00 0. -1.
         24    2    1    2    0    0 -0.24371869924E+03  0.50598825388E+03  0.99210328266E+02  0.57562351577E+03  0.77953994427E+02 0.  0.
        254    2    1    2    0    0  0.24371869924E+03 -0.50598825388E+03 -0.56163152139E+02  0.10586832971E+04  0.89567466550E+03 0.  0.
         23    2    4    4    0    0 -0.19003675126E+03 -0.50378016014E+03 -0.21607123074E+03  0.58775247707E+03  0.94115784925E+02 0.  0.
         23    2    4    4    0    0  0.43375545050E+03 -0.22080937408E+01  0.15990807861E+03  0.47093082000E+03  0.89758437481E+02 0.  0.
          4    1    3    3  502    0 -0.68549872622E+02  0.10508532769E+03  0.51140958382E+02  0.13548951530E+03  0.00000000000E+00 0. -1.
         -3    1    3    3    0  502 -0.17516882662E+03  0.40090292619E+03  0.48069369883E+02  0.44013400047E+03  0.00000000000E+00 0.  1.
         13    1    5    5    0    0 -0.24858444271E+02 -0.32098299382E+02 -0.42314415995E+02  0.58640880586E+02  0.00000000000E+00 0. -1.
        -13    1    5    5    0    0 -0.16517830699E+03 -0.47168186076E+03 -0.17375681475E+03  0.52911159649E+03  0.00000000000E+00 0.  1.
          2    1    6    6  503    0  0.10698117522E+03 -0.38483510919E+02  0.31624665037E+02  0.11800877893E+03  0.00000000000E+00 0. -1.
         -2    1    6    6    0  503  0.32677427528E+03  0.36275417178E+02  0.12828341357E+03  0.35292204107E+03  0.00000000000E+00 0.  1.
<mgrwt>
<rscale>  0 0.16337398E+04</rscale>
<asrwt>0</asrwt>
<pdfrwt beam="1">  1        2 0.12240459E+00 0.16337398E+04</pdfrwt>
<pdfrwt beam="2">  1       -1 0.12902723E+00 0.16337398E+04</pdfrwt>
<totfact> 0.19586982E+01</totfact>
</mgrwt>
</event>
<event>
12    7  0.1605494E-007  0.1557211E+04  0.7818608E-02  0.8847275E-01
          2   -1    0    0  501    0  0.00000000000E+00  0.00000000000E+00  0.36751829841E+03  0.36751829841E+03  0.00000000000E+00 0. -1.
         -1   -1    0    0    0  501 -0.00000000000E+00 -0.00000000000E+00 -0.16495138725E+04  0.16495138725E+04  0.00000000000E+00 0.  1.
         24    2    1    2    0    0 -0.29310601932E+03 -0.22664508862E+03 -0.90276024292E+03  0.97916755358E+03  0.80708779139E+02 0.  0.
        254    2    1    2    0    0  0.29310601932E+03  0.22664508862E+03 -0.37923533115E+03  0.10378646173E+04  0.89222440715E+03 0.  0.
         23    2    4    4    0    0  0.26417400134E+03  0.89282057241E+02 -0.65287047841E+03  0.71642643372E+03  0.96269333789E+02 0.  0.
         23    2    4    4    0    0  0.28932017976E+02  0.13736303138E+03  0.27363514725E+03  0.32143818359E+03  0.93491432777E+02 0.  0.
          4    1    3    3  502    0 -0.10057150236E+03 -0.12807267631E+03 -0.39627012291E+03  0.42842414476E+03  0.00000000000E+00 0. -1.
         -3    1    3    3    0  502 -0.19253451696E+03 -0.98572412316E+02 -0.50649012000E+03  0.55074340881E+03  0.00000000000E+00 0.  1.
         13    1    5    5    0    0  0.12877222422E+03  0.45261041887E+01 -0.36685991378E+03  0.38883025562E+03  0.00000000000E+00 0.  1.
        -13    1    5    5    0    0  0.13540177712E+03  0.84755953053E+02 -0.28601056463E+03  0.32759617810E+03  0.00000000000E+00 0. -1.
          3    1    6    6  503    0  0.11201291908E+02  0.57731634831E+02  0.33185070373E+02  0.67525250805E+02  0.00000000000E+00 0. -1.
         -3    1    6    6    0  503  0.17730726068E+02  0.79631396551E+02  0.24045007688E+03  0.25391293279E+03  0.00000000000E+00 0.  1.
<mgrwt>
<rscale>  0 0.15572110E+04</rscale>
<asrwt>0</asrwt>
<pdfrwt beam="1">  1        2 0.56541277E-01 0.15572110E+04</pdfrwt>
<pdfrwt beam="2">  1       -1 0.25377137E+00 0.15572110E+04</pdfrwt>
<totfact> 0.63472756E+00</totfact>
</mgrwt>
</event>
<event>
12    7  0.1605494E-007  0.1900171E+04  0.7818608E-02  0.8654771E-01
         -1   -1    0    0    0  501 -0.00000000000E+00  0.00000000000E+00  0.91333095268E+03  0.91333095268E+03  0.00000000000E+00 0.  1.
          2   -1    0    0  501    0  0.00000000000E+00 -0.00000000000E+00 -0.98831884036E+03  0.98831884036E+03  0.00000000000E+00 0. -1.
         24    2    1    2    0    0  0.48817399539E+03  0.51042150032E+03  0.17111269138E+03  0.73062336400E+03  0.75412128423E+02 0.  0.
        254    2    1    2    0    0 -0.48817399539E+03 -0.51042150032E+03 -0.24610057905E+03  0.11710264290E+04  0.90105129972E+03 0.  0.
         23    2    4    4    0    0 -0.53131651692E+03  0.47876641196E+02 -0.26698976519E+03  0.60312410407E+03  0.88801668142E+02 0.  0.
         23    2    4    4    0    0  0.43142521531E+02 -0.55829814152E+03  0.20889186136E+02  0.56790232497E+03  0.92296265480E+02 0.  0.
          2    1    3    3  502    0  0.83762390940E+02  0.50510614857E+02  0.20220867605E+02  0.99881649145E+02  0.00000000000E+00 0. -1.
         -1    1    3    3    0  502  0.40441160445E+03  0.45991088546E+03  0.15089182377E+03  0.63074171486E+03  0.00000000000E+00 0.  1.
         13    1    5    5    0    0 -0.20184602102E+03  0.26075389121E+02 -0.55303730279E+02  0.21090340135E+03  0.00000000000E+00 0. -1.
        -13    1    5    5    0    0 -0.32947049590E+03  0.21801252075E+02 -0.21168603491E+03  0.39222070271E+03  0.00000000000E+00 0.  1.
          3    1    6    6  503    0  0.10812397771E+02 -0.29404484411E+01 -0.16103755114E+00  0.11206253419E+02  0.00000000000E+00 0. -1.
         -3    1    6    6    0  503  0.32330123759E+02 -0.55535769307E+03  0.21050223687E+02  0.55669607155E+03  0.00000000000E+00 0.  1.
<mgrwt>
<rscale>  0 0.19001707E+04</rscale>
<asrwt>0</asrwt>
<pdfrwt beam="1">  1        2 0.15204905E+00 0.19001707E+04</pdfrwt>
<pdfrwt beam="2">  1       -1 0.14051245E+00 0.19001707E+04</pdfrwt>
<totfact> 0.11369649E+01</totfact>
</mgrwt>
</event>
<event>
12    7  0.1605494E-007  0.1436475E+04  0.7818608E-02  0.8927831E-01
          2   -1    0    0  501    0  0.00000000000E+00  0.00000000000E+00  0.44907349536E+03  0.44907349536E+03  0.00000000000E+00 0. -1.
         -1   -1    0    0    0  501 -0.00000000000E+00 -0.00000000000E+00 -0.11487313687E+04  0.11487313687E+04  0.00000000000E+00 0.  1.
         24    2    1    2    0    0  0.10730260245E+03 -0.35383276439E+03 -0.44518233606E+03  0.58300574108E+03  0.70688811980E+02 0.  0.
        254    2    1    2    0    0 -0.10730260245E+03  0.35383276439E+03 -0.25447553730E+03  0.10147991230E+04  0.91013624657E+03 0.  0.
         23    2    4    4    0    0 -0.87728644736E+01 -0.10541236315E+02  0.31350410642E+03  0.32662534991E+03  0.90615747220E+02 0.  0.
         23    2    4    4    0    0 -0.98529737976E+02  0.36437400070E+03 -0.56797964373E+03  0.68817377310E+03  0.92226593984E+02 0.  0.
          4    1    3    3  502    0  0.22855781700E+02 -0.13478559628E+03 -0.21096316538E+03  0.25138615886E+03  0.00000000000E+00 0. -1.
         -3    1    3    3    0  502  0.84446820750E+02 -0.21904716811E+03 -0.23421917068E+03  0.33161958221E+03  0.00000000000E+00 0.  1.
         13    1    5    5    0    0  0.20875516472E+02  0.31075816936E+02  0.17591196826E+03  0.17985136686E+03  0.00000000000E+00 0.  1.
        -13    1    5    5    0    0 -0.29648380946E+02 -0.41617053250E+02  0.13759213816E+03  0.14677398304E+03  0.00000000000E+00 0. -1.
          2    1    6    6  503    0 -0.45547488587E+02  0.28855005497E+03 -0.38647031451E+03  0.48445331244E+03  0.00000000000E+00 0.  1.
         -2    1    6    6    0  503 -0.52982249389E+02  0.75823945737E+02 -0.18150932922E+03  0.20372046066E+03  0.00000000000E+00 0. -1.
<mgrwt>
<rscale>  0 0.14364746E+04</rscale>
<asrwt>0</asrwt>
<pdfrwt beam="1">  1        2 0.69088231E-01 0.14364746E+04</pdfrwt>
<pdfrwt beam="2">  1       -1 0.17672790E+00 0.14364746E+04</pdfrwt>
<totfact> 0.17006430E+01</totfact>
</mgrwt>
</event>
<event>
12    7  0.1605494E-007  0.3648471E+04  0.7818608E-02  0.8079478E-01
          2   -1    0    0  501    0  0.00000000000E+00  0.00000000000E+00  0.22623681718E+04  0.22623681718E+04  0.00000000000E+00 0. -1.
         -1   -1    0    0    0  501 -0.00000000000E+00 -0.00000000000E+00 -0.14709521591E+04  0.14709521591E+04  0.00000000000E+00 0.  1.
         24    2    1    2    0    0  0.41569488765E+03 -0.16548807228E+04  0.33127299960E+03  0.17401407200E+04  0.83159357536E+02 0.  0.
        254    2    1    2    0    0 -0.41569488765E+03  0.16548807228E+04  0.46014301313E+03  0.19931796109E+04  0.92173799010E+03 0.  0.
         23    2    4    4    0    0 -0.61094718274E+03  0.13504008663E+04  0.59096844116E+03  0.15981867014E+04  0.90100356796E+02 0.  0.
         23    2    4    4    0    0  0.19525229508E+03  0.30447985658E+03 -0.13082542803E+03  0.39499290955E+03  0.89848005969E+02 0.  0.
          4    1    3    3  502    0  0.33183173702E+03 -0.12810689981E+04  0.29064390521E+03  0.13548889103E+04  0.00000000000E+00 0. -1.
         -3    1    3    3    0  502  0.83863150631E+02 -0.37381172474E+03  0.40629094385E+02  0.38525180972E+03  0.00000000000E+00 0.  1.
         13    1    5    5    0    0 -0.12972925336E+03  0.28734666773E+03  0.16604944603E+03  0.35632878801E+03  0.00000000000E+00 0.  1.
        -13    1    5    5    0    0 -0.48121792938E+03  0.10630541985E+04  0.42491899513E+03  0.12418579134E+04  0.00000000000E+00 0. -1.
          4    1    6    6  503    0  0.14792725868E+03  0.18709290169E+03 -0.46754017357E+02  0.24304766170E+03  0.00000000000E+00 0. -1.
         -4    1    6    6    0  503  0.47325036409E+02  0.11738695489E+03 -0.84071410673E+02  0.15194524784E+03  0.00000000000E+00 0.  1.
<mgrwt>
<rscale>  0 0.36484711E+04</rscale>
<asrwt>0</asrwt>
<pdfrwt beam="1">  1        2 0.34805664E+00 0.36484711E+04</pdfrwt>
<pdfrwt beam="2">  1       -1 0.22630033E+00 0.36484711E+04</pdfrwt>
<totfact> 0.43902259E-01</totfact>
</mgrwt>
</event>
<event>
12    7  0.1605494E-007  0.1653101E+04  0.7818608E-02  0.8788574E-01
         -1   -1    0    0    0  501 -0.00000000000E+00  0.00000000000E+00  0.29912484672E+03  0.29912484672E+03  0.00000000000E+00 0.  1.
          2   -1    0    0  501    0  0.00000000000E+00 -0.00000000000E+00 -0.22839478347E+04  0.22839478347E+04  0.00000000000E+00 0. -1.
         24    2    1    2    0    0 -0.27494911530E+03  0.70304726336E+02 -0.15524253082E+04  0.15802002552E+04  0.80428468258E+02 0.  0.
        254    2    1    2    0    0  0.27494911530E+03 -0.70304726336E+02 -0.43239767981E+03  0.10028724262E+04  0.85921218521E+03 0.  0.
         23    2    4    4    0    0 -0.61409899005E+02  0.26969271791E+03 -0.42601623132E+03  0.51576485953E+03  0.89544531858E+02 0.  0.
         23    2    4    4    0    0  0.33635901431E+03 -0.33999744425E+03 -0.63814484910E+01  0.48710756669E+03  0.92181397477E+02 0.  0.
          2    1    3    3  502    0 -0.19007387705E+03  0.14961757643E+02 -0.11157881688E+04  0.11319607637E+04  0.00000000000E+00 0. -1.
         -1    1    3    3    0  502 -0.84875238251E+02  0.55342968694E+02 -0.43663713942E+03  0.44823949153E+03  0.00000000000E+00 0.  1.
         13    1    5    5    0    0 -0.13052149887E+02  0.20683409764E+03 -0.26628775025E+03  0.33743127966E+03  0.00000000000E+00 0.  1.
        -13    1    5    5    0    0 -0.48357749118E+02  0.62858620276E+02 -0.15972848107E+03  0.17833357986E+03  0.00000000000E+00 0. -1.
          4    1    6    6  503    0  0.24691962877E+03 -0.20321830878E+03 -0.33144202836E+02  0.32150508903E+03  0.00000000000E+00 0. -1.
         -4    1    6    6    0  503  0.89439385543E+02 -0.13677913547E+03  0.26762754345E+02  0.16560247766E+03  0.00000000000E+00 0.  1.
<mgrwt>
<rscale>  0 0.16531008E+04</rscale>
<asrwt>0</asrwt>
<pdfrwt beam="1">  1        2 0.35137660E+00 0.16531008E+04</pdfrwt>
<pdfrwt beam="2">  1       -1 0.46019206E-01 0.16531008E+04</pdfrwt>
<totfact> 0.23668098E+01</totfact>
</mgrwt>
</event>
<event>
12    7  0.1605494E-007  0.1685557E+04  0.7818608E-02  0.8769645E-01
          2   -1    0    0  501    0  0.00000000000E+00  0.00000000000E+00  0.14385052665E+04  0.14385052665E+04  0.00000000000E+00 0. -1.
         -1   -1    0    0    0  501 -0.00000000000E+00 -0.00000000000E+00 -0.49375951041E+03  0.49375951041E+03  0.00000000000E+00 0.  1.
         24    2    1    2    0    0  0.33643065881E+03  0.45030196623E+03  0.60273269479E+03  0.82806943975E+03  0.80342060667E+02 0.  0.
        254    2    1    2    0    0 -0.33643065881E+03 -0.45030196623E+03  0.34201306132E+03  0.11041953372E+04  0.88674514915E+03 0.  0.
         23    2    4    4    0    0  0.22969826254E+03 -0.15798095005E+03  0.35255484642E+03  0.45878712314E+03  0.92040383690E+02 0.  0.
         23    2    4    4    0    0 -0.56612892135E+03 -0.29232101618E+03 -0.10541785092E+02  0.64540821404E+03  0.10240654968E+03 0.  0.
          4    1    3    3  502    0  0.33133367309E+03  0.45361039781E+03  0.59658338108E+03  0.81942426526E+03  0.00000000000E+00 0. -1.
         -3    1    3    3    0  502  0.50969857208E+01 -0.33084315757E+01  0.61493137073E+01  0.86451744922E+01  0.00000000000E+00 0.  1.
         13    1    5    5    0    0  0.18790255991E+03 -0.16558256617E+03  0.29008962148E+03  0.38324528272E+03  0.00000000000E+00 0.  1.
        -13    1    5    5    0    0  0.41795702634E+02  0.76016161219E+01  0.62465224939E+02  0.75541840414E+02  0.00000000000E+00 0. -1.
          1    1    6    6  503    0 -0.76433498473E+02 -0.34845245393E+01 -0.73788070415E+01  0.76867863204E+02  0.00000000000E+00 0. -1.
         -1    1    6    6    0  503 -0.48969542288E+03 -0.28883649164E+03 -0.31629780503E+01  0.56854035083E+03  0.00000000000E+00 0.  1.
<mgrwt>
<rscale>  0 0.16855571E+04</rscale>
<asrwt>0</asrwt>
<pdfrwt beam="1">  1        2 0.22130850E+00 0.16855571E+04</pdfrwt>
<pdfrwt beam="2">  1       -1 0.75963002E-01 0.16855571E+04</pdfrwt>
<totfact> 0.25995303E+01</totfact>
</mgrwt>
</event>
<event>
12    7  0.1605494E-007  0.1401357E+04  0.7818608E-02  0.8952837E-01
          2   -1    0    0  501    0  0.00000000000E+00  0.00000000000E+00  0.16734821573E+04  0.16734821573E+04  0.00000000000E+00 0. -1.
         -1   -1    0    0    0  501 -0.00000000000E+00 -0.00000000000E+00 -0.29337041774E+03  0.29337041774E+03  0.00000000000E+00 0.  1.
         24    2    1    2    0    0 -0.16573673064E+03  0.15235368929E+03 -0.70062217277E+02  0.24868170618E+03  0.79079492759E+02 0.  0.
        254    2    1    2    0    0  0.16573673064E+03 -0.15235368929E+03  0.14501739569E+04  0.17181708689E+04  0.89354704351E+03 0.  0.
         23    2    4    4    0    0  0.50759930469E+03 -0.22069486978E+03  0.87608669780E+03  0.10404507419E+04  0.92986905365E+02 0.  0.
         23    2    4    4    0    0 -0.34186257405E+03  0.68341180489E+02  0.57408725907E+03  0.67772012699E+03  0.90486756043E+02 0.  0.
          2    1    3    3  502    0  0.56340632542E+01  0.23072104883E+02 -0.10013695058E+02  0.25774770246E+02  0.00000000000E+00 0. -1.
         -1    1    3    3    0  502 -0.17137079390E+03  0.12928158441E+03 -0.60048522220E+02  0.22290693594E+03  0.00000000000E+00 0.  1.
         13    1    5    5    0    0  0.18095016049E+03 -0.12247964465E+03  0.38163720689E+03  0.43976264236E+03  0.00000000000E+00 0. -1.
        -13    1    5    5    0    0  0.32664914420E+03 -0.98215225132E+02  0.49444949091E+03  0.60068809953E+03  0.00000000000E+00 0.  1.
          1    1    6    6  503    0 -0.96320689728E+02  0.61344311946E+02  0.16867455473E+03  0.20369561922E+03  0.00000000000E+00 0. -1.
         -1    1    6    6    0  503 -0.24554188432E+03  0.69968685424E+01  0.40541270434E+03  0.47402450777E+03  0.00000000000E+00 0.  1.
<mgrwt>
<rscale>  0 0.14013567E+04</rscale>
<asrwt>0</asrwt>
<pdfrwt beam="1">  1        2 0.25745879E+00 0.14013567E+04</pdfrwt>
<pdfrwt beam="2">  1       -1 0.45133911E-01 0.14013567E+04</pdfrwt>
<totfact> 0.54785749E+01</totfact>
</mgrwt>
</event>
<event>
12    7  0.1605494E-007  0.1598956E+04  0.7818608E-02  0.8821190E-01
          2   -1    0    0  501    0  0.00000000000E+00  0.00000000000E+00  0.70195704812E+03  0.70195704812E+03  0.00000000000E+00 0. -1.
         -1   -1    0    0    0  501 -0.00000000000E+00 -0.00000000000E+00 -0.91054701922E+03  0.91054701922E+03  0.00000000000E+00 0.  1.
         24    2    1    2    0    0 -0.16868754487E+02 -0.19436821239E+03 -0.58833343648E+03  0.62476884584E+03  0.78334675554E+02 0.  0.
        254    2    1    2    0    0  0.16868754487E+02  0.19436821239E+03  0.37974346538E+03  0.98773522149E+03  0.89070321174E+03 0.  0.
         23    2    4    4    0    0 -0.15479053270E+03 -0.26317587463E+03 -0.58264542890E+02  0.32470713073E+03  0.93905877273E+02 0.  0.
         23    2    4    4    0    0  0.17165928719E+03  0.45754408702E+03  0.43800800827E+03  0.66302809076E+03  0.94560728511E+02 0.  0.
          4    1    3    3  502    0  0.29747477742E+02 -0.46592162682E+02 -0.15652371266E+03  0.16599823698E+03  0.00000000000E+00 0. -1.
         -3    1    3    3    0  502 -0.46616232229E+02 -0.14777604971E+03 -0.43180972382E+03  0.45877060886E+03  0.00000000000E+00 0.  1.
         13    1    5    5    0    0 -0.15242181820E+03 -0.19568711040E+03 -0.66162731079E+02  0.25671650282E+03  0.00000000000E+00 0.  1.
        -13    1    5    5    0    0 -0.23687145038E+01 -0.67488764235E+02  0.78981881890E+01  0.67990627906E+02  0.00000000000E+00 0. -1.
          1    1    6    6  503    0  0.35056646217E+02  0.10820971570E+03  0.52927005834E+02  0.12545747870E+03  0.00000000000E+00 0. -1.
         -1    1    6    6    0  503  0.13660264097E+03  0.34933437133E+03  0.38508100243E+03  0.53757061206E+03  0.00000000000E+00 0.  1.
<mgrwt>
<rscale>  0 0.15989558E+04</rscale>
<asrwt>0</asrwt>
<pdfrwt beam="1">  1        2 0.10799339E+00 0.15989558E+04</pdfrwt>
<pdfrwt beam="2">  1       -1 0.14008416E+00 0.15989558E+04</pdfrwt>
<totfact> 0.18716893E+01</totfact>
</mgrwt>
</event>
<event>
12    7  0.1605494E-007  0.2459917E+04  0.7818608E-02  0.8417406E-01
          2   -1    0    0  501    0  0.00000000000E+00  0.00000000000E+00  0.20809266363E+04  0.20809266363E+04  0.00000000000E+00 0. -1.
         -1   -1    0    0    0  501 -0.00000000000E+00 -0.00000000000E+00 -0.72698300402E+03  0.72698300402E+03  0.00000000000E+00 0.  1.
         24    2    1    2    0    0  0.91141893514E+03 -0.15744729309E+03 -0.17063912898E+02  0.92856610041E+03  0.80434447036E+02 0.  0.
        254    2    1    2    0    0 -0.91141893514E+03  0.15744729309E+03  0.13710075451E+04  0.18793435399E+04  0.89263448656E+03 0.  0.
         23    2    4    4    0    0 -0.81163697920E+03  0.28730381732E+03  0.14397993944E+04  0.16800523797E+04  0.90860514369E+02 0.  0.
         23    2    4    4    0    0 -0.99781955940E+02 -0.12985652422E+03 -0.68791849266E+02  0.19929116014E+03  0.90363113983E+02 0.  0.
          4    1    3    3  502    0  0.52941535606E+03 -0.10349121055E+03  0.27915162093E+02  0.54015766788E+03  0.00000000000E+00 0. -1.
         -3    1    3    3    0  502  0.38200357908E+03 -0.53956082546E+02 -0.44979074991E+02  0.38840843253E+03  0.00000000000E+00 0.  1.
         13    1    5    5    0    0 -0.62881150251E+03  0.23995190504E+03  0.10549230494E+04  0.12513366704E+04  0.00000000000E+00 0. -1.
        -13    1    5    5    0    0 -0.18282547668E+03  0.47351912280E+02  0.38487634501E+03  0.42871570938E+03  0.00000000000E+00 0.  1.
          3    1    6    6  503    0 -0.89291678470E+02 -0.51026910414E+02 -0.60541105116E+02  0.11933974543E+03  0.00000000000E+00 0. -1.
         -3    1    6    6    0  503 -0.10490277470E+02 -0.78829613810E+02 -0.82507441500E+01  0.79951414708E+02  0.00000000000E+00 0.  1.
<mgrwt>
<rscale>  0 0.24599173E+04</rscale>
<asrwt>0</asrwt>
<pdfrwt beam="1">  1        2 0.32014256E+00 0.24599173E+04</pdfrwt>
<pdfrwt beam="2">  1       -1 0.11184354E+00 0.24599173E+04</pdfrwt>
<totfact> 0.44976386E+00</totfact>
</mgrwt>
</event>
<event>
12    7  0.1605494E-007  0.1987013E+04  0.7818608E-02  0.8612717E-01
          2   -1    0    0  501    0  0.00000000000E+00  0.00000000000E+00  0.67455199570E+03  0.67455199570E+03  0.00000000000E+00 0. -1.
         -1   -1    0    0    0  501 -0.00000000000E+00 -0.00000000000E+00 -0.14632752126E+04  0.14632752126E+04  0.00000000000E+00 0.  1.
         24    2    1    2    0    0 -0.36222895315E+03  0.69482077502E+03 -0.28768974358E+03  0.83860663549E+03  0.80684426226E+02 0.  0.
        254    2    1    2    0    0  0.36222895315E+03 -0.69482077502E+03 -0.50103347330E+03  0.12992205728E+04  0.90716802826E+03 0.  0.
         23    2    4    4    0    0 -0.20864337759E+03 -0.39397514635E+02 -0.33933178999E+03  0.41057946250E+03  0.91352110826E+02 0.  0.
         23    2    4    4    0    0  0.57087233074E+03 -0.65542326038E+03 -0.16170168331E+03  0.88864111029E+03  0.89781514054E+02 0.  0.
          2    1    3    3  502    0 -0.30875971835E+03  0.64280957550E+03 -0.26130574799E+03  0.75948496231E+03  0.00000000000E+00 0. -1.
         -1    1    3    3    0  502 -0.53469234797E+02  0.52011199517E+02 -0.26383995584E+02  0.79121673187E+02  0.00000000000E+00 0.  1.
         13    1    5    5    0    0 -0.14155164639E+03 -0.68804782705E+02 -0.24393788689E+03  0.29030442535E+03  0.00000000000E+00 0.  1.
        -13    1    5    5    0    0 -0.67091731198E+02  0.29407268071E+02 -0.95393903102E+02  0.12027503714E+03  0.00000000000E+00 0. -1.
          3    1    6    6  503    0  0.73693315323E+02 -0.12521657561E+03 -0.47612783265E+02  0.15289497265E+03  0.00000000000E+00 0. -1.
         -3    1    6    6    0  503  0.49717901542E+03 -0.53020668477E+03 -0.11408890004E+03  0.73574613764E+03  0.00000000000E+00 0.  1.
<mgrwt>
<rscale>  0 0.19870130E+04</rscale>
<asrwt>0</asrwt>
<pdfrwt beam="1">  1        2 0.10377723E+00 0.19870130E+04</pdfrwt>
<pdfrwt beam="2">  1       -1 0.22511926E+00 0.19870130E+04</pdfrwt>
<totfact> 0.46360752E+00</totfact>
</mgrwt>
</event>
<event>
12    7  0.1605494E-007  0.1088341E+04  0.7818608E-02  0.9216630E-01
         -3   -1    0    0    0  501 -0.00000000000E+00  0.00000000000E+00  0.71657080404E+03  0.71657080404E+03  0.00000000000E+00 0.  1.
          2   -1    0    0  501    0  0.00000000000E+00 -0.00000000000E+00 -0.41324845152E+03  0.41324845152E+03  0.00000000000E+00 0. -1.
         24    2    1    2    0    0 -0.34086666421E+02  0.14640852632E+03 -0.11175987758E+01  0.17040827379E+03  0.80251936695E+02 0.  0.
        254    2    1    2    0    0  0.34086666421E+02 -0.14640852632E+03  0.30443995129E+03  0.95941098177E+03  0.89732290207E+03 0.  0.
         23    2    4    4    0    0 -0.34849554072E+03 -0.14372566155E+03  0.39851952644E+03  0.55610850285E+03  0.91283329798E+02 0.  0.
         23    2    4    4    0    0  0.38258220714E+03 -0.26828647741E+01 -0.94079575149E+02  0.40330247892E+03  0.86171805456E+02 0.  0.
          2    1    3    3  502    0 -0.30216849625E+02  0.22085043650E+02 -0.23264030838E+02  0.44068381921E+02  0.00000000000E+00 0. -1.
         -1    1    3    3    0  502 -0.38698167959E+01  0.12432348267E+03  0.22146432062E+02  0.12633989187E+03  0.00000000000E+00 0.  1.
         13    1    5    5    0    0 -0.30834681686E+03 -0.10542914806E+03  0.37220037836E+03  0.49469807598E+03  0.00000000000E+00 0.  1.
        -13    1    5    5    0    0 -0.40148723862E+02 -0.38296513485E+02  0.26319148086E+02  0.61410426873E+02  0.00000000000E+00 0. -1.
          1    1    6    6  503    0  0.22745568124E+03 -0.24952956348E+02 -0.19225529713E+02  0.22962656195E+03  0.00000000000E+00 0. -1.
         -1    1    6    6    0  503  0.15512652590E+03  0.22270091574E+02 -0.74854045437E+02  0.17367591697E+03  0.00000000000E+00 0.  1.
<mgrwt>
<rscale>  0 0.10883414E+04</rscale>
<asrwt>0</asrwt>
<pdfrwt beam="1">  1        2 0.63576685E-01 0.10883414E+04</pdfrwt>
<pdfrwt beam="2">  1       -3 0.11024166E+00 0.10883414E+04</pdfrwt>
<totfact> 0.33161672E+01</totfact>
</mgrwt>
</event>
<event>
12    7  0.1605494E-007  0.1507998E+04  0.7818608E-02  0.8879151E-01
         -1   -1    0    0    0  501 -0.00000000000E+00  0.00000000000E+00  0.16677347835E+04  0.16677347835E+04  0.00000000000E+00 0.  1.
          2   -1    0    0  501    0  0.00000000000E+00 -0.00000000000E+00 -0.34089038860E+03  0.34089038860E+03  0.00000000000E+00 0. -1.
         24    2    1    2    0    0 -0.36943808140E+03  0.42671757202E+02 -0.14805234519E+02  0.38068852618E+03  0.79994900741E+02 0.  0.
        254    2    1    2    0    0  0.36943808140E+03 -0.42671757202E+02  0.13416496294E+04  0.16279366459E+04  0.84371121845E+03 0.  0.
         23    2    4    4    0    0 -0.77206588882E+02  0.85034904942E+02  0.10746529054E+04  0.10845707798E+04  0.90681403954E+02 0.  0.
         23    2    4    4    0    0  0.44664467028E+03 -0.12770666214E+03  0.26699672406E+03  0.54336586609E+03  0.90325858550E+02 0.  0.
          4    1    3    3  502    0 -0.36263828302E+03  0.27722819563E+02 -0.17142864877E+02  0.36410020167E+03  0.00000000000E+00 0. -1.
         -3    1    3    3    0  502 -0.67997983813E+01  0.14948937639E+02  0.23376303577E+01  0.16588324516E+02  0.00000000000E+00 0.  1.
         13    1    5    5    0    0  0.52878794214E+01  0.55963908302E+02  0.32413538197E+03  0.32897365631E+03  0.00000000000E+00 0. -1.
        -13    1    5    5    0    0 -0.82494468303E+02  0.29070996640E+02  0.75051752342E+03  0.75559712354E+03  0.00000000000E+00 0.  1.
          2    1    6    6  503    0  0.70747930936E+02 -0.50164189633E+02  0.27597133292E+02  0.91012732182E+02  0.00000000000E+00 0. -1.
         -2    1    6    6    0  503  0.37589673935E+03 -0.77542472510E+02  0.23939959077E+03  0.45235313391E+03  0.00000000000E+00 0.  1.
<mgrwt>
<rscale>  0 0.15079984E+04</rscale>
<asrwt>0</asrwt>
<pdfrwt beam="1">  1        2 0.52444676E-01 0.15079984E+04</pdfrwt>
<pdfrwt beam="2">  1       -1 0.25657458E+00 0.15079984E+04</pdfrwt>
<totfact> 0.66497560E+00</totfact>
</mgrwt>
</event>
<event>
12    7  0.1605494E-007  0.2839039E+04  0.7818608E-02  0.8291250E-01
         -1   -1    0    0    0  501 -0.00000000000E+00  0.00000000000E+00  0.69211610004E+03  0.69211610004E+03  0.00000000000E+00 0.  1.
          2   -1    0    0  501    0  0.00000000000E+00 -0.00000000000E+00 -0.29114134020E+04  0.29114134020E+04  0.00000000000E+00 0. -1.
         24    2    1    2    0    0  0.10110750590E+04 -0.49648748658E+03 -0.23845290611E+03  0.11540430419E+04  0.78631767128E+02 0.  0.
        254    2    1    2    0    0 -0.10110750590E+04  0.49648748658E+03 -0.19808443958E+04  0.24494864601E+04  0.89859156375E+03 0.  0.
         23    2    4    4    0    0 -0.97508090369E+03  0.29349682764E+03 -0.19711184882E+04  0.22204468800E+04  0.90294496306E+02 0.  0.
         23    2    4    4    0    0 -0.35994155349E+02  0.20299065894E+03 -0.97259076603E+01  0.22903958008E+03  0.99316409163E+02 0.  0.
          2    1    3    3  502    0  0.61697144229E+02 -0.11158475179E+02 -0.82589342701E+01  0.63239696154E+02  0.00000000000E+00 0. -1.
         -1    1    3    3    0  502  0.94937791481E+03 -0.48532901140E+03 -0.23019397184E+03  0.10908033458E+04  0.00000000000E+00 0.  1.
         13    1    5    5    0    0 -0.25319090113E+03  0.11031200375E+03 -0.48385657589E+03  0.55712795355E+03  0.00000000000E+00 0.  1.
        -13    1    5    5    0    0 -0.72189000256E+03  0.18318482389E+03 -0.14872619123E+04  0.16633189265E+04  0.00000000000E+00 0. -1.
          1    1    6    6  503    0 -0.19691475126E+02  0.27260929115E+02 -0.37514342441E+02  0.50380932282E+02  0.00000000000E+00 0. -1.
         -1    1    6    6    0  503 -0.16302680223E+02  0.17572972982E+03  0.27788434780E+02  0.17865864780E+03  0.00000000000E+00 0.  1.
<mgrwt>
<rscale>  0 0.28390393E+04</rscale>
<asrwt>0</asrwt>
<pdfrwt beam="1">  1        2 0.44790974E+00 0.28390393E+04</pdfrwt>
<pdfrwt beam="2">  1       -1 0.10647940E+00 0.28390393E+04</pdfrwt>
<totfact> 0.16049252E+00</totfact>
</mgrwt>
</event>
<event>
12    7  0.1605494E-007  0.1980927E+04  0.7818608E-02  0.8615590E-01
          2   -1    0    0  501    0  0.00000000000E+00  0.00000000000E+00  0.19649661696E+04  0.19649661696E+04  0.00000000000E+00 0. -1.
         -1   -1    0    0    0  501 -0.00000000000E+00 -0.00000000000E+00 -0.49925443701E+03  0.49925443701E+03  0.00000000000E+00 0.  1.
         24    2    1    2    0    0 -0.74132617882E+03  0.15484270619E+03  0.33614003593E+03  0.83247860081E+03  0.80558860447E+02 0.  0.
        254    2    1    2    0    0  0.74132617882E+03 -0.15484270619E+03  0.11295716967E+04  0.16317420058E+04  0.90172556165E+03 0.  0.
         23    2    4    4    0    0  0.23773511538E+03 -0.28811212635E+03 -0.78150897610E+00  0.38379989075E+03  0.88176884426E+02 0.  0.
         23    2    4    4    0    0  0.50359106344E+03  0.13326942017E+03  0.11303532056E+04  0.12479421151E+04  0.91084880693E+02 0.  0.
          2    1    3    3  502    0 -0.32394025815E+02  0.24794011105E+02  0.19991993907E+02  0.45429018430E+02  0.00000000000E+00 0. -1.
         -3    1    3    3    0  502 -0.70893215300E+03  0.13004869508E+03  0.31614804202E+03  0.78704958238E+03  0.00000000000E+00 0.  1.
         13    1    5    5    0    0  0.77343158216E+02 -0.10690766968E+03  0.41110904269E+02  0.13820752660E+03  0.00000000000E+00 0.  1.
        -13    1    5    5    0    0  0.16039195716E+03 -0.18120445667E+03 -0.41892413245E+02  0.24559236415E+03  0.00000000000E+00 0. -1.
          4    1    6    6  503    0  0.33614379320E+03  0.62795369801E+02  0.65163102416E+03  0.73590685540E+03  0.00000000000E+00 0. -1.
         -4    1    6    6    0  503  0.16744727023E+03  0.70474050365E+02  0.47872218149E+03  0.51203525966E+03  0.00000000000E+00 0.  1.
<mgrwt>
<rscale>  0 0.19809271E+04</rscale>
<asrwt>0</asrwt>
<pdfrwt beam="1">  1        2 0.30230248E+00 0.19809271E+04</pdfrwt>
<pdfrwt beam="2">  1       -1 0.76808376E-01 0.19809271E+04</pdfrwt>
<totfact> 0.12589489E+01</totfact>
</mgrwt>
</event>
<event>
12    7  0.1605494E-007  0.2141030E+04  0.7818608E-02  0.8543381E-01
         -1   -1    0    0    0  501 -0.00000000000E+00  0.00000000000E+00  0.43266739351E+03  0.43266739351E+03  0.00000000000E+00 0.  1.
          2   -1    0    0  501    0  0.00000000000E+00 -0.00000000000E+00 -0.26486923793E+04  0.26486923793E+04  0.00000000000E+00 0. -1.
         24    2    1    2    0    0  0.57503586926E+02 -0.86275135869E+03 -0.78771294663E+03  0.11723555382E+04  0.79241733284E+02 0.  0.
        254    2    1    2    0    0 -0.57503586926E+02  0.86275135869E+03 -0.14283120392E+04  0.19090042346E+04  0.92551354234E+03 0.  0.
         23    2    4    4    0    0  0.13730283367E+03  0.36792683971E+03 -0.12909359516E+04  0.13521874011E+04  0.87595143800E+02 0.  0.
         23    2    4    4    0    0 -0.19480642060E+03  0.49482451898E+03 -0.13737608763E+03  0.55681683349E+03  0.91498363475E+02 0.  0.
          4    1    3    3  502    0  0.66113465713E+01 -0.53728562691E+03 -0.45409115650E+03  0.70350432352E+03  0.00000000000E+00 0. -1.
         -3    1    3    3    0  502  0.50892240355E+02 -0.32546573178E+03 -0.33362179013E+03  0.46885121471E+03  0.00000000000E+00 0.  1.
         13    1    5    5    0    0  0.32682467055E+01  0.22389384797E+02 -0.28037881067E+02  0.36028998915E+02  0.00000000000E+00 0.  1.
        -13    1    5    5    0    0  0.13403458696E+03  0.34553745491E+03 -0.12628980705E+04  0.13161584022E+04  0.00000000000E+00 0. -1.
          4    1    6    6  503    0 -0.76429019003E+02  0.30803778174E+03 -0.98296629619E+02  0.33225125631E+03  0.00000000000E+00 0. -1.
         -4    1    6    6    0  503 -0.11837740159E+03  0.18678673724E+03 -0.39079458008E+02  0.22456557718E+03  0.00000000000E+00 0.  1.
<mgrwt>
<rscale>  0 0.21410304E+04</rscale>
<asrwt>0</asrwt>
<pdfrwt beam="1">  1        2 0.40749112E+00 0.21410304E+04</pdfrwt>
<pdfrwt beam="2">  1       -1 0.66564216E-01 0.21410304E+04</pdfrwt>
<totfact> 0.68122952E+00</totfact>
</mgrwt>
</event>
<event>
12    7  0.1605494E-007  0.1849095E+04  0.7818608E-02  0.8680618E-01
         -1   -1    0    0    0  501 -0.00000000000E+00  0.00000000000E+00  0.19517825057E+04  0.19517825057E+04  0.00000000000E+00 0.  1.
          2   -1    0    0  501    0  0.00000000000E+00 -0.00000000000E+00 -0.43795274990E+03  0.43795274990E+03  0.00000000000E+00 0. -1.
         24    2    1    2    0    0  0.31801068332E+03  0.20480980971E+03  0.13440185380E+04  0.13984653860E+04  0.79004762003E+02 0.  0.
        254    2    1    2    0    0 -0.31801068332E+03 -0.20480980971E+03  0.16981121784E+03  0.99126986967E+03  0.90039005545E+03 0.  0.
         23    2    4    4    0    0  0.19413172998E+02 -0.23417105255E+03  0.46758526196E+03  0.53114576458E+03  0.90922455341E+02 0.  0.
         23    2    4    4    0    0 -0.33742385631E+03  0.29361242846E+02 -0.29777404412E+03  0.46012410509E+03  0.91257160506E+02 0.  0.
          2    1    3    3  502    0  0.18992070529E+02 -0.59504309935E+01  0.90042608725E+02  0.92215930066E+02  0.00000000000E+00 0. -1.
         -1    1    3    3    0  502  0.29901861279E+03  0.21076024070E+03  0.12539759293E+04  0.13062494559E+04  0.00000000000E+00 0.  1.
         13    1    5    5    0    0 -0.19458183393E+02 -0.25883519904E+02  0.26628467884E+02  0.41924370066E+02  0.00000000000E+00 0. -1.
        -13    1    5    5    0    0  0.38871356391E+02 -0.20828753265E+03  0.44095679408E+03  0.48922139451E+03  0.00000000000E+00 0.  1.
          1    1    6    6  503    0 -0.35258801273E+01 -0.13144583728E+02 -0.68828124123E+01  0.15250738302E+02  0.00000000000E+00 0. -1.
         -1    1    6    6    0  503 -0.33389797619E+03  0.42505826574E+02 -0.29089123171E+03  0.44487336679E+03  0.00000000000E+00 0.  1.
<mgrwt>
<rscale>  0 0.18490955E+04</rscale>
<asrwt>0</asrwt>
<pdfrwt beam="1">  1        2 0.67377347E-01 0.18490955E+04</pdfrwt>
<pdfrwt beam="2">  1       -1 0.30027423E+00 0.18490955E+04</pdfrwt>
<totfact> 0.25387654E+00</totfact>
</mgrwt>
</event>
<event>
12    7  0.1605494E-007  0.1770739E+04  0.7818608E-02  0.8722017E-01
          2   -1    0    0  501    0  0.00000000000E+00  0.00000000000E+00  0.16046476775E+04  0.16046476775E+04  0.00000000000E+00 0. -1.
         -1   -1    0    0    0  501 -0.00000000000E+00 -0.00000000000E+00 -0.48850539788E+03  0.48850539788E+03  0.00000000000E+00 0.  1.
         24    2    1    2    0    0  0.48855035734E+03  0.41042648897E+03  0.61481508656E+03  0.88946739649E+03  0.77609949390E+02 0.  0.
        254    2    1    2    0    0 -0.48855035734E+03 -0.41042648897E+03  0.50132719309E+03  0.12036856789E+04  0.88904381477E+03 0.  0.
         23    2    4    4    0    0 -0.19357016686E+03 -0.61665752095E+03  0.51585059192E+03  0.83189373935E+03  0.90606030385E+02 0.  0.
         23    2    4    4    0    0 -0.29498019049E+03  0.20623103198E+03 -0.14523398828E+02  0.37179193957E+03  0.92053060140E+02 0.  0.
          2    1    3    3  502    0  0.26299580078E+03  0.18484728527E+03  0.34627566796E+03  0.47248507735E+03  0.00000000000E+00 0. -1.
         -1    1    3    3    0  502  0.22555455657E+03  0.22557920371E+03  0.26853941859E+03  0.41698231914E+03  0.00000000000E+00 0.  1.
         13    1    5    5    0    0 -0.19305738142E+03 -0.52231679496E+03  0.42075853382E+03  0.69794249806E+03  0.00000000000E+00 0.  1.
        -13    1    5    5    0    0 -0.51278544103E+00 -0.94340725993E+02  0.95092058092E+02  0.13395124129E+03  0.00000000000E+00 0. -1.
          4    1    6    6  503    0 -0.11426641526E+03  0.39233853799E+02 -0.32399883284E+02  0.12508341767E+03  0.00000000000E+00 0. -1.
         -4    1    6    6    0  503 -0.18071377523E+03  0.16699717818E+03  0.17876484456E+02  0.24670852189E+03  0.00000000000E+00 0.  1.
<mgrwt>
<rscale>  0 0.17707389E+04</rscale>
<asrwt>0</asrwt>
<pdfrwt beam="1">  1        2 0.24686887E+00 0.17707389E+04</pdfrwt>
<pdfrwt beam="2">  1       -1 0.75154677E-01 0.17707389E+04</pdfrwt>
<totfact> 0.21273722E+01</totfact>
</mgrwt>
</event>
<event>
12    7  0.1605494E-007  0.1273596E+04  0.7818608E-02  0.9050770E-01
          2   -1    0    0  501    0  0.00000000000E+00  0.00000000000E+00  0.75146639978E+03  0.75146639978E+03  0.00000000000E+00 0. -1.
         -1   -1    0    0    0  501 -0.00000000000E+00 -0.00000000000E+00 -0.53962707230E+03  0.53962707230E+03  0.00000000000E+00 0.  1.
         24    2    1    2    0    0  0.10121854419E+03  0.12828500500E+03 -0.18598482793E+03  0.26011123855E+03  0.79782604646E+02 0.  0.
        254    2    1    2    0    0 -0.10121854419E+03 -0.12828500500E+03  0.39782415541E+03  0.10309822335E+04  0.93699416808E+03 0.  0.
         23    2    4    4    0    0 -0.36845174776E+03  0.98926592499E+02 -0.11017845116E+03  0.40653033363E+03  0.87088804846E+02 0.  0.
         23    2    4    4    0    0  0.26723320357E+03 -0.22721159750E+03  0.50800260657E+03  0.62445189989E+03  0.93993786323E+02 0.  0.
          2    1    3    3  502    0  0.79280983160E+02  0.37941724320E+02 -0.76905402356E+02  0.11678822563E+03  0.00000000000E+00 0. -1.
         -1    1    3    3    0  502  0.21937561034E+02  0.90343280684E+02 -0.10907942557E+03  0.14332301292E+03  0.00000000000E+00 0.  1.
         13    1    5    5    0    0 -0.36004776173E+03  0.91161010756E+02 -0.88179325688E+02  0.38173330230E+03  0.00000000000E+00 0.  1.
        -13    1    5    5    0    0 -0.84039860331E+01  0.77655817437E+01 -0.21999125475E+02  0.24797031329E+02  0.00000000000E+00 0. -1.
          3    1    6    6  503    0  0.24958970049E+02 -0.69585925405E+02  0.11153176968E+03  0.13380764869E+03  0.00000000000E+00 0. -1.
         -3    1    6    6    0  503  0.24227423352E+03 -0.15762567210E+03  0.39647083689E+03  0.49064425120E+03  0.00000000000E+00 0.  1.
<mgrwt>
<rscale>  0 0.12735959E+04</rscale>
<asrwt>0</asrwt>
<pdfrwt beam="1">  1        2 0.11561022E+00 0.12735959E+04</pdfrwt>
<pdfrwt beam="2">  1       -1 0.83019550E-01 0.12735959E+04</pdfrwt>
<totfact> 0.60456560E+01</totfact>
</mgrwt>
</event>
<event>
12    7  0.1605494E-007  0.2712901E+04  0.7818608E-02  0.8330831E-01
          2   -1    0    0  501    0  0.00000000000E+00  0.00000000000E+00  0.38199571799E+04  0.38199571799E+04  0.00000000000E+00 0. -1.
         -1   -1    0    0    0  501 -0.00000000000E+00 -0.00000000000E+00 -0.48166982277E+03  0.48166982277E+03  0.00000000000E+00 0.  1.
         24    2    1    2    0    0 -0.10254282313E+03 -0.11940011812E+03 -0.39063837519E+03  0.42853640589E+03  0.79206642511E+02 0.  0.
        254    2    1    2    0    0  0.10254282313E+03  0.11940011812E+03  0.37289257324E+04  0.38730905968E+04  0.10349745093E+04 0.  0.
         23    2    4    4    0    0 -0.33208775522E+03 -0.15984555709E+03  0.26041393539E+04  0.26318150249E+04  0.95266318886E+02 0.  0.
         23    2    4    4    0    0  0.43463057835E+03  0.27924567521E+03  0.11247863785E+04  0.12412755720E+04  0.93481343141E+02 0.  0.
          4    1    3    3  502    0 -0.39158975776E+01 -0.11999297544E+02 -0.11815695498E+01  0.12677282910E+02  0.00000000000E+00 0. -1.
         -3    1    3    3    0  502 -0.98626925552E+02 -0.10740082058E+03 -0.38945680564E+03  0.41585912298E+03  0.00000000000E+00 0.  1.
         13    1    5    5    0    0 -0.12146756078E+03 -0.11066653081E+03  0.11008625812E+04  0.11130587910E+04  0.00000000000E+00 0. -1.
        -13    1    5    5    0    0 -0.21062019444E+03 -0.49179026282E+02  0.15032767726E+04  0.15187562339E+04  0.00000000000E+00 0.  1.
          2    1    6    6  503    0  0.29639562269E+03  0.19075531296E+03  0.65777386523E+03  0.74626028458E+03  0.00000000000E+00 0.  1.
         -2    1    6    6    0  503  0.13823495565E+03  0.88490362251E+02  0.46701251328E+03  0.49501528737E+03  0.00000000000E+00 0. -1.
<mgrwt>
<rscale>  0 0.27129011E+04</rscale>
<asrwt>0</asrwt>
<pdfrwt beam="1">  1        2 0.58768570E+00 0.27129011E+04</pdfrwt>
<pdfrwt beam="2">  1       -1 0.74103052E-01 0.27129011E+04</pdfrwt>
<totfact> 0.86686231E-01</totfact>
</mgrwt>
</event>
<event>
12    7  0.1605494E-007  0.1345903E+04  0.7818608E-02  0.8993935E-01
         -1   -1    0    0    0  501 -0.00000000000E+00  0.00000000000E+00  0.24709281216E+03  0.24709281216E+03  0.00000000000E+00 0.  1.
          2   -1    0    0  501    0  0.00000000000E+00 -0.00000000000E+00 -0.18327683378E+04  0.18327683378E+04  0.00000000000E+00 0. -1.
         24    2    1    2    0    0 -0.27541145932E+03 -0.19794348262E+03 -0.58939604543E+03  0.68524773209E+03  0.84520185316E+02 0.  0.
        254    2    1    2    0    0  0.27541145932E+03  0.19794348262E+03 -0.99627948022E+03  0.13946134179E+04  0.91506321552E+03 0.  0.
         23    2    4    4    0    0  0.50713573713E+03  0.24666548170E+03 -0.98676279129E+03  0.11401843314E+04  0.91043876777E+02 0.  0.
         23    2    4    4    0    0 -0.23172427781E+03 -0.48721999084E+02 -0.95166889299E+01  0.25442908651E+03  0.92593836579E+02 0.  0.
          4    1    3    3  502    0 -0.26674464188E+03 -0.18663251956E+03 -0.51333087386E+03  0.60785934836E+03  0.00000000000E+00 0. -1.
         -3    1    3    3    0  502 -0.86668174358E+01 -0.11310963060E+02 -0.76065171576E+02  0.77388383732E+02  0.00000000000E+00 0.  1.
         13    1    5    5    0    0  0.50692059439E+03  0.24898021223E+03 -0.96362514020E+03  0.11169301885E+04  0.00000000000E+00 0.  1.
        -13    1    5    5    0    0  0.21514273339E+00 -0.23147305321E+01 -0.23137651097E+02  0.23254142902E+02  0.00000000000E+00 0. -1.
          2    1    6    6  503    0  0.29539521616E-01  0.22198689396E+01 -0.16882888581E+02  0.17028230018E+02  0.00000000000E+00 0. -1.
         -2    1    6    6    0  503 -0.23175381733E+03 -0.50941868024E+02  0.73661996514E+01  0.23740085649E+03  0.00000000000E+00 0.  1.
<mgrwt>
<rscale>  0 0.13459032E+04</rscale>
<asrwt>0</asrwt>
<pdfrwt beam="1">  1        2 0.28196436E+00 0.13459032E+04</pdfrwt>
<pdfrwt beam="2">  1       -1 0.38014279E-01 0.13459032E+04</pdfrwt>
<totfact> 0.61574897E+01</totfact>
</mgrwt>
</event>
<event>
12    7  0.1605494E-007  0.1977094E+04  0.7818608E-02  0.8617406E-01
          2   -1    0    0  501    0  0.00000000000E+00  0.00000000000E+00  0.36968908453E+04  0.36968908453E+04  0.00000000000E+00 0. -1.
         -1   -1    0    0    0  501 -0.00000000000E+00 -0.00000000000E+00 -0.26433691853E+03  0.26433691853E+03  0.00000000000E+00 0.  1.
         24    2    1    2    0    0 -0.26302151147E+03 -0.24859482251E+03 -0.27008711252E+02  0.37189433492E+03  0.81217144659E+02 0.  0.
        254    2    1    2    0    0  0.26302151147E+03  0.24859482251E+03  0.34595626380E+04  0.35893334289E+04  0.88530283868E+03 0.  0.
         23    2    4    4    0    0  0.55772870466E+03  0.22679100465E+03  0.27351140598E+04  0.28021112341E+04  0.92103098355E+02 0.  0.
         23    2    4    4    0    0 -0.29470719319E+03  0.21803817857E+02  0.72444857823E+03  0.78722219474E+03  0.86978762984E+02 0.  0.
          4    1    3    3  502    0 -0.77181522367E+02 -0.12769112484E+03 -0.10667226390E+02  0.14958542869E+03  0.00000000000E+00 0. -1.
         -3    1    3    3    0  502 -0.18583998910E+03 -0.12090369766E+03 -0.16341484861E+02  0.22230890622E+03  0.00000000000E+00 0.  1.
         13    1    5    5    0    0  0.28004881157E+03  0.16334157595E+03  0.14399280996E+04  0.14759745049E+04  0.00000000000E+00 0. -1.
        -13    1    5    5    0    0  0.27767989309E+03  0.63449428705E+02  0.12951859602E+04  0.13261367292E+04  0.00000000000E+00 0.  1.
          2    1    6    6  503    0 -0.12642585962E+03 -0.12133399657E+01  0.41979844478E+03  0.43842411477E+03  0.00000000000E+00 0. -1.
         -2    1    6    6    0  503 -0.16828133357E+03  0.23017157823E+02  0.30465013345E+03  0.34879807997E+03  0.00000000000E+00 0.  1.
<mgrwt>
<rscale>  0 0.19770936E+04</rscale>
<asrwt>0</asrwt>
<pdfrwt beam="1">  1        2 0.56875240E+00 0.19770936E+04</pdfrwt>
<pdfrwt beam="2">  1       -1 0.40667221E-01 0.19770936E+04</pdfrwt>
<totfact> 0.37016135E+00</totfact>
</mgrwt>
</event>
<event>
12    7  0.1605494E-007  0.1546378E+04  0.7818608E-02  0.8854185E-01
         -1   -1    0    0    0  501 -0.00000000000E+00  0.00000000000E+00  0.22511377324E+04  0.22511377324E+04  0.00000000000E+00 0.  1.
          2   -1    0    0  501    0  0.00000000000E+00 -0.00000000000E+00 -0.26556397902E+03  0.26556397902E+03  0.00000000000E+00 0. -1.
         24    2    1    2    0    0  0.10775501886E+02 -0.49679434502E+03  0.50852399638E+03  0.71559964490E+03  0.81027552154E+02 0.  0.
        254    2    1    2    0    0 -0.10775501886E+02  0.49679434502E+03  0.14770497570E+04  0.18011020665E+04  0.90297947744E+03 0.  0.
         23    2    4    4    0    0 -0.40347799996E+03  0.12531656939E+03  0.38213949349E+03  0.57659552047E+03  0.89067742319E+02 0.  0.
         23    2    4    4    0    0  0.39270249808E+03  0.37147777563E+03  0.10949102635E+04  0.12245065460E+04  0.91524894949E+02 0.  0.
          4    1    3    3  502    0  0.29509027167E+02 -0.36759918080E+03  0.33321444520E+03  0.49702294404E+03  0.00000000000E+00 0. -1.
         -3    1    3    3    0  502 -0.18733525281E+02 -0.12919516422E+03  0.17530955118E+03  0.21857670087E+03  0.00000000000E+00 0.  1.
         13    1    5    5    0    0 -0.17766851732E+02  0.14163789703E+02  0.52415860911E+02  0.57128770635E+02  0.00000000000E+00 0. -1.
        -13    1    5    5    0    0 -0.38571114823E+03  0.11115277969E+03  0.32972363258E+03  0.51946674983E+03  0.00000000000E+00 0.  1.
          1    1    6    6  503    0  0.14632324903E+03  0.14733222746E+03  0.52236129139E+03  0.56211973564E+03  0.00000000000E+00 0. -1.
         -1    1    6    6    0  503  0.24637924905E+03  0.22414554817E+03  0.57254897209E+03  0.66238681038E+03  0.00000000000E+00 0.  1.
<mgrwt>
<rscale>  0 0.15463778E+04</rscale>
<asrwt>0</asrwt>
<pdfrwt beam="1">  1        2 0.40855998E-01 0.15463778E+04</pdfrwt>
<pdfrwt beam="2">  1       -1 0.34632887E+00 0.15463778E+04</pdfrwt>
<totfact> 0.22896705E+00</totfact>
</mgrwt>
</event>
<event>
12    7  0.1605494E-007  0.1809323E+04  0.7818608E-02  0.8701358E-01
         -1   -1    0    0    0  501 -0.00000000000E+00  0.00000000000E+00  0.28953065292E+03  0.28953065292E+03  0.00000000000E+00 0.  1.
          2   -1    0    0  501    0  0.00000000000E+00 -0.00000000000E+00 -0.28266852369E+04  0.28266852369E+04  0.00000000000E+00 0. -1.
         24    2    1    2    0    0  0.49399241000E+03  0.40308985028E+03 -0.55332477973E+03  0.84789717785E+03  0.79065692998E+02 0.  0.
        254    2    1    2    0    0 -0.49399241000E+03 -0.40308985028E+03 -0.19838298043E+04  0.22683187120E+04  0.89620263239E+03 0.  0.
         23    2    4    4    0    0  0.20463097074E+03 -0.13422359710E+03 -0.97343744944E+03  0.10074600839E+04  0.86634545432E+02 0.  0.
         23    2    4    4    0    0 -0.69862338074E+03 -0.26886625317E+03 -0.10103923548E+04  0.12608586281E+04  0.92239249371E+02 0.  0.
          4    1    3    3  502    0  0.42034400406E+03  0.35115792272E+03 -0.50794265232E+03  0.74699846484E+03  0.00000000000E+00 0. -1.
         -3    1    3    3    0  502  0.73648405941E+02  0.51931927564E+02 -0.45382127410E+02  0.10089871301E+03  0.00000000000E+00 0.  1.
         13    1    5    5    0    0  0.55008946070E+02 -0.45344817076E+02 -0.45605152731E+03  0.46158978774E+03  0.00000000000E+00 0.  1.
        -13    1    5    5    0    0  0.14962202467E+03 -0.88878780029E+02 -0.51738592212E+03  0.54587029615E+03  0.00000000000E+00 0. -1.
          4    1    6    6  503    0 -0.49489174983E+03 -0.23419235081E+03 -0.72594421696E+03  0.90926283734E+03  0.00000000000E+00 0. -1.
         -4    1    6    6    0  503 -0.20373163090E+03 -0.34673902365E+02 -0.28444813788E+03  0.35159579075E+03  0.00000000000E+00 0.  1.
<mgrwt>
<rscale>  0 0.18093225E+04</rscale>
<asrwt>0</asrwt>
<pdfrwt beam="1">  1        2 0.43487466E+00 0.18093225E+04</pdfrwt>
<pdfrwt beam="2">  1       -1 0.44543176E-01 0.18093225E+04</pdfrwt>
<totfact> 0.11975671E+01</totfact>
</mgrwt>
</event>
<event>
12    7  0.1605494E-007  0.1719832E+04  0.7818608E-02  0.8750134E-01
          2   -1    0    0  501    0  0.00000000000E+00  0.00000000000E+00  0.68743189162E+03  0.68743189162E+03  0.00000000000E+00 0. -1.
         -1   -1    0    0    0  501 -0.00000000000E+00 -0.00000000000E+00 -0.10756777064E+04  0.10756777064E+04  0.00000000000E+00 0.  1.
         24    2    1    2    0    0 -0.16297792771E+03  0.25231477673E+03  0.41524769456E+03  0.51864758929E+03  0.79624886577E+02 0.  0.
        254    2    1    2    0    0  0.16297792771E+03 -0.25231477673E+03 -0.80349350932E+03  0.12444620087E+04  0.90158711178E+03 0.  0.
         23    2    4    4    0    0 -0.14501308515E+02  0.94208563816E+02 -0.83325248307E+03  0.84290336314E+03  0.84207111403E+02 0.  0.
         23    2    4    4    0    0  0.17747923622E+03 -0.34652334055E+03  0.29758973745E+02  0.40155864557E+03  0.93736036167E+02 0.  0.
          4    1    3    3  502    0 -0.13431884593E+03  0.23227671910E+03  0.32248458319E+03  0.41951201771E+03  0.00000000000E+00 0. -1.
         -3    1    3    3    0  502 -0.28659081776E+02  0.20038057636E+02  0.92763111365E+02  0.99135571578E+02  0.00000000000E+00 0.  1.
         13    1    5    5    0    0  0.10370704341E+02  0.92737451561E+02 -0.75587804006E+03  0.76161630620E+03  0.00000000000E+00 0.  1.
        -13    1    5    5    0    0 -0.24872012856E+02  0.14711122555E+01 -0.77374443009E+02  0.81287056938E+02  0.00000000000E+00 0. -1.
          3    1    6    6  503    0 -0.86917615385E+01 -0.66107341119E+01 -0.58164447384E+01  0.12372532220E+02  0.00000000000E+00 0. -1.
         -3    1    6    6    0  503  0.18617099776E+03 -0.33991260644E+03  0.35575418483E+02  0.38918611335E+03  0.00000000000E+00 0.  1.
<mgrwt>
<rscale>  0 0.17198316E+04</rscale>
<asrwt>0</asrwt>
<pdfrwt beam="1">  1        2 0.10575875E+00 0.17198316E+04</pdfrwt>
<pdfrwt beam="2">  1       -1 0.16548888E+00 0.17198316E+04</pdfrwt>
<totfact> 0.12087219E+01</totfact>
</mgrwt>
</event>
<event>
12    7  0.1605494E-007  0.1684183E+04  0.7818608E-02  0.8770437E-01
         -1   -1    0    0    0  501 -0.00000000000E+00  0.00000000000E+00  0.44548012807E+03  0.44548012807E+03  0.00000000000E+00 0.  1.
          2   -1    0    0  501    0  0.00000000000E+00 -0.00000000000E+00 -0.15918062357E+04  0.15918062357E+04  0.00000000000E+00 0. -1.
         24    2    1    2    0    0 -0.31059748830E+03 -0.29935037409E+03  0.80716350705E+02  0.44613170300E+03  0.80230424028E+02 0.  0.
        254    2    1    2    0    0  0.31059748830E+03  0.29935037409E+03 -0.12270424583E+04  0.15911546608E+04  0.91654706029E+03 0.  0.
         23    2    4    4    0    0 -0.23069594837E+03  0.12246019686E+03 -0.87138961585E+03  0.91407711646E+03  0.89442673297E+02 0.  0.
         23    2    4    4    0    0  0.54129343667E+03  0.17689017723E+03 -0.35565284247E+03  0.67707754430E+03  0.87500498611E+02 0.  0.
          2    1    3    3  502    0 -0.60734017077E+02 -0.83496505967E+02 -0.99335965803E+01  0.10372542446E+03  0.00000000000E+00 0. -1.
         -1    1    3    3    0  502 -0.24986347123E+03 -0.21585386813E+03  0.90649947285E+02  0.34240627854E+03  0.00000000000E+00 0.  1.
         13    1    5    5    0    0 -0.93445997432E+02  0.70523542207E+02 -0.25705931192E+03  0.28246276620E+03  0.00000000000E+00 0. -1.
        -13    1    5    5    0    0 -0.13724995094E+03  0.51936654657E+02 -0.61433030393E+03  0.63161435026E+03  0.00000000000E+00 0.  1.
          1    1    6    6  503    0  0.29880606511E+03  0.52613738805E+02 -0.17711475258E+03  0.35131596269E+03  0.00000000000E+00 0. -1.
         -1    1    6    6    0  503  0.24248737156E+03  0.12427643843E+03 -0.17853808989E+03  0.32576158162E+03  0.00000000000E+00 0.  1.
<mgrwt>
<rscale>  0 0.16841829E+04</rscale>
<asrwt>0</asrwt>
<pdfrwt beam="1">  1        2 0.24489327E+00 0.16841829E+04</pdfrwt>
<pdfrwt beam="2">  1       -1 0.68535404E-01 0.16841829E+04</pdfrwt>
<totfact> 0.26359270E+01</totfact>
</mgrwt>
</event>
<event>
12    7  0.1605494E-007  0.1773720E+04  0.7818608E-02  0.8720401E-01
         -1   -1    0    0    0  501 -0.00000000000E+00  0.00000000000E+00  0.65396149578E+03  0.65396149578E+03  0.00000000000E+00 0.  1.
          2   -1    0    0  501    0  0.00000000000E+00 -0.00000000000E+00 -0.12027017420E+04  0.12027017420E+04  0.00000000000E+00 0. -1.
         24    2    1    2    0    0  0.49284529013E+03  0.17592485685E+03 -0.61694583423E+03  0.81282591608E+03  0.78852851725E+02 0.  0.
        254    2    1    2    0    0 -0.49284529013E+03 -0.17592485685E+03  0.68205588054E+02  0.10438373217E+04  0.90060996917E+03 0.  0.
         23    2    4    4    0    0  0.12388192160E+03 -0.35406175187E+03 -0.30152281917E+02  0.38825073620E+03  0.95514498474E+02 0.  0.
         23    2    4    4    0    0 -0.61672721172E+03  0.17813689503E+03  0.98357869970E+02  0.65558658545E+03  0.89634219948E+02 0.  0.
          4    1    3    3  502    0  0.43096435959E+03  0.13864154265E+03 -0.49273754499E+03  0.66913529636E+03  0.00000000000E+00 0. -1.
         -3    1    3    3    0  502  0.61880930534E+02  0.37283314199E+02 -0.12420828924E+03  0.14369061973E+03  0.00000000000E+00 0.  1.
         13    1    5    5    0    0  0.51084765888E+02 -0.16204468791E+03  0.33665895318E+02  0.17320948789E+03  0.00000000000E+00 0. -1.
        -13    1    5    5    0    0  0.72797155709E+02 -0.19201706396E+03 -0.63818177235E+02  0.21504124832E+03  0.00000000000E+00 0.  1.
          2    1    6    6  503    0 -0.14290348608E+03  0.43342044505E+02 -0.15015815656E+02  0.15008468902E+03  0.00000000000E+00 0. -1.
         -2    1    6    6    0  503 -0.47382372564E+03  0.13479485052E+03  0.11337368563E+03  0.50550189643E+03  0.00000000000E+00 0.  1.
<mgrwt>
<rscale>  0 0.17737200E+04</rscale>
<asrwt>0</asrwt>
<pdfrwt beam="1">  1        2 0.18503104E+00 0.17737200E+04</pdfrwt>
<pdfrwt beam="2">  1       -1 0.10060946E+00 0.17737200E+04</pdfrwt>
<totfact> 0.19135142E+01</totfact>
</mgrwt>
</event>
<event>
12    7  0.1605494E-007  0.1394998E+04  0.7818608E-02  0.8957447E-01
         -1   -1    0    0    0  501 -0.00000000000E+00  0.00000000000E+00  0.69151146783E+03  0.69151146783E+03  0.00000000000E+00 0.  1.
          2   -1    0    0  501    0  0.00000000000E+00 -0.00000000000E+00 -0.70353870994E+03  0.70353870994E+03  0.00000000000E+00 0. -1.
         24    2    1    2    0    0 -0.93704682342E+02  0.12305227952E+03  0.37190706322E+03  0.40953139568E+03  0.74018034237E+02 0.  0.
        254    2    1    2    0    0  0.93704682342E+02 -0.12305227952E+03 -0.38393430533E+03  0.98551878208E+03  0.89438207050E+03 0.  0.
         23    2    4    4    0    0 -0.12052149656E+03 -0.46467107005E+03 -0.26536809019E+03  0.55571766569E+03  0.89203509931E+02 0.  0.
         23    2    4    4    0    0  0.21422617891E+03  0.34161879053E+03 -0.11856621514E+03  0.42980111640E+03  0.89859882654E+02 0.  0.
          4    1    3    3  502    0 -0.13482661494E+02  0.22823867743E+02  0.15499660990E+02  0.30707500558E+02  0.00000000000E+00 0. -1.
         -3    1    3    3    0  502 -0.80222020848E+02  0.10022841178E+03  0.35640740223E+03  0.37882389513E+03  0.00000000000E+00 0.  1.
         13    1    5    5    0    0 -0.11626570277E+03 -0.34184567596E+03 -0.22891737995E+03  0.42752701278E+03  0.00000000000E+00 0.  1.
        -13    1    5    5    0    0 -0.42557937920E+01 -0.12282539409E+03 -0.36450710240E+02  0.12819065290E+03  0.00000000000E+00 0. -1.
          1    1    6    6  503    0  0.14692466428E+03  0.23898035401E+03 -0.12450793046E+03  0.30692131129E+03  0.00000000000E+00 0. -1.
         -1    1    6    6    0  503  0.67301514625E+02  0.10263843652E+03  0.59417153170E+01  0.12287980511E+03  0.00000000000E+00 0.  1.
<mgrwt>
<rscale>  0 0.13949983E+04</rscale>
<asrwt>0</asrwt>
<pdfrwt beam="1">  1        2 0.10823672E+00 0.13949983E+04</pdfrwt>
<pdfrwt beam="2">  1       -1 0.10638638E+00 0.13949983E+04</pdfrwt>
<totfact> 0.37398005E+01</totfact>
</mgrwt>
</event>
<event>
12    7  0.1605494E-007  0.1249528E+04  0.7818608E-02  0.9070576E-01
          2   -1    0    0  501    0  0.00000000000E+00  0.00000000000E+00  0.19219167732E+04  0.19219167732E+04  0.00000000000E+00 0. -1.
         -1   -1    0    0    0  501 -0.00000000000E+00 -0.00000000000E+00 -0.20309411383E+03  0.20309411383E+03  0.00000000000E+00 0.  1.
         24    2    1    2    0    0 -0.25418175784E+03  0.10283990877E+03  0.58822091808E+03  0.65385248463E+03  0.79591521689E+02 0.  0.
        254    2    1    2    0    0  0.25418175784E+03 -0.10283990877E+03  0.11306017413E+04  0.14711584024E+04  0.90047894741E+03 0.  0.
         23    2    4    4    0    0  0.38633527742E+03  0.17333445835E+03  0.10591827932E+04  0.11442777810E+04  0.90574111483E+02 0.  0.
         23    2    4    4    0    0 -0.13215351958E+03 -0.27617436712E+03  0.71418948089E+02  0.32688062140E+03  0.89517823395E+02 0.  0.
          4    1    3    3  502    0 -0.18623467449E+03  0.46012812879E+02  0.45594127523E+03  0.49465440400E+03  0.00000000000E+00 0. -1.
         -3    1    3    3    0  502 -0.67947083354E+02  0.56827095892E+02  0.13227964285E+03  0.15919808063E+03  0.00000000000E+00 0.  1.
         13    1    5    5    0    0  0.34445267682E+03  0.15999652266E+03  0.85724566319E+03  0.93761221243E+03  0.00000000000E+00 0. -1.
        -13    1    5    5    0    0  0.41882600604E+02  0.13337935690E+02  0.20193713002E+03  0.20666556860E+03  0.00000000000E+00 0.  1.
          2    1    6    6  503    0 -0.13009699691E+03 -0.28083828415E+03  0.61256993948E+02  0.31551194868E+03  0.00000000000E+00 0. -1.
         -2    1    6    6    0  503 -0.20565226718E+01  0.46639170260E+01  0.10161954141E+02  0.11368672723E+02  0.00000000000E+00 0.  1.
<mgrwt>
<rscale>  0 0.12495279E+04</rscale>
<asrwt>0</asrwt>
<pdfrwt beam="1">  1        2 0.29567949E+00 0.12495279E+04</pdfrwt>
<pdfrwt beam="2">  1       -1 0.31245250E-01 0.12495279E+04</pdfrwt>
<totfact> 0.78626234E+01</totfact>
</mgrwt>
</event>
<event>
12    7  0.1605494E-007  0.3783908E+04  0.7818608E-02  0.8049617E-01
         -1   -1    0    0    0  501 -0.00000000000E+00  0.00000000000E+00  0.11592812696E+04  0.11592812696E+04  0.00000000000E+00 0.  1.
          2   -1    0    0  501    0  0.00000000000E+00 -0.00000000000E+00 -0.30876799560E+04  0.30876799560E+04  0.00000000000E+00 0. -1.
         24    2    1    2    0    0  0.16558395484E+04 -0.15637379470E+02 -0.16411252362E+04  0.23327701244E+04  0.80469091369E+02 0.  0.
        254    2    1    2    0    0 -0.16558395484E+04  0.15637379470E+02 -0.28727345022E+03  0.19141911012E+04  0.91627091999E+03 0.  0.
         23    2    4    4    0    0 -0.19211980811E+03 -0.16262239970E+02  0.27051853326E+03  0.34484741935E+03  0.92547202430E+02 0.  0.
         23    2    4    4    0    0 -0.14637197403E+04  0.31899619440E+02 -0.55779198348E+03  0.15693436818E+04  0.90634601141E+02 0.  0.
          2    1    3    3  502    0  0.14020426184E+04  0.11859790890E+02 -0.13674791411E+04  0.19585360247E+04  0.00000000000E+00 0. -1.
         -1    1    3    3    0  502  0.25379692999E+03 -0.27497170360E+02 -0.27364609507E+03  0.37423409973E+03  0.00000000000E+00 0.  1.
         13    1    5    5    0    0 -0.27601852225E+02  0.37100556662E+01  0.11237430294E+03  0.11577396391E+03  0.00000000000E+00 0.  1.
        -13    1    5    5    0    0 -0.16451795588E+03 -0.19972295636E+02  0.15814423032E+03  0.22907345543E+03  0.00000000000E+00 0. -1.
          3    1    6    6  503    0 -0.10915229778E+04  0.11638862754E+02 -0.45554461851E+03  0.11828266034E+04  0.00000000000E+00 0. -1.
         -3    1    6    6    0  503 -0.37219676251E+03  0.20260756686E+02 -0.10224736497E+03  0.38651707844E+03  0.00000000000E+00 0.  1.
<mgrwt>
<rscale>  0 0.37839078E+04</rscale>
<asrwt>0</asrwt>
<pdfrwt beam="1">  1        2 0.47502768E+00 0.37839078E+04</pdfrwt>
<pdfrwt beam="2">  1       -1 0.17835097E+00 0.37839078E+04</pdfrwt>
<totfact> 0.29853789E-01</totfact>
</mgrwt>
</event>
<event>
12    7  0.1605494E-007  0.1416634E+04  0.7818608E-02  0.8941866E-01
         -1   -1    0    0    0  501 -0.00000000000E+00  0.00000000000E+00  0.29391922592E+03  0.29391922592E+03  0.00000000000E+00 0.  1.
          2   -1    0    0  501    0  0.00000000000E+00 -0.00000000000E+00 -0.17069747045E+04  0.17069747045E+04  0.00000000000E+00 0. -1.
         24    2    1    2    0    0  0.25456091303E+03 -0.30763723598E+03 -0.25992621573E+03  0.48282998126E+03  0.78238262921E+02 0.  0.
        254    2    1    2    0    0 -0.25456091303E+03  0.30763723598E+03 -0.11531292629E+04  0.15180639492E+04  0.90297792304E+03 0.  0.
         23    2    4    4    0    0 -0.27598393200E+03  0.38693823566E+03 -0.14825588229E+03  0.50612137973E+03  0.91053365930E+02 0.  0.
         23    2    4    4    0    0  0.21423018972E+02 -0.79300999680E+02 -0.10048733806E+04  0.10119425695E+04  0.86658286185E+02 0.  0.
          4    1    3    3  502    0  0.82291905510E+02 -0.12805324885E+03 -0.13908634300E+03  0.20619069587E+03  0.00000000000E+00 0. -1.
         -3    1    3    3    0  502  0.17226900752E+03 -0.17958398712E+03 -0.12083987272E+03  0.27663928539E+03  0.00000000000E+00 0.  1.
         13    1    5    5    0    0 -0.46940405224E+01  0.91679185000E+01 -0.21855918005E+02  0.24161247854E+02  0.00000000000E+00 0. -1.
        -13    1    5    5    0    0 -0.27128989148E+03  0.37777031716E+03 -0.12639996428E+03  0.48196013187E+03  0.00000000000E+00 0.  1.
          1    1    6    6  503    0 -0.14982464805E+02 -0.32998606908E+02 -0.12628897902E+03  0.13138602868E+03  0.00000000000E+00 0. -1.
         -1    1    6    6    0  503  0.36405483777E+02 -0.46302392772E+02 -0.87858440158E+03  0.88055654078E+03  0.00000000000E+00 0.  1.
<mgrwt>
<rscale>  0 0.14166336E+04</rscale>
<asrwt>0</asrwt>
<pdfrwt beam="1">  1        2 0.26261149E+00 0.14166336E+04</pdfrwt>
<pdfrwt beam="2">  1       -1 0.45218344E-01 0.14166336E+04</pdfrwt>
<totfact> 0.52241933E+01</totfact>
</mgrwt>
</event>
<event>
12    7  0.1605494E-007  0.2086402E+04  0.7818608E-02  0.8567257E-01
          2   -1    0    0  501    0  0.00000000000E+00  0.00000000000E+00  0.20646324389E+04  0.20646324389E+04  0.00000000000E+00 0. -1.
         -1   -1    0    0    0  501 -0.00000000000E+00 -0.00000000000E+00 -0.52710028524E+03  0.52710028524E+03  0.00000000000E+00 0.  1.
         24    2    1    2    0    0 -0.41787722895E+03  0.20089385210E+03  0.15050243961E+04  0.15768573105E+04  0.80005166024E+02 0.  0.
        254    2    1    2    0    0  0.41787722895E+03 -0.20089385210E+03  0.32507757542E+02  0.10148754136E+04  0.90218381305E+03 0.  0.
         23    2    4    4    0    0  0.31099824445E+03 -0.50440780207E+03  0.21182569810E+03  0.63563473923E+03  0.89522379836E+02 0.  0.
         23    2    4    4    0    0  0.10687898450E+03  0.30351394997E+03 -0.17931794056E+03  0.37924067437E+03  0.90137284943E+02 0.  0.
          4    1    3    3  502    0 -0.55668437790E+02  0.39261570622E+02  0.32152868588E+03  0.32866569906E+03  0.00000000000E+00 0. -1.
         -3    1    3    3    0  502 -0.36220879116E+03  0.16163228148E+03  0.11834957103E+04  0.12481916115E+04  0.00000000000E+00 0.  1.
         13    1    5    5    0    0  0.10040834178E+02 -0.63272163749E+02  0.10459852398E+02  0.64912198920E+02  0.00000000000E+00 0. -1.
        -13    1    5    5    0    0  0.30095741028E+03 -0.44113563832E+03  0.20136584570E+03  0.57072254031E+03  0.00000000000E+00 0.  1.
          4    1    6    6  503    0  0.12001437370E+03  0.23068022428E+03 -0.13520136288E+03  0.29308057644E+03  0.00000000000E+00 0. -1.
         -4    1    6    6    0  503 -0.13135389201E+02  0.72833725698E+02 -0.44116577683E+02  0.86160097928E+02  0.00000000000E+00 0.  1.
<mgrwt>
<rscale>  0 0.20864020E+04</rscale>
<asrwt>0</asrwt>
<pdfrwt beam="1">  1        2 0.31763575E+00 0.20864020E+04</pdfrwt>
<pdfrwt beam="2">  1       -1 0.81092353E-01 0.20864020E+04</pdfrwt>
<totfact> 0.97858383E+00</totfact>
</mgrwt>
</event>
<event>
12    7  0.1605494E-007  0.1501884E+04  0.7818608E-02  0.8883201E-01
          2   -1    0    0  501    0  0.00000000000E+00  0.00000000000E+00  0.93554735848E+03  0.93554735848E+03  0.00000000000E+00 0. -1.
         -1   -1    0    0    0  501 -0.00000000000E+00 -0.00000000000E+00 -0.60276320164E+03  0.60276320164E+03  0.00000000000E+00 0.  1.
         24    2    1    2    0    0  0.20183432154E+03  0.44143449937E+03  0.81550723403E+02  0.49772154396E+03  0.73991244420E+02 0.  0.
        254    2    1    2    0    0 -0.20183432154E+03 -0.44143449937E+03  0.25123343344E+03  0.10405890162E+04  0.88549746012E+03 0.  0.
         23    2    4    4    0    0 -0.34028320991E+03 -0.47894555903E+03  0.47361427276E+03  0.76030795214E+03  0.92607727884E+02 0.  0.
         23    2    4    4    0    0  0.13844888838E+03  0.37511059666E+02 -0.22238083932E+03  0.28028106401E+03  0.92352925557E+02 0.  0.
          4    1    3    3  502    0  0.45474589074E+01  0.44103371825E+02 -0.82777106999E+01  0.45103295704E+02  0.00000000000E+00 0. -1.
         -3    1    3    3    0  502  0.19728686263E+03  0.39733112754E+03  0.89828434102E+02  0.45261824825E+03  0.00000000000E+00 0.  1.
         13    1    5    5    0    0 -0.73589655224E+02 -0.54815770567E+02  0.97036266343E+02  0.13355239812E+03  0.00000000000E+00 0. -1.
        -13    1    5    5    0    0 -0.26669355469E+03 -0.42412978847E+03  0.37657800641E+03  0.62675555402E+03  0.00000000000E+00 0.  1.
          3    1    6    6  503    0  0.64375404694E+02 -0.21238157806E+02 -0.13716450502E+03  0.15300115527E+03  0.00000000000E+00 0. -1.
         -3    1    6    6    0  503  0.74073483682E+02  0.58749217472E+02 -0.85216334296E+02  0.12727990874E+03  0.00000000000E+00 0.  1.
<mgrwt>
<rscale>  0 0.15018835E+04</rscale>
<asrwt>0</asrwt>
<pdfrwt beam="1">  1        2 0.14393036E+00 0.15018835E+04</pdfrwt>
<pdfrwt beam="2">  1       -1 0.92732800E-01 0.15018835E+04</pdfrwt>
<totfact> 0.34594380E+01</totfact>
</mgrwt>
</event>
<event>
12    7  0.1605494E-007  0.1095239E+04  0.7818608E-02  0.9209844E-01
         -1   -1    0    0    0  501 -0.00000000000E+00  0.00000000000E+00  0.23269450356E+04  0.23269450356E+04  0.00000000000E+00 0.  1.
          2   -1    0    0  501    0  0.00000000000E+00 -0.00000000000E+00 -0.12887597529E+03  0.12887597529E+03  0.00000000000E+00 0. -1.
         24    2    1    2    0    0  0.15739991279E+03  0.26446285781E+01  0.55480161522E+03  0.58224142337E+03  0.80115642887E+02 0.  0.
        254    2    1    2    0    0 -0.15739991279E+03 -0.26446285781E+01  0.16432674451E+04  0.18735795875E+04  0.88610995256E+03 0.  0.
         23    2    4    4    0    0 -0.14926216689E+03  0.16493541189E+03  0.16624120192E+04  0.16795975863E+04  0.89170881138E+02 0.  0.
         23    2    4    4    0    0 -0.81377458960E+01 -0.16758004047E+03 -0.19144574098E+02  0.19398200114E+03  0.95463129940E+02 0.  0.
          4    1    3    3  502    0  0.51525050016E+02  0.33904427957E+01  0.76060110863E+02  0.91931857079E+02  0.00000000000E+00 0. -1.
         -3    1    3    3    0  502  0.10587486277E+03 -0.74581421760E+00  0.47874150436E+03  0.49030956629E+03  0.00000000000E+00 0.  1.
         13    1    5    5    0    0 -0.20737545282E+02  0.63891807612E+02  0.71837358921E+03  0.72150732674E+03  0.00000000000E+00 0. -1.
        -13    1    5    5    0    0 -0.12852462161E+03  0.10104360428E+03  0.94403842995E+03  0.95809025960E+03  0.00000000000E+00 0.  1.
          3    1    6    6  503    0 -0.48523329207E+02 -0.10507214321E+03 -0.27896272102E+02  0.11904986667E+03  0.00000000000E+00 0. -1.
         -3    1    6    6    0  503  0.40385583311E+02 -0.62507897252E+02  0.87516980045E+01  0.74932134470E+02  0.00000000000E+00 0.  1.
<mgrwt>
<rscale>  0 0.10952394E+04</rscale>
<asrwt>0</asrwt>
<pdfrwt beam="1">  1        2 0.19827075E-01 0.10952394E+04</pdfrwt>
<pdfrwt beam="2">  1       -1 0.35799151E+00 0.10952394E+04</pdfrwt>
<totfact> 0.45851763E+00</totfact>
</mgrwt>
</event>
<event>
12    7  0.1605494E-007  0.1487643E+04  0.7818608E-02  0.8892712E-01
          2   -1    0    0  501    0  0.00000000000E+00  0.00000000000E+00  0.12263540646E+04  0.12263540646E+04  0.00000000000E+00 0. -1.
         -1   -1    0    0    0  501 -0.00000000000E+00 -0.00000000000E+00 -0.45115077120E+03  0.45115077120E+03  0.00000000000E+00 0.  1.
         24    2    1    2    0    0 -0.11662644455E+03  0.27700071353E+01 -0.26105504201E+03  0.29683700286E+03  0.79706152838E+02 0.  0.
        254    2    1    2    0    0  0.11662644455E+03 -0.27700071353E+01  0.10362583354E+04  0.13806678329E+04  0.90487729925E+03 0.  0.
         23    2    4    4    0    0  0.49325968301E+03  0.76978231836E+02  0.68075486002E+03  0.84911837392E+03  0.91345883487E+02 0.  0.
         23    2    4    4    0    0 -0.37663323846E+03 -0.79748238971E+02  0.35550347539E+03  0.53154945902E+03  0.89161249637E+02 0.  0.
          2    1    3    3  502    0 -0.72123614227E+02  0.37569869147E+02 -0.12070647434E+03  0.14554505743E+03  0.00000000000E+00 0. -1.
         -1    1    3    3    0  502 -0.44502830327E+02 -0.34799862011E+02 -0.14034856767E+03  0.15129194543E+03  0.00000000000E+00 0.  1.
         13    1    5    5    0    0  0.28945963961E+03  0.15719832012E+01  0.36584127930E+03  0.46650744446E+03  0.00000000000E+00 0.  1.
        -13    1    5    5    0    0  0.20380004340E+03  0.75406248635E+02  0.31491358072E+03  0.38261092946E+03  0.00000000000E+00 0. -1.
          1    1    6    6  503    0 -0.27048388913E+03 -0.97500654350E+02  0.25576497959E+03  0.38481636745E+03  0.00000000000E+00 0. -1.
         -1    1    6    6    0  503 -0.10614934933E+03  0.17752415379E+02  0.99738495807E+02  0.14673309157E+03  0.00000000000E+00 0.  1.
<mgrwt>
<rscale>  0 0.14876432E+04</rscale>
<asrwt>0</asrwt>
<pdfrwt beam="1">  1        2 0.18866986E+00 0.14876432E+04</pdfrwt>
<pdfrwt beam="2">  1       -1 0.69407811E-01 0.14876432E+04</pdfrwt>
<totfact> 0.42293237E+01</totfact>
</mgrwt>
</event>
<event>
12    7  0.1605494E-007  0.2795620E+04  0.7818608E-02  0.8304629E-01
         -1   -1    0    0    0  501 -0.00000000000E+00  0.00000000000E+00  0.86558387102E+03  0.86558387102E+03  0.00000000000E+00 0.  1.
          2   -1    0    0  501    0  0.00000000000E+00 -0.00000000000E+00 -0.22572891423E+04  0.22572891423E+04  0.00000000000E+00 0. -1.
         24    2    1    2    0    0  0.45903874238E+03 -0.47311265063E+03  0.56328265880E+03  0.87069174123E+03  0.79149272521E+02 0.  0.
        254    2    1    2    0    0 -0.45903874238E+03  0.47311265063E+03 -0.19549879301E+04  0.22521812721E+04  0.90321123132E+03 0.  0.
         23    2    4    4    0    0 -0.61845104714E+03  0.98616190325E+02 -0.77452021937E+03  0.10002154178E+04  0.91337073660E+02 0.  0.
         23    2    4    4    0    0  0.15941230476E+03  0.37449646031E+03 -0.11804677107E+04  0.12519658543E+04  0.90854843887E+02 0.  0.
          2    1    3    3  502    0  0.32596992859E+02 -0.69512558148E+02  0.66947294732E+02  0.10186510666E+03  0.00000000000E+00 0. -1.
         -1    1    3    3    0  502  0.42644174952E+03 -0.40360009249E+03  0.49633536407E+03  0.76882663456E+03  0.00000000000E+00 0.  1.
         13    1    5    5    0    0 -0.49535739006E+03  0.64044088687E+02 -0.55915181968E+03  0.74975419081E+03  0.00000000000E+00 0.  1.
        -13    1    5    5    0    0 -0.12309365708E+03  0.34572101637E+02 -0.21536839969E+03  0.25046122696E+03  0.00000000000E+00 0. -1.
          3    1    6    6  503    0  0.41862445078E+02  0.34349246489E+02 -0.10970872656E+03  0.12234516633E+03  0.00000000000E+00 0. -1.
         -3    1    6    6    0  503  0.11754985968E+03  0.34014721382E+03 -0.10707589841E+04  0.11296206880E+04  0.00000000000E+00 0.  1.
<mgrwt>
<rscale>  0 0.27956202E+04</rscale>
<asrwt>0</asrwt>
<pdfrwt beam="1">  1        2 0.34727525E+00 0.27956202E+04</pdfrwt>
<pdfrwt beam="2">  1       -1 0.13316675E+00 0.27956202E+04</pdfrwt>
<totfact> 0.22632625E+00</totfact>
</mgrwt>
</event>
<event>
12    7  0.1605494E-007  0.1725109E+04  0.7818608E-02  0.8747172E-01
          2   -1    0    0  501    0  0.00000000000E+00  0.00000000000E+00  0.10257056474E+04  0.10257056474E+04  0.00000000000E+00 0. -1.
         -1   -1    0    0    0  501 -0.00000000000E+00 -0.00000000000E+00 -0.72535450205E+03  0.72535450205E+03  0.00000000000E+00 0.  1.
         24    2    1    2    0    0 -0.51738181609E+03 -0.50929532156E+01 -0.21267967012E+03  0.56496427946E+03  0.79007045194E+02 0.  0.
        254    2    1    2    0    0  0.51738181609E+03  0.50929532156E+01  0.51303081547E+03  0.11860958700E+04  0.93590219220E+03 0.  0.
         23    2    4    4    0    0  0.30827443343E+03 -0.39789237364E+03  0.51142347098E+03  0.72336170931E+03  0.91360431943E+02 0.  0.
         23    2    4    4    0    0  0.20910738267E+03  0.40298532685E+03  0.16073444922E+01  0.46273416067E+03  0.89427337836E+02 0.  0.
          4    1    3    3  502    0 -0.18541557538E+03  0.14617048959E+02 -0.11371878941E+03  0.21800127701E+03  0.00000000000E+00 0. -1.
         -3    1    3    3    0  502 -0.33196624072E+03 -0.19710002174E+02 -0.98960880711E+02  0.34696300245E+03  0.00000000000E+00 0.  1.
         13    1    5    5    0    0  0.54467276577E+02 -0.30599720465E+02  0.40536547420E+02  0.74473074242E+02  0.00000000000E+00 0. -1.
        -13    1    5    5    0    0  0.25380715685E+03 -0.36729265317E+03  0.47088692356E+03  0.64888863507E+03  0.00000000000E+00 0.  1.
          1    1    6    6  503    0  0.61700289315E+02  0.56730278775E+02 -0.18637215564E+02  0.85863822623E+02  0.00000000000E+00 0. -1.
         -1    1    6    6    0  503  0.14740709335E+03  0.34625504808E+03  0.20244560056E+02  0.37687033805E+03  0.00000000000E+00 0.  1.
<mgrwt>
<rscale>  0 0.17251089E+04</rscale>
<asrwt>0</asrwt>
<pdfrwt beam="1">  1        2 0.15780087E+00 0.17251089E+04</pdfrwt>
<pdfrwt beam="2">  1       -1 0.11159300E+00 0.17251089E+04</pdfrwt>
<totfact> 0.19383091E+01</totfact>
</mgrwt>
</event>
<event>
12    7  0.1605494E-007  0.3220529E+04  0.7818608E-02  0.8183416E-01
          2   -1    0    0  501    0  0.00000000000E+00  0.00000000000E+00  0.19040672588E+04  0.19040672588E+04  0.00000000000E+00 0. -1.
         -1   -1    0    0    0  501 -0.00000000000E+00 -0.00000000000E+00 -0.13617962765E+04  0.13617962765E+04  0.00000000000E+00 0.  1.
         24    2    1    2    0    0  0.49749102194E+02  0.14039123740E+04 -0.16825094143E+03  0.14167635033E+04  0.73929142020E+02 0.  0.
        254    2    1    2    0    0 -0.49749102194E+02 -0.14039123740E+04  0.71052192374E+03  0.18491000320E+04  0.96999206027E+03 0.  0.
         23    2    4    4    0    0 -0.24182488585E+03 -0.13086857371E+04  0.28521840746E+03  0.13639454837E+04  0.88657253815E+02 0.  0.
         23    2    4    4    0    0  0.19207578365E+03 -0.95226636962E+02  0.42530351628E+03  0.48515454830E+03  0.92361440666E+02 0.  0.
          4    1    3    3  502    0  0.25640752013E+01  0.82677192804E+03 -0.12380716399E+03  0.83599438355E+03  0.00000000000E+00 0. -1.
         -3    1    3    3    0  502  0.47185026993E+02  0.57714044597E+03 -0.44443777442E+02  0.58076911979E+03  0.00000000000E+00 0.  1.
         13    1    5    5    0    0  0.74873435874E+01 -0.45708120114E+02  0.65253550876E+01  0.46774702751E+02  0.00000000000E+00 0.  1.
        -13    1    5    5    0    0 -0.24931222944E+03 -0.12629776169E+04  0.27869305237E+03  0.13171707809E+04  0.00000000000E+00 0. -1.
          1    1    6    6  503    0  0.16618440143E+03 -0.60822555641E+02  0.26124835147E+03  0.31554292845E+03  0.00000000000E+00 0. -1.
         -1    1    6    6    0  503  0.25891382229E+02 -0.34404081321E+02  0.16405516482E+03  0.16961161985E+03  0.00000000000E+00 0.  1.
<mgrwt>
<rscale>  0 0.32205290E+04</rscale>
<asrwt>0</asrwt>
<pdfrwt beam="1">  1        2 0.29293342E+00 0.32205290E+04</pdfrwt>
<pdfrwt beam="2">  1       -1 0.20950712E+00 0.32205290E+04</pdfrwt>
<totfact> 0.93599207E-01</totfact>
</mgrwt>
</event>
<event>
12    7  0.1605494E-007  0.2208323E+04  0.7818608E-02  0.8514972E-01
          2   -1    0    0  501    0  0.00000000000E+00  0.00000000000E+00  0.24043728369E+04  0.24043728369E+04  0.00000000000E+00 0. -1.
         -1   -1    0    0    0  501 -0.00000000000E+00 -0.00000000000E+00 -0.50706456062E+03  0.50706456062E+03  0.00000000000E+00 0.  1.
         24    2    1    2    0    0  0.38372199760E+03  0.41633735039E+03 -0.15477161714E+03  0.59224465995E+03  0.78867756324E+02 0.  0.
        254    2    1    2    0    0 -0.38372199760E+03 -0.41633735039E+03  0.20520798934E+04  0.23191927376E+04  0.92034977279E+03 0.  0.
         23    2    4    4    0    0 -0.45752098904E+03 -0.78130038213E+02  0.18460562411E+04  0.19056610028E+04  0.90501126263E+02 0.  0.
         23    2    4    4    0    0  0.73798991440E+02 -0.33820731218E+03  0.20602365227E+03  0.41353173477E+03  0.93446632972E+02 0.  0.
          4    1    3    3  502    0  0.20481874070E+03  0.16427207719E+03 -0.72471775210E+02  0.27237509080E+03  0.00000000000E+00 0. -1.
         -3    1    3    3    0  502  0.17890325690E+03  0.25206527320E+03 -0.82299841931E+02  0.31986956914E+03  0.00000000000E+00 0.  1.
         13    1    5    5    0    0 -0.41249990689E+03 -0.97103509462E+02  0.16734787326E+04  0.17263013448E+04  0.00000000000E+00 0.  1.
        -13    1    5    5    0    0 -0.45021082145E+02  0.18973471249E+02  0.17257750855E+03  0.17935965796E+03  0.00000000000E+00 0. -1.
          1    1    6    6  503    0  0.33190037795E+02 -0.23905976250E+03  0.18559192902E+03  0.30445937787E+03  0.00000000000E+00 0. -1.
         -1    1    6    6    0  503  0.40608953645E+02 -0.99147549681E+02  0.20431723248E+02  0.10907235690E+03  0.00000000000E+00 0.  1.
<mgrwt>
<rscale>  0 0.22083227E+04</rscale>
<asrwt>0</asrwt>
<pdfrwt beam="1">  1        2 0.36990351E+00 0.22083227E+04</pdfrwt>
<pdfrwt beam="2">  1       -1 0.78009934E-01 0.22083227E+04</pdfrwt>
<totfact> 0.67613212E+00</totfact>
</mgrwt>
</event>
<event>
12    7  0.1605494E-007  0.1188707E+04  0.7818608E-02  0.9122799E-01
         -1   -1    0    0    0  501 -0.00000000000E+00  0.00000000000E+00  0.21520493870E+03  0.21520493870E+03  0.00000000000E+00 0.  1.
          2   -1    0    0  501    0  0.00000000000E+00 -0.00000000000E+00 -0.16414868791E+04  0.16414868791E+04  0.00000000000E+00 0. -1.
         24    2    1    2    0    0 -0.19943168126E+03  0.24685643713E+02 -0.52269184806E+03  0.56507137686E+03  0.75607647847E+02 0.  0.
        254    2    1    2    0    0  0.19943168126E+03 -0.24685643713E+02 -0.90359009235E+03  0.12916204410E+04  0.90079183611E+03 0.  0.
         23    2    4    4    0    0 -0.12060090041E+03 -0.18158999972E+03 -0.89276833190E+03  0.92337621091E+03  0.89826651141E+02 0.  0.
         23    2    4    4    0    0  0.32003258167E+03  0.15690435601E+03 -0.10821760453E+02  0.36824423004E+03  0.91906866951E+02 0.  0.
          2    1    3    3  502    0 -0.64819146506E+02 -0.11742826679E+02 -0.25328151864E+03  0.26170774428E+03  0.00000000000E+00 0. -1.
         -1    1    3    3    0  502 -0.13461253476E+03  0.36428470393E+02 -0.26941032942E+03  0.30336363258E+03  0.00000000000E+00 0.  1.
         13    1    5    5    0    0 -0.12783856778E+03 -0.15990456089E+03 -0.85549986074E+03  0.87965457978E+03  0.00000000000E+00 0.  1.
        -13    1    5    5    0    0  0.72376673657E+01 -0.21685438827E+02 -0.37268471163E+02  0.43721631132E+02  0.00000000000E+00 0. -1.
          4    1    6    6  503    0  0.29642922037E+03  0.14401670270E+03  0.16412002543E+02  0.32997037317E+03  0.00000000000E+00 0.  1.
         -4    1    6    6    0  503  0.23603361309E+02  0.12887653306E+02 -0.27233762996E+02  0.38273856871E+02  0.00000000000E+00 0. -1.
<mgrwt>
<rscale>  0 0.11887070E+04</rscale>
<asrwt>0</asrwt>
<pdfrwt beam="1">  1        2 0.25253643E+00 0.11887070E+04</pdfrwt>
<pdfrwt beam="2">  1       -1 0.33108454E-01 0.11887070E+04</pdfrwt>
<totfact> 0.10190460E+02</totfact>
</mgrwt>
</event>
<event>
12    7  0.1605494E-007  0.1260296E+04  0.7818608E-02  0.9061657E-01
          2   -1    0    0  501    0  0.00000000000E+00  0.00000000000E+00  0.12825219112E+04  0.12825219112E+04  0.00000000000E+00 0. -1.
         -1   -1    0    0    0  501 -0.00000000000E+00 -0.00000000000E+00 -0.30961364632E+03  0.30961364632E+03  0.00000000000E+00 0.  1.
         24    2    1    2    0    0 -0.12997841023E+03 -0.24323327658E+03  0.83468684826E+02  0.29634489011E+03  0.69256469655E+02 0.  0.
        254    2    1    2    0    0  0.12997841023E+03  0.24323327658E+03  0.88943958000E+03  0.12957906674E+04  0.90106263555E+03 0.  0.
         23    2    4    4    0    0  0.36097470653E+03 -0.52939642403E+02  0.60224420177E+02  0.38107261812E+03  0.92108712959E+02 0.  0.
         23    2    4    4    0    0 -0.23099629629E+03  0.29617291898E+03  0.82921515982E+03  0.91471804924E+03  0.89630583462E+02 0.  0.
          2    1    3    3  502    0 -0.46893771050E+02 -0.48915993358E+02  0.45514065580E+02  0.81629224761E+02  0.00000000000E+00 0. -1.
         -1    1    3    3    0  502 -0.83084639184E+02 -0.19431728322E+03  0.37954619246E+02  0.21471566535E+03  0.00000000000E+00 0.  1.
         13    1    5    5    0    0  0.16051812900E+03  0.22044921554E+02  0.32643607455E+02  0.16528052944E+03  0.00000000000E+00 0. -1.
        -13    1    5    5    0    0  0.20045657752E+03 -0.74984563956E+02  0.27580812722E+02  0.21579208867E+03  0.00000000000E+00 0.  1.
          3    1    6    6  503    0 -0.21478928591E+03  0.21821693367E+03  0.67309177363E+03  0.73946305061E+03  0.00000000000E+00 0. -1.
         -3    1    6    6    0  503 -0.16207010383E+02  0.77955985306E+02  0.15612338619E+03  0.17525499863E+03  0.00000000000E+00 0.  1.
<mgrwt>
<rscale>  0 0.12602957E+04</rscale>
<asrwt>0</asrwt>
<pdfrwt beam="1">  1        2 0.19731106E+00 0.12602957E+04</pdfrwt>
<pdfrwt beam="2">  1       -1 0.47632869E-01 0.12602957E+04</pdfrwt>
<totfact> 0.83418724E+01</totfact>
</mgrwt>
</event>
<event>
12    7  0.1605494E-007  0.1614112E+04  0.7818608E-02  0.8811925E-01
         -1   -1    0    0    0  501 -0.00000000000E+00  0.00000000000E+00  0.50119382220E+03  0.50119382220E+03  0.00000000000E+00 0.  1.
          2   -1    0    0  501    0  0.00000000000E+00 -0.00000000000E+00 -0.12995764638E+04  0.12995764638E+04  0.00000000000E+00 0. -1.
         24    2    1    2    0    0  0.12103623163E+03 -0.43368193067E+03  0.86859585176E+02  0.46541068914E+03  0.79578487517E+02 0.  0.
        254    2    1    2    0    0 -0.12103623163E+03  0.43368193067E+03 -0.88524222675E+03  0.13353595968E+04  0.89263747762E+03 0.  0.
         23    2    4    4    0    0 -0.25902702110E+03 -0.14828209016E+03 -0.70359722862E+02  0.32048604095E+03  0.93157049759E+02 0.  0.
         23    2    4    4    0    0  0.13799078947E+03  0.58196402083E+03 -0.81488250389E+03  0.10148735559E+04  0.90616001648E+02 0.  0.
          4    1    3    3  502    0  0.30785367774E+01 -0.14756346838E+03  0.33781397277E+02  0.15141214413E+03  0.00000000000E+00 0. -1.
         -3    1    3    3    0  502  0.11795769485E+03 -0.28611846229E+03  0.53078187898E+02  0.31399854501E+03  0.00000000000E+00 0.  1.
         13    1    5    5    0    0 -0.11260930203E+03 -0.85503081267E+02  0.10594515691E+02  0.14178813622E+03  0.00000000000E+00 0.  1.
        -13    1    5    5    0    0 -0.14641771907E+03 -0.62779008896E+02 -0.80954238553E+02  0.17869790473E+03  0.00000000000E+00 0. -1.
          3    1    6    6  503    0  0.57014595780E+02  0.91575526811E+02 -0.14869466704E+03  0.18370314436E+03  0.00000000000E+00 0. -1.
         -3    1    6    6    0  503  0.80976193688E+02  0.49038849402E+03 -0.66618783685E+03  0.83117041151E+03  0.00000000000E+00 0.  1.
<mgrwt>
<rscale>  0 0.16141124E+04</rscale>
<asrwt>0</asrwt>
<pdfrwt beam="1">  1        2 0.19993484E+00 0.16141124E+04</pdfrwt>
<pdfrwt beam="2">  1       -1 0.77106743E-01 0.16141124E+04</pdfrwt>
<totfact> 0.30468177E+01</totfact>
</mgrwt>
</event>
<event>
12    7  0.1605494E-007  0.1679112E+04  0.7818608E-02  0.8773368E-01
          2   -1    0    0  501    0  0.00000000000E+00  0.00000000000E+00  0.17176593875E+04  0.17176593875E+04  0.00000000000E+00 0. -1.
         -1   -1    0    0    0  501 -0.00000000000E+00 -0.00000000000E+00 -0.41035725426E+03  0.41035725426E+03  0.00000000000E+00 0.  1.
         24    2    1    2    0    0 -0.73361788604E+02 -0.56935554151E+03  0.71282419193E+03  0.91887875707E+03  0.81683272028E+02 0.  0.
        254    2    1    2    0    0  0.73361788604E+02  0.56935554151E+03  0.59447794132E+03  0.12091378847E+04  0.88264529501E+03 0.  0.
         23    2    4    4    0    0  0.20897100787E+03  0.50842547308E+03 -0.32668769650E+02  0.55843315798E+03  0.92817022252E+02 0.  0.
         23    2    4    4    0    0 -0.13560921927E+03  0.60930068429E+02  0.62714671096E+03  0.65070472671E+03  0.89450045793E+02 0.  0.
          4    1    3    3  502    0 -0.72455057387E+02 -0.28324173698E+03  0.39177377084E+03  0.48883770765E+03  0.00000000000E+00 0. -1.
         -3    1    3    3    0  502 -0.90673121734E+00 -0.28611380453E+03  0.32105042109E+03  0.43004104942E+03  0.00000000000E+00 0.  1.
         13    1    5    5    0    0  0.13031963938E+03  0.34800775751E+03 -0.63901567642E+02  0.37706235299E+03  0.00000000000E+00 0. -1.
        -13    1    5    5    0    0  0.78651368491E+02  0.16041771557E+03  0.31232797992E+02  0.18137080499E+03  0.00000000000E+00 0.  1.
          1    1    6    6  503    0 -0.11319887145E+03  0.84287422678E+02  0.50890881334E+03  0.52811602363E+03  0.00000000000E+00 0. -1.
         -1    1    6    6    0  503 -0.22410347823E+02 -0.23357354250E+02  0.11823789762E+03  0.12258870307E+03  0.00000000000E+00 0.  1.
<mgrwt>
<rscale>  0 0.16791117E+04</rscale>
<asrwt>0</asrwt>
<pdfrwt beam="1">  1        2 0.26425529E+00 0.16791117E+04</pdfrwt>
<pdfrwt beam="2">  1       -1 0.63131886E-01 0.16791117E+04</pdfrwt>
<totfact> 0.26488584E+01</totfact>
</mgrwt>
</event>
<event>
12    7  0.1605494E-007  0.2292264E+04  0.7818608E-02  0.8480977E-01
          2   -1    0    0  501    0  0.00000000000E+00  0.00000000000E+00  0.37959059885E+04  0.37959059885E+04  0.00000000000E+00 0. -1.
         -1   -1    0    0    0  501 -0.00000000000E+00 -0.00000000000E+00 -0.34606206107E+03  0.34606206107E+03  0.00000000000E+00 0.  1.
         24    2    1    2    0    0  0.35786825244E+03  0.43952065957E+03  0.28853656660E+04  0.29416061656E+04  0.80397205861E+02 0.  0.
        254    2    1    2    0    0 -0.35786825244E+03 -0.43952065957E+03  0.56447826139E+03  0.12003618839E+04  0.89497756871E+03 0.  0.
         23    2    4    4    0    0 -0.58051200732E+03 -0.63769184613E+02  0.44405407011E+03  0.73901414293E+03  0.88866116875E+02 0.  0.
         23    2    4    4    0    0  0.22264375488E+03 -0.37575147495E+03  0.12042419128E+03  0.46134774098E+03  0.87065146586E+02 0.  0.
          4    1    3    3  502    0  0.26456034890E+03  0.28640550960E+03  0.21160784846E+04  0.21516989676E+04  0.00000000000E+00 0. -1.
         -3    1    3    3    0  502  0.93307903536E+02  0.15311514997E+03  0.76928718144E+03  0.78990719806E+03  0.00000000000E+00 0.  1.
         13    1    5    5    0    0 -0.42529707010E+03 -0.23146613805E+02  0.28105558204E+03  0.51029952358E+03  0.00000000000E+00 0. -1.
        -13    1    5    5    0    0 -0.15521493721E+03 -0.40622570808E+02  0.16299848807E+03  0.22871461935E+03  0.00000000000E+00 0.  1.
          3    1    6    6  503    0  0.21572922720E+03 -0.34216608866E+03  0.87585145071E+02  0.41386941097E+03  0.00000000000E+00 0. -1.
         -3    1    6    6    0  503  0.69145276812E+01 -0.33585386290E+02  0.32839046206E+02  0.47478330016E+02  0.00000000000E+00 0.  1.
<mgrwt>
<rscale>  0 0.22922644E+04</rscale>
<asrwt>0</asrwt>
<pdfrwt beam="1">  1        2 0.58398551E+00 0.22922644E+04</pdfrwt>
<pdfrwt beam="2">  1       -1 0.53240320E-01 0.22922644E+04</pdfrwt>
<totfact> 0.18247561E+00</totfact>
</mgrwt>
</event>
<event>
12    7  0.1605494E-007  0.1582539E+04  0.7818608E-02  0.8831347E-01
         -1   -1    0    0    0  501 -0.00000000000E+00  0.00000000000E+00  0.59158277546E+03  0.59158277546E+03  0.00000000000E+00 0.  1.
          2   -1    0    0  501    0  0.00000000000E+00 -0.00000000000E+00 -0.10583598316E+04  0.10583598316E+04  0.00000000000E+00 0. -1.
         24    2    1    2    0    0 -0.17962017390E+03 -0.18866997635E+03 -0.64096086366E+03  0.69650467977E+03  0.80175890075E+02 0.  0.
        254    2    1    2    0    0  0.17962017390E+03  0.18866997635E+03  0.17418380755E+03  0.95343792726E+03  0.90046883093E+03 0.  0.
         23    2    4    4    0    0 -0.23614210700E+03  0.38926714911E+03  0.54361084047E+02  0.46780338692E+03  0.92697752293E+02 0.  0.
         23    2    4    4    0    0  0.41576228090E+03 -0.20059717276E+03  0.11982272350E+03  0.48563454034E+03  0.91574678641E+02 0.  0.
          2    1    3    3  502    0 -0.14592564860E+03 -0.17980275984E+03 -0.59748742918E+03  0.64079213119E+03  0.00000000000E+00 0. -1.
         -1    1    3    3    0  502 -0.33694525302E+02 -0.88672165134E+01 -0.43473434479E+02  0.55712548581E+02  0.00000000000E+00 0.  1.
         13    1    5    5    0    0 -0.56850756931E+02  0.10568063226E+03 -0.26040343527E+02  0.12279456050E+03  0.00000000000E+00 0.  1.
        -13    1    5    5    0    0 -0.17929135007E+03  0.28358651686E+03  0.80401427573E+02  0.34500882642E+03  0.00000000000E+00 0. -1.
          1    1    6    6  503    0  0.42036733189E+03 -0.19734787647E+03  0.12096777780E+03  0.47988340390E+03  0.00000000000E+00 0. -1.
         -1    1    6    6    0  503 -0.46050509951E+01 -0.32492962903E+01 -0.11450542989E+01  0.57511364439E+01  0.00000000000E+00 0.  1.
<mgrwt>
<rscale>  0 0.15825390E+04</rscale>
<asrwt>0</asrwt>
<pdfrwt beam="1">  1        2 0.16282459E+00 0.15825390E+04</pdfrwt>
<pdfrwt beam="2">  1       -1 0.91012735E-01 0.15825390E+04</pdfrwt>
<totfact> 0.29856107E+01</totfact>
</mgrwt>
</event>
<event>
12    7  0.1605494E-007  0.1122459E+04  0.7818608E-02  0.9183575E-01
         -1   -1    0    0    0  501 -0.00000000000E+00  0.00000000000E+00  0.10636790292E+04  0.10636790292E+04  0.00000000000E+00 0.  1.
          2   -1    0    0  501    0  0.00000000000E+00 -0.00000000000E+00 -0.29612158566E+03  0.29612158566E+03  0.00000000000E+00 0. -1.
         24    2    1    2    0    0 -0.17081741815E+03  0.33939506370E+01  0.16402965888E+03  0.24996116963E+03  0.79904618686E+02 0.  0.
        254    2    1    2    0    0  0.17081741815E+03 -0.33939506370E+01  0.60352778467E+03  0.11098394452E+04  0.91559144713E+03 0.  0.
         23    2    4    4    0    0 -0.24220492264E+03 -0.18828102904E+03 -0.34624523374E+02  0.32200562828E+03  0.91519378132E+02 0.  0.
         23    2    4    4    0    0  0.41302234079E+03  0.18488707840E+03  0.63815230804E+03  0.78783381695E+03  0.93129313927E+02 0.  0.
          2    1    3    3  502    0 -0.63241441688E+02 -0.25407116580E+02  0.10145176179E+03  0.12221890807E+03  0.00000000000E+00 0. -1.
         -1    1    3    3    0  502 -0.10757597646E+03  0.28801067217E+02  0.62577897086E+02  0.12774226156E+03  0.00000000000E+00 0.  1.
         13    1    5    5    0    0 -0.22643643608E+03 -0.19655293388E+03 -0.22966711724E+02  0.30072243888E+03  0.00000000000E+00 0. -1.
        -13    1    5    5    0    0 -0.15768486565E+02  0.82719048403E+01 -0.11657811650E+02  0.21283189393E+02  0.00000000000E+00 0.  1.
          4    1    6    6  503    0  0.35121017342E+03  0.12664830762E+03  0.55566745243E+03  0.66944357300E+03  0.00000000000E+00 0. -1.
         -4    1    6    6    0  503  0.61812167373E+02  0.58238770780E+02  0.82484855614E+02  0.11839024395E+03  0.00000000000E+00 0.  1.
<mgrwt>
<rscale>  0 0.11224586E+04</rscale>
<asrwt>0</asrwt>
<pdfrwt beam="1">  1        2 0.45557167E-01 0.11224586E+04</pdfrwt>
<pdfrwt beam="2">  1       -1 0.16364293E+00 0.11224586E+04</pdfrwt>
<totfact> 0.34727740E+01</totfact>
</mgrwt>
</event>
<event>
12    7  0.1605494E-007  0.1568091E+04  0.7818608E-02  0.8840394E-01
         -1   -1    0    0    0  501 -0.00000000000E+00  0.00000000000E+00  0.67789520921E+03  0.67789520921E+03  0.00000000000E+00 0.  1.
          2   -1    0    0  501    0  0.00000000000E+00 -0.00000000000E+00 -0.90681750595E+03  0.90681750595E+03  0.00000000000E+00 0. -1.
         24    2    1    2    0    0  0.24358867282E+03 -0.48570072528E+03  0.79722987871E+02  0.55465001337E+03  0.77719022592E+02 0.  0.
        254    2    1    2    0    0 -0.24358867282E+03  0.48570072528E+03 -0.30864528461E+03  0.10300627018E+04  0.81885689949E+03 0.  0.
         23    2    4    4    0    0 -0.30324396642E+03 -0.11104977400E+03 -0.25461818690E+03  0.42090478779E+03  0.89674209289E+02 0.  0.
         23    2    4    4    0    0  0.59655293596E+02  0.59675049928E+03 -0.54027097702E+02  0.60915791399E+03  0.92111478378E+02 0.  0.
          4    1    3    3  502    0  0.86771194388E+02 -0.12373824688E+03 -0.48713119946E+01  0.15120887406E+03  0.00000000000E+00 0. -1.
         -3    1    3    3    0  502  0.15681747844E+03 -0.36196247841E+03  0.84594299865E+02  0.40344113931E+03  0.00000000000E+00 0.  1.
         13    1    5    5    0    0 -0.25164181864E+03 -0.96407342255E+02 -0.16358184023E+03  0.31524117590E+03  0.00000000000E+00 0. -1.
        -13    1    5    5    0    0 -0.51602147776E+02 -0.14642431745E+02 -0.91036346676E+02  0.10566361189E+03  0.00000000000E+00 0.  1.
          3    1    6    6  503    0  0.37157280573E+02  0.38717399436E+03 -0.79026576988E+02  0.39689994366E+03  0.00000000000E+00 0. -1.
         -3    1    6    6    0  503  0.22498013023E+02  0.20957650493E+03  0.24999479286E+02  0.21225797034E+03  0.00000000000E+00 0.  1.
<mgrwt>
<rscale>  0 0.15680909E+04</rscale>
<asrwt>0</asrwt>
<pdfrwt beam="1">  1        2 0.13951038E+00 0.15680909E+04</pdfrwt>
<pdfrwt beam="2">  1       -1 0.10429157E+00 0.15680909E+04</pdfrwt>
<totfact> 0.27535192E+01</totfact>
</mgrwt>
</event>
<event>
12    7  0.1605494E-007  0.1847556E+04  0.7818608E-02  0.8681411E-01
         -1   -1    0    0    0  501 -0.00000000000E+00  0.00000000000E+00  0.39665169517E+03  0.39665169517E+03  0.00000000000E+00 0.  1.
          2   -1    0    0  501    0  0.00000000000E+00 -0.00000000000E+00 -0.21514238780E+04  0.21514238780E+04  0.00000000000E+00 0. -1.
         24    2    1    2    0    0  0.16732403342E+03 -0.58887267173E+03 -0.19594351051E+03  0.64768567555E+03  0.79589693692E+02 0.  0.
        254    2    1    2    0    0 -0.16732403342E+03  0.58887267173E+03 -0.15588286724E+04  0.19003898977E+04  0.89820185797E+03 0.  0.
         23    2    4    4    0    0  0.35264505659E+03  0.14790390007E+03 -0.65943994998E+03  0.76803305387E+03  0.93699651114E+02 0.  0.
         23    2    4    4    0    0 -0.51996909001E+03  0.44096877166E+03 -0.89938872239E+03  0.11323568438E+04  0.92253105965E+02 0.  0.
          4    1    3    3  502    0  0.49496669605E+02 -0.19318817869E+03 -0.25582319052E+02  0.20106229815E+03  0.00000000000E+00 0. -1.
         -3    1    3    3    0  502  0.11782736382E+03 -0.39568449303E+03 -0.17036119146E+03  0.44662337740E+03  0.00000000000E+00 0.  1.
         13    1    5    5    0    0  0.40305751552E+02  0.54276459004E+02 -0.10906018303E+03  0.12831450087E+03  0.00000000000E+00 0. -1.
        -13    1    5    5    0    0  0.31233930504E+03  0.93627441061E+02 -0.55037976695E+03  0.63971855300E+03  0.00000000000E+00 0.  1.
          2    1    6    6  503    0 -0.44925142704E+03  0.41469477225E+03 -0.82002301040E+03  0.10228569482E+04  0.00000000000E+00 0.  1.
         -2    1    6    6    0  503 -0.70717662967E+02  0.26273999415E+02 -0.79365711987E+02  0.10949989562E+03  0.00000000000E+00 0. -1.
<mgrwt>
<rscale>  0 0.18475561E+04</rscale>
<asrwt>0</asrwt>
<pdfrwt beam="1">  1        2 0.33098829E+00 0.18475561E+04</pdfrwt>
<pdfrwt beam="2">  1       -1 0.61023338E-01 0.18475561E+04</pdfrwt>
<totfact> 0.16040205E+01</totfact>
</mgrwt>
</event>
<event>
12    7  0.1605494E-007  0.1450153E+04  0.7818608E-02  0.8918295E-01
         -1   -1    0    0    0  501 -0.00000000000E+00  0.00000000000E+00  0.16253616617E+03  0.16253616617E+03  0.00000000000E+00 0.  1.
          2   -1    0    0  501    0  0.00000000000E+00 -0.00000000000E+00 -0.32345760662E+04  0.32345760662E+04  0.00000000000E+00 0. -1.
         24    2    1    2    0    0  0.26798067729E+03  0.36090725804E+02 -0.11967004243E+03  0.30627087768E+03  0.79779368094E+02 0.  0.
        254    2    1    2    0    0 -0.26798067729E+03 -0.36090725804E+02 -0.29523698576E+04  0.30908413547E+04  0.87389720210E+03 0.  0.
         23    2    4    4    0    0 -0.45263605192E+03  0.11550694438E+02 -0.27803704706E+04  0.28184122738E+04  0.89302726660E+02 0.  0.
         23    2    4    4    0    0  0.18465537463E+03 -0.47641420242E+02 -0.17199938695E+03  0.27242908089E+03  0.90920309592E+02 0.  0.
          4    1    3    3  502    0  0.50496671892E+02  0.21267169415E+01  0.89500857945E+01  0.51327778375E+02  0.00000000000E+00 0. -1.
         -3    1    3    3    0  502  0.21748400539E+03  0.33964008863E+02 -0.12862012823E+03  0.25494309931E+03  0.00000000000E+00 0.  1.
         13    1    5    5    0    0 -0.12607248434E+03 -0.22438817910E+02 -0.60492873370E+03  0.61833368395E+03  0.00000000000E+00 0.  1.
        -13    1    5    5    0    0 -0.32656356758E+03  0.33989512348E+02 -0.21754417369E+04  0.22000785898E+04  0.00000000000E+00 0. -1.
          4    1    6    6  503    0  0.13602557634E+03 -0.27857567678E+02 -0.65140146733E+02  0.15336961959E+03  0.00000000000E+00 0. -1.
         -4    1    6    6    0  503  0.48629798293E+02 -0.19783852565E+02 -0.10685924022E+03  0.11905946130E+03  0.00000000000E+00 0.  1.
<mgrwt>
<rscale>  0 0.14501525E+04</rscale>
<asrwt>0</asrwt>
<pdfrwt beam="1">  1        2 0.49762710E+00 0.14501525E+04</pdfrwt>
<pdfrwt beam="2">  1       -1 0.25005563E-01 0.14501525E+04</pdfrwt>
<totfact> 0.19249660E+01</totfact>
</mgrwt>
</event>
<event>
12    7  0.1605494E-007  0.1828971E+04  0.7818608E-02  0.8691043E-01
         -1   -1    0    0    0  501 -0.00000000000E+00  0.00000000000E+00  0.67005750328E+03  0.67005750328E+03  0.00000000000E+00 0.  1.
          2   -1    0    0  501    0  0.00000000000E+00 -0.00000000000E+00 -0.12480779678E+04  0.12480779678E+04  0.00000000000E+00 0. -1.
         24    2    1    2    0    0  0.59296883516E+03  0.19955447381E+03 -0.26068818644E+02  0.63124321618E+03  0.79714410097E+02 0.  0.
        254    2    1    2    0    0 -0.59296883516E+03 -0.19955447381E+03 -0.55195164583E+03  0.12868922549E+04  0.97979948397E+03 0.  0.
         23    2    4    4    0    0 -0.76133828197E+03  0.11530010191E+03 -0.47773199073E+03  0.91117541316E+03  0.95303124267E+02 0.  0.
         23    2    4    4    0    0  0.16836944680E+03 -0.31485457572E+03 -0.74219655107E+02  0.37571684170E+03  0.90404167308E+02 0.  0.
          4    1    3    3  502    0  0.24258712532E+03  0.76843072496E+02 -0.49576477421E+02  0.25925122618E+03  0.00000000000E+00 0. -1.
         -3    1    3    3    0  502  0.35038170984E+03  0.12271140131E+03  0.23507658777E+02  0.37199199000E+03  0.00000000000E+00 0.  1.
         13    1    5    5    0    0 -0.42515773967E+03  0.23536141643E+02 -0.23346597778E+03  0.48561241371E+03  0.00000000000E+00 0.  1.
        -13    1    5    5    0    0 -0.33618054229E+03  0.91763960270E+02 -0.24426601295E+03  0.42556299945E+03  0.00000000000E+00 0. -1.
          1    1    6    6  503    0  0.46875671357E+02 -0.55598408151E+02 -0.50268400973E+02  0.88404884992E+02  0.00000000000E+00 0. -1.
         -1    1    6    6    0  503  0.12149377545E+03 -0.25925616757E+03 -0.23951254134E+02  0.28731195671E+03  0.00000000000E+00 0.  1.
<mgrwt>
<rscale>  0 0.18289713E+04</rscale>
<asrwt>0</asrwt>
<pdfrwt beam="1">  1        2 0.19201199E+00 0.18289713E+04</pdfrwt>
<pdfrwt beam="2">  1       -1 0.10308577E+00 0.18289713E+04</pdfrwt>
<totfact> 0.16923449E+01</totfact>
</mgrwt>
</event>
<event>
12    7  0.1605494E-007  0.1347481E+04  0.7818608E-02  0.8992737E-01
          2   -1    0    0  501    0  0.00000000000E+00  0.00000000000E+00  0.21294140489E+03  0.21294140489E+03  0.00000000000E+00 0. -1.
         -1   -1    0    0    0  501 -0.00000000000E+00 -0.00000000000E+00 -0.21316962075E+04  0.21316962075E+04  0.00000000000E+00 0.  1.
         24    2    1    2    0    0  0.27034516524E+03 -0.23529174770E+03 -0.65544340947E+03  0.75079565882E+03  0.75095561648E+02 0.  0.
        254    2    1    2    0    0 -0.27034516524E+03  0.23529174770E+03 -0.12633113931E+04  0.15938419535E+04  0.90328720903E+03 0.  0.
         23    2    4    4    0    0 -0.44549439266E+03  0.41424474200E+03 -0.11493800362E+04  0.13034569147E+04  0.88665103814E+02 0.  0.
         23    2    4    4    0    0  0.17514922742E+03 -0.17895299429E+03 -0.11393135690E+03  0.29038503886E+03  0.92960694237E+02 0.  0.
          4    1    3    3  502    0  0.20673858440E+03 -0.17316567285E+03 -0.42003474390E+03  0.49915566572E+03  0.00000000000E+00 0. -1.
         -3    1    3    3    0  502  0.63606580832E+02 -0.62126074848E+02 -0.23540866558E+03  0.25163999311E+03  0.00000000000E+00 0.  1.
         13    1    5    5    0    0 -0.42630232321E+03  0.36263503837E+03 -0.10491879738E+04  0.11891312990E+04  0.00000000000E+00 0. -1.
        -13    1    5    5    0    0 -0.19192069454E+02  0.51609703623E+02 -0.10019206244E+03  0.11432561574E+03  0.00000000000E+00 0.  1.
          2    1    6    6  503    0  0.98590161132E+02 -0.65428423500E+02 -0.95834926672E+02  0.15226697490E+03  0.00000000000E+00 0. -1.
         -2    1    6    6    0  503  0.76559066291E+02 -0.11352457079E+03 -0.18096430230E+02  0.13811806396E+03  0.00000000000E+00 0.  1.
<mgrwt>
<rscale>  0 0.13474812E+04</rscale>
<asrwt>0</asrwt>
<pdfrwt beam="1">  1        2 0.32760216E-01 0.13474812E+04</pdfrwt>
<pdfrwt beam="2">  1       -1 0.32795327E+00 0.13474812E+04</pdfrwt>
<totfact> 0.39446248E+00</totfact>
</mgrwt>
</event>
<event>
12    7  0.1605494E-007  0.1224395E+04  0.7818608E-02  0.9091768E-01
         -1   -1    0    0    0  501 -0.00000000000E+00  0.00000000000E+00  0.49932872911E+03  0.49932872911E+03  0.00000000000E+00 0.  1.
          2   -1    0    0  501    0  0.00000000000E+00 -0.00000000000E+00 -0.75057917336E+03  0.75057917336E+03  0.00000000000E+00 0. -1.
         24    2    1    2    0    0 -0.48759692320E+02  0.42468901114E+02 -0.33015406911E+03  0.34620614338E+03  0.81705992513E+02 0.  0.
        254    2    1    2    0    0  0.48759692320E+02 -0.42468901114E+02  0.78903624852E+02  0.90370175908E+03  0.89792537118E+03 0.  0.
         23    2    4    4    0    0  0.36618129729E+03  0.20407616068E+03 -0.12048914305E+03  0.44554869154E+03  0.90885538430E+02 0.  0.
         23    2    4    4    0    0 -0.31742160497E+03 -0.24654506180E+03  0.19939276790E+03  0.45815306755E+03  0.92767529959E+02 0.  0.
          4    1    3    3  502    0 -0.36168752307E+02  0.54039622785E+02 -0.31951873858E+03  0.32606852620E+03  0.00000000000E+00 0. -1.
         -3    1    3    3    0  502 -0.12590940012E+02 -0.11570721671E+02 -0.10635330521E+02  0.20137617180E+02  0.00000000000E+00 0.  1.
         13    1    5    5    0    0  0.68359360496E+02  0.82308206293E+02 -0.35989555436E+02  0.11288441474E+03  0.00000000000E+00 0. -1.
        -13    1    5    5    0    0  0.29782193679E+03  0.12176795439E+03 -0.84499587614E+02  0.33266427680E+03  0.00000000000E+00 0.  1.
          3    1    6    6  503    0  0.90292878946E-01  0.31293209748E+01 -0.46626052914E+01  0.56161099233E+01  0.00000000000E+00 0. -1.
         -3    1    6    6    0  503 -0.31751189785E+03 -0.24967438277E+03  0.20405537319E+03  0.45253695762E+03  0.00000000000E+00 0.  1.
<mgrwt>
<rscale>  0 0.12243949E+04</rscale>
<asrwt>0</asrwt>
<pdfrwt beam="1">  1        2 0.11547372E+00 0.12243949E+04</pdfrwt>
<pdfrwt beam="2">  1       -1 0.76819805E-01 0.12243949E+04</pdfrwt>
<totfact> 0.71677780E+01</totfact>
</mgrwt>
</event>
<event>
12    7  0.1605494E-007  0.1114957E+04  0.7818608E-02  0.9190735E-01
         -1   -1    0    0    0  501 -0.00000000000E+00  0.00000000000E+00  0.75178592285E+02  0.75178592285E+02  0.00000000000E+00 0.  1.
          2   -1    0    0  501    0  0.00000000000E+00 -0.00000000000E+00 -0.41339223821E+04  0.41339223821E+04  0.00000000000E+00 0. -1.
         24    2    1    2    0    0 -0.30770213750E+02 -0.12762198209E+03 -0.25015190930E+03  0.29297125598E+03  0.77601564036E+02 0.  0.
        254    2    1    2    0    0  0.30770213750E+02  0.12762198209E+03 -0.38085918805E+04  0.39161297184E+04  0.90192332414E+03 0.  0.
         23    2    4    4    0    0  0.44496581542E+03 -0.22370652540E+02 -0.16766004286E+04  0.17371895037E+04  0.91341949401E+02 0.  0.
         23    2    4    4    0    0 -0.41419560167E+03  0.14999263463E+03 -0.21319914519E+04  0.21789402147E+04  0.91307837246E+02 0.  0.
          4    1    3    3  502    0  0.77165240939E+01 -0.43346569232E+02 -0.27750157338E+02  0.52043645535E+02  0.00000000000E+00 0. -1.
         -3    1    3    3    0  502 -0.38486737844E+02 -0.84275412859E+02 -0.22240175196E+03  0.24092761045E+03  0.00000000000E+00 0.  1.
         13    1    5    5    0    0  0.41108533637E+03 -0.71641243927E+01 -0.14345077271E+04  0.14922650226E+04  0.00000000000E+00 0. -1.
        -13    1    5    5    0    0  0.33880479056E+02 -0.15206528147E+02 -0.24209270145E+03  0.24492448112E+03  0.00000000000E+00 0.  1.
          1    1    6    6  503    0 -0.35188571839E+03  0.15085340828E+03 -0.17072821435E+04  0.17496835792E+04  0.00000000000E+00 0. -1.
         -1    1    6    6    0  503 -0.62309883284E+02 -0.86077364505E+00 -0.42470930840E+03  0.42925663551E+03  0.00000000000E+00 0.  1.
<mgrwt>
<rscale>  0 0.11149573E+04</rscale>
<asrwt>0</asrwt>
<pdfrwt beam="1">  1        2 0.63598824E+00 0.11149573E+04</pdfrwt>
<pdfrwt beam="2">  1       -1 0.11565934E-01 0.11149573E+04</pdfrwt>
<totfact> 0.15777703E+01</totfact>
</mgrwt>
</event>
<event>
12    7  0.1605494E-007  0.1143076E+04  0.7818608E-02  0.9164195E-01
          2   -1    0    0  501    0  0.00000000000E+00  0.00000000000E+00  0.12948977805E+04  0.12948977805E+04  0.00000000000E+00 0. -1.
         -1   -1    0    0    0  501 -0.00000000000E+00 -0.00000000000E+00 -0.25226370499E+03  0.25226370499E+03  0.00000000000E+00 0.  1.
         24    2    1    2    0    0 -0.62727960369E+01  0.95885959715E+02  0.42054356693E+03  0.44232383163E+03  0.97775329703E+02 0.  0.
        254    2    1    2    0    0  0.62727960369E+01 -0.95885959715E+02  0.62209050856E+03  0.11048376538E+04  0.90798467788E+03 0.  0.
         23    2    4    4    0    0  0.33864143029E+03  0.16800144684E+03  0.53524781696E+03  0.66158311171E+03  0.91101502104E+02 0.  0.
         23    2    4    4    0    0 -0.33236863425E+03 -0.26388740655E+03  0.86842691598E+02  0.44325454213E+03  0.93954583005E+02 0.  0.
          4    1    3    3  502    0 -0.27906284222E+02  0.10115071702E+03  0.39372620230E+03  0.40746846581E+03  0.00000000000E+00 0. -1.
         -3    1    3    3    0  502  0.21633488185E+02 -0.52647573027E+01  0.26817364628E+02  0.34855365815E+02  0.00000000000E+00 0.  1.
         13    1    5    5    0    0  0.22755624328E+03  0.99556850284E+02  0.41766922644E+03  0.48594340515E+03  0.00000000000E+00 0. -1.
        -13    1    5    5    0    0  0.11108518701E+03  0.68444596553E+02  0.11757859052E+03  0.17563970656E+03  0.00000000000E+00 0.  1.
          1    1    6    6  503    0 -0.72644796003E+02 -0.26149145437E+02 -0.10564270551E+02  0.77927196830E+02  0.00000000000E+00 0. -1.
         -1    1    6    6    0  503 -0.25972383825E+03 -0.23773826111E+03  0.97406962149E+02  0.36532734530E+03  0.00000000000E+00 0.  1.
<mgrwt>
<rscale>  0 0.11430760E+04</rscale>
<asrwt>0</asrwt>
<pdfrwt beam="1">  1        2 0.19921504E+00 0.11430760E+04</pdfrwt>
<pdfrwt beam="2">  1       -1 0.38809802E-01 0.11430760E+04</pdfrwt>
<totfact> 0.12083738E+02</totfact>
</mgrwt>
</event>
<event>
12    7  0.1605494E-007  0.2188127E+04  0.7818608E-02  0.8523386E-01
          2   -1    0    0  501    0  0.00000000000E+00  0.00000000000E+00  0.61358420186E+03  0.61358420186E+03  0.00000000000E+00 0. -1.
         -1   -1    0    0    0  501 -0.00000000000E+00 -0.00000000000E+00 -0.19507915149E+04  0.19507915149E+04  0.00000000000E+00 0.  1.
         24    2    1    2    0    0  0.19910927919E+03 -0.41431574531E+03 -0.14572681592E+04  0.15299266858E+04  0.75783468976E+02 0.  0.
        254    2    1    2    0    0 -0.19910927919E+03  0.41431574531E+03  0.12006084616E+03  0.10344490310E+04  0.91889506966E+03 0.  0.
         23    2    4    4    0    0 -0.43132396656E+03 -0.43976878959E+02 -0.12138142210E+03  0.45942086509E+03  0.91431677431E+02 0.  0.
         23    2    4    4    0    0  0.23221468737E+03  0.45829262426E+03  0.24144226826E+03  0.57502816589E+03  0.91690960197E+02 0.  0.
          2    1    3    3  502    0  0.53631448464E+02 -0.19425277393E+03 -0.66845708254E+03  0.69817286086E+03  0.00000000000E+00 0. -1.
         -1    1    3    3    0  502  0.14547783073E+03 -0.22006297137E+03 -0.78881107665E+03  0.83175382491E+03  0.00000000000E+00 0.  1.
         13    1    5    5    0    0 -0.32746999017E+03 -0.24977603290E+01 -0.63800953809E+02  0.33363662115E+03  0.00000000000E+00 0. -1.
        -13    1    5    5    0    0 -0.10385397640E+03 -0.41479118629E+02 -0.57580468288E+02  0.12578424394E+03  0.00000000000E+00 0.  1.
          2    1    6    6  503    0  0.18126411036E+03  0.35952268332E+03  0.14521048803E+03  0.42801790075E+03  0.00000000000E+00 0. -1.
         -2    1    6    6    0  503  0.50950577011E+02  0.98769940942E+02  0.96231780230E+02  0.14701026514E+03  0.00000000000E+00 0.  1.
<mgrwt>
<rscale>  0 0.21881269E+04</rscale>
<asrwt>0</asrwt>
<pdfrwt beam="1">  1        2 0.94397568E-01 0.21881269E+04</pdfrwt>
<pdfrwt beam="2">  1       -1 0.30012178E+00 0.21881269E+04</pdfrwt>
<totfact> 0.16623856E+00</totfact>
</mgrwt>
</event>
<event>
12    7  0.1605494E-007  0.1679297E+04  0.7818608E-02  0.8773261E-01
         -1   -1    0    0    0  501 -0.00000000000E+00  0.00000000000E+00  0.38837566440E+03  0.38837566440E+03  0.00000000000E+00 0.  1.
          2   -1    0    0  501    0  0.00000000000E+00 -0.00000000000E+00 -0.18152783820E+04  0.18152783820E+04  0.00000000000E+00 0. -1.
         24    2    1    2    0    0 -0.10843662902E+03  0.49915566782E+03 -0.11677918980E+03  0.53007294912E+03  0.80156528040E+02 0.  0.
        254    2    1    2    0    0  0.10843662902E+03 -0.49915566782E+03 -0.13101235278E+04  0.16735810973E+04  0.90748837340E+03 0.  0.
         23    2    4    4    0    0  0.93258233395E+02 -0.16773009303E+03  0.89649927560E+02  0.23214391092E+03  0.94990545117E+02 0.  0.
         23    2    4    4    0    0  0.15178395628E+02 -0.33142557479E+03 -0.13997734554E+04  0.14414371864E+04  0.91116082913E+02 0.  0.
          2    1    3    3  502    0 -0.60920574230E+02  0.18673523715E+03 -0.10631773419E+02  0.19670892141E+03  0.00000000000E+00 0. -1.
         -1    1    3    3    0  502 -0.47516054792E+02  0.31242043067E+03 -0.10614741639E+03  0.33336402771E+03  0.00000000000E+00 0.  1.
         13    1    5    5    0    0  0.72995354030E+02 -0.17577657920E+03  0.89542456166E+02  0.21034157687E+03  0.00000000000E+00 0. -1.
        -13    1    5    5    0    0  0.20262879365E+02  0.80464861680E+01  0.10747139352E+00  0.21802334048E+02  0.00000000000E+00 0.  1.
          3    1    6    6  503    0  0.46856566955E+02 -0.21426357766E+03 -0.99354341258E+03  0.10174639705E+04  0.00000000000E+00 0. -1.
         -3    1    6    6    0  503 -0.31678171327E+02 -0.11716199713E+03 -0.40623004279E+03  0.42397321588E+03  0.00000000000E+00 0.  1.
<mgrwt>
<rscale>  0 0.16792974E+04</rscale>
<asrwt>0</asrwt>
<pdfrwt beam="1">  1        2 0.27927360E+00 0.16792974E+04</pdfrwt>
<pdfrwt beam="2">  1       -1 0.59750102E-01 0.16792974E+04</pdfrwt>
<totfact> 0.26088578E+01</totfact>
</mgrwt>
</event>
<event>
12    7  0.1605494E-007  0.1363049E+04  0.7818608E-02  0.8981008E-01
         -1   -1    0    0    0  501 -0.00000000000E+00  0.00000000000E+00  0.29220099877E+03  0.29220099877E+03  0.00000000000E+00 0.  1.
          2   -1    0    0  501    0  0.00000000000E+00 -0.00000000000E+00 -0.15895769242E+04  0.15895769242E+04  0.00000000000E+00 0. -1.
         24    2    1    2    0    0 -0.14765993460E+03  0.15785085509E+02  0.10780441714E+03  0.20331752485E+03  0.87541980483E+02 0.  0.
        254    2    1    2    0    0  0.14765993460E+03 -0.15785085509E+02 -0.14051803426E+04  0.16784603981E+04  0.90589452350E+03 0.  0.
         23    2    4    4    0    0  0.77608932755E+02 -0.36693852905E+03 -0.23622629906E+03  0.45231907225E+03  0.90125735565E+02 0.  0.
         23    2    4    4    0    0  0.70051001849E+02  0.35115344354E+03 -0.11689540435E+04  0.12261413259E+04  0.93558064358E+02 0.  0.
          2    1    3    3  502    0 -0.16723628195E+02 -0.37776469130E+01 -0.14970369414E+02  0.22760982329E+02  0.00000000000E+00 0. -1.
         -1    1    3    3    0  502 -0.13093630641E+03  0.19562732422E+02  0.12277478655E+03  0.18055654252E+03  0.00000000000E+00 0.  1.
         13    1    5    5    0    0  0.89606823044E+02 -0.21164376042E+03 -0.14684467491E+03  0.27273764429E+03  0.00000000000E+00 0. -1.
        -13    1    5    5    0    0 -0.11997890289E+02 -0.15529476862E+03 -0.89381624143E+02  0.17958142796E+03  0.00000000000E+00 0.  1.
          2    1    6    6  503    0  0.23332028946E+02  0.29590936121E+03 -0.90385528200E+03  0.95134699475E+03  0.00000000000E+00 0. -1.
         -2    1    6    6    0  503  0.46718972902E+02  0.55244082326E+02 -0.26509876151E+03  0.27479433112E+03  0.00000000000E+00 0.  1.
<mgrwt>
<rscale>  0 0.13630495E+04</rscale>
<asrwt>0</asrwt>
<pdfrwt beam="1">  1        2 0.24455029E+00 0.13630495E+04</pdfrwt>
<pdfrwt beam="2">  1       -1 0.44954001E-01 0.13630495E+04</pdfrwt>
<totfact> 0.61656415E+01</totfact>
</mgrwt>
</event>
<event>
12    7  0.1605494E-007  0.2237302E+04  0.7818608E-02  0.8503061E-01
          2   -1    0    0  501    0  0.00000000000E+00  0.00000000000E+00  0.25863639792E+04  0.25863639792E+04  0.00000000000E+00 0. -1.
         -1   -1    0    0    0  501 -0.00000000000E+00 -0.00000000000E+00 -0.48383736563E+03  0.48383736563E+03  0.00000000000E+00 0.  1.
         24    2    1    2    0    0  0.29740833847E+01 -0.39936094876E+03  0.20430939018E+04  0.20836898306E+04  0.89624806531E+02 0.  0.
        254    2    1    2    0    0 -0.29740833847E+01  0.39936094876E+03  0.59432711685E+02  0.98651151416E+03  0.90009705464E+03 0.  0.
         23    2    4    4    0    0 -0.42243408614E+03  0.30430845780E+03  0.12494215131E+03  0.54320071517E+03  0.91663957794E+02 0.  0.
         23    2    4    4    0    0  0.41946000276E+03  0.95052490955E+02 -0.65509439628E+02  0.44331079899E+03  0.85154611574E+02 0.  0.
          4    1    3    3  502    0  0.25343540982E+02 -0.82504325273E+02  0.59024248525E+03  0.59651944659E+03  0.00000000000E+00 0. -1.
         -3    1    3    3    0  502 -0.22369457598E+02 -0.31685662349E+03  0.14528514166E+04  0.14871703840E+04  0.00000000000E+00 0.  1.
         13    1    5    5    0    0 -0.41752930653E+03  0.29762312995E+03  0.10751068389E+03  0.52389769654E+03  0.00000000000E+00 0.  1.
        -13    1    5    5    0    0 -0.49047796106E+01  0.66853278571E+01  0.17431467421E+02  0.19303018625E+02  0.00000000000E+00 0. -1.
          1    1    6    6  503    0  0.21226532562E+03  0.91683066747E+02 -0.35289813739E+02  0.23389682371E+03  0.00000000000E+00 0. -1.
         -1    1    6    6    0  503  0.20719467714E+03  0.33694242071E+01 -0.30219625889E+02  0.20941397528E+03  0.00000000000E+00 0.  1.
<mgrwt>
<rscale>  0 0.22373015E+04</rscale>
<asrwt>0</asrwt>
<pdfrwt beam="1">  1        2 0.39790214E+00 0.22373015E+04</pdfrwt>
<pdfrwt beam="2">  1       -1 0.74436519E-01 0.22373015E+04</pdfrwt>
<totfact> 0.58389814E+00</totfact>
</mgrwt>
</event>
<event>
12    7  0.1605494E-007  0.1479453E+04  0.7818608E-02  0.8898232E-01
         -3   -1    0    0    0  501 -0.00000000000E+00  0.00000000000E+00  0.95296828497E+03  0.95296828497E+03  0.00000000000E+00 0.  1.
          4   -1    0    0  501    0  0.00000000000E+00 -0.00000000000E+00 -0.57420105533E+03  0.57420105533E+03  0.00000000000E+00 0. -1.
         24    2    1    2    0    0 -0.31283452774E+03  0.23959481774E+03 -0.12787116323E+03  0.42224038601E+03  0.81638169742E+02 0.  0.
        254    2    1    2    0    0  0.31283452774E+03 -0.23959481774E+03  0.50663839288E+03  0.11049289543E+04  0.89939669471E+03 0.  0.
         23    2    4    4    0    0  0.75022854155E+02 -0.22618415197E+03  0.72549767206E+03  0.76901636972E+03  0.90838348058E+02 0.  0.
         23    2    4    4    0    0  0.23781167358E+03 -0.13410665775E+02 -0.21885927919E+03  0.33591258457E+03  0.90573960596E+02 0.  0.
          4    1    3    3  502    0 -0.26222147460E+03  0.16457538955E+03 -0.11756260096E+03  0.33115876212E+03  0.00000000000E+00 0. -1.
         -3    1    3    3    0  502 -0.50613053140E+02  0.75019428192E+02 -0.10308562279E+02  0.91081623892E+02  0.00000000000E+00 0.  1.
         13    1    5    5    0    0 -0.16879874071E+02 -0.41495326461E+02  0.18869563847E+03  0.19394029041E+03  0.00000000000E+00 0.  1.
        -13    1    5    5    0    0  0.91902728225E+02 -0.18468882550E+03  0.53680203359E+03  0.57507607931E+03  0.00000000000E+00 0. -1.
          1    1    6    6  503    0  0.12382419807E+03 -0.75844909477E+01 -0.17305763739E+03  0.21292933661E+03  0.00000000000E+00 0. -1.
         -1    1    6    6    0  503  0.11398747552E+03 -0.58261748274E+01 -0.45801641795E+02  0.12298324796E+03  0.00000000000E+00 0.  1.
<mgrwt>
<rscale>  0 0.14794531E+04</rscale>
<asrwt>0</asrwt>
<pdfrwt beam="1">  1        4 0.88338624E-01 0.14794531E+04</pdfrwt>
<pdfrwt beam="2">  1       -3 0.14661051E+00 0.14794531E+04</pdfrwt>
<totfact> 0.83740501E-01</totfact>
</mgrwt>
</event>
<event>
12    7  0.1605494E-007  0.2687009E+04  0.7818608E-02  0.8339232E-01
          2   -1    0    0  501    0  0.00000000000E+00  0.00000000000E+00  0.16440666950E+04  0.16440666950E+04  0.00000000000E+00 0. -1.
         -1   -1    0    0    0  501 -0.00000000000E+00 -0.00000000000E+00 -0.10978901781E+04  0.10978901781E+04  0.00000000000E+00 0.  1.
         24    2    1    2    0    0  0.71693758888E+02 -0.80151545803E+03  0.11385377991E+04  0.13964982223E+04  0.79824434164E+02 0.  0.
        254    2    1    2    0    0 -0.71693758888E+02  0.80151545803E+03 -0.59236128224E+03  0.13454586508E+04  0.90099948265E+03 0.  0.
         23    2    4    4    0    0 -0.36810798770E+03  0.34499019734E+03  0.29388714631E+02  0.51347714095E+03  0.90957962045E+02 0.  0.
         23    2    4    4    0    0  0.29641422881E+03  0.45652526069E+03 -0.62174999687E+03  0.83198150983E+03  0.96661602540E+02 0.  0.
          2    1    3    3  502    0  0.15713160391E+02 -0.55892363874E+02  0.54738138084E+02  0.79794257373E+02  0.00000000000E+00 0. -1.
         -1    1    3    3    0  502  0.55980598498E+02 -0.74562309416E+03  0.10837996610E+04  0.13167039649E+04  0.00000000000E+00 0.  1.
         13    1    5    5    0    0 -0.33929418677E+03  0.27441548596E+03  0.23077217672E+02  0.43698622642E+03  0.00000000000E+00 0.  1.
        -13    1    5    5    0    0 -0.28813800929E+02  0.70574711383E+02  0.63114969588E+01  0.76490914524E+02  0.00000000000E+00 0. -1.
          3    1    6    6  503    0  0.48894258490E+02  0.15198542575E+03 -0.19953896763E+03  0.25555042117E+03  0.00000000000E+00 0. -1.
         -3    1    6    6    0  503  0.24751997032E+03  0.30453983494E+03 -0.42221102924E+03  0.57643108867E+03  0.00000000000E+00 0.  1.
<mgrwt>
<rscale>  0 0.26870092E+04</rscale>
<asrwt>0</asrwt>
<pdfrwt beam="1">  1        2 0.25293334E+00 0.26870092E+04</pdfrwt>
<pdfrwt beam="2">  1       -1 0.16890618E+00 0.26870092E+04</pdfrwt>
<totfact> 0.26410981E+00</totfact>
</mgrwt>
</event>
<event>
12    7  0.1605494E-007  0.3127538E+04  0.7818608E-02  0.8208221E-01
         -1   -1    0    0    0  501 -0.00000000000E+00  0.00000000000E+00  0.10528353813E+04  0.10528353813E+04  0.00000000000E+00 0.  1.
          2   -1    0    0  501    0  0.00000000000E+00 -0.00000000000E+00 -0.23226552176E+04  0.23226552176E+04  0.00000000000E+00 0. -1.
         24    2    1    2    0    0 -0.69966085086E+03 -0.21600279232E+03 -0.19196337600E+04  0.20561886106E+04  0.82068979958E+02 0.  0.
        254    2    1    2    0    0  0.69966085086E+03  0.21600279232E+03  0.64981392372E+03  0.13193019883E+04  0.88437383975E+03 0.  0.
         23    2    4    4    0    0  0.22627191203E+02 -0.28267043147E+03  0.22513902207E+03  0.37271707848E+03  0.88407458533E+02 0.  0.
         23    2    4    4    0    0  0.67703365966E+03  0.49867322379E+03  0.42467490165E+03  0.94658490985E+03  0.92869042300E+02 0.  0.
          2    1    3    3  502    0 -0.45003111510E+03 -0.99962037787E+02 -0.12399109307E+04  0.13228376808E+04  0.00000000000E+00 0. -1.
         -1    1    3    3    0  502 -0.24962973576E+03 -0.11604075453E+03 -0.67972282925E+03  0.73335092983E+03  0.00000000000E+00 0.  1.
         13    1    5    5    0    0  0.43579706711E+02 -0.26652519323E+03  0.21103856190E+03  0.34274209556E+03  0.00000000000E+00 0. -1.
        -13    1    5    5    0    0 -0.20952515508E+02 -0.16145238245E+02  0.14100460172E+02  0.29974982922E+02  0.00000000000E+00 0.  1.
          1    1    6    6  503    0  0.58758330391E+03  0.39374930216E+03  0.34007173638E+03  0.78481936640E+03  0.00000000000E+00 0. -1.
         -1    1    6    6    0  503  0.89450355750E+02  0.10492392163E+03  0.84603165271E+02  0.16176554345E+03  0.00000000000E+00 0.  1.
<mgrwt>
<rscale>  0 0.31275381E+04</rscale>
<asrwt>0</asrwt>
<pdfrwt beam="1">  1        2 0.35733157E+00 0.31275381E+04</pdfrwt>
<pdfrwt beam="2">  1       -1 0.16197468E+00 0.31275381E+04</pdfrwt>
<totfact> 0.11966084E+00</totfact>
</mgrwt>
</event>
<event>
12    7  0.1605494E-007  0.1292523E+04  0.7818608E-02  0.9035516E-01
          2   -1    0    0  501    0  0.00000000000E+00  0.00000000000E+00  0.31573018597E+04  0.31573018597E+04  0.00000000000E+00 0. -1.
         -1   -1    0    0    0  501 -0.00000000000E+00 -0.00000000000E+00 -0.13228183827E+03  0.13228183827E+03  0.00000000000E+00 0.  1.
         24    2    1    2    0    0 -0.13127660630E+03 -0.22800093883E+03  0.18581461467E+03  0.33171930500E+03  0.79326230306E+02 0.  0.
        254    2    1    2    0    0  0.13127660630E+03  0.22800093883E+03  0.28392054068E+04  0.29578643930E+04  0.78654716961E+03 0.  0.
         23    2    4    4    0    0  0.22911165708E+03 -0.17686710739E+03  0.53804998722E+03  0.61756882918E+03  0.90107407811E+02 0.  0.
         23    2    4    4    0    0 -0.97835050780E+02  0.40486804622E+03  0.23011554196E+04  0.23402955638E+04  0.90428032454E+02 0.  0.
          2    1    3    3  502    0 -0.47697756601E+02 -0.79515082446E+02  0.11364697980E+03  0.14667433429E+03  0.00000000000E+00 0. -1.
         -1    1    3    3    0  502 -0.83578849699E+02 -0.14848585638E+03  0.72167634876E+02  0.18504497071E+03  0.00000000000E+00 0.  1.
         13    1    5    5    0    0  0.16453077561E+03 -0.11811598736E+03  0.45045798700E+03  0.49389691297E+03  0.00000000000E+00 0. -1.
        -13    1    5    5    0    0  0.64580881468E+02 -0.58751120026E+02  0.87592000218E+02  0.12367191620E+03  0.00000000000E+00 0.  1.
          1    1    6    6  503    0 -0.61730224109E+02  0.20557939695E+03  0.94291024748E+03  0.96703321754E+03  0.00000000000E+00 0. -1.
         -1    1    6    6    0  503 -0.36104826671E+02  0.19928864927E+03  0.13582451721E+04  0.13732623463E+04  0.00000000000E+00 0.  1.
<mgrwt>
<rscale>  0 0.12925226E+04</rscale>
<asrwt>0</asrwt>
<pdfrwt beam="1">  1        2 0.48573869E+00 0.12925226E+04</pdfrwt>
<pdfrwt beam="2">  1       -1 0.20351054E-01 0.12925226E+04</pdfrwt>
<totfact> 0.31114721E+01</totfact>
</mgrwt>
</event>
<event>
12    7  0.1605494E-007  0.2714062E+04  0.7818608E-02  0.8330457E-01
          2   -1    0    0  501    0  0.00000000000E+00  0.00000000000E+00  0.99957194656E+03  0.99957194656E+03  0.00000000000E+00 0. -1.
         -1   -1    0    0    0  501 -0.00000000000E+00 -0.00000000000E+00 -0.18423220664E+04  0.18423220664E+04  0.00000000000E+00 0.  1.
         24    2    1    2    0    0  0.83650925182E+03 -0.16184497794E+03  0.51903531773E+03  0.10008665798E+04  0.79967019323E+02 0.  0.
        254    2    1    2    0    0 -0.83650925182E+03  0.16184497794E+03 -0.13617854375E+04  0.18410274332E+04  0.89943365875E+03 0.  0.
         23    2    4    4    0    0 -0.60897712232E+03  0.50594823181E+03 -0.72830656105E+03  0.10797004725E+04  0.92119024589E+02 0.  0.
         23    2    4    4    0    0 -0.22753212950E+03 -0.34410325387E+03 -0.63347887649E+03  0.76132696065E+03  0.90251508452E+02 0.  0.
          2    1    3    3  502    0  0.35599170532E+03 -0.31914381944E+02  0.23504392519E+03  0.42777829398E+03  0.00000000000E+00 0. -1.
         -1    1    3    3    0  502  0.48051754650E+03 -0.12993059599E+03  0.28399139254E+03  0.57308828579E+03  0.00000000000E+00 0.  1.
         13    1    5    5    0    0 -0.97415296821E+02  0.10327640910E+03 -0.90842546792E+02  0.16854710036E+03  0.00000000000E+00 0. -1.
        -13    1    5    5    0    0 -0.51156182550E+03  0.40267182271E+03 -0.63746401426E+03  0.91115337215E+03  0.00000000000E+00 0.  1.
          1    1    6    6  503    0 -0.61199694972E+02 -0.10459544209E+03 -0.11833339336E+03  0.16937650709E+03  0.00000000000E+00 0. -1.
         -1    1    6    6    0  503 -0.16633243453E+03 -0.23950781178E+03 -0.51514548313E+03  0.59195045356E+03  0.00000000000E+00 0.  1.
<mgrwt>
<rscale>  0 0.27140622E+04</rscale>
<asrwt>0</asrwt>
<pdfrwt beam="1">  1        2 0.15378030E+00 0.27140622E+04</pdfrwt>
<pdfrwt beam="2">  1       -1 0.28343416E+00 0.27140622E+04</pdfrwt>
<totfact> 0.10645407E+00</totfact>
</mgrwt>
</event>
<event>
12    7  0.1846035E-007  0.2227146E+04  0.7818608E-02  0.8507214E-01
         -1   -1    0    0    0  501 -0.00000000000E+00  0.00000000000E+00  0.51344561449E+03  0.51344561449E+03  0.00000000000E+00 0.  1.
          2   -1    0    0  501    0  0.00000000000E+00 -0.00000000000E+00 -0.24151435383E+04  0.24151435383E+04  0.00000000000E+00 0. -1.
         24    2    1    2    0    0  0.14973327518E+03  0.90104563420E+03 -0.59698393789E+03  0.10941482134E+04  0.80418916819E+02 0.  0.
        254    2    1    2    0    0 -0.14973327518E+03 -0.90104563420E+03 -0.13047139859E+04  0.18344409394E+04  0.91027011728E+03 0.  0.
         23    2    4    4    0    0 -0.77372509338E+02 -0.86541731711E+03 -0.14194445796E+04  0.16668033386E+04  0.92069631117E+02 0.  0.
         23    2    4    4    0    0 -0.72360765839E+02 -0.35628317095E+02  0.11473059374E+03  0.16763760076E+03  0.91835715473E+02 0.  0.
          4    1    3    3  502    0  0.68239582933E+01  0.19025606656E+03 -0.98968139219E+02  0.21456614330E+03  0.00000000000E+00 0. -1.
         -3    1    3    3    0  502  0.14290931688E+03  0.71078956764E+03 -0.49801579867E+03  0.87958207010E+03  0.00000000000E+00 0.  1.
         13    1    5    5    0    0  0.94082202530E+01 -0.10022455396E+03 -0.21192493077E+03  0.23461809843E+03  0.00000000000E+00 0.  1.
        -13    1    5    5    0    0 -0.86780729591E+02 -0.76519276315E+03 -0.12075196488E+04  0.14321852402E+04  0.00000000000E+00 0. -1.
          2    1    6    6  503    0 -0.65744181248E+02 -0.12270213005E+02  0.12461325216E+03  0.14142601638E+03  0.00000000000E+00 0. -1.
         -2    1    6    6    0  503 -0.66165845915E+01 -0.23358104090E+02 -0.98826584180E+01  0.26211584381E+02  0.00000000000E+00 0.  1.
<mgrwt>
<rscale>  0 0.22271460E+04</rscale>
<asrwt>0</asrwt>
<pdfrwt beam="1">  1        2 0.37156054E+00 0.22271460E+04</pdfrwt>
<pdfrwt beam="2">  1       -1 0.78991634E-01 0.22271460E+04</pdfrwt>
<totfact> 0.64808694E+00</totfact>
</mgrwt>
</event>
<event>
12    7  0.1605494E-007  0.2436075E+04  0.7818608E-02  0.8426120E-01
          2   -1    0    0  501    0  0.00000000000E+00  0.00000000000E+00  0.31218752566E+04  0.31218752566E+04  0.00000000000E+00 0. -1.
         -1   -1    0    0    0  501 -0.00000000000E+00 -0.00000000000E+00 -0.47523203138E+03  0.47523203138E+03  0.00000000000E+00 0.  1.
         24    2    1    2    0    0  0.83957196724E+03 -0.52036015135E+02  0.17620363245E+03  0.86326462512E+03  0.81174243823E+02 0.  0.
        254    2    1    2    0    0 -0.83957196724E+03  0.52036015135E+02  0.24704395927E+04  0.27338426628E+04  0.81439246600E+03 0.  0.
         23    2    4    4    0    0 -0.54477359095E+03  0.41301282856E+03  0.13394064823E+04  0.15065057373E+04  0.90509389720E+02 0.  0.
         23    2    4    4    0    0 -0.29479837629E+03 -0.36097681342E+03  0.11310331104E+04  0.12273369256E+04  0.99547423165E+02 0.  0.
          2    1    3    3  502    0  0.27556345521E+03 -0.47321429693E+02  0.82425336395E+02  0.29149351903E+03  0.00000000000E+00 0. -1.
         -1    1    3    3    0  502  0.56400851203E+03 -0.47145854421E+01  0.93778296051E+02  0.57177110610E+03  0.00000000000E+00 0.  1.
         13    1    5    5    0    0 -0.50304664221E+03  0.37852385649E+03  0.11694751199E+04  0.13281597382E+04  0.00000000000E+00 0.  1.
        -13    1    5    5    0    0 -0.41726948741E+02  0.34488972069E+02  0.16993136244E+03  0.17834599907E+03  0.00000000000E+00 0. -1.
          4    1    6    6  503    0 -0.14470865789E+03 -0.10149918643E+03  0.41048881130E+03  0.44692700156E+03  0.00000000000E+00 0. -1.
         -4    1    6    6    0  503 -0.15008971840E+03 -0.25947762699E+03  0.72054429913E+03  0.78040992401E+03  0.00000000000E+00 0.  1.
<mgrwt>
<rscale>  0 0.24360748E+04</rscale>
<asrwt>0</asrwt>
<pdfrwt beam="1">  1        2 0.48028849E+00 0.24360748E+04</pdfrwt>
<pdfrwt beam="2">  1       -1 0.73112622E-01 0.24360748E+04</pdfrwt>
<totfact> 0.28033116E+00</totfact>
</mgrwt>
</event>
<event>
12    7  0.1605494E-007  0.1118170E+04  0.7818608E-02  0.9187661E-01
         -1   -1    0    0    0  501 -0.00000000000E+00  0.00000000000E+00  0.13030879397E+03  0.13030879397E+03  0.00000000000E+00 0.  1.
          2   -1    0    0  501    0  0.00000000000E+00 -0.00000000000E+00 -0.23987315513E+04  0.23987315513E+04  0.00000000000E+00 0. -1.
         24    2    1    2    0    0 -0.17160809187E+03  0.10212333741E+03 -0.50313672568E+03  0.54708056845E+03  0.79196404029E+02 0.  0.
        254    2    1    2    0    0  0.17160809187E+03 -0.10212333741E+03 -0.17652860317E+04  0.19819597768E+04  0.87866448098E+03 0.  0.
         23    2    4    4    0    0  0.25824896512E+03 -0.25902818191E+02 -0.74989946609E+02  0.28569162347E+03  0.92912473070E+02 0.  0.
         23    2    4    4    0    0 -0.86640873251E+02 -0.76220519219E+02 -0.16902960851E+04  0.16962681534E+04  0.83117894911E+02 0.  0.
          4    1    3    3  502    0 -0.13420824552E+03  0.95530341274E+02 -0.46475090102E+03  0.49308346075E+03  0.00000000000E+00 0. -1.
         -1    1    3    3    0  502 -0.37399846351E+02  0.65929961353E+01 -0.38385824662E+02  0.53997107701E+02  0.00000000000E+00 0.  1.
         13    1    5    5    0    0  0.21584424428E+03 -0.56462848643E+02 -0.55497020658E+02  0.22990587284E+03  0.00000000000E+00 0.  1.
        -13    1    5    5    0    0  0.42404720843E+02  0.30560030453E+02 -0.19492925950E+02  0.55785750628E+02  0.00000000000E+00 0. -1.
          2    1    6    6  503    0 -0.84592431149E+02 -0.76133404155E+02 -0.10820395621E+04  0.10880081749E+04  0.00000000000E+00 0. -1.
         -2    1    6    6    0  503 -0.20484421021E+01 -0.87115063676E-01 -0.60825652297E+03  0.60825997849E+03  0.00000000000E+00 0.  1.
<mgrwt>
<rscale>  0 0.11181696E+04</rscale>
<asrwt>0</asrwt>
<pdfrwt beam="1">  1        2 0.36903558E+00 0.11181696E+04</pdfrwt>
<pdfrwt beam="2">  1       -1 0.20047509E-01 0.11181696E+04</pdfrwt>
<totfact> 0.92274948E+01</totfact>
</mgrwt>
</event>
<event>
12    7  0.1605494E-007  0.2789906E+04  0.7818608E-02  0.8306409E-01
          2   -1    0    0  501    0  0.00000000000E+00  0.00000000000E+00  0.32346309507E+04  0.32346309507E+04  0.00000000000E+00 0. -1.
         -1   -1    0    0    0  501 -0.00000000000E+00 -0.00000000000E+00 -0.60158161467E+03  0.60158161467E+03  0.00000000000E+00 0.  1.
         24    2    1    2    0    0 -0.28930752900E+03 -0.65863054338E+03 -0.20057394127E+03  0.75111567501E+03  0.80323174246E+02 0.  0.
        254    2    1    2    0    0  0.28930752900E+03  0.65863054338E+03  0.28336232773E+04  0.30850968903E+04  0.98534709934E+03 0.  0.
         23    2    4    4    0    0  0.22635055514E+03  0.73035558428E+03  0.10785814745E+04  0.13252640749E+04  0.91285364351E+02 0.  0.
         23    2    4    4    0    0  0.62956973863E+02 -0.71725040895E+02  0.17550418028E+04  0.17598328154E+04  0.87930351973E+02 0.  0.
          2    1    3    3  502    0 -0.71661810716E+01 -0.64001622739E+02 -0.30879353297E+02  0.71421959679E+02  0.00000000000E+00 0. -1.
         -1    1    3    3    0  502 -0.28214134793E+03 -0.59462892064E+03 -0.16969458797E+03  0.67969371533E+03  0.00000000000E+00 0.  1.
         13    1    5    5    0    0  0.92789816447E+02  0.24740663318E+03  0.44433032856E+03  0.51696173269E+03  0.00000000000E+00 0. -1.
        -13    1    5    5    0    0  0.13356073869E+03  0.48294895109E+03  0.63425114597E+03  0.80830234223E+03  0.00000000000E+00 0.  1.
          2    1    6    6  503    0  0.75223688114E+01 -0.64090371703E+02  0.60528814124E+03  0.60871823999E+03  0.00000000000E+00 0. -1.
         -2    1    6    6    0  503  0.55434605052E+02 -0.76346691927E+01  0.11497536615E+04  0.11511145754E+04  0.00000000000E+00 0.  1.
<mgrwt>
<rscale>  0 0.27899065E+04</rscale>
<asrwt>0</asrwt>
<pdfrwt beam="1">  1        2 0.49763552E+00 0.27899065E+04</pdfrwt>
<pdfrwt beam="2">  1       -1 0.92551019E-01 0.27899065E+04</pdfrwt>
<totfact> 0.13824337E+00</totfact>
</mgrwt>
</event>
<event>
12    7  0.1605494E-007  0.1504649E+04  0.7818608E-02  0.8881367E-01
         -3   -1    0    0    0  501 -0.00000000000E+00  0.00000000000E+00  0.10857375626E+04  0.10857375626E+04  0.00000000000E+00 0.  1.
          4   -1    0    0  501    0  0.00000000000E+00 -0.00000000000E+00 -0.52129744399E+03  0.52129744399E+03  0.00000000000E+00 0. -1.
         24    2    1    2    0    0  0.24600412224E+02  0.45481458068E+03  0.32642572192E+03  0.56624652761E+03  0.81362737303E+02 0.  0.
        254    2    1    2    0    0 -0.24600412224E+02 -0.45481458068E+03  0.23801439667E+03  0.10407884790E+04  0.90505708207E+03 0.  0.
         23    2    4    4    0    0  0.17624211997E+03 -0.61319253346E+03 -0.48231966615E+02  0.64645378762E+03  0.92248625868E+02 0.  0.
         23    2    4    4    0    0 -0.20084253219E+03  0.15837795278E+03  0.28624636328E+03  0.39433469134E+03  0.90230646859E+02 0.  0.
          2    1    3    3  502    0  0.19118800343E+02  0.14997901629E+03  0.15475704850E+03  0.21635382575E+03  0.00000000000E+00 0. -1.
         -1    1    3    3    0  502  0.54816118808E+01  0.30483556439E+03  0.17166867342E+03  0.34989270187E+03  0.00000000000E+00 0.  1.
         13    1    5    5    0    0  0.54826900678E+02 -0.31147711851E+03  0.81660624738E+01  0.31637109376E+03  0.00000000000E+00 0. -1.
        -13    1    5    5    0    0  0.12141521929E+03 -0.30171541495E+03 -0.56398029089E+02  0.33008269385E+03  0.00000000000E+00 0.  1.
          1    1    6    6  503    0 -0.75847232869E+02  0.87293734147E+02  0.71726061875E+02  0.13607948672E+03  0.00000000000E+00 0. -1.
         -1    1    6    6    0  503 -0.12499529933E+03  0.71084218633E+02  0.21452030141E+03  0.25825520461E+03  0.00000000000E+00 0.  1.
<mgrwt>
<rscale>  0 0.15046491E+04</rscale>
<asrwt>0</asrwt>
<pdfrwt beam="1">  1        4 0.80199607E-01 0.15046491E+04</pdfrwt>
<pdfrwt beam="2">  1       -3 0.16703655E+00 0.15046491E+04</pdfrwt>
<totfact> 0.73999962E-01</totfact>
</mgrwt>
</event>
<event>
12    7  0.1605494E-007  0.1565844E+04  0.7818608E-02  0.8841810E-01
         -1   -1    0    0    0  501 -0.00000000000E+00  0.00000000000E+00  0.55472141653E+03  0.55472141653E+03  0.00000000000E+00 0.  1.
          2   -1    0    0  501    0  0.00000000000E+00 -0.00000000000E+00 -0.11049997403E+04  0.11049997403E+04  0.00000000000E+00 0. -1.
         24    2    1    2    0    0  0.29032983973E+03  0.11463751716E+03  0.24491824498E+03  0.40951777628E+03  0.10142330202E+03 0.  0.
        254    2    1    2    0    0 -0.29032983973E+03 -0.11463751716E+03 -0.79519656870E+03  0.12502033805E+04  0.91281856553E+03 0.  0.
         23    2    4    4    0    0 -0.27865721612E+03 -0.42986892012E+03 -0.17931584915E+03  0.55112002007E+03  0.95613650635E+02 0.  0.
         23    2    4    4    0    0 -0.11672623608E+02  0.31523140296E+03 -0.61588071955E+03  0.69908336043E+03  0.99505761470E+02 0.  0.
          4    1    3    3  502    0  0.13468988249E+03  0.15697127418E+01  0.84278755593E+02  0.15889221846E+03  0.00000000000E+00 0. -1.
         -3    1    3    3    0  502  0.15563995724E+03  0.11306780442E+03  0.16063948939E+03  0.25062555783E+03  0.00000000000E+00 0.  1.
         13    1    5    5    0    0 -0.22680179827E+03 -0.39690946873E+03 -0.13968502634E+03  0.47800427681E+03  0.00000000000E+00 0. -1.
        -13    1    5    5    0    0 -0.51855417846E+02 -0.32959451396E+02 -0.39630822817E+02  0.73115743267E+02  0.00000000000E+00 0.  1.
          3    1    6    6  503    0 -0.42288093946E+02  0.25420176081E+03 -0.53034753160E+03  0.58963999387E+03  0.00000000000E+00 0. -1.
         -3    1    6    6    0  503  0.30615470339E+02  0.61029642150E+02 -0.85533187945E+02  0.10944336656E+03  0.00000000000E+00 0.  1.
<mgrwt>
<rscale>  0 0.15658442E+04</rscale>
<asrwt>0</asrwt>
<pdfrwt beam="1">  1        2 0.16999996E+00 0.15658442E+04</pdfrwt>
<pdfrwt beam="2">  1       -1 0.85341757E-01 0.15658442E+04</pdfrwt>
<totfact> 0.32199563E+01</totfact>
</mgrwt>
</event>
<event>
12    7  0.1605494E-007  0.2594729E+04  0.7818608E-02  0.8369994E-01
          2   -1    0    0  501    0  0.00000000000E+00  0.00000000000E+00  0.25492254731E+04  0.25492254731E+04  0.00000000000E+00 0. -1.
         -1   -1    0    0    0  501 -0.00000000000E+00 -0.00000000000E+00 -0.66026111943E+03  0.66026111943E+03  0.00000000000E+00 0.  1.
         24    2    1    2    0    0  0.86912812759E+03  0.31418074973E+03  0.19506745427E+02  0.92772126910E+03  0.78695580314E+02 0.  0.
        254    2    1    2    0    0 -0.86912812759E+03 -0.31418074973E+03  0.18694576083E+04  0.22817653235E+04  0.92600647760E+03 0.  0.
         23    2    4    4    0    0 -0.97072814719E+02 -0.34308868915E+03  0.12011252901E+04  0.12562192886E+04  0.90840291285E+02 0.  0.
         23    2    4    4    0    0 -0.77205531287E+03  0.28907939413E+02  0.66833231813E+03  0.10255460348E+04  0.90396388348E+02 0.  0.
          4    1    3    3  502    0  0.13730952083E+03  0.38362992695E+02 -0.23396948225E+02  0.14447505288E+03  0.00000000000E+00 0. -1.
         -3    1    3    3    0  502  0.73181860676E+03  0.27581775704E+03  0.42903693652E+02  0.78324621622E+03  0.00000000000E+00 0.  1.
         13    1    5    5    0    0 -0.91682094779E+02 -0.34706021086E+03  0.11517802364E+04  0.12064220279E+04  0.00000000000E+00 0. -1.
        -13    1    5    5    0    0 -0.53907199397E+01  0.39715217128E+01  0.49345053708E+02  0.49797260684E+02  0.00000000000E+00 0.  1.
          4    1    6    6  503    0 -0.62095586140E+03  0.27937525258E+02  0.48788825249E+03  0.79019088456E+03  0.00000000000E+00 0. -1.
         -4    1    6    6    0  503 -0.15109945147E+03  0.97041415493E+00  0.18044406564E+03  0.23535515028E+03  0.00000000000E+00 0.  1.
<mgrwt>
<rscale>  0 0.25947289E+04</rscale>
<asrwt>0</asrwt>
<pdfrwt beam="1">  1        2 0.39218853E+00 0.25947289E+04</pdfrwt>
<pdfrwt beam="2">  1       -1 0.10157864E+00 0.25947289E+04</pdfrwt>
<totfact> 0.30144515E+00</totfact>
</mgrwt>
</event>
<event>
12    7  0.1605494E-007  0.1773014E+04  0.7818608E-02  0.8720783E-01
         -1   -1    0    0    0  501 -0.00000000000E+00  0.00000000000E+00  0.46286388988E+03  0.46286388988E+03  0.00000000000E+00 0.  1.
          2   -1    0    0  501    0  0.00000000000E+00 -0.00000000000E+00 -0.16978958857E+04  0.16978958857E+04  0.00000000000E+00 0. -1.
         24    2    1    2    0    0 -0.19149304645E+03  0.39490297898E+03  0.13189945001E+03  0.46513263192E+03  0.79579838672E+02 0.  0.
        254    2    1    2    0    0  0.19149304645E+03 -0.39490297898E+03 -0.13669314458E+04  0.16956271436E+04  0.90223715456E+03 0.  0.
         23    2    4    4    0    0  0.31875579880E+03  0.19967098486E+03 -0.56435489692E+03  0.68451409036E+03  0.92678631562E+02 0.  0.
         23    2    4    4    0    0 -0.12726275236E+03 -0.59457396384E+03 -0.80257654887E+03  0.10111130533E+04  0.92230597337E+02 0.  0.
          2    1    3    3  502    0 -0.66176975783E+02  0.82447889450E+02  0.66186081528E+01  0.10592852577E+03  0.00000000000E+00 0. -1.
         -1    1    3    3    0  502 -0.12531607067E+03  0.31245508953E+03  0.12528084185E+03  0.35920410615E+03  0.00000000000E+00 0.  1.
         13    1    5    5    0    0 -0.28401599014E+01  0.17551645425E+02 -0.27271271703E+02  0.32555322540E+02  0.00000000000E+00 0. -1.
        -13    1    5    5    0    0  0.32159595871E+03  0.18211933944E+03 -0.53708362522E+03  0.65195876782E+03  0.00000000000E+00 0.  1.
          4    1    6    6  503    0  0.46222326980E+01 -0.14247005977E+03 -0.15765469439E+03  0.21254196204E+03  0.00000000000E+00 0. -1.
         -4    1    6    6    0  503 -0.13188498505E+03 -0.45210390407E+03 -0.64492185448E+03  0.79857109123E+03  0.00000000000E+00 0.  1.
<mgrwt>
<rscale>  0 0.17730140E+04</rscale>
<asrwt>0</asrwt>
<pdfrwt beam="1">  1        2 0.26121475E+00 0.17730140E+04</pdfrwt>
<pdfrwt beam="2">  1       -1 0.71209829E-01 0.17730140E+04</pdfrwt>
<totfact> 0.21105383E+01</totfact>
</mgrwt>
</event>
<event>
12    7  0.1605494E-007  0.1255592E+04  0.7818608E-02  0.9065542E-01
         -1   -1    0    0    0  501 -0.00000000000E+00  0.00000000000E+00  0.19852748556E+03  0.19852748556E+03  0.00000000000E+00 0.  1.
          2   -1    0    0  501    0  0.00000000000E+00 -0.00000000000E+00 -0.19852558979E+04  0.19852558979E+04  0.00000000000E+00 0. -1.
         24    2    1    2    0    0 -0.88173743109E+01 -0.79148927222E+01 -0.95408398480E+03  0.95742465457E+03  0.79027384504E+02 0.  0.
        254    2    1    2    0    0  0.88173743109E+01  0.79148927222E+01 -0.83264442758E+03  0.12263587289E+04  0.90028806370E+03 0.  0.
         23    2    4    4    0    0  0.37952665174E+03  0.62421900749E+01 -0.73657839290E+03  0.83282298580E+03  0.83468272206E+02 0.  0.
         23    2    4    4    0    0 -0.37070927743E+03  0.16727026473E+01 -0.96066034683E+02  0.39353574314E+03  0.90628537441E+02 0.  0.
          4    1    3    3  502    0 -0.16088301783E+02 -0.26638675506E+00 -0.93829915217E+03  0.93843710678E+03  0.00000000000E+00 0. -1.
         -3    1    3    3    0  502  0.72709274719E+01 -0.76485059671E+01 -0.15784832635E+02  0.18987547792E+02  0.00000000000E+00 0.  1.
         13    1    5    5    0    0  0.28388428662E+03 -0.29102027778E+02 -0.57163001725E+03  0.63890382127E+03  0.00000000000E+00 0.  1.
        -13    1    5    5    0    0  0.95642365122E+02  0.35344217853E+02 -0.16494837565E+03  0.19391916453E+03  0.00000000000E+00 0. -1.
          1    1    6    6  503    0 -0.18592020658E+03 -0.43258341714E+02 -0.58881153147E+02  0.19976135147E+03  0.00000000000E+00 0. -1.
         -1    1    6    6    0  503 -0.18478907085E+03  0.44931044361E+02 -0.37184881536E+02  0.19377439167E+03  0.00000000000E+00 0.  1.
<mgrwt>
<rscale>  0 0.12555921E+04</rscale>
<asrwt>0</asrwt>
<pdfrwt beam="1">  1        2 0.30542399E+00 0.12555921E+04</pdfrwt>
<pdfrwt beam="2">  1       -1 0.30542689E-01 0.12555921E+04</pdfrwt>
<totfact> 0.75463076E+01</totfact>
</mgrwt>
</event>
<event>
12    7  0.1605494E-007  0.1076041E+04  0.7818608E-02  0.9228864E-01
         -3   -1    0    0    0  501 -0.00000000000E+00  0.00000000000E+00  0.18871427405E+03  0.18871427405E+03  0.00000000000E+00 0.  1.
          2   -1    0    0  501    0  0.00000000000E+00 -0.00000000000E+00 -0.15338842474E+04  0.15338842474E+04  0.00000000000E+00 0. -1.
         24    2    1    2    0    0 -0.12966034075E+03 -0.59686713782E+02 -0.29000496055E+03  0.33286404798E+03  0.79506537624E+02 0.  0.
        254    2    1    2    0    0  0.12966034075E+03  0.59686713782E+02 -0.10551650128E+04  0.13897344735E+04  0.89309260145E+03 0.  0.
         23    2    4    4    0    0 -0.27694279229E+03 -0.19633961687E+03 -0.20119049591E+03  0.40560536348E+03  0.93763211787E+02 0.  0.
         23    2    4    4    0    0  0.40660313303E+03  0.25602633065E+03 -0.85397451686E+03  0.98412910997E+03  0.91444189965E+02 0.  0.
          2    1    3    3  502    0 -0.96243457336E+02 -0.39697249877E+02 -0.26938402226E+03  0.28880170737E+03  0.00000000000E+00 0. -1.
         -1    1    3    3    0  502 -0.33416883409E+02 -0.19989463904E+02 -0.20620938293E+02  0.44062340610E+02  0.00000000000E+00 0.  1.
         13    1    5    5    0    0 -0.79683367331E+02 -0.47145379155E+02 -0.10562288713E+03  0.14045753839E+03  0.00000000000E+00 0. -1.
        -13    1    5    5    0    0 -0.19725942496E+03 -0.14919423772E+03 -0.95567608786E+02  0.26514782509E+03  0.00000000000E+00 0.  1.
          3    1    6    6  503    0  0.12845723468E+03  0.59710495148E+02 -0.18006915662E+03  0.22911024756E+03  0.00000000000E+00 0. -1.
         -3    1    6    6    0  503  0.27814589835E+03  0.19631583551E+03 -0.67390536024E+03  0.75501886241E+03  0.00000000000E+00 0.  1.
<mgrwt>
<rscale>  0 0.10760406E+04</rscale>
<asrwt>0</asrwt>
<pdfrwt beam="1">  1        2 0.23598220E+00 0.10760406E+04</pdfrwt>
<pdfrwt beam="2">  1       -3 0.29032964E-01 0.10760406E+04</pdfrwt>
<totfact> 0.89818985E+01</totfact>
</mgrwt>
</event>
<event>
12    7  0.1605494E-007  0.2235538E+04  0.7818608E-02  0.8503780E-01
         -1   -1    0    0    0  501 -0.00000000000E+00  0.00000000000E+00  0.83283797764E+03  0.83283797764E+03  0.00000000000E+00 0.  1.
          2   -1    0    0  501    0  0.00000000000E+00 -0.00000000000E+00 -0.15001809312E+04  0.15001809312E+04  0.00000000000E+00 0. -1.
         24    2    1    2    0    0 -0.50168281014E+03 -0.60340212680E+03  0.25070506280E+03  0.82760127351E+03  0.79316270607E+02 0.  0.
        254    2    1    2    0    0  0.50168281014E+03  0.60340212680E+03 -0.91804801633E+03  0.15054176353E+04  0.89871593273E+03 0.  0.
         23    2    4    4    0    0  0.63551151780E+03  0.95407326859E+02 -0.40020135285E+03  0.76201690806E+03  0.86782475591E+02 0.  0.
         23    2    4    4    0    0 -0.13382870766E+03  0.50799479994E+03 -0.51784666348E+03  0.74340072723E+03  0.92253100834E+02 0.  0.
          2    1    3    3  502    0 -0.21305951956E+03 -0.20768351573E+03  0.71054328862E+02  0.30590115925E+03  0.00000000000E+00 0. -1.
         -1    1    3    3    0  502 -0.28862329058E+03 -0.39571861107E+03  0.17965073394E+03  0.52170011426E+03  0.00000000000E+00 0.  1.
         13    1    5    5    0    0  0.52705442431E+03  0.46178942394E+02 -0.31778055498E+03  0.61717367250E+03  0.00000000000E+00 0. -1.
        -13    1    5    5    0    0  0.10845709349E+03  0.49228384464E+02 -0.82420797871E+02  0.14484323556E+03  0.00000000000E+00 0.  1.
          1    1    6    6  503    0 -0.40132969484E+02  0.30458169011E+03 -0.33246422987E+03  0.45267330972E+03  0.00000000000E+00 0. -1.
         -1    1    6    6    0  503 -0.93695738173E+02  0.20341310983E+03 -0.18538243361E+03  0.29072741751E+03  0.00000000000E+00 0.  1.
<mgrwt>
<rscale>  0 0.22355381E+04</rscale>
<asrwt>0</asrwt>
<pdfrwt beam="1">  1        2 0.23079707E+00 0.22355381E+04</pdfrwt>
<pdfrwt beam="2">  1       -1 0.12812892E+00 0.22355381E+04</pdfrwt>
<totfact> 0.69313777E+00</totfact>
</mgrwt>
</event>
<event>
12    7  0.1605494E-007  0.1664656E+04  0.7818608E-02  0.8781783E-01
         -1   -1    0    0    0  501 -0.00000000000E+00  0.00000000000E+00  0.71062760983E+03  0.71062760983E+03  0.00000000000E+00 0.  1.
          2   -1    0    0  501    0  0.00000000000E+00 -0.00000000000E+00 -0.97487082126E+03  0.97487082126E+03  0.00000000000E+00 0. -1.
         24    2    1    2    0    0 -0.53835125195E+03  0.16696524463E+03 -0.23315924249E+03  0.61539857796E+03  0.81564171030E+02 0.  0.
        254    2    1    2    0    0  0.53835125195E+03 -0.16696524463E+03 -0.31083968944E+02  0.10700998531E+04  0.90909186509E+03 0.  0.
         23    2    4    4    0    0  0.10644173544E+03 -0.40856234959E+03  0.24398550154E+03  0.49613440133E+03  0.91473398743E+02 0.  0.
         23    2    4    4    0    0  0.43190951652E+03  0.24159710496E+03 -0.27506947048E+03  0.57396545181E+03  0.94117664070E+02 0.  0.
          4    1    3    3  502    0 -0.18693052819E+03  0.25630108919E+02 -0.10247149871E+03  0.21470988077E+03  0.00000000000E+00 0. -1.
         -3    1    3    3    0  502 -0.35142072376E+03  0.14133513571E+03 -0.13068774378E+03  0.40068869718E+03  0.00000000000E+00 0.  1.
         13    1    5    5    0    0  0.40671377231E+02 -0.19805223436E+03  0.16797450129E+03  0.26285791132E+03  0.00000000000E+00 0.  1.
        -13    1    5    5    0    0  0.65770358206E+02 -0.21051011523E+03  0.76011000251E+02  0.23327649001E+03  0.00000000000E+00 0. -1.
          3    1    6    6  503    0  0.34464354103E+03  0.23078939628E+03 -0.21252078870E+03  0.46605579220E+03  0.00000000000E+00 0. -1.
         -3    1    6    6    0  503  0.87265975484E+02  0.10807708685E+02 -0.62548681781E+02  0.10790965961E+03  0.00000000000E+00 0.  1.
<mgrwt>
<rscale>  0 0.16646563E+04</rscale>
<asrwt>0</asrwt>
<pdfrwt beam="1">  1        2 0.14998013E+00 0.16646563E+04</pdfrwt>
<pdfrwt beam="2">  1       -1 0.10932732E+00 0.16646563E+04</pdfrwt>
<totfact> 0.22049670E+01</totfact>
</mgrwt>
</event>
<event>
12    7  0.1605494E-007  0.1386743E+04  0.7818608E-02  0.8963471E-01
          2   -1    0    0  501    0  0.00000000000E+00  0.00000000000E+00  0.24723264298E+04  0.24723264298E+04  0.00000000000E+00 0. -1.
         -1   -1    0    0    0  501 -0.00000000000E+00 -0.00000000000E+00 -0.19445814460E+03  0.19445814460E+03  0.00000000000E+00 0.  1.
         24    2    1    2    0    0 -0.31411789103E+03 -0.45566357300E+02  0.20985416074E+03  0.38876812021E+03  0.79721641527E+02 0.  0.
        254    2    1    2    0    0  0.31411789103E+03  0.45566357300E+02  0.20680141244E+04  0.22780164542E+04  0.90107169759E+03 0.  0.
         23    2    4    4    0    0 -0.25902326760E+03 -0.16956721171E+03  0.54052063207E+03  0.62983741489E+03  0.93201518517E+02 0.  0.
         23    2    4    4    0    0  0.57314115863E+03  0.21513356901E+03  0.15274934924E+04  0.16481790393E+04  0.92111541381E+02 0.  0.
          2    1    3    3  502    0 -0.20771499032E+02 -0.95104061554E+01  0.44702402006E+02  0.50201670713E+02  0.00000000000E+00 0. -1.
         -1    1    3    3    0  502 -0.29334639200E+03 -0.36055951144E+02  0.16515175874E+03  0.33856644949E+03  0.00000000000E+00 0.  1.
         13    1    5    5    0    0 -0.25575175465E+02  0.73519029736E+01  0.77532362913E+02  0.81971991413E+02  0.00000000000E+00 0. -1.
        -13    1    5    5    0    0 -0.23344809214E+03 -0.17691911468E+03  0.46298826916E+03  0.54786542348E+03  0.00000000000E+00 0.  1.
          4    1    6    6  503    0  0.19675860652E+03  0.29589529499E+02  0.46154937836E+03  0.50261050343E+03  0.00000000000E+00 0. -1.
         -4    1    6    6    0  503  0.37638255211E+03  0.18554403951E+03  0.10659441140E+04  0.11455685358E+04  0.00000000000E+00 0.  1.
<mgrwt>
<rscale>  0 0.13867430E+04</rscale>
<asrwt>0</asrwt>
<pdfrwt beam="1">  1        2 0.38035789E+00 0.13867430E+04</pdfrwt>
<pdfrwt beam="2">  1       -1 0.29916639E-01 0.13867430E+04</pdfrwt>
<totfact> 0.41242267E+01</totfact>
</mgrwt>
</event>
<event>
12    7  0.1605494E-007  0.2007595E+04  0.7818608E-02  0.8603078E-01
          2   -1    0    0  501    0  0.00000000000E+00  0.00000000000E+00  0.13875930823E+04  0.13875930823E+04  0.00000000000E+00 0. -1.
         -1   -1    0    0    0  501 -0.00000000000E+00 -0.00000000000E+00 -0.72615614587E+03  0.72615614587E+03  0.00000000000E+00 0.  1.
         24    2    1    2    0    0  0.34962328938E+03 -0.19986528786E+03 -0.44975300044E+03  0.60897632241E+03  0.79948871699E+02 0.  0.
        254    2    1    2    0    0 -0.34962328938E+03  0.19986528786E+03  0.11111899368E+04  0.15047729057E+04  0.93135162228E+03 0.  0.
         23    2    4    4    0    0  0.16611261541E+03 -0.67644763172E+01  0.87397113233E+03  0.89371373951E+03  0.85202986381E+02 0.  0.
         23    2    4    4    0    0 -0.51573590480E+03  0.20662976418E+03  0.23721880450E+03  0.61105916622E+03  0.91875788270E+02 0.  0.
          4    1    3    3  502    0  0.12271869986E+03 -0.94966268639E+02 -0.12562799029E+03  0.19965185553E+03  0.00000000000E+00 0. -1.
         -3    1    3    3    0  502  0.22690458952E+03 -0.10489901922E+03 -0.32412501015E+03  0.40932446688E+03  0.00000000000E+00 0.  1.
         13    1    5    5    0    0  0.46889053539E+02  0.65030422342E+00  0.47323401408E+03  0.47555171992E+03  0.00000000000E+00 0. -1.
        -13    1    5    5    0    0  0.11922356188E+03 -0.74147805406E+01  0.40073711825E+03  0.41816201958E+03  0.00000000000E+00 0.  1.
          1    1    6    6  503    0 -0.25782997092E+03  0.14258505921E+03  0.94461136294E+02  0.30940216432E+03  0.00000000000E+00 0. -1.
         -1    1    6    6    0  503 -0.25790593388E+03  0.64044704961E+02  0.14275766820E+03  0.30165700190E+03  0.00000000000E+00 0.  1.
<mgrwt>
<rscale>  0 0.20075948E+04</rscale>
<asrwt>0</asrwt>
<pdfrwt beam="1">  1        2 0.21347586E+00 0.20075948E+04</pdfrwt>
<pdfrwt beam="2">  1       -1 0.11171633E+00 0.20075948E+04</pdfrwt>
<totfact> 0.11450902E+01</totfact>
</mgrwt>
</event>
<event>
12    7  0.1605494E-007  0.3383605E+04  0.7818608E-02  0.8141942E-01
         -1   -1    0    0    0  501 -0.00000000000E+00  0.00000000000E+00  0.82221906753E+03  0.82221906753E+03  0.00000000000E+00 0.  1.
          2   -1    0    0  501    0  0.00000000000E+00 -0.00000000000E+00 -0.34810619117E+04  0.34810619117E+04  0.00000000000E+00 0. -1.
         24    2    1    2    0    0  0.84794203346E+03  0.35359239131E+02 -0.29167881526E+04  0.30387961117E+04  0.79829277258E+02 0.  0.
        254    2    1    2    0    0 -0.84794203346E+03 -0.35359239131E+02  0.25794530841E+03  0.12644848675E+04  0.90118268414E+03 0.  0.
         23    2    4    4    0    0 -0.92708472400E+03  0.86861006752E+02 -0.22430588266E+02  0.93588781375E+03  0.91388996469E+02 0.  0.
         23    2    4    4    0    0  0.79142690537E+02 -0.12222024588E+03  0.28037589668E+03  0.32859705378E+03  0.90355001790E+02 0.  0.
          2    1    3    3  502    0  0.70545096269E+03  0.38582720559E+02 -0.25209930317E+04  0.26181206147E+04  0.00000000000E+00 0. -1.
         -1    1    3    3    0  502  0.14249107077E+03 -0.32234814279E+01 -0.39579512086E+03  0.42067549700E+03  0.00000000000E+00 0.  1.
         13    1    5    5    0    0 -0.88632774662E+03  0.97953688715E+02 -0.97190573260E+01  0.89177702350E+03  0.00000000000E+00 0. -1.
        -13    1    5    5    0    0 -0.40756977377E+02 -0.11092681963E+02 -0.12711530940E+02  0.44110790255E+02  0.00000000000E+00 0.  1.
          1    1    6    6  503    0  0.53280469111E+02 -0.91448676599E+02  0.26535941652E+03  0.28568739695E+03  0.00000000000E+00 0. -1.
         -1    1    6    6    0  503  0.25862221426E+02 -0.30771569284E+02  0.15016480158E+02  0.42909656834E+02  0.00000000000E+00 0.  1.
<mgrwt>
<rscale>  0 0.33836049E+04</rscale>
<asrwt>0</asrwt>
<pdfrwt beam="1">  1        2 0.53554799E+00 0.33836049E+04</pdfrwt>
<pdfrwt beam="2">  1       -1 0.12649524E+00 0.33836049E+04</pdfrwt>
<totfact> 0.42818395E-01</totfact>
</mgrwt>
</event>
<event>
12    7  0.1605494E-007  0.2572324E+04  0.7818608E-02  0.8377663E-01
         -1   -1    0    0    0  501 -0.00000000000E+00  0.00000000000E+00  0.96856155082E+03  0.96856155082E+03  0.00000000000E+00 0.  1.
          2   -1    0    0  501    0  0.00000000000E+00 -0.00000000000E+00 -0.17079064560E+04  0.17079064560E+04  0.00000000000E+00 0. -1.
         24    2    1    2    0    0 -0.89857529176E+03  0.45676206015E+03  0.19877072017E+03  0.10305360008E+04  0.80159311614E+02 0.  0.
        254    2    1    2    0    0  0.89857529176E+03 -0.45676206015E+03 -0.93811562535E+03  0.16459320060E+04  0.90164411341E+03 0.  0.
         23    2    4    4    0    0 -0.13113055725E+02  0.16456217112E+03  0.93280829671E+01  0.18879144467E+03  0.91118253136E+02 0.  0.
         23    2    4    4    0    0  0.91168834749E+03 -0.62132423127E+03 -0.94744370832E+03  0.14571405613E+04  0.91594714391E+02 0.  0.
          2    1    3    3  502    0 -0.59295218077E+03  0.26935387334E+03  0.10204124077E+03  0.65920877769E+03  0.00000000000E+00 0. -1.
         -1    1    3    3    0  502 -0.30562311099E+03  0.18740818682E+03  0.96729479401E+02  0.37132722314E+03  0.00000000000E+00 0.  1.
         13    1    5    5    0    0  0.41995051669E+01 -0.64179388520E+01 -0.13400931436E+02  0.15440555240E+02  0.00000000000E+00 0. -1.
        -13    1    5    5    0    0 -0.17312560892E+02  0.17098010997E+03  0.22729014403E+02  0.17335088943E+03  0.00000000000E+00 0.  1.
          1    1    6    6  503    0  0.14377900229E+02 -0.18878077040E+02 -0.77500783856E+01  0.24963363609E+02  0.00000000000E+00 0. -1.
         -1    1    6    6    0  503  0.89731044726E+03 -0.60244615423E+03 -0.93969362994E+03  0.14321771977E+04  0.00000000000E+00 0.  1.
<mgrwt>
<rscale>  0 0.25723239E+04</rscale>
<asrwt>0</asrwt>
<pdfrwt beam="1">  1        2 0.26275484E+00 0.25723239E+04</pdfrwt>
<pdfrwt beam="2">  1       -1 0.14900947E+00 0.25723239E+04</pdfrwt>
<totfact> 0.34804165E+00</totfact>
</mgrwt>
</event>
<event>
12    7  0.1605494E-007  0.2552685E+04  0.7818608E-02  0.8384453E-01
         -1   -1    0    0    0  501 -0.00000000000E+00  0.00000000000E+00  0.76012697631E+03  0.76012697631E+03  0.00000000000E+00 0.  1.
          2   -1    0    0  501    0  0.00000000000E+00 -0.00000000000E+00 -0.21431298384E+04  0.21431298384E+04  0.00000000000E+00 0. -1.
         24    2    1    2    0    0  0.72741026258E+03  0.22532409288E+03  0.31978630485E+03  0.82974432011E+03  0.79471498341E+02 0.  0.
        254    2    1    2    0    0 -0.72741026258E+03 -0.22532409288E+03 -0.17027891669E+04  0.20735124946E+04  0.90557522121E+03 0.  0.
         23    2    4    4    0    0 -0.25017204212E+03 -0.48593488621E+03 -0.12220300786E+04  0.13419593178E+04  0.93693827700E+02 0.  0.
         23    2    4    4    0    0 -0.47723822046E+03  0.26061079333E+03 -0.48075908825E+03  0.73155317672E+03  0.91468271886E+02 0.  0.
          4    1    3    3  502    0  0.87352382228E+02  0.46205306154E+02  0.21004531468E+02  0.10102751774E+03  0.00000000000E+00 0. -1.
         -3    1    3    3    0  502  0.64005788035E+03  0.17911878672E+03  0.29878177339E+03  0.72871680237E+03  0.00000000000E+00 0.  1.
         13    1    5    5    0    0 -0.98533878534E+01 -0.92529824153E+02 -0.18522583569E+03  0.20728595663E+03  0.00000000000E+00 0. -1.
        -13    1    5    5    0    0 -0.24031865427E+03 -0.39340506205E+03 -0.10368042430E+04  0.11346733612E+04  0.00000000000E+00 0.  1.
          3    1    6    6  503    0 -0.22755238562E+02  0.16495944314E+01 -0.27914617435E+01  0.22985088699E+02  0.00000000000E+00 0. -1.
         -3    1    6    6    0  503 -0.45448298189E+03  0.25896119890E+03 -0.47796762651E+03  0.70856808802E+03  0.00000000000E+00 0.  1.
<mgrwt>
<rscale>  0 0.25526855E+04</rscale>
<asrwt>0</asrwt>
<pdfrwt beam="1">  1        2 0.32971228E+00 0.25526855E+04</pdfrwt>
<pdfrwt beam="2">  1       -1 0.11694261E+00 0.25526855E+04</pdfrwt>
<totfact> 0.37011588E+00</totfact>
</mgrwt>
</event>
<event>
12    7  0.1605494E-007  0.1388488E+04  0.7818608E-02  0.8962194E-01
         -1   -1    0    0    0  501 -0.00000000000E+00  0.00000000000E+00  0.71738874902E+03  0.71738874902E+03  0.00000000000E+00 0.  1.
          2   -1    0    0  501    0  0.00000000000E+00 -0.00000000000E+00 -0.67184556539E+03  0.67184556539E+03  0.00000000000E+00 0. -1.
         24    2    1    2    0    0  0.33364721638E+03 -0.10162987190E+03 -0.18450651820E+03  0.40292198210E+03  0.81574337537E+02 0.  0.
        254    2    1    2    0    0 -0.33364721638E+03  0.10162987190E+03  0.23004970183E+03  0.98631233231E+03  0.89344281054E+03 0.  0.
         23    2    4    4    0    0 -0.90536401579E+02  0.47462583012E+03  0.40836310586E+02  0.49343547629E+03  0.91347941267E+02 0.  0.
         23    2    4    4    0    0 -0.24311081480E+03 -0.37299595821E+03  0.18921339124E+03  0.49287685602E+03  0.94324093749E+02 0.  0.
          4    1    3    3  502    0  0.30536212862E+03 -0.10413211206E+03 -0.18938972871E+03  0.37410960385E+03  0.00000000000E+00 0. -1.
         -3    1    3    3    0  502  0.28285087764E+02  0.25022401571E+01  0.48832105105E+01  0.28812378251E+02  0.00000000000E+00 0.  1.
         13    1    5    5    0    0 -0.17431922345E+02  0.27191199330E+03  0.53091210483E+02  0.27759445356E+03  0.00000000000E+00 0.  1.
        -13    1    5    5    0    0 -0.73104479234E+02  0.20271383681E+03 -0.12254899897E+02  0.21584102272E+03  0.00000000000E+00 0. -1.
          1    1    6    6  503    0 -0.23439941153E+02 -0.53288903863E+02  0.61032265198E+02  0.84344979171E+02  0.00000000000E+00 0. -1.
         -1    1    6    6    0  503 -0.21967087365E+03 -0.31970705435E+03  0.12818112604E+03  0.40853187685E+03  0.00000000000E+00 0.  1.
<mgrwt>
<rscale>  0 0.13884876E+04</rscale>
<asrwt>0</asrwt>
<pdfrwt beam="1">  1        2 0.10336086E+00 0.13884876E+04</pdfrwt>
<pdfrwt beam="2">  1       -1 0.11036750E+00 0.13884876E+04</pdfrwt>
<totfact> 0.36371465E+01</totfact>
</mgrwt>
</event>
<event>
12    7  0.1605494E-007  0.2663675E+04  0.7818608E-02  0.8346888E-01
          2   -1    0    0  501    0  0.00000000000E+00  0.00000000000E+00  0.22953721880E+04  0.22953721880E+04  0.00000000000E+00 0. -1.
         -1   -1    0    0    0  501 -0.00000000000E+00 -0.00000000000E+00 -0.77276866374E+03  0.77276866374E+03  0.00000000000E+00 0.  1.
         24    2    1    2    0    0  0.77936394865E+01  0.12473622303E+03  0.20069284937E+04  0.20123804395E+04  0.79329617771E+02 0.  0.
        254    2    1    2    0    0 -0.77936394865E+01 -0.12473622303E+03 -0.48432496945E+03  0.10557604122E+04  0.92975238955E+03 0.  0.
         23    2    4    4    0    0  0.17018508764E+03 -0.14241719910E+02  0.23317244318E+03  0.30259327191E+03  0.89596368818E+02 0.  0.
         23    2    4    4    0    0 -0.17797872712E+03 -0.11049450312E+03 -0.71749741263E+03  0.75316714033E+03  0.92589100979E+02 0.  0.
          4    1    3    3  502    0  0.11096884339E+02  0.13402611798E+03  0.17068101994E+04  0.17121002301E+04  0.00000000000E+00 0. -1.
         -3    1    3    3    0  502 -0.33032448526E+01 -0.92898949482E+01  0.30011829432E+03  0.30028020941E+03  0.00000000000E+00 0.  1.
         13    1    5    5    0    0  0.11551853181E+03  0.16584747731E+02  0.20011965944E+03  0.23166239044E+03  0.00000000000E+00 0. -1.
        -13    1    5    5    0    0  0.54666555825E+02 -0.30826467641E+02  0.33052783739E+02  0.70930881468E+02  0.00000000000E+00 0.  1.
          4    1    6    6  503    0 -0.32026526716E+02 -0.70303210914E+02 -0.22183365461E+03  0.23490085184E+03  0.00000000000E+00 0. -1.
         -4    1    6    6    0  503 -0.14595220041E+03 -0.40191292204E+02 -0.49566375802E+03  0.51826628849E+03  0.00000000000E+00 0.  1.
<mgrwt>
<rscale>  0 0.26636754E+04</rscale>
<asrwt>0</asrwt>
<pdfrwt beam="1">  1        2 0.35313418E+00 0.26636754E+04</pdfrwt>
<pdfrwt beam="2">  1       -1 0.11888749E+00 0.26636754E+04</pdfrwt>
<totfact> 0.28904344E+00</totfact>
</mgrwt>
</event>
<event>
12    7  0.1605494E-007  0.1530656E+04  0.7818608E-02  0.8864319E-01
          2   -1    0    0  501    0  0.00000000000E+00  0.00000000000E+00  0.95548560906E+03  0.95548560906E+03  0.00000000000E+00 0. -1.
         -1   -1    0    0    0  501 -0.00000000000E+00 -0.00000000000E+00 -0.61301469458E+03  0.61301469458E+03  0.00000000000E+00 0.  1.
         24    2    1    2    0    0  0.31702301566E+03  0.38013644429E+03  0.30017735365E+03  0.58424430428E+03  0.78915490882E+02 0.  0.
        254    2    1    2    0    0 -0.31702301566E+03 -0.38013644429E+03  0.42293560828E+02  0.98425599935E+03  0.84968454042E+03 0.  0.
         23    2    4    4    0    0 -0.11777121900E+03 -0.40013370079E+03 -0.33861331506E+03  0.54494053423E+03  0.91236890457E+02 0.  0.
         23    2    4    4    0    0 -0.19925179666E+03  0.19997256492E+02  0.38090687588E+03  0.43931546513E+03  0.88356443253E+02 0.  0.
          4    1    3    3  502    0  0.31300614035E+03  0.36707164900E+03  0.30381078798E+03  0.57010124915E+03  0.00000000000E+00 0. -1.
         -3    1    3    3    0  502  0.40168753105E+01  0.13064795293E+02 -0.36334343253E+01  0.14143055127E+02  0.00000000000E+00 0.  1.
         13    1    5    5    0    0 -0.47545737453E+02 -0.25474215543E+03 -0.16183971400E+03  0.30552619516E+03  0.00000000000E+00 0.  1.
        -13    1    5    5    0    0 -0.70225481547E+02 -0.14539154536E+03 -0.17677360105E+03  0.23941433906E+03  0.00000000000E+00 0. -1.
          3    1    6    6  503    0 -0.63808173653E+02 -0.24373897390E+02  0.72726865403E+02  0.99773577917E+02  0.00000000000E+00 0. -1.
         -3    1    6    6    0  503 -0.13544362301E+03  0.44371153882E+02  0.30818001048E+03  0.33954188721E+03  0.00000000000E+00 0.  1.
<mgrwt>
<rscale>  0 0.15306557E+04</rscale>
<asrwt>0</asrwt>
<pdfrwt beam="1">  1        2 0.14699779E+00 0.15306557E+04</pdfrwt>
<pdfrwt beam="2">  1       -1 0.94309953E-01 0.15306557E+04</pdfrwt>
<totfact> 0.32244934E+01</totfact>
</mgrwt>
</event>
<event>
12    7  0.1605494E-007  0.1327544E+04  0.7818608E-02  0.9008004E-01
          2   -1    0    0  501    0  0.00000000000E+00  0.00000000000E+00  0.18479931302E+04  0.18479931302E+04  0.00000000000E+00 0. -1.
         -1   -1    0    0    0  501 -0.00000000000E+00 -0.00000000000E+00 -0.23841699317E+03  0.23841699317E+03  0.00000000000E+00 0.  1.
         24    2    1    2    0    0  0.12395999617E+03 -0.73478342988E+02  0.93746553613E+03  0.95240435769E+03  0.86413434008E+02 0.  0.
        254    2    1    2    0    0 -0.12395999617E+03  0.73478342988E+02  0.67211060089E+03  0.11340057657E+04  0.90192642117E+03 0.  0.
         23    2    4    4    0    0 -0.10467250130E+03 -0.21215127849E+03  0.77522282727E+03  0.81597686523E+03  0.94251340482E+02 0.  0.
         23    2    4    4    0    0 -0.19287494867E+02  0.28562962148E+03 -0.10311222638E+03  0.31802890044E+03  0.92487632477E+02 0.  0.
          2    1    3    3  502    0  0.13521502925E+03 -0.76489813722E+02  0.83996434084E+03  0.85420951155E+03  0.00000000000E+00 0. -1.
         -1    1    3    3    0  502 -0.11255033081E+02  0.30114707335E+01  0.97501195292E+02  0.98194846143E+02  0.00000000000E+00 0.  1.
         13    1    5    5    0    0 -0.11609567883E+03 -0.17298019284E+03  0.57343172435E+03  0.61010187366E+03  0.00000000000E+00 0. -1.
        -13    1    5    5    0    0  0.11423177527E+02 -0.39171085644E+02  0.20179110292E+03  0.20587499157E+03  0.00000000000E+00 0.  1.
          1    1    6    6  503    0  0.34527542337E+02  0.15957920990E+03 -0.65349544824E+02  0.17586426135E+03  0.00000000000E+00 0. -1.
         -1    1    6    6    0  503 -0.53815037204E+02  0.12605041157E+03 -0.37762681551E+02  0.14216463908E+03  0.00000000000E+00 0.  1.
<mgrwt>
<rscale>  0 0.13275435E+04</rscale>
<asrwt>0</asrwt>
<pdfrwt beam="1">  1        2 0.28430663E+00 0.13275435E+04</pdfrwt>
<pdfrwt beam="2">  1       -1 0.36679539E-01 0.13275435E+04</pdfrwt>
<totfact> 0.64516355E+01</totfact>
</mgrwt>
</event>
<event>
12    7  0.1605494E-007  0.1281500E+04  0.7818608E-02  0.9044366E-01
         -1   -1    0    0    0  501 -0.00000000000E+00  0.00000000000E+00  0.52359498874E+03  0.52359498874E+03  0.00000000000E+00 0.  1.
          2   -1    0    0  501    0  0.00000000000E+00 -0.00000000000E+00 -0.78411855405E+03  0.78411855405E+03  0.00000000000E+00 0. -1.
         24    2    1    2    0    0  0.24437944530E+03  0.20592838621E+03 -0.58992465119E+02  0.33499534372E+03  0.81326230957E+02 0.  0.
        254    2    1    2    0    0 -0.24437944530E+03 -0.20592838621E+03 -0.20153110019E+03  0.97271819906E+03  0.89634708507E+03 0.  0.
         23    2    4    4    0    0 -0.39865313605E+01 -0.44748700162E+03  0.14429225478E+03  0.47866766847E+03  0.89677048343E+02 0.  0.
         23    2    4    4    0    0 -0.24039291394E+03  0.24155861541E+03 -0.34582335498E+03  0.49405053059E+03  0.91393742565E+02 0.  0.
          2    1    3    3  502    0  0.71194396185E+02  0.97731717267E+02 -0.49247469191E+02  0.13055820093E+03  0.00000000000E+00 0. -1.
         -1    1    3    3    0  502  0.17318504912E+03  0.10819666895E+03 -0.97449959284E+01  0.20443714280E+03  0.00000000000E+00 0.  1.
         13    1    5    5    0    0 -0.94517604638E+01 -0.37395474731E+03  0.83925025787E+02  0.38337305430E+03  0.00000000000E+00 0.  1.
        -13    1    5    5    0    0  0.54652291033E+01 -0.73532254306E+02  0.60367228997E+02  0.95294614167E+02  0.00000000000E+00 0. -1.
          1    1    6    6  503    0 -0.77149401552E+02  0.42238280403E+02 -0.47807323096E+02  0.10010815468E+03  0.00000000000E+00 0. -1.
         -1    1    6    6    0  503 -0.16324351239E+03  0.19932033500E+03 -0.29801603188E+03  0.39394237592E+03  0.00000000000E+00 0.  1.
<mgrwt>
<rscale>  0 0.12815000E+04</rscale>
<asrwt>0</asrwt>
<pdfrwt beam="1">  1        2 0.12063362E+00 0.12815000E+04</pdfrwt>
<pdfrwt beam="2">  1       -1 0.80553075E-01 0.12815000E+04</pdfrwt>
<totfact> 0.60957226E+01</totfact>
</mgrwt>
</event>
<event>
12    7  0.1605494E-007  0.4414493E+04  0.7818608E-02  0.7925780E-01
          2   -1    0    0  501    0  0.00000000000E+00  0.00000000000E+00  0.37303032163E+04  0.37303032163E+04  0.00000000000E+00 0. -1.
         -1   -1    0    0    0  501 -0.00000000000E+00 -0.00000000000E+00 -0.13060430937E+04  0.13060430937E+04  0.00000000000E+00 0.  1.
         24    2    1    2    0    0 -0.28149136853E+03 -0.18326437004E+04  0.23169641650E+04  0.29685669858E+04  0.79035967834E+02 0.  0.
        254    2    1    2    0    0  0.28149136853E+03  0.18326437004E+04  0.10729595761E+03  0.20677793241E+04  0.90905367701E+03 0.  0.
         23    2    4    4    0    0  0.38394946272E+02  0.60223235899E+03 -0.38016146323E+03  0.71899492829E+03  0.90955938079E+02 0.  0.
         23    2    4    4    0    0  0.24309642226E+03  0.12304113414E+04  0.48745742084E+03  0.13487843958E+04  0.92718227950E+02 0.  0.
          4    1    3    3  502    0 -0.21921088432E+03 -0.13891867973E+04  0.18096689568E+04  0.22918977077E+04  0.00000000000E+00 0. -1.
         -3    1    3    3    0  502 -0.62280484209E+02 -0.44345690303E+03  0.50729520828E+03  0.67666927809E+03  0.00000000000E+00 0.  1.
         13    1    5    5    0    0 -0.30090553413E+02  0.17460588054E+03 -0.11271834489E+03  0.20999542900E+03  0.00000000000E+00 0.  1.
        -13    1    5    5    0    0  0.68485499685E+02  0.42762647845E+03 -0.26744311834E+03  0.50899949930E+03  0.00000000000E+00 0. -1.
          2    1    6    6  503    0  0.19651982338E+03  0.11129105778E+04  0.45503551149E+03  0.12182968898E+04  0.00000000000E+00 0. -1.
         -2    1    6    6    0  503  0.46576598878E+02  0.11750076362E+03  0.32421909346E+02  0.13048750600E+03  0.00000000000E+00 0.  1.
<mgrwt>
<rscale>  0 0.44144928E+04</rscale>
<asrwt>0</asrwt>
<pdfrwt beam="1">  1        2 0.57389280E+00 0.44144928E+04</pdfrwt>
<pdfrwt beam="2">  1       -1 0.20092971E+00 0.44144928E+04</pdfrwt>
<totfact> 0.70957362E-02</totfact>
</mgrwt>
</event>
<event>
12    7  0.1605494E-007  0.1484648E+04  0.7818608E-02  0.8894726E-01
          2   -1    0    0  501    0  0.00000000000E+00  0.00000000000E+00  0.70124345218E+03  0.70124345218E+03  0.00000000000E+00 0. -1.
         -1   -1    0    0    0  501 -0.00000000000E+00 -0.00000000000E+00 -0.78581119000E+03  0.78581119000E+03  0.00000000000E+00 0.  1.
         24    2    1    2    0    0 -0.20262108705E+03  0.12026166450E+03 -0.42915698957E+03  0.49587531604E+03  0.78730137123E+02 0.  0.
        254    2    1    2    0    0  0.20262108705E+03 -0.12026166450E+03  0.34458925174E+03  0.99117932614E+03  0.89898639104E+03 0.  0.
         23    2    4    4    0    0  0.31981505332E+03  0.28011128303E+03  0.35647281757E+03  0.56242388034E+03  0.92215792025E+02 0.  0.
         23    2    4    4    0    0 -0.11719396627E+03 -0.40037294754E+03 -0.11883565831E+02  0.42875544580E+03  0.98270495661E+02 0.  0.
          2    1    3    3  502    0 -0.58566872910E+01  0.16950702652E+02 -0.79123772911E+01  0.19601857586E+02  0.00000000000E+00 0. -1.
         -1    1    3    3    0  502 -0.19676439976E+03  0.10331096185E+03 -0.42124461228E+03  0.47627345845E+03  0.00000000000E+00 0.  1.
         13    1    5    5    0    0  0.44829426799E+02  0.89692933436E+02  0.73914857118E+02  0.12457088712E+03  0.00000000000E+00 0. -1.
        -13    1    5    5    0    0  0.27498562652E+03  0.19041834960E+03  0.28255796046E+03  0.43785299322E+03  0.00000000000E+00 0.  1.
          2    1    6    6  503    0  0.76641271234E+01 -0.87792302341E+02 -0.25947477842E+02  0.91866744806E+02  0.00000000000E+00 0. -1.
         -2    1    6    6    0  503 -0.12485809339E+03 -0.31258064519E+03  0.14063912012E+02  0.33688870099E+03  0.00000000000E+00 0.  1.
<mgrwt>
<rscale>  0 0.14846480E+04</rscale>
<asrwt>0</asrwt>
<pdfrwt beam="1">  1        2 0.10788361E+00 0.14846480E+04</pdfrwt>
<pdfrwt beam="2">  1       -1 0.12089403E+00 0.14846480E+04</pdfrwt>
<totfact> 0.27464341E+01</totfact>
</mgrwt>
</event>
<event>
12    7  0.1605494E-007  0.1640104E+04  0.7818608E-02  0.8796283E-01
         -1   -1    0    0    0  501 -0.00000000000E+00  0.00000000000E+00  0.15877708868E+04  0.15877708868E+04  0.00000000000E+00 0.  1.
          2   -1    0    0  501    0  0.00000000000E+00 -0.00000000000E+00 -0.42354032914E+03  0.42354032914E+03  0.00000000000E+00 0. -1.
         24    2    1    2    0    0  0.32562750552E+03  0.23151546812E+03  0.91726158834E+03  0.10038062796E+04  0.81397427944E+02 0.  0.
        254    2    1    2    0    0 -0.32562750552E+03 -0.23151546812E+03  0.24696896937E+03  0.10075049363E+04  0.89131354785E+03 0.  0.
         23    2    4    4    0    0 -0.89706545944E+02 -0.55146737315E+03  0.17214986001E+03  0.59220201436E+03  0.94361663129E+02 0.  0.
         23    2    4    4    0    0 -0.23592095958E+03  0.31995190504E+03  0.74819109352E+02  0.41530292198E+03  0.94078143993E+02 0.  0.
          2    1    3    3  502    0  0.99984735250E+02  0.11925254344E+03  0.36096757169E+03  0.39308485624E+03  0.00000000000E+00 0. -1.
         -1    1    3    3    0  502  0.22564277027E+03  0.11226292468E+03  0.55629401666E+03  0.61072142340E+03  0.00000000000E+00 0.  1.
         13    1    5    5    0    0  0.19248116276E+02 -0.85639164944E+02  0.18215781107E+02  0.89645809906E+02  0.00000000000E+00 0.  1.
        -13    1    5    5    0    0 -0.10895466222E+03 -0.46582820821E+03  0.15393407891E+03  0.50255620445E+03  0.00000000000E+00 0. -1.
          2    1    6    6  503    0 -0.21790877452E+03  0.23979155478E+03  0.77301894273E+02  0.33310629927E+03  0.00000000000E+00 0. -1.
         -2    1    6    6    0  503 -0.18012185058E+02  0.80160350256E+02 -0.24827849210E+01  0.82196622708E+02  0.00000000000E+00 0.  1.
<mgrwt>
<rscale>  0 0.16401037E+04</rscale>
<asrwt>0</asrwt>
<pdfrwt beam="1">  1        2 0.65160051E-01 0.16401037E+04</pdfrwt>
<pdfrwt beam="2">  1       -1 0.24427244E+00 0.16401037E+04</pdfrwt>
<totfact> 0.61939481E+00</totfact>
</mgrwt>
</event>
<event>
12    7  0.1605494E-007  0.1415744E+04  0.7818608E-02  0.8942500E-01
          2   -1    0    0  501    0  0.00000000000E+00  0.00000000000E+00  0.19607942407E+04  0.19607942407E+04  0.00000000000E+00 0. -1.
         -1   -1    0    0    0  501 -0.00000000000E+00 -0.00000000000E+00 -0.25555096384E+03  0.25555096384E+03  0.00000000000E+00 0.  1.
         24    2    1    2    0    0 -0.30542981420E+03  0.31133983777E+02  0.95790023049E+03  0.10091174787E+04  0.80551460831E+02 0.  0.
        254    2    1    2    0    0  0.30542981420E+03 -0.31133983777E+02  0.74734304633E+03  0.12072277258E+04  0.89700638612E+03 0.  0.
         23    2    4    4    0    0  0.52271122318E+03 -0.14997027035E+03  0.17776060072E+03  0.57943335108E+03  0.91793640030E+02 0.  0.
         23    2    4    4    0    0 -0.21728140898E+03  0.11883628657E+03  0.56958244561E+03  0.62779437474E+03  0.91478636355E+02 0.  0.
          2    1    3    3  502    0 -0.21227608993E+03 -0.14582153015E+02  0.67786642657E+03  0.71047636823E+03  0.00000000000E+00 0. -1.
         -1    1    3    3    0  502 -0.93153724272E+02  0.45716136792E+02  0.28003380392E+03  0.29864111044E+03  0.00000000000E+00 0.  1.
         13    1    5    5    0    0  0.39795374153E+03 -0.13134586678E+03  0.17250100584E+03  0.45318375317E+03  0.00000000000E+00 0.  1.
        -13    1    5    5    0    0  0.12475748165E+03 -0.18624403575E+02  0.52595948830E+01  0.12624959792E+03  0.00000000000E+00 0. -1.
          3    1    6    6  503    0 -0.48308263722E+02  0.61025166394E+02  0.11015829411E+03  0.13487998013E+03  0.00000000000E+00 0. -1.
         -3    1    6    6    0  503 -0.16897314526E+03  0.57811120180E+02  0.45942415150E+03  0.49291439461E+03  0.00000000000E+00 0.  1.
<mgrwt>
<rscale>  0 0.14157441E+04</rscale>
<asrwt>0</asrwt>
<pdfrwt beam="1">  1        2 0.30166064E+00 0.14157441E+04</pdfrwt>
<pdfrwt beam="2">  1       -1 0.39315534E-01 0.14157441E+04</pdfrwt>
<totfact> 0.48932176E+01</totfact>
</mgrwt>
</event>
<event>
12    7  0.1605494E-007  0.1558078E+04  0.7818608E-02  0.8846724E-01
         -3   -1    0    0    0  501 -0.00000000000E+00  0.00000000000E+00  0.35996547427E+03  0.35996547427E+03  0.00000000000E+00 0.  1.
          2   -1    0    0  501    0  0.00000000000E+00 -0.00000000000E+00 -0.16860005795E+04  0.16860005795E+04  0.00000000000E+00 0. -1.
         24    2    1    2    0    0 -0.17299825614E+03  0.23710193950E+02  0.19475950346E+03  0.27294925831E+03  0.77970914426E+02 0.  0.
        254    2    1    2    0    0  0.17299825614E+03 -0.23710193950E+02 -0.15207946087E+04  0.17730167955E+04  0.89458467752E+03 0.  0.
         23    2    4    4    0    0  0.19193259172E+03 -0.42491393584E+03 -0.10137421256E+04  0.11196088417E+04  0.91983088721E+02 0.  0.
         23    2    4    4    0    0 -0.18934335582E+02  0.40120374189E+03 -0.50705248317E+03  0.65340795381E+03  0.92286412041E+02 0.  0.
          4    1    3    3  502    0 -0.81469446570E+02  0.54445727237E+01  0.36988600637E+02  0.89638555732E+02  0.00000000000E+00 0. -1.
         -3    1    3    3    0  502 -0.91528809569E+02  0.18265621226E+02  0.15777090282E+03  0.18331070257E+03  0.00000000000E+00 0.  1.
         13    1    5    5    0    0  0.10458579600E+03 -0.23872696767E+03 -0.45700242845E+03  0.52609882477E+03  0.00000000000E+00 0. -1.
        -13    1    5    5    0    0  0.87346795723E+02 -0.18618696817E+03 -0.55673969712E+03  0.59351001692E+03  0.00000000000E+00 0.  1.
          2    1    6    6  503    0 -0.30700960185E+02  0.31406709806E+03 -0.44605826841E+03  0.54639607416E+03  0.00000000000E+00 0. -1.
         -2    1    6    6    0  503  0.11766624602E+02  0.87136643832E+02 -0.60994214755E+02  0.10701187965E+03  0.00000000000E+00 0.  1.
<mgrwt>
<rscale>  0 0.15580783E+04</rscale>
<asrwt>0</asrwt>
<pdfrwt beam="1">  1        2 0.25938470E+00 0.15580783E+04</pdfrwt>
<pdfrwt beam="2">  1       -3 0.55379304E-01 0.15580783E+04</pdfrwt>
<totfact> 0.19765784E+01</totfact>
</mgrwt>
</event>
<event>
12    7  0.1605494E-007  0.1377381E+04  0.7818608E-02  0.8970356E-01
         -1   -1    0    0    0  501 -0.00000000000E+00  0.00000000000E+00  0.24533588615E+03  0.24533588615E+03  0.00000000000E+00 0.  1.
          2   -1    0    0  501    0  0.00000000000E+00 -0.00000000000E+00 -0.19332467754E+04  0.19332467754E+04  0.00000000000E+00 0. -1.
         24    2    1    2    0    0  0.31712454827E+03 -0.67690353641E+02 -0.77337509314E+03  0.84256044058E+03  0.81542002994E+02 0.  0.
        254    2    1    2    0    0 -0.31712454827E+03  0.67690353641E+02 -0.91453579609E+03  0.13360222209E+04  0.91838428200E+03 0.  0.
         23    2    4    4    0    0 -0.31835033175E+03  0.64748660547E+02  0.72144153851E+02  0.34512739613E+03  0.91481243191E+02 0.  0.
         23    2    4    4    0    0  0.12257834746E+01  0.29416930940E+01 -0.98667994994E+03  0.99089482482E+03  0.91241844152E+02 0.  0.
          2    1    3    3  502    0  0.20733108331E+03 -0.22725184300E+02 -0.40502338469E+03  0.45557277602E+03  0.00000000000E+00 0. -1.
         -1    1    3    3    0  502  0.10979346496E+03 -0.44965169341E+02 -0.36835170845E+03  0.38698766455E+03  0.00000000000E+00 0.  1.
         13    1    5    5    0    0 -0.17339486987E+01  0.13421373164E+02  0.13396009045E+02  0.19041872125E+02  0.00000000000E+00 0. -1.
        -13    1    5    5    0    0 -0.31661638305E+03  0.51327287382E+02  0.58748144806E+02  0.32608552400E+03  0.00000000000E+00 0.  1.
          1    1    6    6  503    0  0.11536232516E+02 -0.15087262300E+02 -0.43250627231E+02  0.47236923061E+02  0.00000000000E+00 0. -1.
         -1    1    6    6    0  503 -0.10310449041E+02  0.18028955394E+02 -0.94342932271E+03  0.94365790176E+03  0.00000000000E+00 0.  1.
<mgrwt>
<rscale>  0 0.13773813E+04</rscale>
<asrwt>0</asrwt>
<pdfrwt beam="1">  1        2 0.29742257E+00 0.13773813E+04</pdfrwt>
<pdfrwt beam="2">  1       -1 0.37743984E-01 0.13773813E+04</pdfrwt>
<totfact> 0.54748214E+01</totfact>
</mgrwt>
</event>
<event>
12    7  0.1605494E-007  0.1444699E+04  0.7818608E-02  0.8922084E-01
          2   -1    0    0  501    0  0.00000000000E+00  0.00000000000E+00  0.12997294192E+04  0.12997294192E+04  0.00000000000E+00 0. -1.
         -1   -1    0    0    0  501 -0.00000000000E+00 -0.00000000000E+00 -0.40145938826E+03  0.40145938826E+03  0.00000000000E+00 0.  1.
         24    2    1    2    0    0 -0.32648875499E+03  0.28825384443E+03  0.29788158399E+03  0.53372631835E+03  0.80281746706E+02 0.  0.
        254    2    1    2    0    0  0.32648875499E+03 -0.28825384443E+03  0.60038844700E+03  0.11674624892E+04  0.90156374724E+03 0.  0.
         23    2    4    4    0    0  0.31563241220E+03 -0.36822227723E+03  0.79586732744E+03  0.93635086170E+03  0.90203482391E+02 0.  0.
         23    2    4    4    0    0  0.10856342789E+02  0.79968432796E+02 -0.19547888044E+03  0.23111162746E+03  0.93208268007E+02 0.  0.
          2    1    3    3  502    0 -0.32559436534E+01  0.23978177054E+02  0.81730448974E+01  0.25541198226E+02  0.00000000000E+00 0. -1.
         -1    1    3    3    0  502 -0.32323281133E+03  0.26427566738E+03  0.28970853909E+03  0.50818512012E+03  0.00000000000E+00 0.  1.
         13    1    5    5    0    0  0.25718667399E+03 -0.24578773351E+03  0.61139194983E+03  0.70735896936E+03  0.00000000000E+00 0.  1.
        -13    1    5    5    0    0  0.58445738205E+02 -0.12243454371E+03  0.18447537762E+03  0.22899189234E+03  0.00000000000E+00 0. -1.
          3    1    6    6  503    0  0.33211294056E+02  0.17602817431E+02 -0.18010086219E+02  0.41679880518E+02  0.00000000000E+00 0. -1.
         -3    1    6    6    0  503 -0.22354951267E+02  0.62365615365E+02 -0.17746879422E+03  0.18943174694E+03  0.00000000000E+00 0.  1.
<mgrwt>
<rscale>  0 0.14446987E+04</rscale>
<asrwt>0</asrwt>
<pdfrwt beam="1">  1        2 0.19995837E+00 0.14446987E+04</pdfrwt>
<pdfrwt beam="2">  1       -1 0.61762984E-01 0.14446987E+04</pdfrwt>
<totfact> 0.48627223E+01</totfact>
</mgrwt>
</event>
<event>
12    7  0.1605494E-007  0.1351281E+04  0.7818608E-02  0.8989859E-01
          2   -1    0    0  501    0  0.00000000000E+00  0.00000000000E+00  0.21951277840E+03  0.21951277840E+03  0.00000000000E+00 0. -1.
         -1   -1    0    0    0  501 -0.00000000000E+00 -0.00000000000E+00 -0.20795598785E+04  0.20795598785E+04  0.00000000000E+00 0.  1.
         24    2    1    2    0    0  0.67838969452E+02 -0.23095193700E+02 -0.11365822873E+04  0.11415975034E+04  0.79309836017E+02 0.  0.
        254    2    1    2    0    0 -0.67838969452E+02  0.23095193700E+02 -0.72346481281E+03  0.11574751536E+04  0.90067301614E+03 0.  0.
         23    2    4    4    0    0 -0.15055913812E+03  0.31109218681E+03  0.13439874574E+02  0.35723644140E+03  0.89391510042E+02 0.  0.
         23    2    4    4    0    0  0.82720168669E+02 -0.28799699311E+03 -0.73690468738E+03  0.80023871216E+03  0.86997608094E+02 0.  0.
          2    1    3    3  502    0  0.82620864400E+02 -0.18537321509E+02 -0.76090595649E+03  0.76560284361E+03  0.00000000000E+00 0. -1.
         -1    1    3    3    0  502 -0.14781894947E+02 -0.45578721911E+01 -0.37567633082E+03  0.37599465974E+03  0.00000000000E+00 0.  1.
         13    1    5    5    0    0 -0.98329111267E+02  0.26142154759E+03  0.36228742002E+02  0.28164225786E+03  0.00000000000E+00 0. -1.
        -13    1    5    5    0    0 -0.52230026855E+02  0.49670639224E+02 -0.22788867428E+02  0.75594183539E+02  0.00000000000E+00 0.  1.
          4    1    6    6  503    0  0.84473295373E+02 -0.27692829454E+03 -0.73342669388E+03  0.78850474523E+03  0.00000000000E+00 0. -1.
         -4    1    6    6    0  503 -0.17531267040E+01 -0.11068698571E+02 -0.34779935016E+01  0.11733966937E+02  0.00000000000E+00 0.  1.
<mgrwt>
<rscale>  0 0.13512808E+04</rscale>
<asrwt>0</asrwt>
<pdfrwt beam="1">  1        2 0.33771197E-01 0.13512808E+04</pdfrwt>
<pdfrwt beam="2">  1       -1 0.31993228E+00 0.13512808E+04</pdfrwt>
<totfact> 0.42969085E+00</totfact>
</mgrwt>
</event>
<event>
12    7  0.1605494E-007  0.1954809E+04  0.7818608E-02  0.8628045E-01
          2   -1    0    0  501    0  0.00000000000E+00  0.00000000000E+00  0.10514483767E+04  0.10514483767E+04  0.00000000000E+00 0. -1.
         -1   -1    0    0    0  501 -0.00000000000E+00 -0.00000000000E+00 -0.90857450259E+03  0.90857450259E+03  0.00000000000E+00 0.  1.
         24    2    1    2    0    0 -0.62826239550E+02 -0.53639300670E+03  0.60253990072E+03  0.81294801569E+03  0.78521017862E+02 0.  0.
        254    2    1    2    0    0  0.62826239550E+02  0.53639300670E+03 -0.45966602663E+03  0.11470748636E+04  0.90156713151E+03 0.  0.
         23    2    4    4    0    0  0.27437379333E+03  0.42923674406E+03 -0.64933219077E+03  0.83049187331E+03  0.92516467451E+02 0.  0.
         23    2    4    4    0    0 -0.21154755378E+03  0.10715626264E+03  0.18966616415E+03  0.31658299027E+03  0.89536047346E+02 0.  0.
          4    1    3    3  502    0 -0.65857692640E+02 -0.53184883800E+03  0.60381672014E+03  0.80733825234E+03  0.00000000000E+00 0. -1.
         -3    1    3    3    0  502  0.30314530909E+01 -0.45441686993E+01 -0.12768194279E+01  0.56097633517E+01  0.00000000000E+00 0.  1.
         13    1    5    5    0    0  0.21557335069E+03  0.38235588282E+03 -0.58606918738E+03  0.73221921789E+03  0.00000000000E+00 0.  1.
        -13    1    5    5    0    0  0.58800442641E+02  0.46880861242E+02 -0.63263003392E+02  0.98272655423E+02  0.00000000000E+00 0. -1.
          1    1    6    6  503    0 -0.39905546155E+02  0.64555288075E+02  0.46119155080E+02  0.88807737825E+02  0.00000000000E+00 0. -1.
         -1    1    6    6    0  503 -0.17164200762E+03  0.42600974568E+02  0.14354700907E+03  0.22777525245E+03  0.00000000000E+00 0.  1.
<mgrwt>
<rscale>  0 0.19548086E+04</rscale>
<asrwt>0</asrwt>
<pdfrwt beam="1">  1        2 0.16176129E+00 0.19548086E+04</pdfrwt>
<pdfrwt beam="2">  1       -1 0.13978069E+00 0.19548086E+04</pdfrwt>
<totfact> 0.10457278E+01</totfact>
</mgrwt>
</event>
<event>
12    7  0.1605494E-007  0.1670570E+04  0.7818608E-02  0.8778329E-01
         -1   -1    0    0    0  501 -0.00000000000E+00  0.00000000000E+00  0.31478073046E+03  0.31478073046E+03  0.00000000000E+00 0.  1.
          2   -1    0    0  501    0  0.00000000000E+00 -0.00000000000E+00 -0.22164681020E+04  0.22164681020E+04  0.00000000000E+00 0. -1.
         24    2    1    2    0    0 -0.36377004531E+03 -0.16769402656E+02 -0.14130875973E+04  0.14616708698E+04  0.83995924793E+02 0.  0.
        254    2    1    2    0    0  0.36377004531E+03  0.16769402656E+02 -0.48859977429E+03  0.10695779627E+04  0.87900934014E+03 0.  0.
         23    2    4    4    0    0  0.47925290115E+02  0.18340336983E+03 -0.63806297520E+03  0.67193138871E+03  0.91835730003E+02 0.  0.
         23    2    4    4    0    0  0.31584475520E+03 -0.16663396717E+03  0.14946320091E+03  0.39764657397E+03  0.90877725318E+02 0.  0.
          4    1    3    3  502    0 -0.33088257887E+03  0.63147042313E+01 -0.13064477851E+04  0.13477124959E+04  0.00000000000E+00 0. -1.
         -3    1    3    3    0  502 -0.32887466440E+02 -0.23084106887E+02 -0.10663981218E+03  0.11395837389E+03  0.00000000000E+00 0.  1.
         13    1    5    5    0    0 -0.14872198442E+02  0.37334494591E+02 -0.23909760147E+03  0.24245145865E+03  0.00000000000E+00 0. -1.
        -13    1    5    5    0    0  0.62797488557E+02  0.14606887524E+03 -0.39896537374E+03  0.42947993006E+03  0.00000000000E+00 0.  1.
          3    1    6    6  503    0  0.36624379108E+02 -0.52584291700E+02  0.45599641261E+02  0.78649730843E+02  0.00000000000E+00 0. -1.
         -3    1    6    6    0  503  0.27922037609E+03 -0.11404967547E+03  0.10386355965E+03  0.31899684312E+03  0.00000000000E+00 0.  1.
<mgrwt>
<rscale>  0 0.16705705E+04</rscale>
<asrwt>0</asrwt>
<pdfrwt beam="1">  1        2 0.34099510E+00 0.16705705E+04</pdfrwt>
<pdfrwt beam="2">  1       -1 0.48427804E-01 0.16705705E+04</pdfrwt>
<totfact> 0.23431945E+01</totfact>
</mgrwt>
</event>
<event>
12    7  0.1605494E-007  0.1615154E+04  0.7818608E-02  0.8811292E-01
         -1   -1    0    0    0  501 -0.00000000000E+00  0.00000000000E+00  0.10793311040E+04  0.10793311040E+04  0.00000000000E+00 0.  1.
          2   -1    0    0  501    0  0.00000000000E+00 -0.00000000000E+00 -0.60424494333E+03  0.60424494333E+03  0.00000000000E+00 0. -1.
         24    2    1    2    0    0  0.19521017460E+03  0.31444953284E+03  0.58845966777E+03  0.69977716769E+03  0.80111065786E+02 0.  0.
        254    2    1    2    0    0 -0.19521017460E+03 -0.31444953284E+03 -0.11337350705E+03  0.98379887968E+03  0.90444522366E+03 0.  0.
         23    2    4    4    0    0  0.46024492607E+02  0.22141070480E+03 -0.27562878614E+03  0.36721353403E+03  0.87940876180E+02 0.  0.
         23    2    4    4    0    0 -0.24123466720E+03 -0.53586023764E+03  0.16225527909E+03  0.61658534565E+03  0.92251579584E+02 0.  0.
          4    1    3    3  502    0  0.14700654422E+03  0.22458236375E+03  0.35531932829E+03  0.44530886720E+03  0.00000000000E+00 0. -1.
         -3    1    3    3    0  502  0.48203630378E+02  0.89867169085E+02  0.23314033948E+03  0.25446830049E+03  0.00000000000E+00 0.  1.
         13    1    5    5    0    0  0.88132038983E+01  0.19289008305E+03 -0.19828468666E+03  0.27676898971E+03  0.00000000000E+00 0. -1.
        -13    1    5    5    0    0  0.37211288708E+02  0.28520621758E+02 -0.77344099485E+02  0.90444544324E+02  0.00000000000E+00 0.  1.
          3    1    6    6  503    0 -0.17367070338E+03 -0.42409296865E+03  0.88986188921E+02  0.46683498272E+03  0.00000000000E+00 0. -1.
         -3    1    6    6    0  503 -0.67563963819E+02 -0.11176726899E+03  0.73269090167E+02  0.14975036294E+03  0.00000000000E+00 0.  1.
<mgrwt>
<rscale>  0 0.16151537E+04</rscale>
<asrwt>0</asrwt>
<pdfrwt beam="1">  1        2 0.92960760E-01 0.16151537E+04</pdfrwt>
<pdfrwt beam="2">  1       -1 0.16605094E+00 0.16151537E+04</pdfrwt>
<totfact> 0.14162361E+01</totfact>
</mgrwt>
</event>
<event>
12    7  0.1605494E-007  0.1701461E+04  0.7818608E-02  0.8760532E-01
          2   -1    0    0  501    0  0.00000000000E+00  0.00000000000E+00  0.29310292334E+04  0.29310292334E+04  0.00000000000E+00 0. -1.
         -1   -1    0    0    0  501 -0.00000000000E+00 -0.00000000000E+00 -0.24692425173E+03  0.24692425173E+03  0.00000000000E+00 0.  1.
         24    2    1    2    0    0  0.21329391976E+03  0.49925907617E+03  0.14873086816E+04  0.15853799103E+04  0.81169108159E+02 0.  0.
        254    2    1    2    0    0 -0.21329391976E+03 -0.49925907617E+03  0.11967963000E+04  0.15925735749E+04  0.89956394225E+03 0.  0.
         23    2    4    4    0    0 -0.49424980407E+03 -0.54790016189E+03  0.76228404945E+03  0.10650112308E+04  0.93244267699E+02 0.  0.
         23    2    4    4    0    0  0.28095588431E+03  0.48641085716E+02  0.43451225058E+03  0.52756234405E+03  0.90658517576E+02 0.  0.
          4    1    3    3  502    0  0.21772689657E+03  0.48814465505E+03  0.14252602771E+04  0.15221882483E+04  0.00000000000E+00 0. -1.
         -3    1    3    3    0  502 -0.44329768134E+01  0.11114421117E+02  0.62048404565E+02  0.63191662023E+02  0.00000000000E+00 0.  1.
         13    1    5    5    0    0 -0.46996534888E+03 -0.54336079233E+03  0.74431272767E+03  0.10344611237E+04  0.00000000000E+00 0. -1.
        -13    1    5    5    0    0 -0.24284455185E+02 -0.45393695615E+01  0.17971321779E+02  0.30550107138E+02  0.00000000000E+00 0.  1.
          1    1    6    6  503    0  0.22810108724E+03  0.44953073416E+02  0.40481072760E+03  0.46682181824E+03  0.00000000000E+00 0. -1.
         -1    1    6    6    0  503  0.52854797070E+02  0.36880123001E+01  0.29701522983E+02  0.60740525809E+02  0.00000000000E+00 0.  1.
<mgrwt>
<rscale>  0 0.17014608E+04</rscale>
<asrwt>0</asrwt>
<pdfrwt beam="1">  1        2 0.45092755E+00 0.17014608E+04</pdfrwt>
<pdfrwt beam="2">  1       -1 0.37988348E-01 0.17014608E+04</pdfrwt>
<totfact> 0.13996674E+01</totfact>
</mgrwt>
</event>
<event>
12    7  0.1605494E-007  0.1273647E+04  0.7818608E-02  0.9050728E-01
          2   -1    0    0  501    0  0.00000000000E+00  0.00000000000E+00  0.32104588333E+03  0.32104588333E+03  0.00000000000E+00 0. -1.
         -1   -1    0    0    0  501 -0.00000000000E+00 -0.00000000000E+00 -0.12631975908E+04  0.12631975908E+04  0.00000000000E+00 0.  1.
         24    2    1    2    0    0  0.96646237621E+02  0.21774950065E+03 -0.31569007350E+03  0.40289644903E+03  0.76876432393E+02 0.  0.
        254    2    1    2    0    0 -0.96646237621E+02 -0.21774950065E+03 -0.62646163395E+03  0.11813470251E+04  0.97281615661E+03 0.  0.
         23    2    4    4    0    0 -0.47332221841E+03 -0.33128947823E+03 -0.27523964463E+03  0.64631521822E+03  0.90442570179E+02 0.  0.
         23    2    4    4    0    0  0.37667598079E+03  0.11353997757E+03 -0.35122198932E+03  0.53503180685E+03  0.90144481540E+02 0.  0.
          2    1    3    3  502    0 -0.32231046341E+00  0.13604440578E+00  0.41017556430E+01  0.41166480868E+01  0.00000000000E+00 0. -1.
         -1    1    3    3    0  502  0.96968548084E+02  0.21761345625E+03 -0.31979182914E+03  0.39877980095E+03  0.00000000000E+00 0.  1.
         13    1    5    5    0    0 -0.31383881784E+03 -0.20565932905E+03 -0.22373741565E+03  0.43686267221E+03  0.00000000000E+00 0.  1.
        -13    1    5    5    0    0 -0.15948340057E+03 -0.12563014918E+03 -0.51502228980E+02  0.20945254601E+03  0.00000000000E+00 0. -1.
          2    1    6    6  503    0  0.31688089251E+03  0.70977772004E+02 -0.31786513084E+03  0.45441125158E+03  0.00000000000E+00 0. -1.
         -2    1    6    6    0  503  0.59795088284E+02  0.42562205569E+02 -0.33356858479E+02  0.80620555278E+02  0.00000000000E+00 0.  1.
<mgrwt>
<rscale>  0 0.12736473E+04</rscale>
<asrwt>0</asrwt>
<pdfrwt beam="1">  1        2 0.49391674E-01 0.12736473E+04</pdfrwt>
<pdfrwt beam="2">  1       -1 0.19433809E+00 0.12736473E+04</pdfrwt>
<totfact> 0.18861364E+01</totfact>
</mgrwt>
</event>
<event>
12    7  0.1605494E-007  0.1893564E+04  0.7818608E-02  0.8658066E-01
          2   -1    0    0  501    0  0.00000000000E+00  0.00000000000E+00  0.29957345577E+04  0.29957345577E+04  0.00000000000E+00 0. -1.
         -1   -1    0    0    0  501 -0.00000000000E+00 -0.00000000000E+00 -0.29922427598E+03  0.29922427598E+03  0.00000000000E+00 0.  1.
         24    2    1    2    0    0  0.14009756184E+03  0.36164143980E+03  0.21206038645E+04  0.21572420634E+04  0.79502907510E+02 0.  0.
        254    2    1    2    0    0 -0.14009756184E+03 -0.36164143980E+03  0.57590641722E+03  0.11377167702E+04  0.90128762894E+03 0.  0.
         23    2    4    4    0    0  0.32356217216E+03 -0.23043512705E+02  0.41357397368E+03  0.53398352993E+03  0.94188618161E+02 0.  0.
         23    2    4    4    0    0 -0.46365973401E+03 -0.33859792709E+03  0.16233244354E+03  0.60373324032E+03  0.92266451468E+02 0.  0.
          2    1    3    3  502    0  0.13949156411E+03  0.32344064390E+03  0.17811612083E+04  0.18156560789E+04  0.00000000000E+00 0. -1.
         -1    1    3    3    0  502  0.60599772982E+00  0.38200795899E+02  0.33944265614E+03  0.34158598456E+03  0.00000000000E+00 0.  1.
         13    1    5    5    0    0  0.22895698162E+02 -0.14938089856E+01  0.92745860480E+00  0.22963114751E+02  0.00000000000E+00 0.  1.
        -13    1    5    5    0    0  0.30066647400E+03 -0.21549703720E+02  0.41264651508E+03  0.51102041518E+03  0.00000000000E+00 0. -1.
          1    1    6    6  503    0 -0.33996177441E+03 -0.27186948749E+03  0.85721799018E+02  0.44366119181E+03  0.00000000000E+00 0. -1.
         -1    1    6    6    0  503 -0.12369795960E+03 -0.66728439604E+02  0.76610644522E+02  0.16007204851E+03  0.00000000000E+00 0.  1.
<mgrwt>
<rscale>  0 0.18935644E+04</rscale>
<asrwt>0</asrwt>
<pdfrwt beam="1">  1        2 0.46088222E+00 0.18935644E+04</pdfrwt>
<pdfrwt beam="2">  1       -1 0.46034506E-01 0.18935644E+04</pdfrwt>
<totfact> 0.87976052E+00</totfact>
</mgrwt>
</event>
<event>
12    7  0.1605494E-007  0.1876477E+04  0.7818608E-02  0.8666655E-01
          2   -1    0    0  501    0  0.00000000000E+00  0.00000000000E+00  0.25899314278E+04  0.25899314278E+04  0.00000000000E+00 0. -1.
         -1   -1    0    0    0  501 -0.00000000000E+00 -0.00000000000E+00 -0.33988987452E+03  0.33988987452E+03  0.00000000000E+00 0.  1.
         24    2    1    2    0    0 -0.19431614601E+03 -0.60421955633E+03  0.13944182503E+04  0.15341613820E+04  0.80055308854E+02 0.  0.
        254    2    1    2    0    0  0.19431614601E+03  0.60421955633E+03  0.85562330296E+03  0.13956599203E+04  0.90162926952E+03 0.  0.
         23    2    4    4    0    0  0.52581195151E+02  0.73715114072E+03  0.90765672695E+03  0.11747542766E+04  0.10025113544E+03 0.  0.
         23    2    4    4    0    0  0.14173495086E+03 -0.13293158439E+03 -0.52033423986E+02  0.22090564365E+03  0.91281015332E+02 0.  0.
          4    1    3    3  502    0 -0.15359910922E+03 -0.50807193317E+03  0.10906669626E+04  0.12129650444E+04  0.00000000000E+00 0. -1.
         -3    1    3    3    0  502 -0.40717036795E+02 -0.96147623163E+02  0.30375128772E+03  0.32119633765E+03  0.00000000000E+00 0.  1.
         13    1    5    5    0    0 -0.22420925177E+02  0.35222352726E+03  0.40475524344E+03  0.53702040756E+03  0.00000000000E+00 0. -1.
        -13    1    5    5    0    0  0.75002120328E+02  0.38492761346E+03  0.50290148351E+03  0.63773386908E+03  0.00000000000E+00 0.  1.
          3    1    6    6  503    0  0.15378455729E+03 -0.13045424149E+03 -0.53161198175E+02  0.20855242069E+03  0.00000000000E+00 0.  1.
         -3    1    6    6    0  503 -0.12049606426E+02 -0.24773428927E+01  0.11277741891E+01  0.12353222958E+02  0.00000000000E+00 0. -1.
<mgrwt>
<rscale>  0 0.18764770E+04</rscale>
<asrwt>0</asrwt>
<pdfrwt beam="1">  1        2 0.39845098E+00 0.18764770E+04</pdfrwt>
<pdfrwt beam="2">  1       -1 0.52290751E-01 0.18764770E+04</pdfrwt>
<totfact> 0.12155066E+01</totfact>
</mgrwt>
</event>
<event>
12    7  0.1605494E-007  0.2385167E+04  0.7818608E-02  0.8445078E-01
         -1   -1    0    0    0  501 -0.00000000000E+00  0.00000000000E+00  0.18154649364E+04  0.18154649364E+04  0.00000000000E+00 0.  1.
          2   -1    0    0  501    0  0.00000000000E+00 -0.00000000000E+00 -0.78341131326E+03  0.78341131326E+03  0.00000000000E+00 0. -1.
         24    2    1    2    0    0 -0.35817484373E+03  0.24715874561E+03 -0.55748273190E+03  0.71171015704E+03  0.79797788539E+02 0.  0.
        254    2    1    2    0    0  0.35817484373E+03 -0.24715874561E+03  0.15895363550E+04  0.18871660926E+04  0.91945275731E+03 0.  0.
         23    2    4    4    0    0 -0.30135966378E+03 -0.12365909461E+03  0.58165574376E+03  0.67286925828E+03  0.91216313489E+02 0.  0.
         23    2    4    4    0    0  0.65953450751E+03 -0.12349965100E+03  0.10078806113E+04  0.12142968343E+04  0.91954036920E+02 0.  0.
          4    1    3    3  502    0 -0.11876982701E+03  0.11759865000E+03 -0.25369324447E+03  0.30380252892E+03  0.00000000000E+00 0. -1.
         -3    1    3    3    0  502 -0.23940501672E+03  0.12956009561E+03 -0.30378948744E+03  0.40790762812E+03  0.00000000000E+00 0.  1.
         13    1    5    5    0    0 -0.14636764078E+03 -0.76304029654E+02  0.20767039812E+03  0.26527869395E+03  0.00000000000E+00 0.  1.
        -13    1    5    5    0    0 -0.15499202300E+03 -0.47355064954E+02  0.37398534564E+03  0.40759056433E+03  0.00000000000E+00 0. -1.
          4    1    6    6  503    0  0.61511080911E+03 -0.93950311066E+02  0.94932281622E+03  0.11350778730E+04  0.00000000000E+00 0. -1.
         -4    1    6    6    0  503  0.44423698404E+02 -0.29549339934E+02  0.58557795063E+02  0.79218961322E+02  0.00000000000E+00 0.  1.
<mgrwt>
<rscale>  0 0.23851673E+04</rscale>
<asrwt>0</asrwt>
<pdfrwt beam="1">  1        2 0.12052482E+00 0.23851673E+04</pdfrwt>
<pdfrwt beam="2">  1       -1 0.27930230E+00 0.23851673E+04</pdfrwt>
<totfact> 0.16359988E+00</totfact>
</mgrwt>
</event>
<event>
12    7  0.1605494E-007  0.1144676E+04  0.7818608E-02  0.9162709E-01
          4   -1    0    0  501    0  0.00000000000E+00  0.00000000000E+00  0.68223083228E+03  0.68223083228E+03  0.00000000000E+00 0. -1.
         -1   -1    0    0    0  501 -0.00000000000E+00 -0.00000000000E+00 -0.48014638153E+03  0.48014638153E+03  0.00000000000E+00 0.  1.
         24    2    1    2    0    0 -0.75775696018E+02  0.11955280161E+03  0.20388911311E+03  0.26085740537E+03  0.80255760007E+02 0.  0.
        254    2    1    2    0    0  0.75775696018E+02 -0.11955280161E+03 -0.18046623648E+01  0.90151980844E+03  0.89033694730E+03 0.  0.
         23    2    4    4    0    0  0.17514140914E+03 -0.39754554905E+03  0.24291837430E+03  0.50599298599E+03  0.91118541078E+02 0.  0.
         23    2    4    4    0    0 -0.99365713120E+02  0.27799274745E+03 -0.24472303667E+03  0.39552682245E+03  0.96946325494E+02 0.  0.
          2    1    3    3  502    0 -0.88232269197E+02  0.10114675704E+03  0.14340590777E+03  0.19642009615E+03  0.00000000000E+00 0. -1.
         -1    1    3    3    0  502  0.12456573180E+02  0.18406044562E+02  0.60483205337E+02  0.64437309221E+02  0.00000000000E+00 0.  1.
         13    1    5    5    0    0  0.66082136148E+02 -0.25201482862E+03  0.12264096719E+03  0.28795681863E+03  0.00000000000E+00 0.  1.
        -13    1    5    5    0    0  0.10905927299E+03 -0.14553072044E+03  0.12027740711E+03  0.21803616736E+03  0.00000000000E+00 0. -1.
          4    1    6    6  503    0 -0.94634415139E+02  0.15532022224E+03 -0.18342073524E+03  0.25830836239E+03  0.00000000000E+00 0. -1.
         -4    1    6    6    0  503 -0.47312979806E+01  0.12267252521E+03 -0.61302301431E+02  0.13721846007E+03  0.00000000000E+00 0.  1.
<mgrwt>
<rscale>  0 0.11446758E+04</rscale>
<asrwt>0</asrwt>
<pdfrwt beam="1">  1        4 0.10495859E+00 0.11446758E+04</pdfrwt>
<pdfrwt beam="2">  1       -1 0.73868674E-01 0.11446758E+04</pdfrwt>
<totfact> 0.55372928E+00</totfact>
</mgrwt>
</event>
<event>
12    7  0.1605494E-007  0.2282841E+04  0.7818608E-02  0.8484717E-01
          2   -1    0    0  501    0  0.00000000000E+00  0.00000000000E+00  0.17170916586E+04  0.17170916586E+04  0.00000000000E+00 0. -1.
         -1   -1    0    0    0  501 -0.00000000000E+00 -0.00000000000E+00 -0.75874868566E+03  0.75874868566E+03  0.00000000000E+00 0.  1.
         24    2    1    2    0    0 -0.76637806837E+03 -0.26601873804E+03 -0.15832037019E+03  0.83039640918E+03  0.79947133162E+02 0.  0.
        254    2    1    2    0    0  0.76637806837E+03  0.26601873804E+03  0.11166633431E+04  0.16454439350E+04  0.89579428939E+03 0.  0.
         23    2    4    4    0    0  0.63285552552E+03  0.48871870856E+03  0.11110041472E+04  0.13719181775E+04  0.92071594582E+02 0.  0.
         23    2    4    4    0    0  0.13352254285E+03 -0.22269997052E+03  0.56591958975E+01  0.27352575750E+03  0.85794913602E+02 0.  0.
          4    1    3    3  502    0 -0.13885138355E+03 -0.65229297419E+02 -0.28575318044E+01  0.15343641499E+03  0.00000000000E+00 0. -1.
         -3    1    3    3    0  502 -0.62752668482E+03 -0.20078944062E+03 -0.15546283838E+03  0.67695999419E+03  0.00000000000E+00 0.  1.
         13    1    5    5    0    0  0.17894020672E+03  0.10090117154E+03  0.33251463964E+03  0.39085371890E+03  0.00000000000E+00 0.  1.
        -13    1    5    5    0    0  0.45391531880E+03  0.38781753702E+03  0.77848950754E+03  0.98106445864E+03  0.00000000000E+00 0. -1.
          4    1    6    6  503    0  0.56016594721E+02 -0.14372120452E+03 -0.30247541066E+02  0.15718955834E+03  0.00000000000E+00 0. -1.
         -4    1    6    6    0  503  0.77505948133E+02 -0.78978765999E+02  0.35906736963E+02  0.11633619916E+03  0.00000000000E+00 0.  1.
<mgrwt>
<rscale>  0 0.22828412E+04</rscale>
<asrwt>0</asrwt>
<pdfrwt beam="1">  1        2 0.26416795E+00 0.22828412E+04</pdfrwt>
<pdfrwt beam="2">  1       -1 0.11673057E+00 0.22828412E+04</pdfrwt>
<totfact> 0.65673411E+00</totfact>
</mgrwt>
</event>
<event>
12    7  0.1605494E-007  0.3400359E+04  0.7818608E-02  0.8137818E-01
          2   -1    0    0  501    0  0.00000000000E+00  0.00000000000E+00  0.13316706391E+04  0.13316706391E+04  0.00000000000E+00 0. -1.
         -1   -1    0    0    0  501 -0.00000000000E+00 -0.00000000000E+00 -0.21706645815E+04  0.21706645815E+04  0.00000000000E+00 0.  1.
         24    2    1    2    0    0 -0.38371439453E+03 -0.98970233307E+03  0.81573788616E+03  0.13411952473E+04  0.81418350972E+02 0.  0.
        254    2    1    2    0    0  0.38371439453E+03  0.98970233307E+03 -0.16547318285E+04  0.21611399733E+04  0.89757513077E+03 0.  0.
         23    2    4    4    0    0  0.19300149387E+03 -0.10629487830E+03 -0.13015539110E+03  0.27173052838E+03  0.91372186321E+02 0.  0.
         23    2    4    4    0    0  0.19071290066E+03  0.10959972114E+04 -0.15245764374E+04  0.18894094450E+04  0.89182057279E+02 0.  0.
          2    1    3    3  502    0 -0.10342875450E+03 -0.20864235082E+03  0.14639727751E+03  0.27506599331E+03  0.00000000000E+00 0. -1.
         -1    1    3    3    0  502 -0.28028564003E+03 -0.78105998225E+03  0.66934060864E+03  0.10661292540E+04  0.00000000000E+00 0.  1.
         13    1    5    5    0    0  0.17399254973E+03 -0.83259067153E+02 -0.71139389850E+02  0.20558767574E+03  0.00000000000E+00 0.  1.
        -13    1    5    5    0    0  0.19008944135E+02 -0.23035811149E+02 -0.59016001253E+02  0.66142852647E+02  0.00000000000E+00 0. -1.
          4    1    6    6  503    0  0.69308867386E+02  0.19736041734E+03 -0.29334621727E+03  0.36028718630E+03  0.00000000000E+00 0. -1.
         -4    1    6    6    0  503  0.12140403327E+03  0.89863679404E+03 -0.12312302202E+04  0.15291222587E+04  0.00000000000E+00 0.  1.
<mgrwt>
<rscale>  0 0.34003590E+04</rscale>
<asrwt>0</asrwt>
<pdfrwt beam="1">  1        2 0.20487241E+00 0.34003590E+04</pdfrwt>
<pdfrwt beam="2">  1       -1 0.33394840E+00 0.34003590E+04</pdfrwt>
<totfact> 0.29636632E-01</totfact>
</mgrwt>
</event>
<event>
12    7  0.1715577E-007  0.2155000E+04  0.7818608E-02  0.8537395E-01
         -1   -1    0    0    0  501 -0.00000000000E+00  0.00000000000E+00  0.75235920214E+03  0.75235920214E+03  0.00000000000E+00 0.  1.
          2   -1    0    0  501    0  0.00000000000E+00 -0.00000000000E+00 -0.15431542821E+04  0.15431542821E+04  0.00000000000E+00 0. -1.
         24    2    1    2    0    0 -0.16037547222E+03  0.84907143751E+03 -0.51978254153E+03  0.10114943385E+04  0.79399674051E+02 0.  0.
        254    2    1    2    0    0  0.16037547222E+03 -0.84907143751E+03 -0.27101253848E+03  0.12840191458E+04  0.91028279817E+03 0.  0.
         23    2    4    4    0    0  0.45477402954E+03 -0.36119094127E+03  0.10215176615E+03  0.59687406216E+03  0.92441055564E+02 0.  0.
         23    2    4    4    0    0 -0.29439855732E+03 -0.48788049624E+03 -0.37316430463E+03  0.68714508362E+03  0.90658030763E+02 0.  0.
          2    1    3    3  502    0 -0.12989828102E+03  0.70426602643E+03 -0.39456342420E+03  0.81764570268E+03  0.00000000000E+00 0. -1.
         -1    1    3    3    0  502 -0.30477191200E+02  0.14480541107E+03 -0.12521911733E+03  0.19384863581E+03  0.00000000000E+00 0.  1.
         13    1    5    5    0    0  0.29661655792E+03 -0.19341659849E+03  0.30448301585E+02  0.35541308652E+03  0.00000000000E+00 0. -1.
        -13    1    5    5    0    0  0.15815747162E+03 -0.16777434279E+03  0.71703464561E+02  0.24146097564E+03  0.00000000000E+00 0.  1.
          4    1    6    6  503    0 -0.21958689197E+03 -0.37643462034E+03 -0.23755984697E+03  0.49634273179E+03  0.00000000000E+00 0. -1.
         -4    1    6    6    0  503 -0.74811665353E+02 -0.11144587590E+03 -0.13560445766E+03  0.19080235183E+03  0.00000000000E+00 0.  1.
<mgrwt>
<rscale>  0 0.21550001E+04</rscale>
<asrwt>0</asrwt>
<pdfrwt beam="1">  1        2 0.23740835E+00 0.21550001E+04</pdfrwt>
<pdfrwt beam="2">  1       -1 0.11574757E+00 0.21550001E+04</pdfrwt>
<totfact> 0.84766673E+00</totfact>
</mgrwt>
</event>
<event>
12    7  0.1605494E-007  0.3182173E+04  0.7818608E-02  0.8193541E-01
          2   -1    0    0  501    0  0.00000000000E+00  0.00000000000E+00  0.21587880899E+04  0.21587880899E+04  0.00000000000E+00 0. -1.
         -1   -1    0    0    0  501 -0.00000000000E+00 -0.00000000000E+00 -0.11726744423E+04  0.11726744423E+04  0.00000000000E+00 0.  1.
         24    2    1    2    0    0  0.29725587612E+03  0.32452580517E+03  0.19131984377E+04  0.19647877360E+04  0.79903261567E+02 0.  0.
        254    2    1    2    0    0 -0.29725587612E+03 -0.32452580517E+03 -0.92708479007E+03  0.13666747962E+04  0.90257173482E+03 0.  0.
         23    2    4    4    0    0 -0.21914870676E+03  0.29141116685E+03 -0.31335851964E+03  0.48888838276E+03  0.88722404871E+02 0.  0.
         23    2    4    4    0    0 -0.78107169356E+02 -0.61593697202E+03 -0.61372627043E+03  0.87778641344E+03  0.91487535795E+02 0.  0.
          2    1    3    3  502    0  0.14283372119E+03  0.11718125275E+03  0.92954878337E+03  0.94773089987E+03  0.00000000000E+00 0. -1.
         -1    1    3    3    0  502  0.15442215493E+03  0.20734455241E+03  0.98364965435E+03  0.10170568361E+04  0.00000000000E+00 0.  1.
         13    1    5    5    0    0 -0.22038227450E+03  0.29484505630E+03 -0.29949154970E+03  0.47454940994E+03  0.00000000000E+00 0.  1.
        -13    1    5    5    0    0  0.12335677349E+01 -0.34338894473E+01 -0.13866969943E+02  0.14338972819E+02  0.00000000000E+00 0. -1.
          3    1    6    6  503    0 -0.55580409277E+02 -0.15545030764E+03 -0.13620430995E+03  0.21402241492E+03  0.00000000000E+00 0. -1.
         -3    1    6    6    0  503 -0.22526760079E+02 -0.46048666438E+03 -0.47752196048E+03  0.66376399852E+03  0.00000000000E+00 0.  1.
<mgrwt>
<rscale>  0 0.31821726E+04</rscale>
<asrwt>0</asrwt>
<pdfrwt beam="1">  1        2 0.33212124E+00 0.31821726E+04</pdfrwt>
<pdfrwt beam="2">  1       -1 0.18041145E+00 0.31821726E+04</pdfrwt>
<totfact> 0.10795632E+00</totfact>
</mgrwt>
</event>
<event>
12    7  0.1605494E-007  0.1483438E+04  0.7818608E-02  0.8895542E-01
          2   -1    0    0  501    0  0.00000000000E+00  0.00000000000E+00  0.12182720403E+04  0.12182720403E+04  0.00000000000E+00 0. -1.
         -1   -1    0    0    0  501 -0.00000000000E+00 -0.00000000000E+00 -0.45157994796E+03  0.45157994796E+03  0.00000000000E+00 0.  1.
         24    2    1    2    0    0 -0.11814786207E+02 -0.44120648412E+03  0.38310179345E+03  0.58985340744E+03  0.79732724265E+02 0.  0.
        254    2    1    2    0    0  0.11814786207E+02  0.44120648412E+03  0.38359029890E+03  0.10799985808E+04  0.90799375902E+03 0.  0.
         23    2    4    4    0    0  0.16211201839E+03  0.68045179712E+03  0.20639824986E+03  0.73449768027E+03  0.87130075542E+02 0.  0.
         23    2    4    4    0    0 -0.15029723218E+03 -0.23924531301E+03  0.17719204903E+03  0.34550090057E+03  0.90256701990E+02 0.  0.
          4    1    3    3  502    0 -0.16808312933E+02 -0.14377481608E+03  0.80993957995E+02  0.16587265704E+03  0.00000000000E+00 0. -1.
         -3    1    3    3    0  502  0.49935267258E+01 -0.29743166803E+03  0.30210783546E+03  0.42398075039E+03  0.00000000000E+00 0.  1.
         13    1    5    5    0    0  0.40047706843E+01  0.17505116427E+03  0.59788493992E+02  0.18502327506E+03  0.00000000000E+00 0. -1.
        -13    1    5    5    0    0  0.15810724771E+03  0.50540063286E+03  0.14660975587E+03  0.54947440522E+03  0.00000000000E+00 0.  1.
          3    1    6    6  503    0 -0.32998585386E+02 -0.89407085136E+02  0.17099464420E+02  0.96824197355E+02  0.00000000000E+00 0. -1.
         -3    1    6    6    0  503 -0.11729864680E+03 -0.14983822787E+03  0.16009258461E+03  0.24867670321E+03  0.00000000000E+00 0.  1.
<mgrwt>
<rscale>  0 0.14834382E+04</rscale>
<asrwt>0</asrwt>
<pdfrwt beam="1">  1        2 0.18742647E+00 0.14834382E+04</pdfrwt>
<pdfrwt beam="2">  1       -1 0.69473839E-01 0.14834382E+04</pdfrwt>
<totfact> 0.42695037E+01</totfact>
</mgrwt>
</event>
<event>
12    7  0.1605494E-007  0.1305010E+04  0.7818608E-02  0.9025602E-01
         -1   -1    0    0    0  501 -0.00000000000E+00  0.00000000000E+00  0.12214954075E+04  0.12214954075E+04  0.00000000000E+00 0.  1.
          2   -1    0    0  501    0  0.00000000000E+00 -0.00000000000E+00 -0.34855857688E+03  0.34855857688E+03  0.00000000000E+00 0. -1.
         24    2    1    2    0    0 -0.20927281496E+03  0.20864688104E+03  0.59923673099E+02  0.31179590947E+03  0.79354965294E+02 0.  0.
        254    2    1    2    0    0  0.20927281496E+03 -0.20864688104E+03  0.81301315754E+03  0.12582580749E+04  0.91372553689E+03 0.  0.
         23    2    4    4    0    0  0.55547100961E+02 -0.11025143343E+02 -0.19108929452E+03  0.21927284838E+03  0.91424446119E+02 0.  0.
         23    2    4    4    0    0  0.15372571400E+03 -0.19762173769E+03  0.10041024521E+04  0.10389852266E+04  0.92642433120E+02 0.  0.
          4    1    3    3  502    0 -0.21581271725E+03  0.19567856098E+03  0.59084011582E+02  0.29724762165E+03  0.00000000000E+00 0. -1.
         -3    1    3    3    0  502  0.65399022858E+01  0.12968320059E+02  0.83966151697E+00  0.14548287821E+02  0.00000000000E+00 0.  1.
         13    1    5    5    0    0  0.52306739656E+01 -0.38964151044E+02 -0.12788404064E+03  0.13379048123E+03  0.00000000000E+00 0.  1.
        -13    1    5    5    0    0  0.50316426995E+02  0.27939007700E+02 -0.63205253877E+02  0.85482367155E+02  0.00000000000E+00 0. -1.
          2    1    6    6  503    0  0.46820026128E+02 -0.12220732875E+03  0.39947364904E+03  0.42036405927E+03  0.00000000000E+00 0. -1.
         -2    1    6    6    0  503  0.10690568787E+03 -0.75414408946E+02  0.60462880302E+03  0.61862116729E+03  0.00000000000E+00 0.  1.
<mgrwt>
<rscale>  0 0.13050099E+04</rscale>
<asrwt>0</asrwt>
<pdfrwt beam="1">  1        2 0.53624397E-01 0.13050099E+04</pdfrwt>
<pdfrwt beam="2">  1       -1 0.18792237E+00 0.13050099E+04</pdfrwt>
<totfact> 0.19033179E+01</totfact>
</mgrwt>
</event>
<event>
12    7  0.1605494E-007  0.1764992E+04  0.7818608E-02  0.8725141E-01
         -1   -1    0    0    0  501 -0.00000000000E+00  0.00000000000E+00  0.48825296950E+03  0.48825296950E+03  0.00000000000E+00 0.  1.
          2   -1    0    0  501    0  0.00000000000E+00 -0.00000000000E+00 -0.15950735815E+04  0.15950735815E+04  0.00000000000E+00 0. -1.
         24    2    1    2    0    0  0.36729114819E+03  0.27899176700E+03 -0.94640341661E+03  0.10559030066E+04  0.80700302532E+02 0.  0.
        254    2    1    2    0    0 -0.36729114819E+03 -0.27899176700E+03 -0.16041719539E+03  0.10274235444E+04  0.90395036885E+03 0.  0.
         23    2    4    4    0    0 -0.16704846030E+03  0.11219409406E+03  0.30764564846E+03  0.37875516641E+03  0.91197194225E+02 0.  0.
         23    2    4    4    0    0 -0.20024268789E+03 -0.39118586105E+03 -0.46806284385E+03  0.64866837796E+03  0.92543648220E+02 0.  0.
          2    1    3    3  502    0  0.34132690188E+03  0.22639185106E+03 -0.82891611731E+03  0.92458599043E+03  0.00000000000E+00 0. -1.
         -1    1    3    3    0  502  0.25964246316E+02  0.52599915942E+02 -0.11748729930E+03  0.13131701619E+03  0.00000000000E+00 0.  1.
         13    1    5    5    0    0 -0.15059240528E+03  0.10639865173E+03  0.31045550684E+03  0.36108360160E+03  0.00000000000E+00 0.  1.
        -13    1    5    5    0    0 -0.16456055024E+02  0.57954423250E+01 -0.28098583786E+01  0.17671564809E+02  0.00000000000E+00 0. -1.
          3    1    6    6  503    0 -0.99289485041E+02 -0.26041820743E+03 -0.24492417919E+03  0.37103085876E+03  0.00000000000E+00 0. -1.
         -3    1    6    6    0  503 -0.10095320285E+03 -0.13076765363E+03 -0.22313866466E+03  0.27763751920E+03  0.00000000000E+00 0.  1.
<mgrwt>
<rscale>  0 0.17649923E+04</rscale>
<asrwt>0</asrwt>
<pdfrwt beam="1">  1        2 0.24539594E+00 0.17649923E+04</pdfrwt>
<pdfrwt beam="2">  1       -1 0.75115841E-01 0.17649923E+04</pdfrwt>
<totfact> 0.21571560E+01</totfact>
</mgrwt>
</event>
<event>
12    7  0.1605494E-007  0.3164274E+04  0.7818608E-02  0.8198316E-01
          2   -1    0    0  501    0  0.00000000000E+00  0.00000000000E+00  0.21567171871E+04  0.21567171871E+04  0.00000000000E+00 0. -1.
         -1   -1    0    0    0  501 -0.00000000000E+00 -0.00000000000E+00 -0.11606334215E+04  0.11606334215E+04  0.00000000000E+00 0.  1.
         24    2    1    2    0    0 -0.48010068286E+03  0.50784478018E+03 -0.87744079119E+03  0.11245294489E+04  0.79127448175E+02 0.  0.
        254    2    1    2    0    0  0.48010068286E+03 -0.50784478018E+03  0.18735245567E+04  0.21928211597E+04  0.89998188157E+03 0.  0.
         23    2    4    4    0    0  0.11248649278E+02 -0.92791967187E+02 -0.70542783888E+02  0.14843383424E+03  0.91210950570E+02 0.  0.
         23    2    4    4    0    0  0.46885203359E+03 -0.41505281300E+03  0.19440673406E+04  0.20443873254E+04  0.89613863490E+02 0.  0.
          2    1    3    3  502    0 -0.27046159545E+03  0.24834883337E+03 -0.41191416091E+03  0.55181509005E+03  0.00000000000E+00 0. -1.
         -3    1    3    3    0  502 -0.20963908742E+03  0.25949594682E+03 -0.46552663028E+03  0.57271435890E+03  0.00000000000E+00 0.  1.
         13    1    5    5    0    0 -0.11579358652E+02 -0.10033654419E+03 -0.72473861076E+02  0.12431397422E+03  0.00000000000E+00 0. -1.
        -13    1    5    5    0    0  0.22828007930E+02  0.75445770065E+01  0.19310771884E+01  0.24119860019E+02  0.00000000000E+00 0.  1.
          3    1    6    6  503    0  0.42154884442E+03 -0.39117159849E+03  0.18372114944E+04  0.19251142103E+04  0.00000000000E+00 0. -1.
         -3    1    6    6    0  503  0.47303189162E+02 -0.23881214509E+02  0.10685584622E+03  0.11927311509E+03  0.00000000000E+00 0.  1.
<mgrwt>
<rscale>  0 0.31642744E+04</rscale>
<asrwt>0</asrwt>
<pdfrwt beam="1">  1        2 0.33180265E+00 0.31642744E+04</pdfrwt>
<pdfrwt beam="2">  1       -1 0.17855899E+00 0.31642744E+04</pdfrwt>
<totfact> 0.11178670E+00</totfact>
</mgrwt>
</event>
<event>
12    7  0.1605494E-007  0.2120572E+04  0.7818608E-02  0.8552235E-01
         -1   -1    0    0    0  501 -0.00000000000E+00  0.00000000000E+00  0.45525435710E+03  0.45525435710E+03  0.00000000000E+00 0.  1.
          2   -1    0    0  501    0  0.00000000000E+00 -0.00000000000E+00 -0.24694039411E+04  0.24694039411E+04  0.00000000000E+00 0. -1.
         24    2    1    2    0    0 -0.31165043680E+03  0.38630064290E+03  0.15022470788E+03  0.52428331824E+03  0.77145015837E+02 0.  0.
        254    2    1    2    0    0  0.31165043680E+03 -0.38630064290E+03 -0.21643742919E+04  0.24003749800E+04  0.91155350231E+03 0.  0.
         23    2    4    4    0    0 -0.26348692597E+03  0.67549743561E+02 -0.44696052837E+03  0.53102546482E+03  0.90697311695E+02 0.  0.
         23    2    4    4    0    0  0.57513736277E+03 -0.45385038646E+03 -0.17174137635E+04  0.18693495152E+04  0.90523009819E+02 0.  0.
          2    1    3    3  502    0  0.13186952303E+01 -0.26039165148E+01  0.20284966914E+01  0.35544531441E+01  0.00000000000E+00 0. -1.
         -1    1    3    3    0  502 -0.31296913203E+03  0.38890455941E+03  0.14819621119E+03  0.52072886510E+03  0.00000000000E+00 0.  1.
         13    1    5    5    0    0 -0.11282507622E+03 -0.16787816402E+02 -0.17883361219E+03  0.21211503825E+03  0.00000000000E+00 0. -1.
        -13    1    5    5    0    0 -0.15066184975E+03  0.84337559963E+02 -0.26812691618E+03  0.31891042656E+03  0.00000000000E+00 0.  1.
          1    1    6    6  503    0  0.41488574856E+02 -0.68016667774E+02 -0.18104971376E+03  0.19780436747E+03  0.00000000000E+00 0. -1.
         -1    1    6    6    0  503  0.53364878791E+03 -0.38583371868E+03 -0.15363640498E+04  0.16715451477E+04  0.00000000000E+00 0.  1.
<mgrwt>
<rscale>  0 0.21205725E+04</rscale>
<asrwt>0</asrwt>
<pdfrwt beam="1">  1        2 0.37990830E+00 0.21205725E+04</pdfrwt>
<pdfrwt beam="2">  1       -1 0.70039131E-01 0.21205725E+04</pdfrwt>
<totfact> 0.78263202E+00</totfact>
</mgrwt>
</event>
<event>
12    7  0.1605494E-007  0.2735291E+04  0.7818608E-02  0.8323644E-01
         -1   -1    0    0    0  501 -0.00000000000E+00  0.00000000000E+00  0.60370300370E+03  0.60370300370E+03  0.00000000000E+00 0.  1.
          2   -1    0    0  501    0  0.00000000000E+00 -0.00000000000E+00 -0.30983014890E+04  0.30983014890E+04  0.00000000000E+00 0. -1.
         24    2    1    2    0    0  0.27504545912E+03 -0.17527919749E+03 -0.27023579263E+04  0.27234177540E+04  0.88843115564E+02 0.  0.
        254    2    1    2    0    0 -0.27504545912E+03  0.17527919749E+03  0.20775944099E+03  0.97858673873E+03  0.89894116506E+03 0.  0.
         23    2    4    4    0    0  0.18194356144E+03 -0.12361024887E+03 -0.18142592831E+03  0.30215500758E+03  0.99996639784E+02 0.  0.
         23    2    4    4    0    0 -0.45698902056E+03  0.29888944637E+03  0.38918536931E+03  0.67643173115E+03  0.88998703202E+02 0.  0.
          2    1    3    3  502    0  0.22638534474E+03 -0.12892601099E+03 -0.18266391751E+04  0.18451240925E+04  0.00000000000E+00 0. -1.
         -1    1    3    3    0  502  0.48660114382E+02 -0.46353186507E+02 -0.87571875123E+03  0.87829366153E+03  0.00000000000E+00 0.  1.
         13    1    5    5    0    0  0.12111691095E+03 -0.13100614176E+03 -0.15102635176E+03  0.23375387531E+03  0.00000000000E+00 0. -1.
        -13    1    5    5    0    0  0.60826650487E+02  0.73958928918E+01 -0.30399576554E+02  0.68401132269E+02  0.00000000000E+00 0.  1.
          3    1    6    6  503    0 -0.34111609486E+03  0.24544284687E+03  0.25646199561E+03  0.49231609403E+03  0.00000000000E+00 0. -1.
         -3    1    6    6    0  503 -0.11587292570E+03  0.53446599494E+02  0.13272337369E+03  0.18411563712E+03  0.00000000000E+00 0.  1.
<mgrwt>
<rscale>  0 0.27352908E+04</rscale>
<asrwt>0</asrwt>
<pdfrwt beam="1">  1        2 0.47666177E+00 0.27352908E+04</pdfrwt>
<pdfrwt beam="2">  1       -1 0.92877384E-01 0.27352908E+04</pdfrwt>
<totfact> 0.16891403E+00</totfact>
</mgrwt>
</event>
<event>
12    7  0.1605494E-007  0.3123233E+04  0.7818608E-02  0.8209391E-01
          2   -1    0    0  501    0  0.00000000000E+00  0.00000000000E+00  0.12925658435E+04  0.12925658435E+04  0.00000000000E+00 0. -1.
         -1   -1    0    0    0  501 -0.00000000000E+00 -0.00000000000E+00 -0.18866711324E+04  0.18866711324E+04  0.00000000000E+00 0.  1.
         24    2    1    2    0    0  0.32505996319E+03  0.10273096105E+04 -0.12325562626E+04  0.16390874561E+04  0.79898264394E+02 0.  0.
        254    2    1    2    0    0 -0.32505996319E+03 -0.10273096105E+04  0.63845097375E+03  0.15401495198E+04  0.89633246169E+03 0.  0.
         23    2    4    4    0    0  0.11671575792E+03 -0.79495971160E+03  0.64105280938E+03  0.10318345046E+04  0.90278620398E+02 0.  0.
         23    2    4    4    0    0 -0.44177572111E+03 -0.23234989889E+03 -0.26018356350E+01  0.50831501514E+03  0.96047497573E+02 0.  0.
          4    1    3    3  502    0  0.13345858511E+03  0.30083811553E+03 -0.38221925989E+03  0.50438708184E+03  0.00000000000E+00 0. -1.
         -3    1    3    3    0  502  0.19160137808E+03  0.72647149496E+03 -0.85033700276E+03  0.11347003743E+04  0.00000000000E+00 0.  1.
         13    1    5    5    0    0  0.35224616626E+02 -0.51743685777E+03  0.43143029359E+03  0.67462120751E+03  0.00000000000E+00 0.  1.
        -13    1    5    5    0    0  0.81491141296E+02 -0.27752285384E+03  0.20962251579E+03  0.35721329712E+03  0.00000000000E+00 0. -1.
          2    1    6    6  503    0 -0.50564649746E+02 -0.13031077402E+02 -0.27719541319E+02  0.59118235369E+02  0.00000000000E+00 0.  1.
         -2    1    6    6    0  503 -0.39121107137E+03 -0.21931882149E+03  0.25117705684E+02  0.44919677977E+03  0.00000000000E+00 0. -1.
<mgrwt>
<rscale>  0 0.31232334E+04</rscale>
<asrwt>0</asrwt>
<pdfrwt beam="1">  1        2 0.19885628E+00 0.31232334E+04</pdfrwt>
<pdfrwt beam="2">  1       -1 0.29025710E+00 0.31232334E+04</pdfrwt>
<totfact> 0.61548338E-01</totfact>
</mgrwt>
</event>
<event>
12    7  0.1605494E-007  0.2008128E+04  0.7818608E-02  0.8602830E-01
         -1   -1    0    0    0  501 -0.00000000000E+00  0.00000000000E+00  0.21710568897E+03  0.21710568897E+03  0.00000000000E+00 0.  1.
          2   -1    0    0  501    0  0.00000000000E+00 -0.00000000000E+00 -0.46435649930E+04  0.46435649930E+04  0.00000000000E+00 0. -1.
         24    2    1    2    0    0 -0.64433520766E+03  0.11184557883E+02 -0.29783375420E+04  0.30483182551E+04  0.80353694224E+02 0.  0.
        254    2    1    2    0    0  0.64433520766E+03 -0.11184557883E+02 -0.14481217621E+04  0.18123524269E+04  0.87878992220E+03 0.  0.
         23    2    4    4    0    0  0.68283080044E+03  0.23808701860E+03 -0.13396739750E+04  0.15251219437E+04  0.91253785049E+02 0.  0.
         23    2    4    4    0    0 -0.38495592774E+02 -0.24927157648E+03 -0.10844778707E+03  0.28723048325E+03  0.84393118681E+02 0.  0.
          4    1    3    3  502    0 -0.29916046262E+03 -0.23378448033E+01 -0.11990991600E+04  0.12358564817E+04  0.00000000000E+00 0. -1.
         -3    1    3    3    0  502 -0.34517474505E+03  0.13522402686E+02 -0.17792383820E+04  0.18124617734E+04  0.00000000000E+00 0.  1.
         13    1    5    5    0    0  0.61863831523E+03  0.22742132269E+03 -0.12623116741E+04  0.14240311042E+04  0.00000000000E+00 0. -1.
        -13    1    5    5    0    0  0.64192485205E+02  0.10665695905E+02 -0.77362300858E+02  0.10109083945E+03  0.00000000000E+00 0.  1.
          2    1    6    6  503    0 -0.16244321755E+02 -0.12815977295E+03 -0.99932693965E+01  0.12957110336E+03  0.00000000000E+00 0. -1.
         -2    1    6    6    0  503 -0.22251271019E+02 -0.12111180353E+03 -0.98454517671E+02  0.15765937989E+03  0.00000000000E+00 0.  1.
<mgrwt>
<rscale>  0 0.20081279E+04</rscale>
<asrwt>0</asrwt>
<pdfrwt beam="1">  1        2 0.71439459E+00 0.20081279E+04</pdfrwt>
<pdfrwt beam="2">  1       -1 0.33400876E-01 0.20081279E+04</pdfrwt>
<totfact> 0.80004197E-01</totfact>
</mgrwt>
</event>
<event>
12    7  0.1747553E-007  0.1955862E+04  0.7818608E-02  0.8627539E-01
         -1   -1    0    0    0  501 -0.00000000000E+00  0.00000000000E+00  0.10840722498E+04  0.10840722498E+04  0.00000000000E+00 0.  1.
          2   -1    0    0  501    0  0.00000000000E+00 -0.00000000000E+00 -0.88218243388E+03  0.88218243388E+03  0.00000000000E+00 0. -1.
         24    2    1    2    0    0 -0.68409540223E+02 -0.48377980072E+03 -0.51694773581E+03  0.71573095573E+03  0.79454884424E+02 0.  0.
        254    2    1    2    0    0  0.68409540223E+02  0.48377980072E+03  0.71883755174E+03  0.12505237280E+04  0.89908809781E+03 0.  0.
         23    2    4    4    0    0  0.54211849302E+02  0.72040483125E+03  0.36064570938E+03  0.81271812921E+03  0.92322176947E+02 0.  0.
         23    2    4    4    0    0  0.14197690921E+02 -0.23662503054E+03  0.35819184236E+03  0.43780559875E+03  0.84731144554E+02 0.  0.
          4    1    3    3  502    0 -0.78722300636E+02 -0.46119842950E+03 -0.47330288153E+03  0.66551995437E+03  0.00000000000E+00 0. -1.
         -3    1    3    3    0  502  0.10312760413E+02 -0.22581371215E+02 -0.43644854276E+02  0.50211001365E+02  0.00000000000E+00 0.  1.
         13    1    5    5    0    0  0.52514312867E+02  0.17041065594E+03  0.88982944589E+02  0.19928750372E+03  0.00000000000E+00 0. -1.
        -13    1    5    5    0    0  0.16975364357E+01  0.54999417532E+03  0.27166276479E+03  0.61343062549E+03  0.00000000000E+00 0.  1.
          3    1    6    6  503    0 -0.22268336127E+02 -0.98210335077E+02  0.20347635196E+03  0.22703254065E+03  0.00000000000E+00 0. -1.
         -3    1    6    6    0  503  0.36466027048E+02 -0.13841469546E+03  0.15471549040E+03  0.21077305809E+03  0.00000000000E+00 0.  1.
<mgrwt>
<rscale>  0 0.19558625E+04</rscale>
<asrwt>0</asrwt>
<pdfrwt beam="1">  1        2 0.13572037E+00 0.19558625E+04</pdfrwt>
<pdfrwt beam="2">  1       -1 0.16678035E+00 0.19558625E+04</pdfrwt>
<totfact> 0.83383921E+00</totfact>
</mgrwt>
</event>
<event>
12    7  0.1605494E-007  0.1792153E+04  0.7818608E-02  0.8710484E-01
         -1   -1    0    0    0  501 -0.00000000000E+00  0.00000000000E+00  0.10812367562E+04  0.10812367562E+04  0.00000000000E+00 0.  1.
          2   -1    0    0  501    0  0.00000000000E+00 -0.00000000000E+00 -0.74262435751E+03  0.74262435751E+03  0.00000000000E+00 0. -1.
         24    2    1    2    0    0  0.82818363335E+02  0.52286293738E+03 -0.27011480533E+03  0.59900715419E+03  0.74853390827E+02 0.  0.
        254    2    1    2    0    0 -0.82818363335E+02 -0.52286293738E+03  0.60872720405E+03  0.12248539595E+04  0.92166907329E+03 0.  0.
         23    2    4    4    0    0 -0.44164158551E+03 -0.29810568586E+03  0.57780719133E+03  0.79119123564E+03  0.90598736318E+02 0.  0.
         23    2    4    4    0    0  0.35882322217E+03 -0.22475725152E+03  0.30920012724E+02  0.43366272390E+03  0.88529001074E+02 0.  0.
          4    1    3    3  502    0  0.19808509676E+02  0.23868442510E+03 -0.85450751642E+02  0.25429208167E+03  0.00000000000E+00 0. -1.
         -3    1    3    3    0  502  0.63009853659E+02  0.28417851227E+03 -0.18466405369E+03  0.34471507252E+03  0.00000000000E+00 0.  1.
         13    1    5    5    0    0 -0.43491843239E+03 -0.30326466978E+03  0.57527691559E+03  0.78234713036E+03  0.00000000000E+00 0. -1.
        -13    1    5    5    0    0 -0.67231531146E+01  0.51589839258E+01  0.25302757348E+01  0.88441052822E+01  0.00000000000E+00 0.  1.
          2    1    6    6  503    0  0.32473328433E+03 -0.16760259061E+03  0.18045368493E+02  0.36587972020E+03  0.00000000000E+00 0. -1.
         -2    1    6    6    0  503  0.34089937842E+02 -0.57154660914E+02  0.12874644231E+02  0.67783003698E+02  0.00000000000E+00 0.  1.
<mgrwt>
<rscale>  0 0.17921526E+04</rscale>
<asrwt>0</asrwt>
<pdfrwt beam="1">  1        2 0.11424990E+00 0.17921526E+04</pdfrwt>
<pdfrwt beam="2">  1       -1 0.16634412E+00 0.17921526E+04</pdfrwt>
<totfact> 0.10727817E+01</totfact>
</mgrwt>
</event>
<event>
12    7  0.1605494E-007  0.1877212E+04  0.7818608E-02  0.8666283E-01
          2   -1    0    0  501    0  0.00000000000E+00  0.00000000000E+00  0.40892998100E+04  0.40892998100E+04  0.00000000000E+00 0. -1.
         -1   -1    0    0    0  501 -0.00000000000E+00 -0.00000000000E+00 -0.21543577303E+03  0.21543577303E+03  0.00000000000E+00 0.  1.
         24    2    1    2    0    0  0.72368474640E+03  0.12706929475E+03  0.14002329141E+04  0.15832603457E+04  0.78707628171E+02 0.  0.
        254    2    1    2    0    0 -0.72368474640E+03 -0.12706929475E+03  0.24736311229E+04  0.27214752374E+04  0.86470244448E+03 0.  0.
         23    2    4    4    0    0 -0.54073312156E+03 -0.28772158775E+03  0.72470418797E+03  0.95281017643E+03  0.86458379771E+02 0.  0.
         23    2    4    4    0    0 -0.18295162484E+03  0.16065229300E+03  0.17489269349E+04  0.17686650609E+04  0.10074828896E+03 0.  0.
          2    1    3    3  502    0  0.37822140296E+03  0.87403419186E+02  0.80988134716E+03  0.89810833635E+03  0.00000000000E+00 0. -1.
         -1    1    3    3    0  502  0.34546334343E+03  0.39665875565E+02  0.59035156694E+03  0.68515200936E+03  0.00000000000E+00 0.  1.
         13    1    5    5    0    0 -0.13437392470E+03 -0.11459189450E+03  0.22018736354E+03  0.28225897504E+03  0.00000000000E+00 0. -1.
        -13    1    5    5    0    0 -0.40635919686E+03 -0.17312969325E+03  0.50451682443E+03  0.67055120139E+03  0.00000000000E+00 0.  1.
          2    1    6    6  503    0 -0.17576113290E+03  0.10393102641E+03  0.12652522315E+04  0.12816227384E+04  0.00000000000E+00 0.  1.
         -2    1    6    6    0  503 -0.71904919324E+01  0.56721266583E+02  0.48367470341E+03  0.48704232257E+03  0.00000000000E+00 0. -1.
<mgrwt>
<rscale>  0 0.18772123E+04</rscale>
<asrwt>0</asrwt>
<pdfrwt beam="1">  1        2 0.62912299E+00 0.18772123E+04</pdfrwt>
<pdfrwt beam="2">  1       -1 0.33143968E-01 0.18772123E+04</pdfrwt>
<totfact> 0.26768586E+00</totfact>
</mgrwt>
</event>
<event>
12    7  0.1605494E-007  0.3061209E+04  0.7818608E-02  0.8226465E-01
         -1   -1    0    0    0  501 -0.00000000000E+00  0.00000000000E+00  0.14779377713E+04  0.14779377713E+04  0.00000000000E+00 0.  1.
          2   -1    0    0  501    0  0.00000000000E+00 -0.00000000000E+00 -0.15851481575E+04  0.15851481575E+04  0.00000000000E+00 0. -1.
         24    2    1    2    0    0 -0.61836743740E+03  0.99931925569E+03  0.71581557183E+03  0.13781584486E+04  0.76886371277E+02 0.  0.
        254    2    1    2    0    0  0.61836743740E+03 -0.99931925569E+03 -0.82302595799E+03  0.16849274802E+04  0.88351096408E+03 0.  0.
         23    2    4    4    0    0  0.29874907389E+03 -0.74331906089E+03 -0.53215528671E+02  0.80813100194E+03  0.92030366568E+02 0.  0.
         23    2    4    4    0    0  0.31961836352E+03 -0.25600019480E+03 -0.76981042932E+03  0.87679647829E+03  0.92043300725E+02 0.  0.
          4    1    3    3  502    0 -0.63712897669E+02  0.10641997696E+03  0.10440625488E+03  0.16212714419E+03  0.00000000000E+00 0. -1.
         -3    1    3    3    0  502 -0.55465453973E+03  0.89289927873E+03  0.61140931696E+03  0.12160313044E+04  0.00000000000E+00 0.  1.
         13    1    5    5    0    0  0.16960076061E+02 -0.46274973006E+02 -0.26157191984E+02  0.55796200580E+02  0.00000000000E+00 0.  1.
        -13    1    5    5    0    0  0.28178899783E+03 -0.69704408788E+03 -0.27058336688E+02  0.75233480136E+03  0.00000000000E+00 0. -1.
          4    1    6    6  503    0  0.12367123427E+03 -0.80961431699E+02 -0.36942276074E+03  0.39789760462E+03  0.00000000000E+00 0. -1.
         -4    1    6    6    0  503  0.19594712924E+03 -0.17503876310E+03 -0.40038766858E+03  0.47889887366E+03  0.00000000000E+00 0.  1.
<mgrwt>
<rscale>  0 0.30612091E+04</rscale>
<asrwt>0</asrwt>
<pdfrwt beam="1">  1        2 0.24386895E+00 0.30612091E+04</pdfrwt>
<pdfrwt beam="2">  1       -1 0.22737504E+00 0.30612091E+04</pdfrwt>
<totfact> 0.10830675E+00</totfact>
</mgrwt>
</event>
<event>
12    7  0.1899099E-007  0.1748208E+04  0.7818608E-02  0.8734338E-01
          2   -1    0    0  501    0  0.00000000000E+00  0.00000000000E+00  0.98385470259E+03  0.98385470259E+03  0.00000000000E+00 0. -1.
         -1   -1    0    0    0  501 -0.00000000000E+00 -0.00000000000E+00 -0.77659586295E+03  0.77659586295E+03  0.00000000000E+00 0.  1.
         24    2    1    2    0    0  0.31433958599E+03  0.13497160896E+03 -0.45970872336E+03  0.57851731528E+03  0.79520206255E+02 0.  0.
        254    2    1    2    0    0 -0.31433958599E+03 -0.13497160896E+03  0.66696756299E+03  0.11819332503E+04  0.91383464994E+03 0.  0.
         23    2    4    4    0    0  0.14683144293E+03  0.69782318797E+02  0.64172861131E+03  0.66845011500E+03  0.92633152935E+02 0.  0.
         23    2    4    4    0    0 -0.46117102893E+03 -0.20475392776E+03  0.25238951686E+02  0.51348313526E+03  0.91787998454E+02 0.  0.
          2    1    3    3  502    0  0.33355191968E+02 -0.41657582601E+01 -0.75221087861E+02  0.82390135527E+02  0.00000000000E+00 0. -1.
         -1    1    3    3    0  502  0.28098439402E+03  0.13913736722E+03 -0.38448763549E+03  0.49612717975E+03  0.00000000000E+00 0.  1.
         13    1    5    5    0    0  0.13169723563E+03  0.50467803973E+02  0.61946607529E+03  0.63531832931E+03  0.00000000000E+00 0. -1.
        -13    1    5    5    0    0  0.15134207303E+02  0.19314514824E+02  0.22262536012E+02  0.33131785694E+02  0.00000000000E+00 0.  1.
          1    1    6    6  503    0 -0.45545585246E+03 -0.18385137773E+03  0.23064475793E+02  0.49170451765E+03  0.00000000000E+00 0. -1.
         -1    1    6    6    0  503 -0.57151764679E+01 -0.20902550024E+02  0.21744758930E+01  0.21778617610E+02  0.00000000000E+00 0.  1.
<mgrwt>
<rscale>  0 0.17482076E+04</rscale>
<asrwt>0</asrwt>
<pdfrwt beam="1">  1        2 0.15136226E+00 0.17482076E+04</pdfrwt>
<pdfrwt beam="2">  1       -1 0.11947629E+00 0.17482076E+04</pdfrwt>
<totfact> 0.17464509E+01</totfact>
</mgrwt>
</event>
<event>
12    7  0.1605494E-007  0.1323697E+04  0.7818608E-02  0.9010981E-01
         -1   -1    0    0    0  501 -0.00000000000E+00  0.00000000000E+00  0.78856634399E+03  0.78856634399E+03  0.00000000000E+00 0.  1.
          2   -1    0    0  501    0  0.00000000000E+00 -0.00000000000E+00 -0.55549347876E+03  0.55549347876E+03  0.00000000000E+00 0. -1.
         24    2    1    2    0    0 -0.80049000055E+02 -0.33094442358E+03  0.14605823907E+03  0.37924325877E+03  0.80996211149E+02 0.  0.
        254    2    1    2    0    0  0.80049000055E+02  0.33094442358E+03  0.87014626162E+02  0.96481656398E+03  0.89853625584E+03 0.  0.
         23    2    4    4    0    0 -0.34728119205E+03  0.23107271075E+03 -0.15674735160E+03  0.45464241803E+03  0.90173011664E+02 0.  0.
         23    2    4    4    0    0  0.42733019210E+03  0.99871712822E+02  0.24376197776E+03  0.51017414595E+03  0.90952214314E+02 0.  0.
          2    1    3    3  502    0 -0.16050121562E+02 -0.22841901488E+03  0.90367134655E+02  0.24616878719E+03  0.00000000000E+00 0. -1.
         -1    1    3    3    0  502 -0.63998878493E+02 -0.10252540869E+03  0.55691104414E+02  0.13307447158E+03  0.00000000000E+00 0.  1.
         13    1    5    5    0    0 -0.28750615904E+03  0.16507826199E+03 -0.90493376506E+02  0.34365633307E+03  0.00000000000E+00 0. -1.
        -13    1    5    5    0    0 -0.59775033006E+02  0.65994448765E+02 -0.66253975094E+02  0.11098608496E+03  0.00000000000E+00 0.  1.
          4    1    6    6  503    0  0.89864077241E+02  0.39780251217E+02  0.94405973128E+02  0.13627365309E+03  0.00000000000E+00 0.  1.
         -4    1    6    6    0  503  0.33746611486E+03  0.60091461605E+02  0.14935600463E+03  0.37390049286E+03  0.00000000000E+00 0. -1.
<mgrwt>
<rscale>  0 0.13236970E+04</rscale>
<asrwt>0</asrwt>
<pdfrwt beam="1">  1        2 0.85460535E-01 0.13236970E+04</pdfrwt>
<pdfrwt beam="2">  1       -1 0.12131790E+00 0.13236970E+04</pdfrwt>
<totfact> 0.36691365E+01</totfact>
</mgrwt>
</event>
<event>
12    7  0.1605494E-007  0.1732900E+04  0.7818608E-02  0.8742820E-01
          4   -1    0    0  501    0  0.00000000000E+00  0.00000000000E+00  0.18326112209E+04  0.18326112209E+04  0.00000000000E+00 0. -1.
         -3   -1    0    0    0  501 -0.00000000000E+00 -0.00000000000E+00 -0.40965347518E+03  0.40965347518E+03  0.00000000000E+00 0.  1.
         24    2    1    2    0    0  0.28895586490E+03 -0.12473845985E+03  0.12295796449E+04  0.12717255316E+04  0.79778125156E+02 0.  0.
        254    2    1    2    0    0 -0.28895586490E+03  0.12473845985E+03  0.19337810079E+03  0.97053916449E+03  0.89749429230E+03 0.  0.
         23    2    4    4    0    0 -0.18527143534E+03 -0.81623894756E+02  0.51782262186E+03  0.56306473266E+03  0.88958757352E+02 0.  0.
         23    2    4    4    0    0 -0.10368442956E+03  0.20636235461E+03 -0.32444452107E+03  0.40747443182E+03  0.86228087085E+02 0.  0.
          4    1    3    3  502    0  0.26178725160E+03 -0.12458708498E+03  0.10203630140E+04  0.10607521799E+04  0.00000000000E+00 0. -1.
         -1    1    3    3    0  502  0.27168613301E+02 -0.15137487049E+00  0.20921663091E+03  0.21097335167E+03  0.00000000000E+00 0.  1.
         13    1    5    5    0    0 -0.90070679130E+02  0.29215285668E+01  0.16555123658E+03  0.18848998515E+03  0.00000000000E+00 0.  1.
        -13    1    5    5    0    0 -0.95200756213E+02 -0.84545423323E+02  0.35227138528E+03  0.37457474751E+03  0.00000000000E+00 0. -1.
          2    1    6    6  503    0 -0.79835448320E+02  0.76090824972E+02 -0.18333078494E+03  0.21394786552E+03  0.00000000000E+00 0. -1.
         -2    1    6    6    0  503 -0.23848981241E+02  0.13027152964E+03 -0.14111373613E+03  0.19352656630E+03  0.00000000000E+00 0.  1.
<mgrwt>
<rscale>  0 0.17328999E+04</rscale>
<asrwt>0</asrwt>
<pdfrwt beam="1">  1        4 0.28194018E+00 0.17328999E+04</pdfrwt>
<pdfrwt beam="2">  1       -3 0.63023613E-01 0.17328999E+04</pdfrwt>
<totfact> 0.21268216E-01</totfact>
</mgrwt>
</event>
<event>
12    7  0.1605494E-007  0.1490012E+04  0.7818608E-02  0.8891122E-01
          2   -1    0    0  501    0  0.00000000000E+00  0.00000000000E+00  0.56764321521E+03  0.56764321521E+03  0.00000000000E+00 0. -1.
         -1   -1    0    0    0  501 -0.00000000000E+00 -0.00000000000E+00 -0.97778696067E+03  0.97778696067E+03  0.00000000000E+00 0.  1.
         24    2    1    2    0    0  0.27506393144E+03 -0.32118134819E+03 -0.34268324003E+03  0.55027360477E+03  0.80942030471E+02 0.  0.
        254    2    1    2    0    0 -0.27506393144E+03  0.32118134819E+03 -0.67460505431E+02  0.99515657112E+03  0.89831400770E+03 0.  0.
         23    2    4    4    0    0  0.27112107864E+03  0.20907492569E+03  0.15733439501E+03  0.38754316588E+03  0.90645627230E+02 0.  0.
         23    2    4    4    0    0 -0.54618501008E+03  0.11210642250E+03 -0.22479490044E+03  0.60761340523E+03  0.88178159162E+02 0.  0.
          2    1    3    3  502    0  0.16390823753E+03 -0.18692062643E+03 -0.25120088790E+03  0.35342200978E+03  0.00000000000E+00 0. -1.
         -1    1    3    3    0  502  0.11115569391E+03 -0.13426072176E+03 -0.91482352133E+02  0.19685159499E+03  0.00000000000E+00 0.  1.
         13    1    5    5    0    0  0.15527960570E+03  0.12876049656E+03  0.13995369938E+03  0.24551590456E+03  0.00000000000E+00 0.  1.
        -13    1    5    5    0    0  0.11584147294E+03  0.80314429131E+02  0.17380695631E+02  0.14202726133E+03  0.00000000000E+00 0. -1.
          3    1    6    6  503    0 -0.31279030509E+02 -0.67789657387E+01 -0.31535686735E+02  0.44931410660E+02  0.00000000000E+00 0. -1.
         -3    1    6    6    0  503 -0.51490597957E+03  0.11888538824E+03 -0.19325921371E+03  0.56268199457E+03  0.00000000000E+00 0.  1.
<mgrwt>
<rscale>  0 0.14900123E+04</rscale>
<asrwt>0</asrwt>
<pdfrwt beam="1">  1        2 0.87329726E-01 0.14900123E+04</pdfrwt>
<pdfrwt beam="2">  1       -1 0.15042876E+00 0.14900123E+04</pdfrwt>
<totfact> 0.20286146E+01</totfact>
</mgrwt>
</event>
<event>
12    7  0.1605494E-007  0.1692097E+04  0.7818608E-02  0.8765884E-01
         -1   -1    0    0    0  501 -0.00000000000E+00  0.00000000000E+00  0.43947204001E+03  0.43947204001E+03  0.00000000000E+00 0.  1.
          2   -1    0    0  501    0  0.00000000000E+00 -0.00000000000E+00 -0.16287687217E+04  0.16287687217E+04  0.00000000000E+00 0. -1.
         24    2    1    2    0    0  0.16858663085E+03 -0.10770211441E+03 -0.11420114967E+04  0.11622594167E+04  0.81458552182E+02 0.  0.
        254    2    1    2    0    0 -0.16858663085E+03  0.10770211441E+03 -0.47285185012E+02  0.90598134497E+03  0.88235203358E+03 0.  0.
         23    2    4    4    0    0 -0.14057388658E+03  0.31056337631E+03  0.31912538904E+03  0.47586146532E+03  0.91610545010E+02 0.  0.
         23    2    4    4    0    0 -0.28012744270E+02 -0.20286126190E+03 -0.36641057405E+03  0.43011987965E+03  0.93856255415E+02 0.  0.
          4    1    3    3  502    0  0.10931379018E+03 -0.10394605540E+03 -0.92713111576E+03  0.93932230516E+03  0.00000000000E+00 0. -1.
         -3    1    3    3    0  502  0.59272840666E+02 -0.37560590054E+01 -0.21488038091E+03  0.22293711158E+03  0.00000000000E+00 0.  1.
         13    1    5    5    0    0 -0.43002960865E+02  0.14164009392E+03  0.83461421131E+02  0.16993227965E+03  0.00000000000E+00 0. -1.
        -13    1    5    5    0    0 -0.97570925710E+02  0.16892328238E+03  0.23566396790E+03  0.30592918567E+03  0.00000000000E+00 0.  1.
          4    1    6    6  503    0  0.48220724208E+01 -0.16437192718E+03 -0.21628927655E+03  0.27170284131E+03  0.00000000000E+00 0. -1.
         -4    1    6    6    0  503 -0.32834816691E+02 -0.38489334714E+02 -0.15012129750E+03  0.15841703834E+03  0.00000000000E+00 0.  1.
<mgrwt>
<rscale>  0 0.16920973E+04</rscale>
<asrwt>0</asrwt>
<pdfrwt beam="1">  1        2 0.25057980E+00 0.16920973E+04</pdfrwt>
<pdfrwt beam="2">  1       -1 0.67611083E-01 0.16920973E+04</pdfrwt>
<totfact> 0.25822914E+01</totfact>
</mgrwt>
</event>
<event>
12    7  0.1605494E-007  0.1154314E+04  0.7818608E-02  0.9153813E-01
          2   -1    0    0  501    0  0.00000000000E+00  0.00000000000E+00  0.11539234303E+04  0.11539234303E+04  0.00000000000E+00 0. -1.
         -1   -1    0    0    0  501 -0.00000000000E+00 -0.00000000000E+00 -0.28867616932E+03  0.28867616932E+03  0.00000000000E+00 0.  1.
         24    2    1    2    0    0  0.12122285514E+03 -0.56671832060E+02 -0.38141422284E+02  0.16018731597E+03  0.79363284632E+02 0.  0.
        254    2    1    2    0    0 -0.12122285514E+03  0.56671832060E+02  0.90338868331E+03  0.12824122837E+04  0.90031298728E+03 0.  0.
         23    2    4    4    0    0  0.13962668275E+03  0.28497996351E+03  0.22574983994E+02  0.33122541521E+03  0.92149094622E+02 0.  0.
         23    2    4    4    0    0 -0.26084953789E+03 -0.22830813145E+03  0.88081369931E+03  0.95118686848E+03  0.93576714872E+02 0.  0.
          2    1    3    3  502    0  0.36599555979E+02 -0.32059136168E+02  0.22096591727E+02  0.53437581117E+02  0.00000000000E+00 0. -1.
         -1    1    3    3    0  502  0.84623299162E+02 -0.24612695892E+02 -0.60238014011E+02  0.10674973486E+03  0.00000000000E+00 0.  1.
         13    1    5    5    0    0  0.55083059463E+02  0.54290508830E+02  0.35697856723E+02  0.85181804181E+02  0.00000000000E+00 0. -1.
        -13    1    5    5    0    0  0.84543623287E+02  0.23068945468E+03 -0.13122872729E+02  0.24604361103E+03  0.00000000000E+00 0.  1.
          1    1    6    6  503    0 -0.10568206632E+03 -0.83286334373E+02  0.22857016321E+03  0.26523505075E+03  0.00000000000E+00 0. -1.
         -1    1    6    6    0  503 -0.15516747157E+03 -0.14502179708E+03  0.65224353610E+03  0.68595181773E+03  0.00000000000E+00 0.  1.
<mgrwt>
<rscale>  0 0.11543140E+04</rscale>
<asrwt>0</asrwt>
<pdfrwt beam="1">  1        2 0.17752668E+00 0.11543140E+04</pdfrwt>
<pdfrwt beam="2">  1       -1 0.44411719E-01 0.11543140E+04</pdfrwt>
<totfact> 0.11427907E+02</totfact>
</mgrwt>
</event>
<event>
12    7  0.1605494E-007  0.1330217E+04  0.7818608E-02  0.9005940E-01
          2   -1    0    0  501    0  0.00000000000E+00  0.00000000000E+00  0.29216695416E+04  0.29216695416E+04  0.00000000000E+00 0. -1.
         -1   -1    0    0    0  501 -0.00000000000E+00 -0.00000000000E+00 -0.15140985408E+03  0.15140985408E+03  0.00000000000E+00 0.  1.
         24    2    1    2    0    0 -0.28065607884E+03 -0.20315144806E+03  0.73232118038E+03  0.81402565105E+03  0.79404684267E+02 0.  0.
        254    2    1    2    0    0  0.28065607884E+03  0.20315144806E+03  0.20379385071E+04  0.22590537446E+04  0.91109391216E+03 0.  0.
         23    2    4    4    0    0  0.15816896589E+03 -0.10710471528E+03  0.21382176674E+02  0.21306747364E+03  0.91933177025E+02 0.  0.
         23    2    4    4    0    0  0.12248711296E+03  0.31025616334E+03  0.20165563305E+04  0.20459862710E+04  0.91095594839E+02 0.  0.
          4    1    3    3  502    0 -0.19007602642E+01  0.61422985766E+01  0.19605796768E+02  0.20633176884E+02  0.00000000000E+00 0. -1.
         -3    1    3    3    0  502 -0.27875531858E+03 -0.20929374664E+03  0.71271538362E+03  0.79339247416E+03  0.00000000000E+00 0.  1.
         13    1    5    5    0    0  0.15276158146E+03 -0.79446201588E+02  0.43088739617E+02  0.17749489908E+03  0.00000000000E+00 0.  1.
        -13    1    5    5    0    0  0.54073844281E+01 -0.27658513696E+02 -0.21706562942E+02  0.35572574562E+02  0.00000000000E+00 0. -1.
          2    1    6    6  503    0  0.58775958285E+01  0.88483525484E+02  0.72007109608E+03  0.72551103632E+03  0.00000000000E+00 0.  1.
         -2    1    6    6    0  503  0.11660951713E+03  0.22177263786E+03  0.12964852344E+04  0.13204752347E+04  0.00000000000E+00 0. -1.
<mgrwt>
<rscale>  0 0.13302174E+04</rscale>
<asrwt>0</asrwt>
<pdfrwt beam="1">  1        2 0.44948758E+00 0.13302174E+04</pdfrwt>
<pdfrwt beam="2">  1       -1 0.23293826E-01 0.13302174E+04</pdfrwt>
<totfact> 0.34634903E+01</totfact>
</mgrwt>
</event>
<event>
12    7  0.1605494E-007  0.1455421E+04  0.7818608E-02  0.8914651E-01
          2   -1    0    0  501    0  0.00000000000E+00  0.00000000000E+00  0.19849691246E+04  0.19849691246E+04  0.00000000000E+00 0. -1.
         -1   -1    0    0    0  501 -0.00000000000E+00 -0.00000000000E+00 -0.26678625651E+03  0.26678625651E+03  0.00000000000E+00 0.  1.
         24    2    1    2    0    0 -0.25205704922E+03  0.49263126373E+02 -0.18878838683E+02  0.26949851629E+03  0.79457083086E+02 0.  0.
        254    2    1    2    0    0  0.25205704922E+03 -0.49263126373E+02  0.17370617068E+04  0.19822568649E+04  0.91978219885E+03 0.  0.
         23    2    4    4    0    0 -0.27697205489E+03 -0.86583420237E+01  0.20525015254E+03  0.35817921003E+03  0.96830962516E+02 0.  0.
         23    2    4    4    0    0  0.52902910411E+03 -0.40604784349E+02  0.15318115543E+04  0.16240776548E+04  0.98290638521E+02 0.  0.
          2    1    3    3  502    0 -0.10077268607E+01  0.12440937206E+02 -0.93303044998E+01  0.15583549469E+02  0.00000000000E+00 0. -1.
         -1    1    3    3    0  502 -0.25104932236E+03  0.36822189166E+02 -0.95485341832E+01  0.25391496682E+03  0.00000000000E+00 0.  1.
         13    1    5    5    0    0 -0.22832405831E+03  0.82053266675E+01  0.20459162170E+03  0.30668703047E+03  0.00000000000E+00 0. -1.
        -13    1    5    5    0    0 -0.48647996577E+02 -0.16863668691E+02  0.65853084351E+00  0.51492179557E+02  0.00000000000E+00 0.  1.
          4    1    6    6  503    0  0.37181468240E+03 -0.44851383301E+02  0.94359719361E+03  0.10152011960E+04  0.00000000000E+00 0. -1.
         -4    1    6    6    0  503  0.15721442171E+03  0.42465989524E+01  0.58821436066E+03  0.60887645880E+03  0.00000000000E+00 0.  1.
<mgrwt>
<rscale>  0 0.14554209E+04</rscale>
<asrwt>0</asrwt>
<pdfrwt beam="1">  1        2 0.30537985E+00 0.14554209E+04</pdfrwt>
<pdfrwt beam="2">  1       -1 0.41044041E-01 0.14554209E+04</pdfrwt>
<totfact> 0.43711532E+01</totfact>
</mgrwt>
</event>
<event>
12    7  0.1605494E-007  0.3349213E+04  0.7818608E-02  0.8150485E-01
         -3   -1    0    0    0  501 -0.00000000000E+00  0.00000000000E+00  0.19363196254E+04  0.19363196254E+04  0.00000000000E+00 0.  1.
          2   -1    0    0  501    0  0.00000000000E+00 -0.00000000000E+00 -0.14482665569E+04  0.14482665569E+04  0.00000000000E+00 0. -1.
         24    2    1    2    0    0 -0.18259349817E+03  0.16960532688E+03 -0.13208776395E+04  0.13466628319E+04  0.81711026088E+02 0.  0.
        254    2    1    2    0    0  0.18259349817E+03 -0.16960532688E+03  0.18089307080E+04  0.20379233504E+04  0.90487287696E+03 0.  0.
         23    2    4    4    0    0 -0.27534743334E+03 -0.28033917053E+03  0.49202297678E+03  0.63637430042E+03  0.92083554294E+02 0.  0.
         23    2    4    4    0    0  0.45794093151E+03  0.11073384365E+03  0.13169077312E+04  0.14015490500E+04  0.90121508036E+02 0.  0.
          2    1    3    3  502    0 -0.14917429144E+03  0.13954290939E+03 -0.87507654699E+03  0.89860122183E+03  0.00000000000E+00 0. -1.
         -1    1    3    3    0  502 -0.33419206729E+02  0.30062417489E+02 -0.44580109253E+03  0.44806161007E+03  0.00000000000E+00 0.  1.
         13    1    5    5    0    0 -0.35266956301E+02 -0.59815951156E+02  0.43640417430E+02  0.82013366306E+02  0.00000000000E+00 0.  1.
        -13    1    5    5    0    0 -0.24008047704E+03 -0.22052321937E+03  0.44838255935E+03  0.55436093411E+03  0.00000000000E+00 0. -1.
          2    1    6    6  503    0  0.34518233718E+03  0.61488047718E+02  0.10643585852E+04  0.11206207315E+04  0.00000000000E+00 0. -1.
         -2    1    6    6    0  503  0.11275859433E+03  0.49245795927E+02  0.25254914598E+03  0.28092831853E+03  0.00000000000E+00 0.  1.
<mgrwt>
<rscale>  0 0.33492130E+04</rscale>
<asrwt>0</asrwt>
<pdfrwt beam="1">  1        2 0.22281024E+00 0.33492130E+04</pdfrwt>
<pdfrwt beam="2">  1       -3 0.29789533E+00 0.33492130E+04</pdfrwt>
<totfact> 0.27677940E-01</totfact>
</mgrwt>
</event>
<event>
12    7  0.1605494E-007  0.1434107E+04  0.7818608E-02  0.8929494E-01
         -1   -1    0    0    0  501 -0.00000000000E+00  0.00000000000E+00  0.30819792195E+03  0.30819792195E+03  0.00000000000E+00 0.  1.
          2   -1    0    0  501    0  0.00000000000E+00 -0.00000000000E+00 -0.16682973812E+04  0.16682973812E+04  0.00000000000E+00 0. -1.
         24    2    1    2    0    0 -0.69644911759E+02 -0.22372570213E+03  0.38480153419E+02  0.24946946324E+03  0.76489785946E+02 0.  0.
        254    2    1    2    0    0  0.69644911759E+02  0.22372570213E+03 -0.13985796126E+04  0.17270258399E+04  0.98574322985E+03 0.  0.
         23    2    4    4    0    0 -0.46339309953E+02  0.59966042156E+03 -0.86651176265E+03  0.10591610891E+04  0.96122967861E+02 0.  0.
         23    2    4    4    0    0  0.11598422171E+03 -0.37593471943E+03 -0.53206784997E+03  0.66786475080E+03  0.90376299002E+02 0.  0.
          2    1    3    3  502    0 -0.92769520559E+01 -0.12788188693E+02 -0.16948869386E+02  0.23170321166E+02  0.00000000000E+00 0. -1.
         -1    1    3    3    0  502 -0.60367959703E+02 -0.21093751344E+03  0.55429022805E+02  0.22629914208E+03  0.00000000000E+00 0.  1.
         13    1    5    5    0    0  0.27606633574E+02  0.11381163780E+03 -0.14986940765E+03  0.19020003802E+03  0.00000000000E+00 0.  1.
        -13    1    5    5    0    0 -0.73945943528E+02  0.48584878377E+03 -0.71664235500E+03  0.86896105104E+03  0.00000000000E+00 0. -1.
          3    1    6    6  503    0  0.11527215288E+03 -0.23907338229E+03 -0.32420053143E+03  0.41898655816E+03  0.00000000000E+00 0. -1.
         -3    1    6    6    0  503  0.71206883525E+00 -0.13686133714E+03 -0.20786731855E+03  0.24887819263E+03  0.00000000000E+00 0.  1.
<mgrwt>
<rscale>  0 0.14341071E+04</rscale>
<asrwt>0</asrwt>
<pdfrwt beam="1">  1        2 0.25666114E+00 0.14341071E+04</pdfrwt>
<pdfrwt beam="2">  1       -1 0.47415064E-01 0.14341071E+04</pdfrwt>
<totfact> 0.50151333E+01</totfact>
</mgrwt>
</event>
<event>
12    7  0.1605494E-007  0.2246715E+04  0.7818608E-02  0.8499232E-01
          2   -1    0    0  501    0  0.00000000000E+00  0.00000000000E+00  0.26130487776E+04  0.26130487776E+04  0.00000000000E+00 0. -1.
         -1   -1    0    0    0  501 -0.00000000000E+00 -0.00000000000E+00 -0.48293480794E+03  0.48293480794E+03  0.00000000000E+00 0.  1.
         24    2    1    2    0    0 -0.81673125909E+03 -0.24123581301E+02  0.15286261314E+04  0.17351303427E+04  0.79671574116E+02 0.  0.
        254    2    1    2    0    0  0.81673125909E+03  0.24123581301E+02  0.60148783830E+03  0.13608532429E+04  0.90691897783E+03 0.  0.
         23    2    4    4    0    0  0.17842708722E+03  0.35689375339E+02  0.68173680591E+03  0.71145609588E+03  0.91075500911E+02 0.  0.
         23    2    4    4    0    0  0.63830417187E+03 -0.11565794037E+02 -0.80248967610E+02  0.64939714703E+03  0.87811014906E+02 0.  0.
          4    1    3    3  502    0  0.16214906676E+01 -0.98105011523E+00  0.15631778756E+01  0.24566677399E+01  0.00000000000E+00 0. -1.
         -1    1    3    3    0  502 -0.81835274976E+03 -0.23142531186E+02  0.15270629535E+04  0.17326736749E+04  0.00000000000E+00 0.  1.
         13    1    5    5    0    0  0.42136657593E+02  0.37755690827E+02  0.11001806584E+03  0.12371323661E+03  0.00000000000E+00 0.  1.
        -13    1    5    5    0    0  0.13629042962E+03 -0.20663154881E+01  0.57171874007E+03  0.58774285926E+03  0.00000000000E+00 0. -1.
          3    1    6    6  503    0  0.55435703965E+03  0.13549323199E+02 -0.50310652479E+02  0.55680020952E+03  0.00000000000E+00 0. -1.
         -3    1    6    6    0  503  0.83947132220E+02 -0.25115117237E+02 -0.29938315130E+02  0.92596937501E+02  0.00000000000E+00 0.  1.
<mgrwt>
<rscale>  0 0.22467151E+04</rscale>
<asrwt>0</asrwt>
<pdfrwt beam="1">  1        2 0.40200750E+00 0.22467151E+04</pdfrwt>
<pdfrwt beam="2">  1       -1 0.74297664E-01 0.22467151E+04</pdfrwt>
<totfact> 0.56495975E+00</totfact>
</mgrwt>
</event>
<event>
12    7  0.1605494E-007  0.1617394E+04  0.7818608E-02  0.8809933E-01
         -1   -1    0    0    0  501 -0.00000000000E+00  0.00000000000E+00  0.14539995794E+04  0.14539995794E+04  0.00000000000E+00 0.  1.
          2   -1    0    0  501    0  0.00000000000E+00 -0.00000000000E+00 -0.44978760112E+03  0.44978760112E+03  0.00000000000E+00 0. -1.
         24    2    1    2    0    0  0.87282053458E+02  0.20260353056E+03  0.93977111001E+03  0.96859968640E+03  0.79682280554E+02 0.  0.
        254    2    1    2    0    0 -0.87282053458E+02 -0.20260353056E+03  0.64440868233E+02  0.93518749408E+03  0.90650795702E+03 0.  0.
         23    2    4    4    0    0 -0.12659561813E+03  0.29774848515E+03 -0.16619963806E+03  0.37519655076E+03  0.92030000912E+02 0.  0.
         23    2    4    4    0    0  0.39313564673E+02 -0.50035201571E+03  0.23064050630E+03  0.55999094332E+03  0.92179810508E+02 0.  0.
          4    1    3    3  502    0  0.14393491548E+02 -0.41145580450E+01  0.75215913935E+02  0.76691172217E+02  0.00000000000E+00 0. -1.
         -3    1    3    3    0  502  0.72888561910E+02  0.20671808860E+03  0.86455519607E+03  0.89190851418E+03  0.00000000000E+00 0.  1.
         13    1    5    5    0    0 -0.86654162033E+02  0.10850992157E+03 -0.98624113991E+02  0.17032340631E+03  0.00000000000E+00 0. -1.
        -13    1    5    5    0    0 -0.39941456098E+02  0.18923856359E+03 -0.67575524074E+02  0.20487314445E+03  0.00000000000E+00 0.  1.
          4    1    6    6  503    0  0.39254258937E+02 -0.50419643358E+03  0.23127118226E+03  0.55609468638E+03  0.00000000000E+00 0.  1.
         -4    1    6    6    0  503  0.59305736330E-01  0.38444178727E+01 -0.63067596160E+00  0.38962569370E+01  0.00000000000E+00 0. -1.
<mgrwt>
<rscale>  0 0.16173942E+04</rscale>
<asrwt>0</asrwt>
<pdfrwt beam="1">  1        2 0.69198093E-01 0.16173942E+04</pdfrwt>
<pdfrwt beam="2">  1       -1 0.22369224E+00 0.16173942E+04</pdfrwt>
<totfact> 0.79215636E+00</totfact>
</mgrwt>
</event>
<event>
12    7  0.1605494E-007  0.1090610E+04  0.7818608E-02  0.9214392E-01
         -1   -1    0    0    0  501 -0.00000000000E+00  0.00000000000E+00  0.99309874864E+03  0.99309874864E+03  0.00000000000E+00 0.  1.
          2   -1    0    0  501    0  0.00000000000E+00 -0.00000000000E+00 -0.29942410463E+03  0.29942410463E+03  0.00000000000E+00 0. -1.
         24    2    1    2    0    0  0.75626581096E+02  0.12692786853E+03  0.16999038955E+03  0.24011659817E+03  0.83241723917E+02 0.  0.
        254    2    1    2    0    0 -0.75626581096E+02 -0.12692786853E+03  0.52368425446E+03  0.10524062551E+04  0.90082388058E+03 0.  0.
         23    2    4    4    0    0  0.23034482235E+03 -0.30742810895E+03  0.55988994098E+03  0.68489915575E+03  0.89662300789E+02 0.  0.
         23    2    4    4    0    0 -0.30597140344E+03  0.18050024041E+03 -0.36205686514E+02  0.36750709936E+03  0.86900977133E+02 0.  0.
          2    1    3    3  502    0 -0.28520331390E+01 -0.97703268103E+01  0.20452926514E+02  0.22845471805E+02  0.00000000000E+00 0. -1.
         -1    1    3    3    0  502  0.78478614235E+02  0.13669819534E+03  0.14953746303E+03  0.21727112637E+03  0.00000000000E+00 0.  1.
         13    1    5    5    0    0  0.68661988972E+02 -0.34267505717E+02  0.98479261099E+02  0.12484748914E+03  0.00000000000E+00 0. -1.
        -13    1    5    5    0    0  0.16168283338E+03 -0.27316060323E+03  0.46141067988E+03  0.56005166661E+03  0.00000000000E+00 0.  1.
          3    1    6    6  503    0 -0.84966155446E+02  0.14889672017E+02  0.12222636931E+02  0.87122573180E+02  0.00000000000E+00 0. -1.
         -3    1    6    6    0  503 -0.22100524800E+03  0.16561056840E+03 -0.48428323445E+02  0.28038452618E+03  0.00000000000E+00 0.  1.
<mgrwt>
<rscale>  0 0.10906103E+04</rscale>
<asrwt>0</asrwt>
<pdfrwt beam="1">  1        2 0.46065247E-01 0.10906103E+04</pdfrwt>
<pdfrwt beam="2">  1       -1 0.15278442E+00 0.10906103E+04</pdfrwt>
<totfact> 0.41582532E+01</totfact>
</mgrwt>
</event>
<event>
12    7  0.1605494E-007  0.1455446E+04  0.7818608E-02  0.8914634E-01
          2   -1    0    0  501    0  0.00000000000E+00  0.00000000000E+00  0.26502734886E+04  0.26502734886E+04  0.00000000000E+00 0. -1.
         -1   -1    0    0    0  501 -0.00000000000E+00 -0.00000000000E+00 -0.19982107210E+03  0.19982107210E+03  0.00000000000E+00 0.  1.
         24    2    1    2    0    0 -0.12144358198E+03  0.96035871977E+02 -0.54633737352E+02  0.18227587686E+03  0.79172076631E+02 0.  0.
        254    2    1    2    0    0  0.12144358198E+03 -0.96035871977E+02  0.25050861539E+04  0.26678186839E+04  0.90433868616E+03 0.  0.
         23    2    4    4    0    0  0.47026994297E+03 -0.40652577954E+02  0.19127329594E+04  0.19720182992E+04  0.86616089549E+02 0.  0.
         23    2    4    4    0    0 -0.34882636099E+03 -0.55383294023E+02  0.59235319452E+03  0.69580038472E+03  0.92242771752E+02 0.  0.
          2    1    3    3  502    0 -0.61020688605E+02  0.54700133940E+02  0.12558974722E+02  0.82905711124E+02  0.00000000000E+00 0. -1.
         -1    1    3    3    0  502 -0.60422893374E+02  0.41335738037E+02 -0.67192712074E+02  0.99370165737E+02  0.00000000000E+00 0.  1.
         13    1    5    5    0    0  0.19768594493E+03 -0.37270726889E+02  0.97118498357E+03  0.99180094385E+03  0.00000000000E+00 0.  1.
        -13    1    5    5    0    0  0.27258399804E+03 -0.33818510652E+01  0.94154797581E+03  0.98021735531E+03  0.00000000000E+00 0. -1.
          1    1    6    6  503    0 -0.31298444762E+03 -0.78130381146E+02  0.52429369167E+03  0.61558711490E+03  0.00000000000E+00 0. -1.
         -1    1    6    6    0  503 -0.35841913373E+02  0.22747087123E+02  0.68059502851E+02  0.80213269819E+02  0.00000000000E+00 0.  1.
<mgrwt>
<rscale>  0 0.14554456E+04</rscale>
<asrwt>0</asrwt>
<pdfrwt beam="1">  1        2 0.40773436E+00 0.14554456E+04</pdfrwt>
<pdfrwt beam="2">  1       -1 0.30741705E-01 0.14554456E+04</pdfrwt>
<totfact> 0.30807296E+01</totfact>
</mgrwt>
</event>
<event>
12    7  0.1605494E-007  0.3185094E+04  0.7818608E-02  0.8192765E-01
          2   -1    0    0  501    0  0.00000000000E+00  0.00000000000E+00  0.19601318606E+04  0.19601318606E+04  0.00000000000E+00 0. -1.
         -1   -1    0    0    0  501 -0.00000000000E+00 -0.00000000000E+00 -0.12938956658E+04  0.12938956658E+04  0.00000000000E+00 0.  1.
         24    2    1    2    0    0  0.10622659929E+04 -0.55804617665E+03 -0.55042234323E+03  0.13225976025E+04  0.80467927529E+02 0.  0.
        254    2    1    2    0    0 -0.10622659929E+04  0.55804617665E+03  0.12166585381E+04  0.19314299239E+04  0.90018830114E+03 0.  0.
         23    2    4    4    0    0 -0.11267247224E+04  0.23308883811E+03  0.97853158757E+03  0.15130463776E+04  0.89141833661E+02 0.  0.
         23    2    4    4    0    0  0.64458729508E+02  0.32495733854E+03  0.23812695054E+03  0.41838354622E+03  0.92672258475E+02 0.  0.
          2    1    3    3  502    0  0.53736474793E+03 -0.24823079012E+03 -0.30047284233E+03  0.66382477089E+03  0.00000000000E+00 0. -1.
         -1    1    3    3    0  502  0.52490124497E+03 -0.30981538653E+03 -0.24994950090E+03  0.65877283163E+03  0.00000000000E+00 0.  1.
         13    1    5    5    0    0 -0.84538730036E+03  0.19099712657E+03  0.78150553886E+03  0.11670092104E+04  0.00000000000E+00 0.  1.
        -13    1    5    5    0    0 -0.28133742204E+03  0.42091711539E+02  0.19702604871E+03  0.34603716721E+03  0.00000000000E+00 0. -1.
          3    1    6    6  503    0  0.36591344380E+02  0.32756404717E+02  0.21688839683E+02  0.53687189350E+02  0.00000000000E+00 0. -1.
         -3    1    6    6    0  503  0.27867385128E+02  0.29220093382E+03  0.21643811085E+03  0.36469635687E+03  0.00000000000E+00 0.  1.
<mgrwt>
<rscale>  0 0.31850941E+04</rscale>
<asrwt>0</asrwt>
<pdfrwt beam="1">  1        2 0.30155875E+00 0.31850941E+04</pdfrwt>
<pdfrwt beam="2">  1       -1 0.19906087E+00 0.31850941E+04</pdfrwt>
<totfact> 0.10302171E+00</totfact>
</mgrwt>
</event>
<event>
12    7  0.1605494E-007  0.1441166E+04  0.7818608E-02  0.8924548E-01
          2   -1    0    0  501    0  0.00000000000E+00  0.00000000000E+00  0.24027201127E+04  0.24027201127E+04  0.00000000000E+00 0. -1.
         -1   -1    0    0    0  501 -0.00000000000E+00 -0.00000000000E+00 -0.21610497779E+03  0.21610497779E+03  0.00000000000E+00 0.  1.
         24    2    1    2    0    0 -0.20405819394E+03  0.30197665645E+03  0.23907532197E+03  0.44299552104E+03  0.79109888931E+02 0.  0.
        254    2    1    2    0    0  0.20405819394E+03 -0.30197665645E+03  0.19475398129E+04  0.21758295694E+04  0.89916257974E+03 0.  0.
         23    2    4    4    0    0  0.26511772873E+03  0.79742924958E+02  0.16635033403E+04  0.16889287907E+04  0.92686314356E+02 0.  0.
         23    2    4    4    0    0 -0.61059534793E+02 -0.38171958141E+03  0.28403647266E+03  0.48690077874E+03  0.83411899085E+02 0.  0.
          4    1    3    3  502    0  0.38827015443E+01  0.29585993401E+02  0.13681246566E+02  0.32826557608E+02  0.00000000000E+00 0. -1.
         -3    1    3    3    0  502 -0.20794089548E+03  0.27239066305E+03  0.22539407541E+03  0.41016896343E+03  0.00000000000E+00 0.  1.
         13    1    5    5    0    0  0.16157782663E+03  0.11947529747E+02  0.11097028291E+04  0.11214680140E+04  0.00000000000E+00 0.  1.
        -13    1    5    5    0    0  0.10353990210E+03  0.67795395210E+02  0.55380051119E+03  0.56746077674E+03  0.00000000000E+00 0. -1.
          3    1    6    6  503    0 -0.68808419102E+02 -0.36205534994E+03  0.28479062077E+03  0.46575140648E+03  0.00000000000E+00 0. -1.
         -3    1    6    6    0  503  0.77488843090E+01 -0.19664231469E+02 -0.75414810981E+00  0.21149372253E+02  0.00000000000E+00 0.  1.
<mgrwt>
<rscale>  0 0.14411659E+04</rscale>
<asrwt>0</asrwt>
<pdfrwt beam="1">  1        2 0.36964923E+00 0.14411659E+04</pdfrwt>
<pdfrwt beam="2">  1       -1 0.33246921E-01 0.14411659E+04</pdfrwt>
<totfact> 0.37339096E+01</totfact>
</mgrwt>
</event>
<event>
12    7  0.1605494E-007  0.1827603E+04  0.7818608E-02  0.8691757E-01
         -1   -1    0    0    0  501 -0.00000000000E+00  0.00000000000E+00  0.61216074983E+03  0.61216074983E+03  0.00000000000E+00 0.  1.
          2   -1    0    0  501    0  0.00000000000E+00 -0.00000000000E+00 -0.13640755331E+04  0.13640755331E+04  0.00000000000E+00 0. -1.
         24    2    1    2    0    0 -0.56865462628E+03  0.17433903212E+03  0.72931197358E+02  0.60468196660E+03  0.80988512039E+02 0.  0.
        254    2    1    2    0    0  0.56865462628E+03 -0.17433903212E+03 -0.82484598066E+03  0.13715543164E+04  0.92034133278E+03 0.  0.
         23    2    4    4    0    0  0.59320267582E+03 -0.48251624108E+03 -0.53230326258E+03  0.93642861381E+03  0.94023656068E+02 0.  0.
         23    2    4    4    0    0 -0.24548049542E+02  0.30817720896E+03 -0.29254271808E+03  0.43512570256E+03  0.90428625268E+02 0.  0.
          4    1    3    3  502    0 -0.19398971131E+02  0.22231791192E+02 -0.32528421226E+01  0.29684231545E+02  0.00000000000E+00 0. -1.
         -3    1    3    3    0  502 -0.54925565515E+03  0.15210724093E+03  0.76184039481E+02  0.57499773506E+03  0.00000000000E+00 0.  1.
         13    1    5    5    0    0  0.48162731364E+03 -0.38750458424E+03 -0.47287231707E+03  0.77828844286E+03  0.00000000000E+00 0. -1.
        -13    1    5    5    0    0  0.11157536218E+03 -0.95011656838E+02 -0.59430945513E+02  0.15814017094E+03  0.00000000000E+00 0.  1.
          1    1    6    6  503    0 -0.38455455906E+02  0.30227108245E+03 -0.26550645866E+03  0.40415381844E+03  0.00000000000E+00 0. -1.
         -1    1    6    6    0  503  0.13907406364E+02  0.59061265122E+01 -0.27036259425E+02  0.30971884119E+02  0.00000000000E+00 0.  1.
<mgrwt>
<rscale>  0 0.18276033E+04</rscale>
<asrwt>0</asrwt>
<pdfrwt beam="1">  1        2 0.20985777E+00 0.18276033E+04</pdfrwt>
<pdfrwt beam="2">  1       -1 0.94178577E-01 0.18276033E+04</pdfrwt>
<totfact> 0.17790623E+01</totfact>
</mgrwt>
</event>
<event>
12    7  0.1605494E-007  0.1449182E+04  0.7818608E-02  0.8918968E-01
          2   -1    0    0  501    0  0.00000000000E+00  0.00000000000E+00  0.21369731955E+04  0.21369731955E+04  0.00000000000E+00 0. -1.
         -1   -1    0    0    0  501 -0.00000000000E+00 -0.00000000000E+00 -0.24568963162E+03  0.24568963162E+03  0.00000000000E+00 0.  1.
         24    2    1    2    0    0  0.31852143093E+03  0.21424352383E+03  0.23638144974E+03  0.46243349151E+03  0.10301628425E+03 0.  0.
        254    2    1    2    0    0 -0.31852143093E+03 -0.21424352383E+03  0.16549021141E+04  0.19202293356E+04  0.89511088949E+03 0.  0.
         23    2    4    4    0    0 -0.47077128605E+03 -0.10173789151E+03  0.16364241939E+04  0.17082449218E+04  0.90776473455E+02 0.  0.
         23    2    4    4    0    0  0.15224985512E+03 -0.11250563232E+03  0.18477920235E+02  0.21198441381E+03  0.93586443861E+02 0.  0.
          2    1    3    3  502    0 -0.66428603866E+01  0.78777096044E+01  0.15056217332E+02  0.18244878270E+02  0.00000000000E+00 0. -1.
         -1    1    3    3    0  502  0.32516429132E+03  0.20636581423E+03  0.22132523241E+03  0.44418861324E+03  0.00000000000E+00 0.  1.
         13    1    5    5    0    0 -0.34464139580E+03 -0.47146398731E+02  0.10579817181E+04  0.11136991471E+04  0.00000000000E+00 0. -1.
        -13    1    5    5    0    0 -0.12612989025E+03 -0.54591492778E+02  0.57844247580E+03  0.59454577461E+03  0.00000000000E+00 0.  1.
          1    1    6    6  503    0  0.12428141477E+03 -0.90297688091E+02  0.52810167480E+02  0.16244524100E+03  0.00000000000E+00 0. -1.
         -1    1    6    6    0  503  0.27968440344E+02 -0.22207944231E+02 -0.34332247245E+02  0.49539172814E+02  0.00000000000E+00 0.  1.
<mgrwt>
<rscale>  0 0.14491821E+04</rscale>
<asrwt>0</asrwt>
<pdfrwt beam="1">  1        2 0.32876509E+00 0.14491821E+04</pdfrwt>
<pdfrwt beam="2">  1       -1 0.37798406E-01 0.14491821E+04</pdfrwt>
<totfact> 0.41839100E+01</totfact>
</mgrwt>
</event>
<event>
12    7  0.1605494E-007  0.1037846E+04  0.7818608E-02  0.9267983E-01
         -1   -1    0    0    0  501 -0.00000000000E+00  0.00000000000E+00  0.30548706615E+03  0.30548706615E+03  0.00000000000E+00 0.  1.
          2   -1    0    0  501    0  0.00000000000E+00 -0.00000000000E+00 -0.88148127948E+03  0.88148127948E+03  0.00000000000E+00 0. -1.
         24    2    1    2    0    0 -0.80377992069E+02  0.80026991117E+02  0.18341770562E+02  0.14009707523E+03  0.80161268863E+02 0.  0.
        254    2    1    2    0    0  0.80377992069E+02 -0.80026991117E+02 -0.59433598389E+03  0.10468712704E+04  0.85430629993E+03 0.  0.
         23    2    4    4    0    0  0.41056745032E+03 -0.20401966038E+03 -0.46576031747E+03  0.66058566687E+03  0.96182622455E+02 0.  0.
         23    2    4    4    0    0 -0.33018945825E+03  0.12399266927E+03 -0.12857566642E+03  0.38628560351E+03  0.91025299334E+02 0.  0.
          4    1    3    3  502    0 -0.47759237507E+02  0.92382207219E+02  0.12879836803E+02  0.10479173237E+03  0.00000000000E+00 0. -1.
         -3    1    3    3    0  502 -0.32618754562E+02 -0.12355216102E+02  0.54619337590E+01  0.35305342861E+02  0.00000000000E+00 0.  1.
         13    1    5    5    0    0  0.11526203380E+03 -0.77340772544E+02 -0.86709004001E+02  0.16366240530E+03  0.00000000000E+00 0.  1.
        -13    1    5    5    0    0  0.29530541652E+03 -0.12667888784E+03 -0.37905131347E+03  0.49692326158E+03  0.00000000000E+00 0. -1.
          3    1    6    6  503    0 -0.15184977957E+03  0.80374533769E+02 -0.10456111346E+03  0.20112545259E+03  0.00000000000E+00 0. -1.
         -3    1    6    6    0  503 -0.17833967868E+03  0.43618135496E+02 -0.24014552961E+02  0.18516015092E+03  0.00000000000E+00 0.  1.
<mgrwt>
<rscale>  0 0.10378461E+04</rscale>
<asrwt>0</asrwt>
<pdfrwt beam="1">  1        2 0.13561250E+00 0.10378461E+04</pdfrwt>
<pdfrwt beam="2">  1       -1 0.46998010E-01 0.10378461E+04</pdfrwt>
<totfact> 0.15480755E+02</totfact>
</mgrwt>
</event>
<event>
12    7  0.1605494E-007  0.3123117E+04  0.7818608E-02  0.8209422E-01
         -1   -1    0    0    0  501 -0.00000000000E+00  0.00000000000E+00  0.24486156230E+04  0.24486156230E+04  0.00000000000E+00 0.  1.
          2   -1    0    0  501    0  0.00000000000E+00 -0.00000000000E+00 -0.99585438964E+03  0.99585438964E+03  0.00000000000E+00 0. -1.
         24    2    1    2    0    0 -0.47857350714E+03 -0.12004335252E+03  0.21395981701E+04  0.21972052696E+04  0.79922831552E+02 0.  0.
        254    2    1    2    0    0  0.47857350714E+03  0.12004335252E+03 -0.68683693677E+03  0.12472647430E+04  0.91677770111E+03 0.  0.
         23    2    4    4    0    0  0.28762192362E+02  0.15788113418E+03 -0.75932722558E+03  0.78140669309E+03  0.90911320800E+02 0.  0.
         23    2    4    4    0    0  0.44981131478E+03 -0.37837781660E+02  0.72490288811E+02  0.46585804993E+03  0.89481641093E+02 0.  0.
          4    1    3    3  502    0 -0.14135352118E+03 -0.72604017241E+02  0.64139686832E+03  0.66078900109E+03  0.00000000000E+00 0. -1.
         -3    1    3    3    0  502 -0.33721998596E+03 -0.47439335280E+02  0.14982013018E+04  0.15364162685E+04  0.00000000000E+00 0.  1.
         13    1    5    5    0    0  0.53745195051E+02  0.75231922223E+02 -0.48770290338E+03  0.49638947418E+03  0.00000000000E+00 0. -1.
        -13    1    5    5    0    0 -0.24983002689E+02  0.82649211958E+02 -0.27162432221E+03  0.28501721891E+03  0.00000000000E+00 0.  1.
          3    1    6    6  503    0  0.70065099708E+02 -0.64118146311E+01  0.45649456135E+02  0.83869555915E+02  0.00000000000E+00 0. -1.
         -3    1    6    6    0  503  0.37974621507E+03 -0.31425967029E+02  0.26840832676E+02  0.38198849402E+03  0.00000000000E+00 0.  1.
<mgrwt>
<rscale>  0 0.31231168E+04</rscale>
<asrwt>0</asrwt>
<pdfrwt beam="1">  1        2 0.15320837E+00 0.31231168E+04</pdfrwt>
<pdfrwt beam="2">  1       -1 0.37671009E+00 0.31231168E+04</pdfrwt>
<totfact> 0.25188503E-01</totfact>
</mgrwt>
</event>
<event>
12    7  0.1605494E-007  0.2741606E+04  0.7818608E-02  0.8321630E-01
          2   -1    0    0  501    0  0.00000000000E+00  0.00000000000E+00  0.25988759491E+04  0.25988759491E+04  0.00000000000E+00 0. -1.
         -1   -1    0    0    0  501 -0.00000000000E+00 -0.00000000000E+00 -0.72304393799E+03  0.72304393799E+03  0.00000000000E+00 0.  1.
         24    2    1    2    0    0  0.93713881444E+03  0.52854442503E+03  0.15472009462E+04  0.18863724985E+04  0.83558771684E+02 0.  0.
        254    2    1    2    0    0 -0.93713881444E+03 -0.52854442503E+03  0.32863106488E+03  0.14355473886E+04  0.89174523341E+03 0.  0.
         23    2    4    4    0    0  0.91706139938E+02 -0.13863290180E+03  0.27017778258E+03  0.33004936321E+03  0.91145215938E+02 0.  0.
         23    2    4    4    0    0 -0.10288449544E+04 -0.38991152322E+03  0.58453282300E+02  0.11054980254E+04  0.90311471094E+02 0.  0.
          4    1    3    3  502    0  0.55198965734E+03  0.28932808513E+03  0.83118198912E+03  0.10388776741E+04  0.00000000000E+00 0. -1.
         -3    1    3    3    0  502  0.38514915711E+03  0.23921633989E+03  0.71601895705E+03  0.84749482438E+03  0.00000000000E+00 0.  1.
         13    1    5    5    0    0  0.46606416788E+02 -0.88840966516E+02  0.79878075015E+02  0.12823955039E+03  0.00000000000E+00 0.  1.
        -13    1    5    5    0    0  0.45099723150E+02 -0.49791935288E+02  0.19029970757E+03  0.20180981281E+03  0.00000000000E+00 0. -1.
          1    1    6    6  503    0 -0.15166509386E+03 -0.87897587045E+02 -0.73710723820E+01  0.17544976265E+03  0.00000000000E+00 0. -1.
         -1    1    6    6    0  503 -0.87717986052E+03 -0.30201393618E+03  0.65824354682E+02  0.93004826274E+03  0.00000000000E+00 0.  1.
<mgrwt>
<rscale>  0 0.27416065E+04</rscale>
<asrwt>0</asrwt>
<pdfrwt beam="1">  1        2 0.39982706E+00 0.27416065E+04</pdfrwt>
<pdfrwt beam="2">  1       -1 0.11123753E+00 0.27416065E+04</pdfrwt>
<totfact> 0.22508534E+00</totfact>
</mgrwt>
</event>
<event>
12    7  0.1605494E-007  0.1799366E+04  0.7818608E-02  0.8706637E-01
         -1   -1    0    0    0  501 -0.00000000000E+00  0.00000000000E+00  0.12493625801E+04  0.12493625801E+04  0.00000000000E+00 0.  1.
          2   -1    0    0  501    0  0.00000000000E+00 -0.00000000000E+00 -0.64787364306E+03  0.64787364306E+03  0.00000000000E+00 0. -1.
         24    2    1    2    0    0  0.26861621303E+03 -0.22620556517E+03  0.82480089490E+03  0.89993657843E+03  0.79156183333E+02 0.  0.
        254    2    1    2    0    0 -0.26861621303E+03  0.22620556517E+03 -0.22331195790E+03  0.99729964469E+03  0.90631932736E+03 0.  0.
         23    2    4    4    0    0  0.25582055098E+03 -0.13970830449E+03 -0.16908581124E+03  0.34926063459E+03  0.91817289576E+02 0.  0.
         23    2    4    4    0    0 -0.52443676401E+03  0.36591386965E+03 -0.54226146659E+02  0.64803901011E+03  0.89928884097E+02 0.  0.
          2    1    3    3  502    0  0.68790028889E+02 -0.42869962209E+02  0.12044788969E+03  0.14518125177E+03  0.00000000000E+00 0. -1.
         -3    1    3    3    0  502  0.19982618414E+03 -0.18333560296E+03  0.70435300521E+03  0.75475532667E+03  0.00000000000E+00 0.  1.
         13    1    5    5    0    0  0.52456082921E+02 -0.76213167495E+02 -0.53652794189E+02  0.10695190442E+03  0.00000000000E+00 0.  1.
        -13    1    5    5    0    0  0.20336446806E+03 -0.63495136991E+02 -0.11543301705E+03  0.24230873017E+03  0.00000000000E+00 0. -1.
          1    1    6    6  503    0 -0.41985815871E+03  0.33335052224E+03 -0.40045585620E+02  0.53759379930E+03  0.00000000000E+00 0. -1.
         -1    1    6    6    0  503 -0.10457860529E+03  0.32563347415E+02 -0.14180561039E+02  0.11044521081E+03  0.00000000000E+00 0.  1.
<mgrwt>
<rscale>  0 0.17993655E+04</rscale>
<asrwt>0</asrwt>
<pdfrwt beam="1">  1        2 0.99672868E-01 0.17993655E+04</pdfrwt>
<pdfrwt beam="2">  1       -1 0.19220963E+00 0.17993655E+04</pdfrwt>
<totfact> 0.82985044E+00</totfact>
</mgrwt>
</event>
<event>
12    7  0.1605494E-007  0.1596768E+04  0.7818608E-02  0.8822536E-01
         -1   -1    0    0    0  501 -0.00000000000E+00  0.00000000000E+00  0.32718574098E+03  0.32718574098E+03  0.00000000000E+00 0.  1.
          2   -1    0    0  501    0  0.00000000000E+00 -0.00000000000E+00 -0.19481816163E+04  0.19481816163E+04  0.00000000000E+00 0. -1.
         24    2    1    2    0    0  0.74324645258E+02 -0.23601504242E+03 -0.12392705205E+04  0.12661591174E+04  0.78359647587E+02 0.  0.
        254    2    1    2    0    0 -0.74324645258E+02  0.23601504242E+03 -0.38172535478E+03  0.10092082399E+04  0.90086612313E+03 0.  0.
         23    2    4    4    0    0  0.18461607857E+03 -0.12303127727E+03  0.17153177174E+03  0.29494697815E+03  0.91382599823E+02 0.  0.
         23    2    4    4    0    0 -0.25894072383E+03  0.35904631969E+03 -0.55325712652E+03  0.71426126172E+03  0.90061888787E+02 0.  0.
          4    1    3    3  502    0  0.71003122532E+02 -0.18196100727E+03 -0.10901329321E+04  0.11074931428E+04  0.00000000000E+00 0. -1.
         -3    1    3    3    0  502  0.33215227263E+01 -0.54054035152E+02 -0.14913758841E+03  0.15866597463E+03  0.00000000000E+00 0.  1.
         13    1    5    5    0    0  0.18678190509E+03 -0.11025746176E+03  0.13331081770E+03  0.25458979174E+03  0.00000000000E+00 0. -1.
        -13    1    5    5    0    0 -0.21658265211E+01 -0.12773815517E+02  0.38220954038E+02  0.40357186411E+02  0.00000000000E+00 0.  1.
          4    1    6    6  503    0 -0.25318372417E+03  0.36440224722E+03 -0.54093416003E+03  0.69964331016E+03  0.00000000000E+00 0. -1.
         -4    1    6    6    0  503 -0.57569996614E+01 -0.53559275298E+01 -0.12322966488E+02  0.14617951562E+02  0.00000000000E+00 0.  1.
<mgrwt>
<rscale>  0 0.15967683E+04</rscale>
<asrwt>0</asrwt>
<pdfrwt beam="1">  1        2 0.29972025E+00 0.15967683E+04</pdfrwt>
<pdfrwt beam="2">  1       -1 0.50336267E-01 0.15967683E+04</pdfrwt>
<totfact> 0.30916403E+01</totfact>
</mgrwt>
</event>
<event>
12    7  0.1605494E-007  0.1140084E+04  0.7818608E-02  0.9166981E-01
         -1   -1    0    0    0  501 -0.00000000000E+00  0.00000000000E+00  0.65917556154E+03  0.65917556154E+03  0.00000000000E+00 0.  1.
          2   -1    0    0  501    0  0.00000000000E+00 -0.00000000000E+00 -0.49296070549E+03  0.49296070549E+03  0.00000000000E+00 0. -1.
         24    2    1    2    0    0 -0.17983584554E+03 -0.55297356932E+02  0.17163875875E+02  0.20400754254E+03  0.76978891590E+02 0.  0.
        254    2    1    2    0    0  0.17983584554E+03  0.55297356932E+02  0.14905098017E+03  0.94812872449E+03  0.91724214605E+03 0.  0.
         23    2    4    4    0    0  0.44531821838E+03  0.21465665612E+03  0.30633273814E+03  0.58856931175E+03  0.90489185176E+02 0.  0.
         23    2    4    4    0    0 -0.26548237284E+03 -0.15935929919E+03 -0.15728175797E+03  0.35955941274E+03  0.93108234715E+02 0.  0.
          4    1    3    3  502    0 -0.85128406422E+02 -0.27954740686E+02 -0.30319761376E+02  0.94591759877E+02  0.00000000000E+00 0. -1.
         -1    1    3    3    0  502 -0.94707439122E+02 -0.27342616247E+02  0.47483637251E+02  0.10941578266E+03  0.00000000000E+00 0.  1.
         13    1    5    5    0    0  0.27560357044E+03  0.16607445803E+03  0.23367254535E+03  0.39766935022E+03  0.00000000000E+00 0. -1.
        -13    1    5    5    0    0  0.16971464794E+03  0.48582198093E+02  0.72660192794E+02  0.19089996153E+03  0.00000000000E+00 0.  1.
          2    1    6    6  503    0 -0.19682221798E+03 -0.12999387600E+03 -0.15968407542E+03  0.28484451413E+03  0.00000000000E+00 0. -1.
         -2    1    6    6    0  503 -0.68660154864E+02 -0.29365423192E+02  0.24023174505E+01  0.74714898610E+02  0.00000000000E+00 0.  1.
<mgrwt>
<rscale>  0 0.11400836E+04</rscale>
<asrwt>0</asrwt>
<pdfrwt beam="1">  1        2 0.75840108E-01 0.11400836E+04</pdfrwt>
<pdfrwt beam="2">  1       -1 0.10141163E+00 0.11400836E+04</pdfrwt>
<totfact> 0.65484953E+01</totfact>
</mgrwt>
</event>
<event>
12    7  0.1605494E-007  0.1747081E+04  0.7818608E-02  0.8734958E-01
         -1   -1    0    0    0  501 -0.00000000000E+00  0.00000000000E+00  0.28413315888E+03  0.28413315888E+03  0.00000000000E+00 0.  1.
          2   -1    0    0  501    0  0.00000000000E+00 -0.00000000000E+00 -0.26856190987E+04  0.26856190987E+04  0.00000000000E+00 0. -1.
         24    2    1    2    0    0 -0.60303575595E+03 -0.97615120179E+02 -0.12094081512E+04  0.13572408913E+04  0.79081769253E+02 0.  0.
        254    2    1    2    0    0  0.60303575595E+03  0.97615120179E+02 -0.11920777887E+04  0.16125113663E+04  0.89775420780E+03 0.  0.
         23    2    4    4    0    0  0.35387247815E+02 -0.84289027466E+02 -0.95660856619E+03  0.96542151692E+03  0.92638323327E+02 0.  0.
         23    2    4    4    0    0  0.56764850814E+03  0.18190414765E+03 -0.23546922247E+03  0.64708984940E+03  0.89250046168E+02 0.  0.
          2    1    3    3  502    0 -0.48370435055E+03 -0.88497246058E+02 -0.10329968458E+04  0.11440647467E+04  0.00000000000E+00 0. -1.
         -1    1    3    3    0  502 -0.11933140540E+03 -0.91178741217E+01 -0.17641130540E+03  0.21317614458E+03  0.00000000000E+00 0.  1.
         13    1    5    5    0    0  0.11494153930E+02  0.19942210968E+02 -0.19064991494E+03  0.19203436521E+03  0.00000000000E+00 0. -1.
        -13    1    5    5    0    0  0.23893093885E+02 -0.10423123843E+03 -0.76595865125E+03  0.77338715171E+03  0.00000000000E+00 0.  1.
          4    1    6    6  503    0  0.92648068570E+02 -0.29322681770E+01 -0.44127995161E+02  0.10266227527E+03  0.00000000000E+00 0. -1.
         -4    1    6    6    0  503  0.47500043957E+03  0.18483641582E+03 -0.19134122731E+03  0.54442757413E+03  0.00000000000E+00 0.  1.
<mgrwt>
<rscale>  0 0.17470815E+04</rscale>
<asrwt>0</asrwt>
<pdfrwt beam="1">  1        2 0.41317218E+00 0.17470815E+04</pdfrwt>
<pdfrwt beam="2">  1       -1 0.43712793E-01 0.17470815E+04</pdfrwt>
<totfact> 0.15149585E+01</totfact>
</mgrwt>
</event>
<event>
12    7  0.1605494E-007  0.1415133E+04  0.7818608E-02  0.8942937E-01
          2   -1    0    0  501    0  0.00000000000E+00  0.00000000000E+00  0.35036550194E+03  0.35036550194E+03  0.00000000000E+00 0. -1.
         -1   -1    0    0    0  501 -0.00000000000E+00 -0.00000000000E+00 -0.14289370851E+04  0.14289370851E+04  0.00000000000E+00 0.  1.
         24    2    1    2    0    0  0.15064034555E+03  0.36978154525E+03 -0.47536373575E+03  0.62594558657E+03  0.80039310148E+02 0.  0.
        254    2    1    2    0    0 -0.15064034555E+03 -0.36978154525E+03 -0.60320784737E+03  0.11533570004E+04  0.89829937015E+03 0.  0.
         23    2    4    4    0    0 -0.28331960990E+03  0.21960599647E+03 -0.19570661897E+03  0.41824163120E+03  0.90156454673E+02 0.  0.
         23    2    4    4    0    0  0.13267926435E+03 -0.58938754172E+03 -0.40750122840E+03  0.73511536924E+03  0.96725867402E+02 0.  0.
          2    1    3    3  502    0  0.77516471550E+02  0.13804341192E+03 -0.13700351626E+03  0.20936750083E+03  0.00000000000E+00 0. -1.
         -1    1    3    3    0  502  0.73123873996E+02  0.23173813333E+03 -0.33836021949E+03  0.41657808574E+03  0.00000000000E+00 0.  1.
         13    1    5    5    0    0 -0.24880023466E+03  0.15007435418E+03 -0.13892156483E+03  0.32206066156E+03  0.00000000000E+00 0. -1.
        -13    1    5    5    0    0 -0.34519375235E+02  0.69531642290E+02 -0.56785054143E+02  0.96180969636E+02  0.00000000000E+00 0.  1.
          4    1    6    6  503    0  0.13779966400E+03 -0.47937584720E+03 -0.30490214307E+03  0.58459838105E+03  0.00000000000E+00 0. -1.
         -4    1    6    6    0  503 -0.51203996523E+01 -0.11001169452E+03 -0.10259908533E+03  0.15051698819E+03  0.00000000000E+00 0.  1.
<mgrwt>
<rscale>  0 0.14151329E+04</rscale>
<asrwt>0</asrwt>
<pdfrwt beam="1">  1        2 0.53902385E-01 0.14151329E+04</pdfrwt>
<pdfrwt beam="2">  1       -1 0.21983648E+00 0.14151329E+04</pdfrwt>
<totfact> 0.11335418E+01</totfact>
</mgrwt>
</event>
<event>
12    7  0.1605494E-007  0.2173991E+04  0.7818608E-02  0.8529332E-01
          2   -1    0    0  501    0  0.00000000000E+00  0.00000000000E+00  0.11188845205E+04  0.11188845205E+04  0.00000000000E+00 0. -1.
         -1   -1    0    0    0  501 -0.00000000000E+00 -0.00000000000E+00 -0.10560155298E+04  0.10560155298E+04  0.00000000000E+00 0.  1.
         24    2    1    2    0    0 -0.34492389410E+03  0.79073113540E+03  0.27179575304E+03  0.90815770191E+03  0.81542988426E+02 0.  0.
        254    2    1    2    0    0  0.34492389410E+03 -0.79073113540E+03 -0.20892676237E+03  0.12667423483E+04  0.90374640460E+03 0.  0.
         23    2    4    4    0    0 -0.22011676454E+03 -0.43076283849E+03 -0.31262004767E+03  0.58279278500E+03  0.88927627806E+02 0.  0.
         23    2    4    4    0    0  0.56504065865E+03 -0.35996829692E+03  0.10369328530E+03  0.68394956335E+03  0.90479760600E+02 0.  0.
          4    1    3    3  502    0 -0.34078924599E+03  0.79051638155E+03  0.27408767864E+03  0.90342543425E+03  0.00000000000E+00 0. -1.
         -3    1    3    3    0  502 -0.41346481168E+01  0.21475385395E+00 -0.22919255996E+01  0.47322676616E+01  0.00000000000E+00 0.  1.
         13    1    5    5    0    0 -0.57476764420E+02 -0.55005067003E+02 -0.28851619643E+02  0.84625952286E+02  0.00000000000E+00 0.  1.
        -13    1    5    5    0    0 -0.16264000012E+03 -0.37575777148E+03 -0.28376842803E+03  0.49816683271E+03  0.00000000000E+00 0. -1.
          1    1    6    6  503    0  0.50051285291E+03 -0.30506053928E+03  0.11830266128E+03  0.59797204636E+03  0.00000000000E+00 0. -1.
         -1    1    6    6    0  503  0.64527805734E+02 -0.54907757633E+02 -0.14609375983E+02  0.85977516990E+02  0.00000000000E+00 0.  1.
<mgrwt>
<rscale>  0 0.21739912E+04</rscale>
<asrwt>0</asrwt>
<pdfrwt beam="1">  1        2 0.17213608E+00 0.21739912E+04</pdfrwt>
<pdfrwt beam="2">  1       -1 0.16246393E+00 0.21739912E+04</pdfrwt>
<totfact> 0.62025544E+00</totfact>
</mgrwt>
</event>
<event>
12    7  0.1605494E-007  0.2739328E+04  0.7818608E-02  0.8322356E-01
          2   -1    0    0  501    0  0.00000000000E+00  0.00000000000E+00  0.13244797514E+04  0.13244797514E+04  0.00000000000E+00 0. -1.
         -1   -1    0    0    0  501 -0.00000000000E+00 -0.00000000000E+00 -0.14163894705E+04  0.14163894705E+04  0.00000000000E+00 0.  1.
         24    2    1    2    0    0  0.33682313294E+03  0.24322355650E+03  0.11013733814E+04  0.11797702042E+04  0.78910633694E+02 0.  0.
        254    2    1    2    0    0 -0.33682313294E+03 -0.24322355650E+03 -0.11932831005E+04  0.15610990177E+04  0.91678681475E+03 0.  0.
         23    2    4    4    0    0  0.30697378663E+03 -0.89986720612E+02 -0.47659299426E+03  0.58125913544E+03  0.91601227010E+02 0.  0.
         23    2    4    4    0    0 -0.64379691957E+03 -0.15323683589E+03 -0.71669010627E+03  0.97983988225E+03  0.92116691721E+02 0.  0.
          4    1    3    3  502    0  0.55987738782E+02  0.36794177699E+02  0.10872209075E+03  0.12770642671E+03  0.00000000000E+00 0. -1.
         -3    1    3    3    0  502  0.28083539416E+03  0.20642937880E+03  0.99265129069E+03  0.10520637775E+04  0.00000000000E+00 0.  1.
         13    1    5    5    0    0  0.99952786280E+02 -0.74996075040E+02 -0.16882466979E+03  0.21003985309E+03  0.00000000000E+00 0. -1.
        -13    1    5    5    0    0  0.20702100035E+03 -0.14990645571E+02 -0.30776832447E+03  0.37121928235E+03  0.00000000000E+00 0.  1.
          2    1    6    6  503    0 -0.55711928834E+03 -0.10069741569E+03 -0.59175035446E+03  0.81895686881E+03  0.00000000000E+00 0. -1.
         -2    1    6    6    0  503 -0.86677631234E+02 -0.52539420194E+02 -0.12493975181E+03  0.16088301344E+03  0.00000000000E+00 0.  1.
<mgrwt>
<rscale>  0 0.27393278E+04</rscale>
<asrwt>0</asrwt>
<pdfrwt beam="1">  1        2 0.20376611E+00 0.27393278E+04</pdfrwt>
<pdfrwt beam="2">  1       -1 0.21790607E+00 0.27393278E+04</pdfrwt>
<totfact> 0.18115861E+00</totfact>
</mgrwt>
</event>
<event>
12    7  0.1605494E-007  0.1328809E+04  0.7818608E-02  0.9007026E-01
         -1   -1    0    0    0  501 -0.00000000000E+00  0.00000000000E+00  0.51641893097E+03  0.51641893097E+03  0.00000000000E+00 0.  1.
          2   -1    0    0  501    0  0.00000000000E+00 -0.00000000000E+00 -0.85479681264E+03  0.85479681264E+03  0.00000000000E+00 0. -1.
         24    2    1    2    0    0  0.29170998412E+03 -0.19077360475E+02  0.11365124405E+03  0.32338946939E+03  0.78774888886E+02 0.  0.
        254    2    1    2    0    0 -0.29170998412E+03  0.19077360475E+02 -0.45202912571E+03  0.10478262742E+04  0.89897214080E+03 0.  0.
         23    2    4    4    0    0 -0.48795622593E+03  0.60383599381E+00  0.51899139354E+02  0.49911227216E+03  0.91202502757E+02 0.  0.
         23    2    4    4    0    0  0.19624624181E+03  0.18473524481E+02 -0.50392826507E+03  0.54871400206E+03  0.91046697873E+02 0.  0.
          4    1    3    3  502    0  0.47153927758E+01 -0.29848757327E+01 -0.92252345560E+01  0.10781899869E+02  0.00000000000E+00 0. -1.
         -3    1    3    3    0  502  0.28699459135E+03 -0.16092484742E+02  0.12287647861E+03  0.31260756952E+03  0.00000000000E+00 0.  1.
         13    1    5    5    0    0 -0.39743528060E+01  0.10196220803E+02 -0.43540850310E+01  0.11777795012E+02  0.00000000000E+00 0. -1.
        -13    1    5    5    0    0 -0.48398187313E+03 -0.95923848096E+01  0.56253224385E+02  0.48733447715E+03  0.00000000000E+00 0.  1.
          1    1    6    6  503    0  0.15984474839E+03  0.35447833302E+02 -0.30906297441E+03  0.34975250482E+03  0.00000000000E+00 0. -1.
         -1    1    6    6    0  503  0.36401493416E+02 -0.16974308821E+02 -0.19486529065E+03  0.19896149724E+03  0.00000000000E+00 0.  1.
<mgrwt>
<rscale>  0 0.13288089E+04</rscale>
<asrwt>0</asrwt>
<pdfrwt beam="1">  1        2 0.13150720E+00 0.13288089E+04</pdfrwt>
<pdfrwt beam="2">  1       -1 0.79449068E-01 0.13288089E+04</pdfrwt>
<totfact> 0.55691218E+01</totfact>
</mgrwt>
</event>
<event>
12    7  0.1605494E-007  0.1179359E+04  0.7818608E-02  0.9131118E-01
          2   -1    0    0  501    0  0.00000000000E+00  0.00000000000E+00  0.48684157939E+03  0.48684157939E+03  0.00000000000E+00 0. -1.
         -1   -1    0    0    0  501 -0.00000000000E+00 -0.00000000000E+00 -0.71424052487E+03  0.71424052487E+03  0.00000000000E+00 0.  1.
         24    2    1    2    0    0  0.23400652381E+03  0.65093953834E+02 -0.36596196503E+02  0.25892051349E+03  0.81879635426E+02 0.  0.
        254    2    1    2    0    0 -0.23400652381E+03 -0.65093953834E+02 -0.19080274897E+03  0.94216159077E+03  0.89009353334E+03 0.  0.
         23    2    4    4    0    0 -0.27960098809E+01 -0.42633396479E+03  0.55223495509E+02  0.43951346874E+03  0.91400150651E+02 0.  0.
         23    2    4    4    0    0 -0.23121051393E+03  0.36124001096E+03 -0.24602624448E+03  0.50264812203E+03  0.90407822341E+02 0.  0.
          4    1    3    3  502    0  0.18882846599E+02  0.20426662696E+02  0.17216877388E+02  0.32714389978E+02  0.00000000000E+00 0. -1.
         -3    1    3    3    0  502  0.21512367721E+03  0.44667291138E+02 -0.53813073891E+02  0.22620612351E+03  0.00000000000E+00 0.  1.
         13    1    5    5    0    0  0.24035736128E+02 -0.16169720304E+03  0.58137158979E+02  0.17350398076E+03  0.00000000000E+00 0. -1.
        -13    1    5    5    0    0 -0.26831746009E+02 -0.26463676175E+03 -0.29136634696E+01  0.26600948798E+03  0.00000000000E+00 0.  1.
          3    1    6    6  503    0 -0.19200794995E+03  0.30673703801E+03 -0.24210626750E+03  0.43539649527E+03  0.00000000000E+00 0. -1.
         -3    1    6    6    0  503 -0.39202563975E+02  0.54502972943E+02 -0.39199769814E+01  0.67251626757E+02  0.00000000000E+00 0.  1.
<mgrwt>
<rscale>  0 0.11793591E+04</rscale>
<asrwt>0</asrwt>
<pdfrwt beam="1">  1        2 0.74898704E-01 0.11793591E+04</pdfrwt>
<pdfrwt beam="2">  1       -1 0.10988316E+00 0.11793591E+04</pdfrwt>
<totfact> 0.54946507E+01</totfact>
</mgrwt>
</event>
<event>
12    7  0.1605494E-007  0.2832465E+04  0.7818608E-02  0.8293259E-01
          2   -1    0    0  501    0  0.00000000000E+00  0.00000000000E+00  0.17811727642E+04  0.17811727642E+04  0.00000000000E+00 0. -1.
         -1   -1    0    0    0  501 -0.00000000000E+00 -0.00000000000E+00 -0.11260643576E+04  0.11260643576E+04  0.00000000000E+00 0.  1.
         24    2    1    2    0    0 -0.11460617380E+04 -0.46470296855E+03 -0.26736353426E+02  0.12396671671E+04  0.81568965940E+02 0.  0.
        254    2    1    2    0    0  0.11460617380E+04  0.46470296855E+03  0.68184476000E+03  0.16675699547E+04  0.88683195748E+03 0.  0.
         23    2    4    4    0    0  0.11373326092E+04  0.18815412496E+03  0.31418228855E+03  0.11983315051E+04  0.91435478709E+02 0.  0.
         23    2    4    4    0    0  0.87291287740E+01  0.27654884359E+03  0.36766247146E+03  0.46923844967E+03  0.91943293116E+02 0.  0.
          2    1    3    3  502    0 -0.86062977252E+03 -0.33116716804E+03 -0.51406254744E+02  0.92357885509E+03  0.00000000000E+00 0. -1.
         -1    1    3    3    0  502 -0.28543196550E+03 -0.13353580051E+03  0.24669901318E+02  0.31608831199E+03  0.00000000000E+00 0.  1.
         13    1    5    5    0    0  0.96438598465E+03  0.13614756386E+03  0.28944283175E+03  0.10160480497E+04  0.00000000000E+00 0. -1.
        -13    1    5    5    0    0  0.17294662460E+03  0.52006561096E+02  0.24739456796E+02  0.18228345531E+03  0.00000000000E+00 0.  1.
          3    1    6    6  503    0  0.66089496942E+01  0.27820393460E+03  0.33082738483E+03  0.43230529258E+03  0.00000000000E+00 0. -1.
         -3    1    6    6    0  503  0.21201790798E+01 -0.16550910043E+01  0.36835086630E+02  0.36933157090E+02  0.00000000000E+00 0.  1.
<mgrwt>
<rscale>  0 0.28324655E+04</rscale>
<asrwt>0</asrwt>
<pdfrwt beam="1">  1        2 0.27402658E+00 0.28324655E+04</pdfrwt>
<pdfrwt beam="2">  1       -1 0.17324067E+00 0.28324655E+04</pdfrwt>
<totfact> 0.20339961E+00</totfact>
</mgrwt>
</event>
<event>
12    7  0.1605494E-007  0.1286980E+04  0.7818608E-02  0.9039954E-01
         -1   -1    0    0    0  501 -0.00000000000E+00  0.00000000000E+00  0.22630855087E+03  0.22630855087E+03  0.00000000000E+00 0.  1.
          2   -1    0    0  501    0  0.00000000000E+00 -0.00000000000E+00 -0.18297126611E+04  0.18297126611E+04  0.00000000000E+00 0. -1.
         24    2    1    2    0    0  0.28220469683E+03  0.16222646193E+03 -0.34736252780E+03  0.48241323190E+03  0.78133761818E+02 0.  0.
        254    2    1    2    0    0 -0.28220469683E+03 -0.16222646193E+03 -0.12560415825E+04  0.15736079801E+04  0.89030595992E+03 0.  0.
         23    2    4    4    0    0 -0.52759790149E+03 -0.17309917805E+03 -0.43425469626E+03  0.71105603411E+03  0.93277389117E+02 0.  0.
         23    2    4    4    0    0  0.24539320466E+03  0.10872716125E+02 -0.82178688621E+03  0.86255194598E+03  0.91247642822E+02 0.  0.
          4    1    3    3  502    0  0.11231029813E+03  0.28413478957E+02 -0.15085622716E+03  0.19020654596E+03  0.00000000000E+00 0. -1.
         -3    1    3    3    0  502  0.16989439870E+03  0.13381298297E+03 -0.19650630064E+03  0.29220668595E+03  0.00000000000E+00 0.  1.
         13    1    5    5    0    0 -0.18737924728E+03 -0.48287341534E+02 -0.20673154327E+03  0.28316175704E+03  0.00000000000E+00 0.  1.
        -13    1    5    5    0    0 -0.34021865421E+03 -0.12481183652E+03 -0.22752315299E+03  0.42789427708E+03  0.00000000000E+00 0. -1.
          4    1    6    6  503    0  0.98383353266E+02  0.19922173054E+02 -0.20280453425E+03  0.22628711031E+03  0.00000000000E+00 0.  1.
         -4    1    6    6    0  503  0.14700985140E+03 -0.90494569285E+01 -0.61898235196E+03  0.63626483567E+03  0.00000000000E+00 0. -1.
<mgrwt>
<rscale>  0 0.12869804E+04</rscale>
<asrwt>0</asrwt>
<pdfrwt beam="1">  1        2 0.28149425E+00 0.12869804E+04</pdfrwt>
<pdfrwt beam="2">  1       -1 0.34816701E-01 0.12869804E+04</pdfrwt>
<totfact> 0.72742550E+01</totfact>
</mgrwt>
</event>
<event>
12    7  0.1605494E-007  0.3429730E+04  0.7818608E-02  0.8130648E-01
         -1   -1    0    0    0  501 -0.00000000000E+00  0.00000000000E+00  0.17444461590E+04  0.17444461590E+04  0.00000000000E+00 0.  1.
          2   -1    0    0  501    0  0.00000000000E+00 -0.00000000000E+00 -0.16857855572E+04  0.16857855572E+04  0.00000000000E+00 0. -1.
         24    2    1    2    0    0  0.14762729904E+04 -0.44195533162E+03 -0.38535668603E+03  0.15904387385E+04  0.79304149519E+02 0.  0.
        254    2    1    2    0    0 -0.14762729904E+04  0.44195533162E+03  0.44401728783E+03  0.18397929776E+04  0.90165425251E+03 0.  0.
         23    2    4    4    0    0 -0.85468807073E+03  0.68262990056E+03  0.39123008328E+03  0.11647346399E+04  0.84086408169E+02 0.  0.
         23    2    4    4    0    0 -0.62158491971E+03 -0.24067456894E+03  0.52787204551E+02  0.67505833765E+03  0.92872007238E+02 0.  0.
          2    1    3    3  502    0  0.44888550379E+03 -0.14334966560E+03 -0.81402151387E+02  0.47819831910E+03  0.00000000000E+00 0. -1.
         -1    1    3    3    0  502  0.10273874866E+04 -0.29860566603E+03 -0.30395453465E+03  0.11122404194E+04  0.00000000000E+00 0.  1.
         13    1    5    5    0    0 -0.58142871005E+03  0.46731603463E+03  0.22486035467E+03  0.77910576958E+03  0.00000000000E+00 0. -1.
        -13    1    5    5    0    0 -0.27325936067E+03  0.21531386593E+03  0.16636972860E+03  0.38562887036E+03  0.00000000000E+00 0.  1.
          4    1    6    6  503    0 -0.21608067390E+03 -0.51087265833E+02 -0.13951521063E+02  0.22247564205E+03  0.00000000000E+00 0.  1.
         -4    1    6    6    0  503 -0.40550424580E+03 -0.18958730310E+03  0.66738725613E+02  0.45258269560E+03  0.00000000000E+00 0. -1.
<mgrwt>
<rscale>  0 0.34297301E+04</rscale>
<asrwt>0</asrwt>
<pdfrwt beam="1">  1        2 0.25935163E+00 0.34297301E+04</pdfrwt>
<pdfrwt beam="2">  1       -1 0.26837633E+00 0.34297301E+04</pdfrwt>
<totfact> 0.49728472E-01</totfact>
</mgrwt>
</event>
<event>
12    7  0.1605494E-007  0.1320773E+04  0.7818608E-02  0.9013252E-01
         -3   -1    0    0    0  501 -0.00000000000E+00  0.00000000000E+00  0.17856080343E+04  0.17856080343E+04  0.00000000000E+00 0.  1.
          4   -1    0    0  501    0  0.00000000000E+00 -0.00000000000E+00 -0.24423647908E+03  0.24423647908E+03  0.00000000000E+00 0. -1.
         24    2    1    2    0    0  0.74295617697E+02 -0.26366244517E+03  0.86555772851E+02  0.29820182709E+03  0.79966893578E+02 0.  0.
        254    2    1    2    0    0 -0.74295617697E+02  0.26366244517E+03  0.14548157824E+04  0.17316426863E+04  0.89836501964E+03 0.  0.
         23    2    4    4    0    0 -0.33707159545E+03 -0.18771037657E+03  0.76249601054E+03  0.85934424057E+03  0.90663729201E+02 0.  0.
         23    2    4    4    0    0  0.26277597775E+03  0.45137282174E+03  0.69231977183E+03  0.87229844571E+03  0.93857728622E+02 0.  0.
          4    1    3    3  502    0 -0.20499659339E+01 -0.26822593015E+02 -0.13378572276E+02  0.30043968655E+02  0.00000000000E+00 0. -1.
         -3    1    3    3    0  502  0.76345583631E+02 -0.23683985215E+03  0.99934345127E+02  0.26815785844E+03  0.00000000000E+00 0.  1.
         13    1    5    5    0    0 -0.32722838940E+03 -0.15490195827E+03  0.69952678978E+03  0.78766158033E+03  0.00000000000E+00 0. -1.
        -13    1    5    5    0    0 -0.98432060415E+01 -0.32808418307E+02  0.62969220759E+02  0.71682660246E+02  0.00000000000E+00 0.  1.
          2    1    6    6  503    0  0.80310228445E+02  0.22093548557E+03  0.27375072135E+03  0.36083469763E+03  0.00000000000E+00 0. -1.
         -2    1    6    6    0  503  0.18246574930E+03  0.23043733617E+03  0.41856905048E+03  0.51146374807E+03  0.00000000000E+00 0.  1.
<mgrwt>
<rscale>  0 0.13207734E+04</rscale>
<asrwt>0</asrwt>
<pdfrwt beam="1">  1        4 0.37574844E-01 0.13207734E+04</pdfrwt>
<pdfrwt beam="2">  1       -3 0.27470892E+00 0.13207734E+04</pdfrwt>
<totfact> 0.82231583E-01</totfact>
</mgrwt>
</event>
<event>
12    7  0.1605494E-007  0.1705566E+04  0.7818608E-02  0.8758196E-01
          2   -1    0    0  501    0  0.00000000000E+00  0.00000000000E+00  0.11267785777E+04  0.11267785777E+04  0.00000000000E+00 0. -1.
         -1   -1    0    0    0  501 -0.00000000000E+00 -0.00000000000E+00 -0.64541421901E+03  0.64541421901E+03  0.00000000000E+00 0.  1.
         24    2    1    2    0    0  0.31041854052E+02  0.55596284064E+03 -0.96773306892E+02  0.57087066914E+03  0.80436130453E+02 0.  0.
        254    2    1    2    0    0 -0.31041854052E+02 -0.55596284064E+03  0.57813766562E+03  0.12013221276E+04  0.89379719006E+03 0.  0.
         23    2    4    4    0    0 -0.37510606864E+03 -0.47783735026E+03  0.56444309974E+03  0.83506257177E+03  0.98490557444E+02 0.  0.
         23    2    4    4    0    0  0.34406421458E+03 -0.78125490384E+02  0.13694565879E+02  0.36625955582E+03  0.97338302282E+02 0.  0.
          2    1    3    3  502    0  0.34853013341E+02  0.97850284722E+02 -0.76463964516E+01  0.10415314752E+03  0.00000000000E+00 0. -1.
         -1    1    3    3    0  502 -0.38111592894E+01  0.45811255592E+03 -0.89126910441E+02  0.46671752162E+03  0.00000000000E+00 0.  1.
         13    1    5    5    0    0 -0.14717635443E+03 -0.12133897686E+03  0.14864858365E+03  0.24182726899E+03  0.00000000000E+00 0.  1.
        -13    1    5    5    0    0 -0.22792971421E+03 -0.35649837340E+03  0.41579451609E+03  0.59323530278E+03  0.00000000000E+00 0. -1.
          3    1    6    6  503    0  0.12347556795E+03  0.14803247730E+02 -0.14664972396E+02  0.12522145758E+03  0.00000000000E+00 0. -1.
         -3    1    6    6    0  503  0.22058864664E+03 -0.92928738114E+02  0.28359538276E+02  0.24103809824E+03  0.00000000000E+00 0.  1.
<mgrwt>
<rscale>  0 0.17055661E+04</rscale>
<asrwt>0</asrwt>
<pdfrwt beam="1">  1        2 0.17335055E+00 0.17055661E+04</pdfrwt>
<pdfrwt beam="2">  1       -1 0.99294495E-01 0.17055661E+04</pdfrwt>
<totfact> 0.22044076E+01</totfact>
</mgrwt>
</event>
<event>
12    7  0.1605494E-007  0.1178421E+04  0.7818608E-02  0.9131958E-01
         -1   -1    0    0    0  501 -0.00000000000E+00  0.00000000000E+00  0.14428801449E+03  0.14428801449E+03  0.00000000000E+00 0.  1.
          2   -1    0    0  501    0  0.00000000000E+00 -0.00000000000E+00 -0.24060816115E+04  0.24060816115E+04  0.00000000000E+00 0. -1.
         24    2    1    2    0    0  0.19003856266E+03 -0.12339370425E+03 -0.55071487454E+03  0.60223984839E+03  0.89807017558E+02 0.  0.
        254    2    1    2    0    0 -0.19003856266E+03  0.12339370425E+03 -0.17110787224E+04  0.19481297775E+04  0.90337067380E+03 0.  0.
         23    2    4    4    0    0 -0.29448365487E+03  0.39399499431E+03 -0.53007838972E+03  0.72910702864E+03  0.93066005811E+02 0.  0.
         23    2    4    4    0    0  0.10444509221E+03 -0.27060129006E+03 -0.11810003327E+04  0.12190227489E+04  0.84385075923E+02 0.  0.
          2    1    3    3  502    0  0.13856570707E+03 -0.65927070054E+02 -0.44952959737E+03  0.47499862384E+03  0.00000000000E+00 0. -1.
         -1    1    3    3    0  502  0.51472855585E+02 -0.57466634193E+02 -0.10118527717E+03  0.12724122454E+03  0.00000000000E+00 0.  1.
         13    1    5    5    0    0 -0.76573101682E+01  0.35877068102E+02 -0.15909875429E+02  0.39986529616E+02  0.00000000000E+00 0.  1.
        -13    1    5    5    0    0 -0.28682634470E+03  0.35811792621E+03 -0.51416851429E+03  0.68912049902E+03  0.00000000000E+00 0. -1.
          2    1    6    6  503    0  0.64952727647E+02 -0.66391737776E+02 -0.41678174931E+03  0.42700555761E+03  0.00000000000E+00 0. -1.
         -2    1    6    6    0  503  0.39492364561E+02 -0.20420955229E+03 -0.76421858339E+03  0.79201719129E+03  0.00000000000E+00 0.  1.
<mgrwt>
<rscale>  0 0.11784205E+04</rscale>
<asrwt>0</asrwt>
<pdfrwt beam="1">  1        2 0.37016641E+00 0.11784205E+04</pdfrwt>
<pdfrwt beam="2">  1       -1 0.22198156E-01 0.11784205E+04</pdfrwt>
<totfact> 0.76581905E+01</totfact>
</mgrwt>
</event>
<event>
12    7  0.1605494E-007  0.1442516E+04  0.7818608E-02  0.8923605E-01
         -1   -1    0    0    0  501 -0.00000000000E+00  0.00000000000E+00  0.19751973314E+03  0.19751973314E+03  0.00000000000E+00 0.  1.
          2   -1    0    0  501    0  0.00000000000E+00 -0.00000000000E+00 -0.26337275042E+04  0.26337275042E+04  0.00000000000E+00 0. -1.
         24    2    1    2    0    0  0.28579554152E+02 -0.32382867218E+03 -0.13232030941E+04  0.13644464393E+04  0.71873899846E+02 0.  0.
        254    2    1    2    0    0 -0.28579554152E+02  0.32382867218E+03 -0.11130046769E+04  0.14668007981E+04  0.89835592641E+03 0.  0.
         23    2    4    4    0    0  0.15437603376E+03  0.58561368028E+03 -0.82320261440E+03  0.10260637957E+04  0.91482381593E+02 0.  0.
         23    2    4    4    0    0 -0.18295558792E+03 -0.26178500810E+03 -0.28980206254E+03  0.44073700239E+03  0.90883068883E+02 0.  0.
          4    1    3    3  502    0  0.50256809580E+02 -0.26811788497E+03 -0.11091565734E+04  0.11422089351E+04  0.00000000000E+00 0. -1.
         -3    1    3    3    0  502 -0.21677255428E+02 -0.55710787211E+02 -0.21404652076E+03  0.22223750418E+03  0.00000000000E+00 0.  1.
         13    1    5    5    0    0 -0.27697092709E+01  0.66431013173E+02 -0.12836358400E+03  0.14456126901E+03  0.00000000000E+00 0. -1.
        -13    1    5    5    0    0  0.15714574303E+03  0.51918266711E+03 -0.69483903040E+03  0.88150252668E+03  0.00000000000E+00 0.  1.
          4    1    6    6  503    0 -0.13473162121E+03 -0.22264777061E+03 -0.27129099620E+03  0.37593010538E+03  0.00000000000E+00 0.  1.
         -4    1    6    6    0  503 -0.48223966701E+02 -0.39137237494E+02 -0.18511066332E+02  0.64806897008E+02  0.00000000000E+00 0. -1.
<mgrwt>
<rscale>  0 0.14425161E+04</rscale>
<asrwt>0</asrwt>
<pdfrwt beam="1">  1        2 0.40518885E+00 0.14425161E+04</pdfrwt>
<pdfrwt beam="2">  1       -1 0.30387651E-01 0.14425161E+04</pdfrwt>
<totfact> 0.32189532E+01</totfact>
</mgrwt>
</event>
<event>
12    7  0.1605494E-007  0.2700072E+04  0.7818608E-02  0.8334981E-01
          2   -1    0    0  501    0  0.00000000000E+00  0.00000000000E+00  0.27298945019E+04  0.27298945019E+04  0.00000000000E+00 0. -1.
         -1   -1    0    0    0  501 -0.00000000000E+00 -0.00000000000E+00 -0.66764405125E+03  0.66764405125E+03  0.00000000000E+00 0.  1.
         24    2    1    2    0    0  0.63042453064E+03  0.10002952595E+04  0.67640865947E+03  0.13645348658E+04  0.80006438716E+02 0.  0.
        254    2    1    2    0    0 -0.63042453064E+03 -0.10002952595E+04  0.13858417912E+04  0.20330036874E+04  0.90250807623E+03 0.  0.
         23    2    4    4    0    0 -0.79600632096E+01  0.11306625443E+03  0.37528953994E+03  0.40315494975E+03  0.94044320506E+02 0.  0.
         23    2    4    4    0    0 -0.62246446743E+03 -0.11133615140E+04  0.10105522513E+04  0.16298487376E+04  0.90306041410E+02 0.  0.
          2    1    3    3  502    0  0.72311400264E+02  0.72911764737E+02  0.56213175465E+02  0.11706829264E+03  0.00000000000E+00 0. -1.
         -1    1    3    3    0  502  0.55811313037E+03  0.92738349479E+03  0.62019548400E+03  0.12474665731E+04  0.00000000000E+00 0.  1.
         13    1    5    5    0    0  0.29941714183E+02  0.76223780346E+02  0.14172709248E+03  0.16368610106E+03  0.00000000000E+00 0. -1.
        -13    1    5    5    0    0 -0.37901777393E+02  0.36842474085E+02  0.23356244746E+03  0.23946884868E+03  0.00000000000E+00 0.  1.
          2    1    6    6  503    0 -0.34398821854E+03 -0.66225905380E+03  0.54190918594E+03  0.92226922026E+03  0.00000000000E+00 0.  1.
         -2    1    6    6    0  503 -0.27847624888E+03 -0.45110246016E+03  0.46864306532E+03  0.70757951739E+03  0.00000000000E+00 0. -1.
<mgrwt>
<rscale>  0 0.27000725E+04</rscale>
<asrwt>0</asrwt>
<pdfrwt beam="1">  1        2 0.41998377E+00 0.27000725E+04</pdfrwt>
<pdfrwt beam="2">  1       -1 0.10271447E+00 0.27000725E+04</pdfrwt>
<totfact> 0.22768261E+00</totfact>
</mgrwt>
</event>
<event>
12    7  0.1605494E-007  0.1441542E+04  0.7818608E-02  0.8924285E-01
         -3   -1    0    0    0  501 -0.00000000000E+00  0.00000000000E+00  0.10006057662E+04  0.10006057662E+04  0.00000000000E+00 0.  1.
          2   -1    0    0  501    0  0.00000000000E+00 -0.00000000000E+00 -0.51919628761E+03  0.51919628761E+03  0.00000000000E+00 0. -1.
         24    2    1    2    0    0  0.33124779134E+03  0.41352379607E+02  0.50962927580E+03  0.61437581578E+03  0.79375850852E+02 0.  0.
        254    2    1    2    0    0 -0.33124779134E+03 -0.41352379607E+02 -0.28219797160E+02  0.90542623807E+03  0.84116894681E+03 0.  0.
         23    2    4    4    0    0 -0.24862618603E+03  0.23936395406E+03  0.29129703530E+03  0.46034905605E+03  0.89203182388E+02 0.  0.
         23    2    4    4    0    0 -0.82621605313E+02 -0.28071633367E+03 -0.31951683246E+03  0.44507718202E+03  0.10185628149E+03 0.  0.
          4    1    3    3  502    0 -0.38256363423E+01 -0.15844716769E+01  0.13781712945E+02  0.14390332019E+02  0.00000000000E+00 0. -1.
         -3    1    3    3    0  502  0.33507342768E+03  0.42936851284E+02  0.49584756285E+03  0.59998548376E+03  0.00000000000E+00 0.  1.
         13    1    5    5    0    0 -0.48537252076E+02  0.78707857942E+02  0.38586709015E+02  0.10019843239E+03  0.00000000000E+00 0. -1.
        -13    1    5    5    0    0 -0.20008893395E+03  0.16065609612E+03  0.25271032629E+03  0.36015062366E+03  0.00000000000E+00 0.  1.
          4    1    6    6  503    0 -0.10480154269E+03 -0.25415809074E+03 -0.27712100015E+03  0.39035336192E+03  0.00000000000E+00 0.  1.
         -4    1    6    6    0  503  0.22179937374E+02 -0.26558242928E+02 -0.42395832313E+02  0.54723820104E+02  0.00000000000E+00 0. -1.
<mgrwt>
<rscale>  0 0.14415420E+04</rscale>
<asrwt>0</asrwt>
<pdfrwt beam="1">  1        2 0.79876352E-01 0.14415420E+04</pdfrwt>
<pdfrwt beam="2">  1       -3 0.15393935E+00 0.14415420E+04</pdfrwt>
<totfact> 0.10815424E+01</totfact>
</mgrwt>
</event>
<event>
12    7  0.1605494E-007  0.1094685E+04  0.7818608E-02  0.9210388E-01
          2   -1    0    0  501    0  0.00000000000E+00  0.00000000000E+00  0.20391301453E+04  0.20391301453E+04  0.00000000000E+00 0. -1.
         -1   -1    0    0    0  501 -0.00000000000E+00 -0.00000000000E+00 -0.14691743550E+03  0.14691743550E+03  0.00000000000E+00 0.  1.
         24    2    1    2    0    0 -0.14184458823E+03  0.63018639476E+02  0.25032036892E+03  0.30501677675E+03  0.79269861074E+02 0.  0.
        254    2    1    2    0    0  0.14184458823E+03 -0.63018639476E+02  0.16418923409E+04  0.18810308040E+04  0.90464091805E+03 0.  0.
         23    2    4    4    0    0  0.46830559203E+03  0.11096908575E+03  0.12092350805E+04  0.13045958000E+04  0.89980308558E+02 0.  0.
         23    2    4    4    0    0 -0.32646100380E+03 -0.17398772523E+03  0.43265726040E+03  0.57643500407E+03  0.90755128870E+02 0.  0.
          4    1    3    3  502    0  0.76168646402E+00  0.19319816186E+02  0.90069720290E+01  0.21329815021E+02  0.00000000000E+00 0. -1.
         -3    1    3    3    0  502 -0.14260627469E+03  0.43698823291E+02  0.24131339689E+03  0.28368696173E+03  0.00000000000E+00 0.  1.
         13    1    5    5    0    0  0.50737526862E+02 -0.11443177227E+02  0.93212927340E+02  0.10674217892E+03  0.00000000000E+00 0. -1.
        -13    1    5    5    0    0  0.41756806516E+03  0.12241226298E+03  0.11160221531E+04  0.11978536210E+04  0.00000000000E+00 0.  1.
          3    1    6    6  503    0 -0.11639295010E+02 -0.22107820435E+02  0.76031914973E+01  0.26115846409E+02  0.00000000000E+00 0. -1.
         -3    1    6    6    0  503 -0.31482170879E+03 -0.15187990479E+03  0.42505406890E+03  0.55031915766E+03  0.00000000000E+00 0.  1.
<mgrwt>
<rscale>  0 0.10946849E+04</rscale>
<asrwt>0</asrwt>
<pdfrwt beam="1">  1        2 0.31371231E+00 0.10946849E+04</pdfrwt>
<pdfrwt beam="2">  1       -1 0.22602684E-01 0.10946849E+04</pdfrwt>
<totfact> 0.11993601E+02</totfact>
</mgrwt>
</event>
<event>
12    7  0.1605494E-007  0.1624665E+04  0.7818608E-02  0.8805537E-01
         -1   -1    0    0    0  501 -0.00000000000E+00  0.00000000000E+00  0.56962228621E+03  0.56962228621E+03  0.00000000000E+00 0.  1.
          2   -1    0    0  501    0  0.00000000000E+00 -0.00000000000E+00 -0.11584585005E+04  0.11584585005E+04  0.00000000000E+00 0. -1.
         24    2    1    2    0    0 -0.54247884041E+03 -0.92968006262E+02 -0.10434844376E+03  0.56577695506E+03  0.79300836555E+02 0.  0.
        254    2    1    2    0    0  0.54247884041E+03  0.92968006262E+02 -0.48448777053E+03  0.11623038317E+04  0.90182894986E+03 0.  0.
         23    2    4    4    0    0 -0.11940646127E+03 -0.35575869809E+02 -0.45616273602E+03  0.48149792856E+03  0.90731846493E+02 0.  0.
         23    2    4    4    0    0  0.66188530168E+03  0.12854387607E+03 -0.28325034511E+02  0.68080590310E+03  0.89881530074E+02 0.  0.
          2    1    3    3  502    0 -0.29397355299E+03 -0.29501621440E+02 -0.21436232215E+02  0.29622678403E+03  0.00000000000E+00 0. -1.
         -1    1    3    3    0  502 -0.24850528742E+03 -0.63466384822E+02 -0.82912211543E+02  0.26955017103E+03  0.00000000000E+00 0.  1.
         13    1    5    5    0    0 -0.99932987527E+02  0.13840156740E+02 -0.30803531706E+03  0.32413563286E+03  0.00000000000E+00 0. -1.
        -13    1    5    5    0    0 -0.19473473745E+02 -0.49416026549E+02 -0.14812741896E+03  0.15736229570E+03  0.00000000000E+00 0.  1.
          4    1    6    6  503    0  0.48024694947E+03  0.12678179476E+03  0.16487822994E+01  0.49670260160E+03  0.00000000000E+00 0. -1.
         -4    1    6    6    0  503  0.18163835222E+03  0.17620813121E+01 -0.29973816811E+02  0.18410330149E+03  0.00000000000E+00 0.  1.
<mgrwt>
<rscale>  0 0.16246646E+04</rscale>
<asrwt>0</asrwt>
<pdfrwt beam="1">  1        2 0.17822438E+00 0.16246646E+04</pdfrwt>
<pdfrwt beam="2">  1       -1 0.87634199E-01 0.16246646E+04</pdfrwt>
<totfact> 0.28055305E+01</totfact>
</mgrwt>
</event>
<event>
12    7  0.1605494E-007  0.1974347E+04  0.7818608E-02  0.8618709E-01
          2   -1    0    0  501    0  0.00000000000E+00  0.00000000000E+00  0.12827635278E+04  0.12827635278E+04  0.00000000000E+00 0. -1.
         -1   -1    0    0    0  501 -0.00000000000E+00 -0.00000000000E+00 -0.75969698223E+03  0.75969698223E+03  0.00000000000E+00 0.  1.
         24    2    1    2    0    0  0.65612505428E+03  0.49889868784E+02  0.63928754500E+03  0.92091649416E+03  0.80059591336E+02 0.  0.
        254    2    1    2    0    0 -0.65612505428E+03 -0.49889868784E+02 -0.11622099948E+03  0.11215440158E+04  0.90075777702E+03 0.  0.
         23    2    4    4    0    0 -0.33496766638E+03 -0.46627331619E+03 -0.54295916907E+02  0.58496891697E+03  0.98114444956E+02 0.  0.
         23    2    4    4    0    0 -0.32115738789E+03  0.41638344741E+03 -0.61925082569E+02  0.53657509886E+03  0.86953308141E+02 0.  0.
          4    1    3    3  502    0  0.42184488991E+03  0.56399389629E+02  0.37023918110E+03  0.56410198857E+03  0.00000000000E+00 0. -1.
         -3    1    3    3    0  502  0.23428016437E+03 -0.65095208444E+01  0.26904836390E+03  0.35681450559E+03  0.00000000000E+00 0.  1.
         13    1    5    5    0    0 -0.33255285508E+03 -0.44600297270E+03 -0.67860033028E+02  0.56045966595E+03  0.00000000000E+00 0.  1.
        -13    1    5    5    0    0 -0.24148112989E+01 -0.20270343496E+02  0.13564116121E+02  0.24509251012E+02  0.00000000000E+00 0. -1.
          3    1    6    6  503    0 -0.71150835720E+02  0.80364907020E+02 -0.47845672952E+02  0.11751667169E+03  0.00000000000E+00 0. -1.
         -3    1    6    6    0  503 -0.25000655217E+03  0.33601854039E+03 -0.14079409617E+02  0.41905842718E+03  0.00000000000E+00 0.  1.
<mgrwt>
<rscale>  0 0.19743471E+04</rscale>
<asrwt>0</asrwt>
<pdfrwt beam="1">  1        2 0.19734823E+00 0.19743471E+04</pdfrwt>
<pdfrwt beam="2">  1       -1 0.11687646E+00 0.19743471E+04</pdfrwt>
<totfact> 0.11854916E+01</totfact>
</mgrwt>
</event>
<event>
12    7  0.2377362E-007  0.1482141E+04  0.7818608E-02  0.8896417E-01
          2   -1    0    0  501    0  0.00000000000E+00  0.00000000000E+00  0.13298764467E+04  0.13298764467E+04  0.00000000000E+00 0. -1.
         -1   -1    0    0    0  501 -0.00000000000E+00 -0.00000000000E+00 -0.41295974852E+03  0.41295974852E+03  0.00000000000E+00 0.  1.
         24    2    1    2    0    0 -0.11839194685E+03  0.18735853809E+03  0.72996625613E+03  0.76711388783E+03  0.80579817209E+02 0.  0.
        254    2    1    2    0    0  0.11839194685E+03 -0.18735853809E+03  0.18695044206E+03  0.97572230740E+03  0.93164568292E+03 0.  0.
         23    2    4    4    0    0 -0.65562422808E+02  0.14418703827E+03 -0.30070035428E+03  0.35188318268E+03  0.91174217310E+02 0.  0.
         23    2    4    4    0    0  0.18395436966E+03 -0.33154557636E+03  0.48765079633E+03  0.62383912472E+03  0.87236890447E+02 0.  0.
          2    1    3    3  502    0 -0.12677068270E+03  0.18486859990E+03  0.71875196592E+03  0.75289547331E+03  0.00000000000E+00 0. -1.
         -1    1    3    3    0  502  0.83787358442E+01  0.24899381894E+01  0.11214290210E+02  0.14218414519E+02  0.00000000000E+00 0.  1.
         13    1    5    5    0    0 -0.20546242089E+02 -0.63441953971E+01 -0.16354584828E+02  0.27016093799E+02  0.00000000000E+00 0. -1.
        -13    1    5    5    0    0 -0.45016180719E+02  0.15053123367E+03 -0.28434576945E+03  0.32486708888E+03  0.00000000000E+00 0.  1.
          1    1    6    6  503    0  0.11811455145E+02 -0.31450546548E+02  0.11992607153E+02  0.35671697144E+02  0.00000000000E+00 0. -1.
         -1    1    6    6    0  503  0.17214291452E+03 -0.30009502981E+03  0.47565818918E+03  0.58816742758E+03  0.00000000000E+00 0.  1.
<mgrwt>
<rscale>  0 0.14821409E+04</rscale>
<asrwt>0</asrwt>
<pdfrwt beam="1">  1        2 0.20459637E+00 0.14821409E+04</pdfrwt>
<pdfrwt beam="2">  1       -1 0.63532270E-01 0.14821409E+04</pdfrwt>
<totfact> 0.44009789E+01</totfact>
</mgrwt>
</event>
<event>
12    7  0.1605494E-007  0.1698159E+04  0.7818608E-02  0.8762415E-01
         -1   -1    0    0    0  501 -0.00000000000E+00  0.00000000000E+00  0.77583206397E+03  0.77583206397E+03  0.00000000000E+00 0.  1.
          2   -1    0    0  501    0  0.00000000000E+00 -0.00000000000E+00 -0.92924195441E+03  0.92924195441E+03  0.00000000000E+00 0. -1.
         24    2    1    2    0    0  0.26878722965E+03  0.31325112847E+03 -0.49219739995E+03  0.64857212191E+03  0.89524703252E+02 0.  0.
        254    2    1    2    0    0 -0.26878722965E+03 -0.31325112847E+03  0.33878750951E+03  0.10565018965E+04  0.91161748356E+03 0.  0.
         23    2    4    4    0    0 -0.13858964994E+03  0.66179078762E+02  0.56213660011E+03  0.58811648304E+03  0.79351615616E+02 0.  0.
         23    2    4    4    0    0 -0.13019757971E+03 -0.37943020723E+03 -0.22334909060E+03  0.46838541343E+03  0.92635777728E+02 0.  0.
          4    1    3    3  502    0  0.21111105921E+03  0.28816079069E+03 -0.44062673060E+03  0.56723578548E+03  0.00000000000E+00 0. -1.
         -3    1    3    3    0  502  0.57676170443E+02  0.25090337785E+02 -0.51570669349E+02  0.81336336433E+02  0.00000000000E+00 0.  1.
         13    1    5    5    0    0 -0.58593748062E+02  0.62205959916E+02  0.20480926613E+03  0.22192260871E+03  0.00000000000E+00 0. -1.
        -13    1    5    5    0    0 -0.79995901882E+02  0.39731188463E+01  0.35732733398E+03  0.36619387434E+03  0.00000000000E+00 0.  1.
          1    1    6    6  503    0  0.25929159332E+00 -0.76358148989E+00 -0.18521506336E+02  0.18539052990E+02  0.00000000000E+00 0. -1.
         -1    1    6    6    0  503 -0.13045687130E+03 -0.37866662574E+03 -0.20482758426E+03  0.44984636044E+03  0.00000000000E+00 0.  1.
<mgrwt>
<rscale>  0 0.16981587E+04</rscale>
<asrwt>0</asrwt>
<pdfrwt beam="1">  1        2 0.14296030E+00 0.16981587E+04</pdfrwt>
<pdfrwt beam="2">  1       -1 0.11935878E+00 0.16981587E+04</pdfrwt>
<totfact> 0.19094134E+01</totfact>
</mgrwt>
</event>
<event>
12    7  0.1605494E-007  0.1958244E+04  0.7818608E-02  0.8626396E-01
          2   -1    0    0  501    0  0.00000000000E+00  0.00000000000E+00  0.10366601497E+04  0.10366601497E+04  0.00000000000E+00 0. -1.
         -1   -1    0    0    0  501 -0.00000000000E+00 -0.00000000000E+00 -0.92477706039E+03  0.92477706039E+03  0.00000000000E+00 0.  1.
         24    2    1    2    0    0  0.60410310526E+03  0.35175889892E+03  0.35306567094E+03  0.78721425402E+03  0.79850040508E+02 0.  0.
        254    2    1    2    0    0 -0.60410310526E+03 -0.35175889892E+03 -0.24118258161E+03  0.11742229561E+04  0.91211601684E+03 0.  0.
         23    2    4    4    0    0 -0.63525312490E+03 -0.28712443669E+03  0.19022547234E+03  0.72830906823E+03  0.90892209228E+02 0.  0.
         23    2    4    4    0    0  0.31150019636E+02 -0.64634462237E+02 -0.43140805395E+03  0.44591388786E+03  0.87053712991E+02 0.  0.
          4    1    3    3  502    0  0.16958332308E+03  0.10655318777E+03  0.14180133133E+03  0.24539703107E+03  0.00000000000E+00 0. -1.
         -3    1    3    3    0  502  0.43451978218E+03  0.24520571115E+03  0.21126433961E+03  0.54181722295E+03  0.00000000000E+00 0.  1.
         13    1    5    5    0    0 -0.74586987470E+02 -0.53922744169E+02  0.51375415371E+02  0.10540547587E+03  0.00000000000E+00 0.  1.
        -13    1    5    5    0    0 -0.56066613743E+03 -0.23320169252E+03  0.13885005697E+03  0.62290359236E+03  0.00000000000E+00 0. -1.
          4    1    6    6  503    0  0.98764891131E+01  0.14911106901E+02 -0.22223252915E+02  0.28526463439E+02  0.00000000000E+00 0.  1.
         -4    1    6    6    0  503  0.21273530522E+02 -0.79545569138E+02 -0.40918480103E+03  0.41738742442E+03  0.00000000000E+00 0. -1.
<mgrwt>
<rscale>  0 0.19582436E+04</rscale>
<asrwt>0</asrwt>
<pdfrwt beam="1">  1        2 0.15948618E+00 0.19582436E+04</pdfrwt>
<pdfrwt beam="2">  1       -1 0.14227339E+00 0.19582436E+04</pdfrwt>
<totfact> 0.10197127E+01</totfact>
</mgrwt>
</event>
<event>
12    7  0.1605494E-007  0.2870589E+04  0.7818608E-02  0.8281682E-01
         -1   -1    0    0    0  501 -0.00000000000E+00  0.00000000000E+00  0.11354156156E+04  0.11354156156E+04  0.00000000000E+00 0.  1.
          2   -1    0    0  501    0  0.00000000000E+00 -0.00000000000E+00 -0.18143752019E+04  0.18143752019E+04  0.00000000000E+00 0. -1.
         24    2    1    2    0    0  0.19129682589E+03  0.12577901946E+04 -0.56600402627E+03  0.13947409844E+04  0.79443103675E+02 0.  0.
        254    2    1    2    0    0 -0.19129682589E+03 -0.12577901946E+04 -0.11295556002E+03  0.15550498330E+04  0.88701204914E+03 0.  0.
         23    2    4    4    0    0 -0.19025974525E+03 -0.18065260915E+02  0.17893858159E+03  0.27777835675E+03  0.92826047968E+02 0.  0.
         23    2    4    4    0    0 -0.10370806323E+01 -0.12397249337E+04 -0.29189414161E+03  0.12772714762E+04  0.96442974775E+02 0.  0.
          2    1    3    3  502    0  0.15605741420E+03  0.93634214241E+03 -0.45658531248E+03  0.10533568587E+04  0.00000000000E+00 0. -1.
         -1    1    3    3    0  502  0.35239411687E+02  0.32144805217E+03 -0.10941871380E+03  0.34138412575E+03  0.00000000000E+00 0.  1.
         13    1    5    5    0    0 -0.15403670753E+03 -0.47038614682E+02  0.11134519436E+03  0.19580012984E+03  0.00000000000E+00 0.  1.
        -13    1    5    5    0    0 -0.36223037725E+02  0.28973353767E+02  0.67593387226E+02  0.81978226909E+02  0.00000000000E+00 0. -1.
          3    1    6    6  503    0 -0.37004871156E+02 -0.28968787798E+03 -0.50359822935E+02  0.29635205230E+03  0.00000000000E+00 0. -1.
         -3    1    6    6    0  503  0.35967790524E+02 -0.95003705569E+03 -0.24153431867E+03  0.98091942392E+03  0.00000000000E+00 0.  1.
<mgrwt>
<rscale>  0 0.28705887E+04</rscale>
<asrwt>0</asrwt>
<pdfrwt beam="1">  1        2 0.27913464E+00 0.28705887E+04</pdfrwt>
<pdfrwt beam="2">  1       -1 0.17467933E+00 0.28705887E+04</pdfrwt>
<totfact> 0.18968081E+00</totfact>
</mgrwt>
</event>
<event>
12    7  0.1605494E-007  0.2411979E+04  0.7818608E-02  0.8435032E-01
         -1   -1    0    0    0  501 -0.00000000000E+00  0.00000000000E+00  0.44110968053E+03  0.44110968053E+03  0.00000000000E+00 0.  1.
          2   -1    0    0  501    0  0.00000000000E+00 -0.00000000000E+00 -0.32971643055E+04  0.32971643055E+04  0.00000000000E+00 0. -1.
         24    2    1    2    0    0  0.64129806339E+03  0.72636198318E+03 -0.18028795566E+04  0.20483220998E+04  0.79898638339E+02 0.  0.
        254    2    1    2    0    0 -0.64129806339E+03 -0.72636198318E+03 -0.10531750684E+04  0.16899518862E+04  0.89882963696E+03 0.  0.
         23    2    4    4    0    0 -0.85574769074E+02  0.19957541940E+03 -0.23006631020E+03  0.32939850557E+03  0.91757720377E+02 0.  0.
         23    2    4    4    0    0 -0.55572329431E+03 -0.92593740259E+03 -0.82310875823E+03  0.13605533807E+04  0.86075666699E+02 0.  0.
          4    1    3    3  502    0  0.31832871485E+03  0.34313241010E+03 -0.95135951975E+03  0.10602631548E+04  0.00000000000E+00 0. -1.
         -3    1    3    3    0  502  0.32296934853E+03  0.38322957308E+03 -0.85152003682E+03  0.98805894504E+03  0.00000000000E+00 0.  1.
         13    1    5    5    0    0 -0.54009111644E+02  0.19291650475E+03 -0.21475366286E+03  0.29368843637E+03  0.00000000000E+00 0. -1.
        -13    1    5    5    0    0 -0.31565657430E+02  0.66589146523E+01 -0.15312647334E+02  0.35710069192E+02  0.00000000000E+00 0.  1.
          1    1    6    6  503    0 -0.40810784428E+03 -0.63731802140E+03 -0.53438022445E+03  0.92643860954E+03  0.00000000000E+00 0. -1.
         -1    1    6    6    0  503 -0.14761545003E+03 -0.28861938119E+03 -0.28872853378E+03  0.43411477112E+03  0.00000000000E+00 0.  1.
<mgrwt>
<rscale>  0 0.24119793E+04</rscale>
<asrwt>0</asrwt>
<pdfrwt beam="1">  1        2 0.50725604E+00 0.24119793E+04</pdfrwt>
<pdfrwt beam="2">  1       -1 0.67863028E-01 0.24119793E+04</pdfrwt>
<totfact> 0.25161489E+00</totfact>
</mgrwt>
</event>
<event>
12    7  0.1605494E-007  0.1335572E+04  0.7818608E-02  0.9001823E-01
          2   -1    0    0  501    0  0.00000000000E+00  0.00000000000E+00  0.56147307753E+03  0.56147307753E+03  0.00000000000E+00 0. -1.
         -1   -1    0    0    0  501 -0.00000000000E+00 -0.00000000000E+00 -0.79422859688E+03  0.79422859688E+03  0.00000000000E+00 0.  1.
         24    2    1    2    0    0  0.26997309825E+03 -0.11980587932E+03  0.13063025028E+03  0.33280835644E+03  0.80363034608E+02 0.  0.
        254    2    1    2    0    0 -0.26997309825E+03  0.11980587932E+03 -0.36338576963E+03  0.10228933180E+04  0.90940782924E+03 0.  0.
         23    2    4    4    0    0 -0.24267967378E+02  0.44257553444E+02 -0.63177000731E+03  0.64047490912E+03  0.92342307717E+02 0.  0.
         23    2    4    4    0    0 -0.24570513087E+03  0.75548325878E+02  0.26838423768E+03  0.38241840885E+03  0.90195230002E+02 0.  0.
          4    1    3    3  502    0  0.27352837674E+03 -0.10852618832E+03  0.12537018133E+03  0.31986464137E+03  0.00000000000E+00 0. -1.
         -3    1    3    3    0  502 -0.35552784968E+01 -0.11279691006E+02  0.52600689503E+01  0.12943715067E+02  0.00000000000E+00 0.  1.
         13    1    5    5    0    0  0.36110677217E+01  0.22138897738E+02 -0.29037003593E+02  0.36692208720E+02  0.00000000000E+00 0.  1.
        -13    1    5    5    0    0 -0.27879035099E+02  0.22118655706E+02 -0.60273300372E+03  0.60378270040E+03  0.00000000000E+00 0. -1.
          4    1    6    6  503    0 -0.18561443332E+03  0.50157084045E+02  0.24854350231E+03  0.31423291279E+03  0.00000000000E+00 0. -1.
         -4    1    6    6    0  503 -0.60090697545E+02  0.25391241833E+02  0.19840735366E+02  0.68185496061E+02  0.00000000000E+00 0.  1.
<mgrwt>
<rscale>  0 0.13355717E+04</rscale>
<asrwt>0</asrwt>
<pdfrwt beam="1">  1        2 0.86380473E-01 0.13355717E+04</pdfrwt>
<pdfrwt beam="2">  1       -1 0.12218902E+00 0.13355717E+04</pdfrwt>
<totfact> 0.35561050E+01</totfact>
</mgrwt>
</event>
<event>
12    7  0.1605494E-007  0.2905722E+04  0.7818608E-02  0.8271177E-01
          2   -1    0    0  501    0  0.00000000000E+00  0.00000000000E+00  0.11372475282E+04  0.11372475282E+04  0.00000000000E+00 0. -1.
         -1   -1    0    0    0  501 -0.00000000000E+00 -0.00000000000E+00 -0.18560642278E+04  0.18560642278E+04  0.00000000000E+00 0.  1.
         24    2    1    2    0    0  0.23007918256E+03 -0.77403409109E+03  0.74182533188E+03  0.10998884463E+04  0.85933502608E+02 0.  0.
        254    2    1    2    0    0 -0.23007918256E+03  0.77403409109E+03 -0.14606420315E+04  0.18934233096E+04  0.89415405884E+03 0.  0.
         23    2    4    4    0    0 -0.10526904847E+03 -0.13980703925E+03 -0.58925367295E+03  0.62111232078E+03  0.89067632407E+02 0.  0.
         23    2    4    4    0    0 -0.12481013409E+03  0.91384113033E+03 -0.87138835853E+03  0.12723109889E+04  0.93671767065E+02 0.  0.
          4    1    3    3  502    0  0.13053575264E+03 -0.50491098075E+03  0.52716896927E+03  0.74154015627E+03  0.00000000000E+00 0. -1.
         -3    1    3    3    0  502  0.99543429926E+02 -0.26912311033E+03  0.21465636261E+03  0.35834829003E+03  0.00000000000E+00 0.  1.
         13    1    5    5    0    0 -0.97568110701E+01  0.12016581961E+02 -0.29381988787E+02  0.33209861025E+02  0.00000000000E+00 0.  1.
        -13    1    5    5    0    0 -0.95512237403E+02 -0.15182362121E+03 -0.55987168417E+03  0.58790245975E+03  0.00000000000E+00 0. -1.
          2    1    6    6  503    0 -0.13622764172E+03  0.85277346235E+03 -0.79450630887E+03  0.11734653055E+04  0.00000000000E+00 0. -1.
         -2    1    6    6    0  503  0.11417507628E+02  0.61067667980E+02 -0.76882049659E+02  0.98845683329E+02  0.00000000000E+00 0.  1.
<mgrwt>
<rscale>  0 0.29057216E+04</rscale>
<asrwt>0</asrwt>
<pdfrwt beam="1">  1        2 0.17496116E+00 0.29057216E+04</pdfrwt>
<pdfrwt beam="2">  1       -1 0.28554834E+00 0.29057216E+04</pdfrwt>
<totfact> 0.83236905E-01</totfact>
</mgrwt>
</event>
<event>
12    7  0.1605494E-007  0.1313408E+04  0.7818608E-02  0.9018999E-01
         -1   -1    0    0    0  501 -0.00000000000E+00  0.00000000000E+00  0.71474700709E+03  0.71474700709E+03  0.00000000000E+00 0.  1.
          2   -1    0    0  501    0  0.00000000000E+00 -0.00000000000E+00 -0.60337465017E+03  0.60337465017E+03  0.00000000000E+00 0. -1.
         24    2    1    2    0    0  0.71116467491E+02 -0.13717222113E+02  0.36569812059E+03  0.38179324934E+03  0.82372663625E+02 0.  0.
        254    2    1    2    0    0 -0.71116467491E+02  0.13717222113E+02 -0.25432576367E+03  0.93632840792E+03  0.89821132217E+03 0.  0.
         23    2    4    4    0    0  0.18243247707E+03 -0.37008852147E+03 -0.52987067242E+02  0.42568967975E+03  0.90315844352E+02 0.  0.
         23    2    4    4    0    0 -0.25354894456E+03  0.38380574358E+03 -0.20133869643E+03  0.51063872817E+03  0.92847853683E+02 0.  0.
          2    1    3    3  502    0  0.29712114806E+02  0.28698064214E+02  0.23050263317E+03  0.23417483330E+03  0.00000000000E+00 0. -1.
         -1    1    3    3    0  502  0.41404352685E+02 -0.42415286327E+02  0.13519548742E+03  0.14761841604E+03  0.00000000000E+00 0.  1.
         13    1    5    5    0    0 -0.87773578130E+01 -0.13585624779E+02 -0.96427925290E+01  0.18830683964E+02  0.00000000000E+00 0. -1.
        -13    1    5    5    0    0  0.19120983488E+03 -0.35650289669E+03 -0.43344274713E+02  0.40685899579E+03  0.00000000000E+00 0.  1.
          4    1    6    6  503    0 -0.12162300048E+03  0.25175370105E+03 -0.92144649820E+02  0.29438532016E+03  0.00000000000E+00 0.  1.
         -4    1    6    6    0  503 -0.13192594408E+03  0.13205204253E+03 -0.10919404661E+03  0.21625340800E+03  0.00000000000E+00 0. -1.
<mgrwt>
<rscale>  0 0.13134081E+04</rscale>
<asrwt>0</asrwt>
<pdfrwt beam="1">  1        2 0.92826870E-01 0.13134081E+04</pdfrwt>
<pdfrwt beam="2">  1       -1 0.10996108E+00 0.13134081E+04</pdfrwt>
<totfact> 0.42127126E+01</totfact>
</mgrwt>
</event>
<event>
12    7  0.1605494E-007  0.1609004E+04  0.7818608E-02  0.8815035E-01
         -1   -1    0    0    0  501 -0.00000000000E+00  0.00000000000E+00  0.21672359959E+03  0.21672359959E+03  0.00000000000E+00 0.  1.
          2   -1    0    0  501    0  0.00000000000E+00 -0.00000000000E+00 -0.29864023506E+04  0.29864023506E+04  0.00000000000E+00 0. -1.
         24    2    1    2    0    0  0.45221547272E+03 -0.22819352575E+02 -0.55880812388E+03  0.72360399330E+03  0.79477438150E+02 0.  0.
        254    2    1    2    0    0 -0.45221547272E+03  0.22819352575E+02 -0.22108706272E+04  0.24795219569E+04  0.10271614519E+04 0.  0.
         23    2    4    4    0    0  0.16005498686E+03 -0.13912315423E+03 -0.15215379631E+04  0.15389516524E+04  0.91222608099E+02 0.  0.
         23    2    4    4    0    0 -0.61227045958E+03  0.16194250680E+03 -0.68933266405E+03  0.94057030457E+03  0.91610506654E+02 0.  0.
          4    1    3    3  502    0  0.15437791712E+03 -0.23671602171E+02 -0.24837125691E+03  0.29339592243E+03  0.00000000000E+00 0. -1.
         -3    1    3    3    0  502  0.29783755560E+03  0.85224959557E+00 -0.31043686698E+03  0.43020807086E+03  0.00000000000E+00 0.  1.
         13    1    5    5    0    0  0.10755180876E+01 -0.30172150799E+01 -0.27125694398E+03  0.27127585588E+03  0.00000000000E+00 0. -1.
        -13    1    5    5    0    0  0.15897946877E+03 -0.13610593915E+03 -0.12502810191E+04  0.12676757965E+04  0.00000000000E+00 0.  1.
          1    1    6    6  503    0 -0.12758047315E+03  0.19417258377E+02 -0.93380356812E+02  0.15929123671E+03  0.00000000000E+00 0. -1.
         -1    1    6    6    0  503 -0.48468998643E+03  0.14252524843E+03 -0.59595230724E+03  0.78127906786E+03  0.00000000000E+00 0.  1.
<mgrwt>
<rscale>  0 0.16090045E+04</rscale>
<asrwt>0</asrwt>
<pdfrwt beam="1">  1        2 0.45944653E+00 0.16090045E+04</pdfrwt>
<pdfrwt beam="2">  1       -1 0.33342091E-01 0.16090045E+04</pdfrwt>
<totfact> 0.16492740E+01</totfact>
</mgrwt>
</event>
<event>
12    7  0.1605494E-007  0.1254380E+04  0.7818608E-02  0.9066545E-01
          2   -1    0    0  501    0  0.00000000000E+00  0.00000000000E+00  0.85854549636E+03  0.85854549636E+03  0.00000000000E+00 0. -1.
         -1   -1    0    0    0  501 -0.00000000000E+00 -0.00000000000E+00 -0.45817906426E+03  0.45817906426E+03  0.00000000000E+00 0.  1.
         24    2    1    2    0    0 -0.16227981596E+02  0.95239857110E+02  0.38330788440E+03  0.40303969595E+03  0.78626232884E+02 0.  0.
        254    2    1    2    0    0  0.16227981596E+02 -0.95239857110E+02  0.17058547700E+02  0.91368486466E+03  0.90840247693E+03 0.  0.
         23    2    4    4    0    0  0.28988171788E+03 -0.12827069059E+03 -0.32637333393E+03  0.46390464681E+03  0.90571451365E+02 0.  0.
         23    2    4    4    0    0 -0.27365373628E+03  0.33030833477E+02  0.34343188163E+03  0.44978021786E+03  0.91538973718E+02 0.  0.
          2    1    3    3  502    0 -0.38488286814E+02  0.93690931711E+02  0.29290637250E+03  0.30992496182E+03  0.00000000000E+00 0. -1.
         -1    1    3    3    0  502  0.22260305218E+02  0.15489253990E+01  0.90401511900E+02  0.93114734130E+02  0.00000000000E+00 0.  1.
         13    1    5    5    0    0  0.23688170440E+03 -0.95397630661E+02 -0.20510532071E+03  0.32753907003E+03  0.00000000000E+00 0. -1.
        -13    1    5    5    0    0  0.53000013480E+02 -0.32873059926E+02 -0.12126801322E+03  0.13636557677E+03  0.00000000000E+00 0.  1.
          2    1    6    6  503    0 -0.21744595666E+03 -0.25237282147E+00  0.21553315402E+03  0.30616555692E+03  0.00000000000E+00 0. -1.
         -2    1    6    6    0  503 -0.56207779623E+02  0.33283206299E+02  0.12789872761E+03  0.14361466094E+03  0.00000000000E+00 0.  1.
<mgrwt>
<rscale>  0 0.12543804E+04</rscale>
<asrwt>0</asrwt>
<pdfrwt beam="1">  1        2 0.13208392E+00 0.12543804E+04</pdfrwt>
<pdfrwt beam="2">  1       -1 0.70489087E-01 0.12543804E+04</pdfrwt>
<totfact> 0.71474812E+01</totfact>
</mgrwt>
</event>
<event>
12    7  0.1605494E-007  0.1515171E+04  0.7818608E-02  0.8874427E-01
          2   -1    0    0  501    0  0.00000000000E+00  0.00000000000E+00  0.39504867152E+03  0.39504867152E+03  0.00000000000E+00 0. -1.
         -1   -1    0    0    0  501 -0.00000000000E+00 -0.00000000000E+00 -0.14528224227E+04  0.14528224227E+04  0.00000000000E+00 0.  1.
         24    2    1    2    0    0  0.39268376329E+03  0.22547070426E+03 -0.58550278346E+03  0.74449001400E+03  0.80089294336E+02 0.  0.
        254    2    1    2    0    0 -0.39268376329E+03 -0.22547070426E+03 -0.47227096776E+03  0.11033810803E+04  0.88846629924E+03 0.  0.
         23    2    4    4    0    0 -0.64769251538E+02  0.30898697123E+03 -0.30593426277E+03  0.44897238236E+03  0.91172488450E+02 0.  0.
         23    2    4    4    0    0 -0.32791451175E+03 -0.53445767549E+03 -0.16633670500E+03  0.65440869791E+03  0.86080837397E+02 0.  0.
          4    1    3    3  502    0  0.96682035086E+02  0.63789573417E+02 -0.20943789399E+03  0.23933398635E+03  0.00000000000E+00 0. -1.
         -3    1    3    3    0  502  0.29600172820E+03  0.16168113084E+03 -0.37606488948E+03  0.50515602765E+03  0.00000000000E+00 0.  1.
         13    1    5    5    0    0 -0.59086404135E+02  0.22266943644E+03 -0.16412085902E+03  0.28285780428E+03  0.00000000000E+00 0. -1.
        -13    1    5    5    0    0 -0.56828474024E+01  0.86317534792E+02 -0.14181340375E+03  0.16611457807E+03  0.00000000000E+00 0.  1.
          3    1    6    6  503    0 -0.52577330130E+02 -0.52846180399E+02 -0.43154011155E+02  0.86135724906E+02  0.00000000000E+00 0. -1.
         -3    1    6    6    0  503 -0.27533718162E+03 -0.48161149509E+03 -0.12318269384E+03  0.56827297301E+03  0.00000000000E+00 0.  1.
<mgrwt>
<rscale>  0 0.15151707E+04</rscale>
<asrwt>0</asrwt>
<pdfrwt beam="1">  1        2 0.60776718E-01 0.15151707E+04</pdfrwt>
<pdfrwt beam="2">  1       -1 0.22351114E+00 0.15151707E+04</pdfrwt>
<totfact> 0.92836875E+00</totfact>
</mgrwt>
</event>
<event>
12    7  0.1605494E-007  0.1407125E+04  0.7818608E-02  0.8948677E-01
          2   -1    0    0  501    0  0.00000000000E+00  0.00000000000E+00  0.12659603865E+04  0.12659603865E+04  0.00000000000E+00 0. -1.
         -1   -1    0    0    0  501 -0.00000000000E+00 -0.00000000000E+00 -0.39100745984E+03  0.39100745984E+03  0.00000000000E+00 0.  1.
         24    2    1    2    0    0  0.26844674466E+03  0.35567133110E+03  0.35444292479E+03  0.57618757501E+03  0.88298268262E+02 0.  0.
        254    2    1    2    0    0 -0.26844674466E+03 -0.35567133110E+03  0.52051000187E+03  0.10807802713E+04  0.83581671578E+03 0.  0.
         23    2    4    4    0    0 -0.54554713882E+03 -0.18034298396E+03  0.20352282891E+03  0.61636170078E+03  0.91295847395E+02 0.  0.
         23    2    4    4    0    0  0.27710039416E+03 -0.17532834715E+03  0.31698717296E+03  0.46441857056E+03  0.87630377751E+02 0.  0.
          4    1    3    3  502    0  0.94640224931E+02  0.81326055977E+02  0.13720940140E+03  0.18546460414E+03  0.00000000000E+00 0. -1.
         -3    1    3    3    0  502  0.17380651973E+03  0.27434527513E+03  0.21723352339E+03  0.39072297088E+03  0.00000000000E+00 0.  1.
         13    1    5    5    0    0 -0.51359246302E+03 -0.17821867572E+03  0.21154973063E+03  0.58334586909E+03  0.00000000000E+00 0.  1.
        -13    1    5    5    0    0 -0.31954675800E+02 -0.21243082374E+01 -0.80269017154E+01  0.33015831689E+02  0.00000000000E+00 0. -1.
          4    1    6    6  503    0  0.44841109300E+02 -0.18266007616E+02  0.11496042942E+02  0.49764757820E+02  0.00000000000E+00 0. -1.
         -4    1    6    6    0  503  0.23225928486E+03 -0.15706233953E+03  0.30549113002E+03  0.41465381274E+03  0.00000000000E+00 0.  1.
<mgrwt>
<rscale>  0 0.14071247E+04</rscale>
<asrwt>0</asrwt>
<pdfrwt beam="1">  1        2 0.19476314E+00 0.14071247E+04</pdfrwt>
<pdfrwt beam="2">  1       -1 0.60154994E-01 0.14071247E+04</pdfrwt>
<totfact> 0.53786939E+01</totfact>
</mgrwt>
</event>
<event>
12    7  0.1605494E-007  0.2476924E+04  0.7818608E-02  0.8411253E-01
          2   -1    0    0  501    0  0.00000000000E+00  0.00000000000E+00  0.17301154374E+04  0.17301154374E+04  0.00000000000E+00 0. -1.
         -1   -1    0    0    0  501 -0.00000000000E+00 -0.00000000000E+00 -0.88652323753E+03  0.88652323753E+03  0.00000000000E+00 0.  1.
         24    2    1    2    0    0  0.13064480843E+03 -0.55422635007E+03  0.13280512183E+04  0.14472049077E+04  0.80293793203E+02 0.  0.
        254    2    1    2    0    0 -0.13064480843E+03  0.55422635007E+03 -0.48445901844E+03  0.11694337673E+04  0.89924406165E+03 0.  0.
         23    2    4    4    0    0  0.12665986456E+03  0.37296525588E+03  0.16945063960E+03  0.43845918425E+03  0.91581295067E+02 0.  0.
         23    2    4    4    0    0 -0.25730467299E+03  0.18126109418E+03 -0.65390965805E+03  0.73097458302E+03  0.87548393076E+02 0.  0.
          2    1    3    3  502    0  0.11516472983E+03 -0.49810737047E+03  0.11200955750E+04  0.12312546303E+04  0.00000000000E+00 0. -1.
         -1    1    3    3    0  502  0.15480078593E+02 -0.56118979595E+02  0.20795564337E+03  0.21595027741E+03  0.00000000000E+00 0.  1.
         13    1    5    5    0    0  0.68170379178E+02  0.25471535588E+03  0.68755600025E+02  0.27249668925E+03  0.00000000000E+00 0. -1.
        -13    1    5    5    0    0  0.58489485385E+02  0.11824990000E+03  0.10069503958E+03  0.16596249500E+03  0.00000000000E+00 0.  1.
          4    1    6    6  503    0 -0.59026511417E+02  0.67041527130E+01 -0.84741003545E+02  0.10348967289E+03  0.00000000000E+00 0. -1.
         -4    1    6    6    0  503 -0.19827816157E+03  0.17455694147E+03 -0.56916865450E+03  0.62748491013E+03  0.00000000000E+00 0.  1.
<mgrwt>
<rscale>  0 0.24769235E+04</rscale>
<asrwt>0</asrwt>
<pdfrwt beam="1">  1        2 0.26617161E+00 0.24769235E+04</pdfrwt>
<pdfrwt beam="2">  1       -1 0.13638819E+00 0.24769235E+04</pdfrwt>
<totfact> 0.43068784E+00</totfact>
</mgrwt>
</event>
<event>
12    7  0.1605494E-007  0.4196850E+04  0.7818608E-02  0.7965972E-01
         -1   -1    0    0    0  501 -0.00000000000E+00  0.00000000000E+00  0.16830107145E+04  0.16830107145E+04  0.00000000000E+00 0.  1.
          2   -1    0    0  501    0  0.00000000000E+00 -0.00000000000E+00 -0.26163755152E+04  0.26163755152E+04  0.00000000000E+00 0. -1.
         24    2    1    2    0    0 -0.68744856226E+03  0.34562593593E+02  0.14793623262E+04  0.16335996200E+04  0.79716546157E+02 0.  0.
        254    2    1    2    0    0  0.68744856226E+03 -0.34562593593E+02 -0.24127271268E+04  0.26657866097E+04  0.90076964958E+03 0.  0.
         23    2    4    4    0    0 -0.26030277698E+01 -0.21619808982E+03 -0.12077985977E+03  0.26358145631E+03  0.90216516180E+02 0.  0.
         23    2    4    4    0    0  0.69005159003E+03  0.18163549622E+03 -0.22919472670E+04  0.24022051534E+04  0.91677008512E+02 0.  0.
          2    1    3    3  502    0 -0.21997189631E+03  0.47461640409E+02  0.50044728221E+03  0.54871461139E+03  0.00000000000E+00 0. -1.
         -1    1    3    3    0  502 -0.46747666596E+03 -0.12899046816E+02  0.97891504394E+03  0.10848850086E+04  0.00000000000E+00 0.  1.
         13    1    5    5    0    0 -0.32413071381E+02 -0.19470400810E+03 -0.98382244086E+02  0.22054324727E+03  0.00000000000E+00 0. -1.
        -13    1    5    5    0    0  0.29810043612E+02 -0.21494081718E+02 -0.22397615683E+02  0.43038209039E+02  0.00000000000E+00 0.  1.
          3    1    6    6  503    0  0.52011489460E+03  0.14272069141E+03 -0.15922075094E+04  0.16810750882E+04  0.00000000000E+00 0. -1.
         -3    1    6    6    0  503  0.16993669543E+03  0.38914804812E+02 -0.69973975766E+03  0.72113006520E+03  0.00000000000E+00 0.  1.
<mgrwt>
<rscale>  0 0.41968503E+04</rscale>
<asrwt>0</asrwt>
<pdfrwt beam="1">  1        2 0.40251931E+00 0.41968503E+04</pdfrwt>
<pdfrwt beam="2">  1       -1 0.25892473E+00 0.41968503E+04</pdfrwt>
<totfact> 0.16015198E-01</totfact>
</mgrwt>
</event>
<event>
12    7  0.1605494E-007  0.2261926E+04  0.7818608E-02  0.8493086E-01
         -1   -1    0    0    0  501 -0.00000000000E+00  0.00000000000E+00  0.22258728829E+04  0.22258728829E+04  0.00000000000E+00 0.  1.
          2   -1    0    0  501    0  0.00000000000E+00 -0.00000000000E+00 -0.57464074666E+03  0.57464074666E+03  0.00000000000E+00 0. -1.
         24    2    1    2    0    0  0.54766382559E+03 -0.27944999113E+03 -0.20295827993E+03  0.65230657894E+03  0.79270714250E+02 0.  0.
        254    2    1    2    0    0 -0.54766382559E+03  0.27944999113E+03  0.18541904161E+04  0.21482070506E+04  0.89372449306E+03 0.  0.
         23    2    4    4    0    0 -0.27699896602E+03 -0.28594871744E+03  0.10359126980E+04  0.11134897819E+04  0.90825548957E+02 0.  0.
         23    2    4    4    0    0 -0.27066485956E+03  0.56539870857E+03  0.81827771817E+03  0.10347172687E+04  0.90145639194E+02 0.  0.
          2    1    3    3  502    0  0.39126058180E+03 -0.18762097171E+03 -0.17888779006E+03  0.46934775309E+03  0.00000000000E+00 0. -1.
         -1    1    3    3    0  502  0.15640324378E+03 -0.91829019419E+02 -0.24070489867E+02  0.18295882585E+03  0.00000000000E+00 0.  1.
         13    1    5    5    0    0 -0.10039693116E+03 -0.12503653727E+03  0.30599518750E+03  0.34546596680E+03  0.00000000000E+00 0. -1.
        -13    1    5    5    0    0 -0.17660203487E+03 -0.16091218017E+03  0.72991751045E+03  0.76802381507E+03  0.00000000000E+00 0.  1.
          1    1    6    6  503    0 -0.20963430026E+02  0.93138335391E+01  0.40282179242E+02  0.46355871884E+02  0.00000000000E+00 0. -1.
         -1    1    6    6    0  503 -0.24970142954E+03  0.55608487503E+03  0.77799553892E+03  0.98836139683E+03  0.00000000000E+00 0.  1.
<mgrwt>
<rscale>  0 0.22619260E+04</rscale>
<asrwt>0</asrwt>
<pdfrwt beam="1">  1        2 0.88406269E-01 0.22619260E+04</pdfrwt>
<pdfrwt beam="2">  1       -1 0.34244198E+00 0.22619260E+04</pdfrwt>
<totfact> 0.94631408E-01</totfact>
</mgrwt>
</event>
<event>
12    7  0.1605494E-007  0.1843138E+04  0.7818608E-02  0.8683690E-01
          2   -1    0    0  501    0  0.00000000000E+00  0.00000000000E+00  0.14674965342E+04  0.14674965342E+04  0.00000000000E+00 0. -1.
         -1   -1    0    0    0  501 -0.00000000000E+00 -0.00000000000E+00 -0.57873362671E+03  0.57873362671E+03  0.00000000000E+00 0.  1.
         24    2    1    2    0    0 -0.32913222266E+02 -0.37500742881E+03  0.98971851153E+03  0.10617264973E+04  0.77502071259E+02 0.  0.
        254    2    1    2    0    0  0.32913222266E+02  0.37500742881E+03 -0.10095560405E+03  0.98450366365E+03  0.90406945413E+03 0.  0.
         23    2    4    4    0    0 -0.85372347316E+02 -0.11098752569E+03 -0.37208753736E+03  0.40791023885E+03  0.91295996385E+02 0.  0.
         23    2    4    4    0    0  0.11828556958E+03  0.48599495450E+03  0.27113193331E+03  0.57659342480E+03  0.93620940480E+02 0.  0.
          4    1    3    3  502    0 -0.42149737399E+02 -0.18168913462E+03  0.40682318276E+03  0.44754066188E+03  0.00000000000E+00 0. -1.
         -3    1    3    3    0  502  0.92365151330E+01 -0.19331829419E+03  0.58289532877E+03  0.61418583538E+03  0.00000000000E+00 0.  1.
         13    1    5    5    0    0  0.97114389169E+01 -0.26920288848E+01 -0.95494341740E+02  0.96024623767E+02  0.00000000000E+00 0. -1.
        -13    1    5    5    0    0 -0.95083786233E+02 -0.10829549681E+03 -0.27659319562E+03  0.31188561508E+03  0.00000000000E+00 0.  1.
          1    1    6    6  503    0 -0.12761364038E+02  0.10829039437E+03  0.55276103032E+02  0.12225019220E+03  0.00000000000E+00 0. -1.
         -1    1    6    6    0  503  0.13104693362E+03  0.37770456012E+03  0.21585583028E+03  0.45434323261E+03  0.00000000000E+00 0.  1.
<mgrwt>
<rscale>  0 0.18431382E+04</rscale>
<asrwt>0</asrwt>
<pdfrwt beam="1">  1        2 0.22576870E+00 0.18431382E+04</pdfrwt>
<pdfrwt beam="2">  1       -1 0.89035943E-01 0.18431382E+04</pdfrwt>
<totfact> 0.17563177E+01</totfact>
</mgrwt>
</event>
<event>
12    7  0.1605494E-007  0.2093542E+04  0.7818608E-02  0.8564094E-01
          2   -1    0    0  501    0  0.00000000000E+00  0.00000000000E+00  0.98376383254E+03  0.98376383254E+03  0.00000000000E+00 0. -1.
         -3   -1    0    0    0  501 -0.00000000000E+00 -0.00000000000E+00 -0.11138130913E+04  0.11138130913E+04  0.00000000000E+00 0.  1.
         24    2    1    2    0    0 -0.53631965812E+03  0.64183493253E+03  0.10634627889E+03  0.84677494408E+03  0.78277829527E+02 0.  0.
        254    2    1    2    0    0  0.53631965812E+03 -0.64183493253E+03 -0.23639553770E+03  0.12508019798E+04  0.89946199816E+03 0.  0.
         23    2    4    4    0    0  0.48404614693E+03  0.69391341785E+02 -0.12676311552E+02  0.49786812919E+03  0.92715449145E+02 0.  0.
         23    2    4    4    0    0  0.52273511186E+02 -0.71122627431E+03 -0.22371922615E+03  0.75293385062E+03  0.91015152651E+02 0.  0.
          4    1    3    3  502    0 -0.46618704204E+01  0.14546223829E+02 -0.68416757969E+01  0.16737209780E+02  0.00000000000E+00 0. -1.
         -3    1    3    3    0  502 -0.53165778770E+03  0.62728870870E+03  0.11318795468E+03  0.83003773430E+03  0.00000000000E+00 0.  1.
         13    1    5    5    0    0  0.38605400702E+03  0.78868091507E+02 -0.39020131176E+02  0.39595510204E+03  0.00000000000E+00 0.  1.
        -13    1    5    5    0    0  0.97992139912E+02 -0.94767497219E+01  0.26343819623E+02  0.10191302715E+03  0.00000000000E+00 0. -1.
          2    1    6    6  503    0  0.12390829331E+02 -0.88654459199E+02  0.19123702657E+01  0.89536601161E+02  0.00000000000E+00 0. -1.
         -2    1    6    6    0  503  0.39882681855E+02 -0.62257181511E+03 -0.22563159641E+03  0.66339724946E+03  0.00000000000E+00 0.  1.
<mgrwt>
<rscale>  0 0.20935415E+04</rscale>
<asrwt>0</asrwt>
<pdfrwt beam="1">  1        2 0.15134828E+00 0.20935415E+04</pdfrwt>
<pdfrwt beam="2">  1       -3 0.17135586E+00 0.20935415E+04</pdfrwt>
<totfact> 0.33954454E+00</totfact>
</mgrwt>
</event>
<event>
12    7  0.1605494E-007  0.1860374E+04  0.7818608E-02  0.8674836E-01
          2   -1    0    0  501    0  0.00000000000E+00  0.00000000000E+00  0.78623434615E+03  0.78623434615E+03  0.00000000000E+00 0. -1.
         -1   -1    0    0    0  501 -0.00000000000E+00 -0.00000000000E+00 -0.11004958519E+04  0.11004958519E+04  0.00000000000E+00 0.  1.
         24    2    1    2    0    0 -0.38602635412E+02 -0.20911427688E+03 -0.80689677312E+03  0.83816874867E+03  0.78901866344E+02 0.  0.
        254    2    1    2    0    0  0.38602635412E+02  0.20911427688E+03  0.49263526736E+03  0.10485614494E+04  0.90087327758E+03 0.  0.
         23    2    4    4    0    0  0.11473419606E+03  0.33390724452E+03 -0.14182211322E+03  0.39095635260E+03  0.89863085593E+02 0.  0.
         23    2    4    4    0    0 -0.76131560652E+02 -0.12479296764E+03  0.63445738058E+03  0.65760509679E+03  0.92406689443E+02 0.  0.
          4    1    3    3  502    0 -0.19329710540E+02 -0.28325643205E+02 -0.25008852920E+03  0.25242870718E+03  0.00000000000E+00 0. -1.
         -3    1    3    3    0  502 -0.19272924872E+02 -0.18078863368E+03 -0.55680824392E+03  0.58574004149E+03  0.00000000000E+00 0.  1.
         13    1    5    5    0    0 -0.10647204960E+02  0.67573399530E+02 -0.12997118781E+02  0.69630829337E+02  0.00000000000E+00 0.  1.
        -13    1    5    5    0    0  0.12538140102E+03  0.26633384499E+03 -0.12882499444E+03  0.32132552327E+03  0.00000000000E+00 0. -1.
          2    1    6    6  503    0 -0.41025044813E+02 -0.13038497723E+03  0.47794827671E+03  0.49710949679E+03  0.00000000000E+00 0. -1.
         -2    1    6    6    0  503 -0.35106515839E+02  0.55920095886E+01  0.15650910387E+03  0.16049560000E+03  0.00000000000E+00 0.  1.
<mgrwt>
<rscale>  0 0.18603738E+04</rscale>
<asrwt>0</asrwt>
<pdfrwt beam="1">  1        2 0.12095913E+00 0.18603738E+04</pdfrwt>
<pdfrwt beam="2">  1       -1 0.16930705E+00 0.18603738E+04</pdfrwt>
<totfact> 0.94117605E+00</totfact>
</mgrwt>
</event>
<event>
12    7  0.1605494E-007  0.2312108E+04  0.7818608E-02  0.8473162E-01
          2   -1    0    0  501    0  0.00000000000E+00  0.00000000000E+00  0.12363017559E+04  0.12363017559E+04  0.00000000000E+00 0. -1.
         -1   -1    0    0    0  501 -0.00000000000E+00 -0.00000000000E+00 -0.10810153905E+04  0.10810153905E+04  0.00000000000E+00 0.  1.
         24    2    1    2    0    0 -0.83541083524E+03  0.37683122065E+03  0.40487739245E+03  0.10051926899E+04  0.81077792142E+02 0.  0.
        254    2    1    2    0    0  0.83541083524E+03 -0.37683122065E+03 -0.24959102710E+03  0.13121244565E+04  0.90524133585E+03 0.  0.
         23    2    4    4    0    0  0.87499524301E+03 -0.45396755278E+03  0.45756901938E+02  0.99084809598E+03  0.89347864892E+02 0.  0.
         23    2    4    4    0    0 -0.39584407767E+02  0.77136332126E+02 -0.29534792904E+03  0.32127636056E+03  0.92038913465E+02 0.  0.
          2    1    3    3  502    0 -0.76731642745E+03  0.34712001461E+03  0.34636521735E+03  0.91062377971E+03  0.00000000000E+00 0. -1.
         -1    1    3    3    0  502 -0.68094407789E+02  0.29711206040E+02  0.58512175096E+02  0.94568910171E+02  0.00000000000E+00 0.  1.
         13    1    5    5    0    0  0.79685843659E+03 -0.41599797772E+03  0.16105399040E+02  0.89905342962E+03  0.00000000000E+00 0.  1.
        -13    1    5    5    0    0  0.78136806421E+02 -0.37969575059E+02  0.29651502899E+02  0.91794666359E+02  0.00000000000E+00 0. -1.
          4    1    6    6  503    0 -0.51067990915E+02  0.23667038478E+02 -0.72324092625E+02  0.91645200531E+02  0.00000000000E+00 0. -1.
         -4    1    6    6    0  503  0.11483583147E+02  0.53469293648E+02 -0.22302383642E+03  0.22963116003E+03  0.00000000000E+00 0.  1.
<mgrwt>
<rscale>  0 0.23121083E+04</rscale>
<asrwt>0</asrwt>
<pdfrwt beam="1">  1        2 0.19020027E+00 0.23121083E+04</pdfrwt>
<pdfrwt beam="2">  1       -1 0.16631006E+00 0.23121083E+04</pdfrwt>
<totfact> 0.48748690E+00</totfact>
</mgrwt>
</event>
<event>
12    7  0.1605494E-007  0.2900090E+04  0.7818608E-02  0.8272851E-01
         -1   -1    0    0    0  501 -0.00000000000E+00  0.00000000000E+00  0.13838003471E+04  0.13838003471E+04  0.00000000000E+00 0.  1.
          2   -1    0    0  501    0  0.00000000000E+00 -0.00000000000E+00 -0.15194607248E+04  0.15194607248E+04  0.00000000000E+00 0. -1.
         24    2    1    2    0    0  0.11854046496E+04  0.50101334152E+03 -0.92242187019E+00  0.12888861115E+04  0.70908433238E+02 0.  0.
        254    2    1    2    0    0 -0.11854046496E+04 -0.50101334152E+03 -0.13473795582E+03  0.16143749604E+04  0.96532566752E+03 0.  0.
         23    2    4    4    0    0 -0.63377283778E+03 -0.48028075662E+03  0.35082280257E+03  0.87357334232E+03  0.87841507956E+02 0.  0.
         23    2    4    4    0    0 -0.55163181178E+03 -0.20732584900E+02 -0.48556075838E+03  0.74080161806E+03  0.91051037306E+02 0.  0.
          4    1    3    3  502    0  0.83910178413E+03  0.35243037506E+03 -0.32864203045E+02  0.91070249216E+03  0.00000000000E+00 0. -1.
         -3    1    3    3    0  502  0.34630286543E+03  0.14858296647E+03  0.31941781175E+02  0.37818361931E+03  0.00000000000E+00 0.  1.
         13    1    5    5    0    0 -0.38292301035E+03 -0.33841530374E+03  0.24313964654E+03  0.56592564652E+03  0.00000000000E+00 0.  1.
        -13    1    5    5    0    0 -0.25084982743E+03 -0.14186545288E+03  0.10768315603E+03  0.30764769580E+03  0.00000000000E+00 0. -1.
          1    1    6    6  503    0 -0.24060451544E+02 -0.12855968089E+02 -0.62922109580E+01  0.27995949042E+02  0.00000000000E+00 0. -1.
         -1    1    6    6    0  503 -0.52757136023E+03 -0.78766168109E+01 -0.47926854743E+03  0.71280566902E+03  0.00000000000E+00 0.  1.
<mgrwt>
<rscale>  0 0.29000898E+04</rscale>
<asrwt>0</asrwt>
<pdfrwt beam="1">  1        2 0.23376319E+00 0.29000898E+04</pdfrwt>
<pdfrwt beam="2">  1       -1 0.21289236E+00 0.29000898E+04</pdfrwt>
<totfact> 0.14946214E+00</totfact>
</mgrwt>
</event>
<event>
12    7  0.1605494E-007  0.1826389E+04  0.7818608E-02  0.8692391E-01
         -1   -1    0    0    0  501 -0.00000000000E+00  0.00000000000E+00  0.18809220838E+04  0.18809220838E+04  0.00000000000E+00 0.  1.
          2   -1    0    0  501    0  0.00000000000E+00 -0.00000000000E+00 -0.44335930786E+03  0.44335930786E+03  0.00000000000E+00 0. -1.
         24    2    1    2    0    0  0.15276228589E+03  0.58671496753E+03  0.74849525239E+03  0.96492388016E+03  0.57115519375E+02 0.  0.
        254    2    1    2    0    0 -0.15276228589E+03 -0.58671496753E+03  0.68906752356E+03  0.13593575115E+04  0.10027302843E+04 0.  0.
         23    2    4    4    0    0  0.36575604728E+03 -0.46911546746E+03  0.20592909354E+03  0.63523937376E+03  0.85296321612E+02 0.  0.
         23    2    4    4    0    0 -0.51851833317E+03 -0.11759950007E+03  0.48313843003E+03  0.72411813775E+03  0.90738253239E+02 0.  0.
          4    1    3    3  502    0 -0.10621063025E+01  0.13133044420E+02  0.69426526378E+01  0.14893131007E+02  0.00000000000E+00 0. -1.
         -3    1    3    3    0  502  0.15382439219E+03  0.57358192311E+03  0.74155259975E+03  0.95003074916E+03  0.00000000000E+00 0.  1.
         13    1    5    5    0    0  0.35916870368E+03 -0.43586191486E+03  0.18070805573E+03  0.59298665072E+03  0.00000000000E+00 0. -1.
        -13    1    5    5    0    0  0.65873435987E+01 -0.33253552607E+02  0.25221037805E+02  0.42252723044E+02  0.00000000000E+00 0.  1.
          4    1    6    6  503    0 -0.34012514689E+03 -0.12072377623E+03  0.31920595438E+03  0.48182132270E+03  0.00000000000E+00 0. -1.
         -4    1    6    6    0  503 -0.17839318628E+03  0.31242761667E+01  0.16393247565E+03  0.24229681505E+03  0.00000000000E+00 0.  1.
<mgrwt>
<rscale>  0 0.18263891E+04</rscale>
<asrwt>0</asrwt>
<pdfrwt beam="1">  1        2 0.68209126E-01 0.18263891E+04</pdfrwt>
<pdfrwt beam="2">  1       -1 0.28937262E+00 0.18263891E+04</pdfrwt>
<totfact> 0.29505319E+00</totfact>
</mgrwt>
</event>
<event>
12    7  0.1605494E-007  0.1804667E+04  0.7818608E-02  0.8703821E-01
          2   -1    0    0  501    0  0.00000000000E+00  0.00000000000E+00  0.21576902043E+04  0.21576902043E+04  0.00000000000E+00 0. -1.
         -1   -1    0    0    0  501 -0.00000000000E+00 -0.00000000000E+00 -0.37735067412E+03  0.37735067412E+03  0.00000000000E+00 0.  1.
         24    2    1    2    0    0 -0.16489057659E+03 -0.29592536514E+03 -0.15133642235E+03  0.37905387892E+03  0.77578388818E+02 0.  0.
        254    2    1    2    0    0  0.16489057659E+03  0.29592536514E+03  0.19316759525E+04  0.21559869995E+04  0.89562672606E+03 0.  0.
         23    2    4    4    0    0  0.82837992049E+02  0.45184335884E+03  0.41330119222E+03  0.62483491548E+03  0.92608003232E+02 0.  0.
         23    2    4    4    0    0  0.82052584544E+02 -0.15591799370E+03  0.15183747603E+04  0.15311520840E+04  0.89004181013E+02 0.  0.
          4    1    3    3  502    0 -0.61694525587E+02 -0.13977260768E+03 -0.10751551614E+03  0.18682125831E+03  0.00000000000E+00 0. -1.
         -3    1    3    3    0  502 -0.10319605101E+03 -0.15615275747E+03 -0.43820906210E+02  0.19223262061E+03  0.00000000000E+00 0.  1.
         13    1    5    5    0    0  0.10323999199E+03  0.37095810469E+03  0.33376574191E+03  0.50957627677E+03  0.00000000000E+00 0. -1.
        -13    1    5    5    0    0 -0.20401999941E+02  0.80885254157E+02  0.79535450310E+02  0.11525863871E+03  0.00000000000E+00 0.  1.
          3    1    6    6  503    0  0.95996921845E+02 -0.14995770259E+03  0.12839023937E+04  0.12961898310E+04  0.00000000000E+00 0. -1.
         -3    1    6    6    0  503 -0.13944337302E+02 -0.59602911083E+01  0.23447236664E+03  0.23496225299E+03  0.00000000000E+00 0.  1.
<mgrwt>
<rscale>  0 0.18046671E+04</rscale>
<asrwt>0</asrwt>
<pdfrwt beam="1">  1        2 0.33195233E+00 0.18046671E+04</pdfrwt>
<pdfrwt beam="2">  1       -1 0.58053951E-01 0.18046671E+04</pdfrwt>
<totfact> 0.17624239E+01</totfact>
</mgrwt>
</event>
<event>
12    7  0.1605494E-007  0.1166076E+04  0.7818608E-02  0.9143079E-01
         -1   -1    0    0    0  501 -0.00000000000E+00  0.00000000000E+00  0.46699086311E+03  0.46699086311E+03  0.00000000000E+00 0.  1.
          2   -1    0    0  501    0  0.00000000000E+00 -0.00000000000E+00 -0.72792319543E+03  0.72792319543E+03  0.00000000000E+00 0. -1.
         24    2    1    2    0    0 -0.13525861839E+03 -0.70084560859E+02  0.11240596637E+03  0.20566748547E+03  0.80357163862E+02 0.  0.
        254    2    1    2    0    0  0.13525861839E+03  0.70084560859E+02 -0.37333829869E+03  0.98924657307E+03  0.90333856197E+03 0.  0.
         23    2    4    4    0    0  0.19382887034E+02  0.37224827396E+03 -0.49968646778E+03  0.62973503840E+03  0.89079620161E+02 0.  0.
         23    2    4    4    0    0  0.11587573136E+03 -0.30216371310E+03  0.12634816909E+03  0.35951153467E+03  0.92491021671E+02 0.  0.
          2    1    3    3  502    0 -0.13790858584E+02  0.17344181055E+02  0.99091049187E+01  0.24273416678E+02  0.00000000000E+00 0. -1.
         -1    1    3    3    0  502 -0.12146775981E+03 -0.87428741914E+02  0.10249686145E+03  0.18139406879E+03  0.00000000000E+00 0.  1.
         13    1    5    5    0    0 -0.14656298345E+02  0.29071569409E+03 -0.34310267541E+03  0.44994429405E+03  0.00000000000E+00 0. -1.
        -13    1    5    5    0    0  0.34039185379E+02  0.81532579871E+02 -0.15658379237E+03  0.17979074436E+03  0.00000000000E+00 0.  1.
          3    1    6    6  503    0  0.84008537000E+02 -0.16631484029E+03  0.27121619883E+02  0.18829137700E+03  0.00000000000E+00 0. -1.
         -3    1    6    6    0  503  0.31867194360E+02 -0.13584887282E+03  0.99226549210E+02  0.17122015766E+03  0.00000000000E+00 0.  1.
<mgrwt>
<rscale>  0 0.11660763E+04</rscale>
<asrwt>0</asrwt>
<pdfrwt beam="1">  1        2 0.11198818E+00 0.11660763E+04</pdfrwt>
<pdfrwt beam="2">  1       -1 0.71844748E-01 0.11660763E+04</pdfrwt>
<totfact> 0.86100422E+01</totfact>
</mgrwt>
</event>
<event>
12    7  0.1605494E-007  0.1426256E+04  0.7818608E-02  0.8935029E-01
          2   -1    0    0  501    0  0.00000000000E+00  0.00000000000E+00  0.88982810601E+03  0.88982810601E+03  0.00000000000E+00 0. -1.
         -1   -1    0    0    0  501 -0.00000000000E+00 -0.00000000000E+00 -0.57151673927E+03  0.57151673927E+03  0.00000000000E+00 0.  1.
         24    2    1    2    0    0 -0.41348826932E+03 -0.48158788243E+02  0.33692841095E+02  0.42524174358E+03  0.80021966922E+02 0.  0.
        254    2    1    2    0    0  0.41348826932E+03  0.48158788243E+02  0.28461852565E+03  0.10361031017E+04  0.90510226740E+03 0.  0.
         23    2    4    4    0    0  0.29594548801E+03 -0.40072749285E+03  0.51400469924E+02  0.50905102848E+03  0.91239716618E+02 0.  0.
         23    2    4    4    0    0  0.11754278131E+03  0.44888628110E+03  0.23321805573E+03  0.52705207322E+03  0.89877848058E+02 0.  0.
          4    1    3    3  502    0 -0.17710680490E+03 -0.20747023686E+02  0.54256236116E+02  0.18638937334E+03  0.00000000000E+00 0. -1.
         -3    1    3    3    0  502 -0.23638146442E+03 -0.27411764557E+02 -0.20563395020E+02  0.23885237024E+03  0.00000000000E+00 0.  1.
         13    1    5    5    0    0  0.56310233349E+02 -0.73778909889E+02  0.46148217025E+02  0.10365243778E+03  0.00000000000E+00 0. -1.
        -13    1    5    5    0    0  0.23963525466E+03 -0.32694858296E+03  0.52522528992E+01  0.40539859069E+03  0.00000000000E+00 0.  1.
          3    1    6    6  503    0  0.10000810320E+03  0.23581667884E+03  0.15505671199E+03  0.29942229486E+03  0.00000000000E+00 0. -1.
         -3    1    6    6    0  503  0.17534678115E+02  0.21306960225E+03  0.78161343737E+02  0.22762977836E+03  0.00000000000E+00 0.  1.
<mgrwt>
<rscale>  0 0.14262562E+04</rscale>
<asrwt>0</asrwt>
<pdfrwt beam="1">  1        2 0.13689663E+00 0.14262562E+04</pdfrwt>
<pdfrwt beam="2">  1       -1 0.87925653E-01 0.14262562E+04</pdfrwt>
<totfact> 0.42018176E+01</totfact>
</mgrwt>
</event>
<event>
12    7  0.1605494E-007  0.1321924E+04  0.7818608E-02  0.9012357E-01
          2   -1    0    0  501    0  0.00000000000E+00  0.00000000000E+00  0.16799553015E+04  0.16799553015E+04  0.00000000000E+00 0. -1.
         -1   -1    0    0    0  501 -0.00000000000E+00 -0.00000000000E+00 -0.26004915829E+03  0.26004915829E+03  0.00000000000E+00 0.  1.
         24    2    1    2    0    0  0.46899737966E+02  0.16053225794E+03 -0.65784822652E+02  0.19665985292E+03  0.79857771080E+02 0.  0.
        254    2    1    2    0    0 -0.46899737966E+02 -0.16053225794E+03  0.14856909658E+04  0.17433446068E+04  0.89666191006E+03 0.  0.
         23    2    4    4    0    0  0.29133882475E+03  0.21415511110E+03  0.42733603546E+03  0.56717435044E+03  0.91268473057E+02 0.  0.
         23    2    4    4    0    0 -0.33823856272E+03 -0.37468736904E+03  0.10583549304E+04  0.11761702564E+04  0.92007410319E+02 0.  0.
          4    1    3    3  502    0  0.90526286590E+01 -0.82518196212E+01 -0.60397704851E+01  0.13657285243E+02  0.00000000000E+00 0. -1.
         -3    1    3    3    0  502  0.37847109307E+02  0.16878407756E+03 -0.59745052166E+02  0.18300256768E+03  0.00000000000E+00 0.  1.
         13    1    5    5    0    0  0.33328788525E+02  0.10762286691E+02  0.10770741704E+02  0.36642104692E+02  0.00000000000E+00 0. -1.
        -13    1    5    5    0    0  0.25801003623E+03  0.20339282441E+03  0.41656529376E+03  0.53053224575E+03  0.00000000000E+00 0.  1.
          2    1    6    6  503    0 -0.38563094571E+02 -0.59150334782E+02  0.88928308910E+02  0.11355227207E+03  0.00000000000E+00 0. -1.
         -2    1    6    6    0  503 -0.29967546815E+03 -0.31553703425E+03  0.96942662146E+03  0.10626179843E+04  0.00000000000E+00 0.  1.
<mgrwt>
<rscale>  0 0.13219243E+04</rscale>
<asrwt>0</asrwt>
<pdfrwt beam="1">  1        2 0.25845465E+00 0.13219243E+04</pdfrwt>
<pdfrwt beam="2">  1       -1 0.40007564E-01 0.13219243E+04</pdfrwt>
<totfact> 0.68306236E+01</totfact>
</mgrwt>
</event>
<event>
12    7  0.1605494E-007  0.2099094E+04  0.7818608E-02  0.8561643E-01
          2   -1    0    0  501    0  0.00000000000E+00  0.00000000000E+00  0.26928424657E+04  0.26928424657E+04  0.00000000000E+00 0. -1.
         -1   -1    0    0    0  501 -0.00000000000E+00 -0.00000000000E+00 -0.40906542926E+03  0.40906542926E+03  0.00000000000E+00 0.  1.
         24    2    1    2    0    0 -0.75164800182E+03 -0.39859416660E+03  0.10047209879E+04  0.13189470138E+04  0.79403610544E+02 0.  0.
        254    2    1    2    0    0  0.75164800182E+03  0.39859416660E+03  0.12790560486E+04  0.17829608812E+04  0.90504867286E+03 0.  0.
         23    2    4    4    0    0  0.85111001374E+02  0.50685855637E+03  0.34150301733E+03  0.62392668383E+03  0.92253548578E+02 0.  0.
         23    2    4    4    0    0  0.66653700045E+03 -0.10826438977E+03  0.93755303124E+03  0.11590341974E+04  0.91443060127E+02 0.  0.
          2    1    3    3  502    0 -0.66309933936E+03 -0.37237194004E+03  0.86894531281E+03  0.11547413356E+04  0.00000000000E+00 0. -1.
         -1    1    3    3    0  502 -0.88548662469E+02 -0.26222226561E+02  0.13577567509E+03  0.16420567815E+03  0.00000000000E+00 0.  1.
         13    1    5    5    0    0 -0.72452523291E+01  0.23383400885E+03  0.15329920334E+03  0.27969891512E+03  0.00000000000E+00 0.  1.
        -13    1    5    5    0    0  0.92356253703E+02  0.27302454752E+03  0.18820381399E+03  0.34422776870E+03  0.00000000000E+00 0. -1.
          2    1    6    6  503    0  0.22453492909E+03 -0.70680073198E+02  0.37273575670E+03  0.44084413510E+03  0.00000000000E+00 0. -1.
         -2    1    6    6    0  503  0.44200207136E+03 -0.37584316576E+02  0.56481727454E+03  0.71819006228E+03  0.00000000000E+00 0.  1.
<mgrwt>
<rscale>  0 0.20990939E+04</rscale>
<asrwt>0</asrwt>
<pdfrwt beam="1">  1        2 0.41428344E+00 0.20990939E+04</pdfrwt>
<pdfrwt beam="2">  1       -1 0.62933145E-01 0.20990939E+04</pdfrwt>
<totfact> 0.72087953E+00</totfact>
</mgrwt>
</event>
<event>
12    7  0.1605494E-007  0.1418003E+04  0.7818608E-02  0.8940889E-01
         -1   -1    0    0    0  501 -0.00000000000E+00  0.00000000000E+00  0.46959757244E+03  0.46959757244E+03  0.00000000000E+00 0.  1.
          2   -1    0    0  501    0  0.00000000000E+00 -0.00000000000E+00 -0.10704553856E+04  0.10704553856E+04  0.00000000000E+00 0. -1.
         24    2    1    2    0    0 -0.32575578847E+03  0.25361871474E+03 -0.29020192237E+03  0.51062818640E+03  0.78004505076E+02 0.  0.
        254    2    1    2    0    0  0.32575578847E+03 -0.25361871474E+03 -0.31065589084E+03  0.10294247717E+04  0.89037575881E+03 0.  0.
         23    2    4    4    0    0  0.11970291033E+03  0.17311368232E+03 -0.46869951339E+03  0.52168360853E+03  0.90429087234E+02 0.  0.
         23    2    4    4    0    0  0.20605287815E+03 -0.42673239706E+03  0.15804362255E+03  0.50774116316E+03  0.90911907048E+02 0.  0.
          2    1    3    3  502    0 -0.10190133590E+03  0.83054334893E+02 -0.50068008033E+02  0.14067235063E+03  0.00000000000E+00 0. -1.
         -1    1    3    3    0  502 -0.22385445257E+03  0.17056437985E+03 -0.24013391434E+03  0.36995583577E+03  0.00000000000E+00 0.  1.
         13    1    5    5    0    0  0.21553126366E+02  0.33080498419E+02 -0.19498143741E+03  0.19893872817E+03  0.00000000000E+00 0. -1.
        -13    1    5    5    0    0  0.98149783960E+02  0.14003318390E+03 -0.27371807598E+03  0.32274488037E+03  0.00000000000E+00 0.  1.
          3    1    6    6  503    0  0.75967959906E+02 -0.73390746695E+02  0.26546873904E+02  0.10891312660E+03  0.00000000000E+00 0. -1.
         -3    1    6    6    0  503  0.13008491824E+03 -0.35334165036E+03  0.13149674865E+03  0.39882803655E+03  0.00000000000E+00 0.  1.
<mgrwt>
<rscale>  0 0.14180032E+04</rscale>
<asrwt>0</asrwt>
<pdfrwt beam="1">  1        2 0.16468544E+00 0.14180032E+04</pdfrwt>
<pdfrwt beam="2">  1       -1 0.72245780E-01 0.14180032E+04</pdfrwt>
<totfact> 0.48714333E+01</totfact>
</mgrwt>
</event>
<event>
12    7  0.1605494E-007  0.1088513E+04  0.7818608E-02  0.9216461E-01
          2   -1    0    0  501    0  0.00000000000E+00  0.00000000000E+00  0.87455858141E+03  0.87455858141E+03  0.00000000000E+00 0. -1.
         -1   -1    0    0    0  501 -0.00000000000E+00 -0.00000000000E+00 -0.33870229058E+03  0.33870229058E+03  0.00000000000E+00 0.  1.
         24    2    1    2    0    0  0.15763589690E+03  0.99578048651E+02  0.12770946805E+03  0.23936997687E+03  0.78888616643E+02 0.  0.
        254    2    1    2    0    0 -0.15763589690E+03 -0.99578048651E+02  0.40814682278E+03  0.97389089512E+03  0.86435801778E+03 0.  0.
         23    2    4    4    0    0 -0.39602834667E+03 -0.20880346722E+03  0.50388187567E+03  0.68024317468E+03  0.91632378420E+02 0.  0.
         23    2    4    4    0    0  0.23839244978E+03  0.10922541857E+03 -0.95735052888E+02  0.29364772044E+03  0.91118775219E+02 0.  0.
          2    1    3    3  502    0  0.29697789892E+02  0.41007536854E+02  0.72033106125E+02  0.88047403036E+02  0.00000000000E+00 0. -1.
         -1    1    3    3    0  502  0.12793810700E+03  0.58570511797E+02  0.55676361924E+02  0.15132257384E+03  0.00000000000E+00 0.  1.
         13    1    5    5    0    0 -0.30899743546E+02 -0.16535585073E+02  0.86396187579E+02  0.93233690011E+02  0.00000000000E+00 0.  1.
        -13    1    5    5    0    0 -0.36512860313E+03 -0.19226788215E+03  0.41748568809E+03  0.58700948467E+03  0.00000000000E+00 0. -1.
          3    1    6    6  503    0  0.18286801727E+03  0.53575545688E+02 -0.33710954706E+02  0.19351351194E+03  0.00000000000E+00 0. -1.
         -3    1    6    6    0  503  0.55524432506E+02  0.55649872885E+02 -0.62024098182E+02  0.10013420850E+03  0.00000000000E+00 0.  1.
<mgrwt>
<rscale>  0 0.10885127E+04</rscale>
<asrwt>0</asrwt>
<pdfrwt beam="1">  1        2 0.13454747E+00 0.10885127E+04</pdfrwt>
<pdfrwt beam="2">  1       -1 0.52108045E-01 0.10885127E+04</pdfrwt>
<totfact> 0.12828387E+02</totfact>
</mgrwt>
</event>
<event>
12    7  0.1605494E-007  0.1733878E+04  0.7818608E-02  0.8742275E-01
         -1   -1    0    0    0  501 -0.00000000000E+00  0.00000000000E+00  0.23413393500E+04  0.23413393500E+04  0.00000000000E+00 0.  1.
          2   -1    0    0  501    0  0.00000000000E+00 -0.00000000000E+00 -0.32100575582E+03  0.32100575582E+03  0.00000000000E+00 0. -1.
         24    2    1    2    0    0 -0.51825877626E+03  0.26919627675E+03  0.87265266603E+03  0.10530342493E+04  0.79370398593E+02 0.  0.
        254    2    1    2    0    0  0.51825877626E+03 -0.26919627675E+03  0.11476809282E+04  0.16093108565E+04  0.96522076511E+03 0.  0.
         23    2    4    4    0    0  0.28364155029E+02  0.14617337231E+03 -0.10082005299E+03  0.20241251317E+03  0.92924498069E+02 0.  0.
         23    2    4    4    0    0  0.48989462123E+03 -0.41536964905E+03  0.12485009812E+04  0.14068983434E+04  0.89886390876E+02 0.  0.
          2    1    3    3  502    0 -0.25240112330E+03  0.14594046732E+03  0.50212605619E+03  0.58063372564E+03  0.00000000000E+00 0. -1.
         -1    1    3    3    0  502 -0.26585765296E+03  0.12325580943E+03  0.37052660984E+03  0.47240052370E+03  0.00000000000E+00 0.  1.
         13    1    5    5    0    0  0.14269331921E+02  0.44557980115E+02  0.13612670183E+02  0.48727119912E+02  0.00000000000E+00 0. -1.
        -13    1    5    5    0    0  0.14094823108E+02  0.10161539219E+03 -0.11443272317E+03  0.15368539326E+03  0.00000000000E+00 0.  1.
          2    1    6    6  503    0  0.88568976885E+02 -0.10881821253E+03  0.21700767020E+03  0.25841477506E+03  0.00000000000E+00 0. -1.
         -2    1    6    6    0  503  0.40132564435E+03 -0.30655143652E+03  0.10314933110E+04  0.11484835683E+04  0.00000000000E+00 0.  1.
<mgrwt>
<rscale>  0 0.17338782E+04</rscale>
<asrwt>0</asrwt>
<pdfrwt beam="1">  1        2 0.49385502E-01 0.17338782E+04</pdfrwt>
<pdfrwt beam="2">  1       -1 0.36020604E+00 0.17338782E+04</pdfrwt>
<totfact> 0.14736524E+00</totfact>
</mgrwt>
</event>
<event>
12    7  0.1605494E-007  0.1829004E+04  0.7818608E-02  0.8691026E-01
         -1   -1    0    0    0  501 -0.00000000000E+00  0.00000000000E+00  0.70020544952E+03  0.70020544952E+03  0.00000000000E+00 0.  1.
          2   -1    0    0  501    0  0.00000000000E+00 -0.00000000000E+00 -0.11943840338E+04  0.11943840338E+04  0.00000000000E+00 0. -1.
         24    2    1    2    0    0 -0.50544035777E+03 -0.46674529776E+03 -0.14151340623E+03  0.70702182808E+03  0.80825076481E+02 0.  0.
        254    2    1    2    0    0  0.50544035777E+03  0.46674529776E+03 -0.35266517801E+03  0.11875676552E+04  0.90145608859E+03 0.  0.
         23    2    4    4    0    0 -0.21736139663E+03  0.28047796460E+03 -0.20976090049E+03  0.42216039133E+03  0.91136684458E+02 0.  0.
         23    2    4    4    0    0  0.72280175440E+03  0.18626733316E+03 -0.14290427752E+03  0.76540726388E+03  0.91042580649E+02 0.  0.
          4    1    3    3  502    0 -0.44332624597E+03 -0.41376616599E+03 -0.15071862001E+03  0.62486534782E+03  0.00000000000E+00 0. -1.
         -3    1    3    3    0  502 -0.62114111795E+02 -0.52979131776E+02  0.92052137803E+01  0.82156480259E+02  0.00000000000E+00 0.  1.
         13    1    5    5    0    0 -0.15740877560E+03  0.25555933302E+03 -0.18554190895E+03  0.35286526509E+03  0.00000000000E+00 0. -1.
        -13    1    5    5    0    0 -0.59952621031E+02  0.24918631582E+02 -0.24218991540E+02  0.69295126232E+02  0.00000000000E+00 0.  1.
          3    1    6    6  503    0  0.55244877970E+03  0.10190427871E+03 -0.11167188158E+03  0.57276063529E+03  0.00000000000E+00 0. -1.
         -3    1    6    6    0  503  0.17035297471E+03  0.84363054453E+02 -0.31232395936E+02  0.19264662858E+03  0.00000000000E+00 0.  1.
<mgrwt>
<rscale>  0 0.18290043E+04</rscale>
<asrwt>0</asrwt>
<pdfrwt beam="1">  1        2 0.18375139E+00 0.18290043E+04</pdfrwt>
<pdfrwt beam="2">  1       -1 0.10772392E+00 0.18290043E+04</pdfrwt>
<totfact> 0.16438773E+01</totfact>
</mgrwt>
</event>
<event>
12    7  0.1605494E-007  0.2359800E+04  0.7818608E-02  0.8454709E-01
          2   -1    0    0  501    0  0.00000000000E+00  0.00000000000E+00  0.16744296393E+04  0.16744296393E+04  0.00000000000E+00 0. -1.
         -1   -1    0    0    0  501 -0.00000000000E+00 -0.00000000000E+00 -0.83142559941E+03  0.83142559941E+03  0.00000000000E+00 0.  1.
         24    2    1    2    0    0  0.65326750170E+03 -0.21553604640E+03 -0.41878169108E+03  0.80939107074E+03  0.80756328158E+02 0.  0.
        254    2    1    2    0    0 -0.65326750170E+03  0.21553604640E+03  0.12617857310E+04  0.16964641680E+04  0.90148390237E+03 0.  0.
         23    2    4    4    0    0 -0.84167410144E+03  0.16192685946E+03  0.75351009262E+03  0.11440959482E+04  0.80885586281E+02 0.  0.
         23    2    4    4    0    0  0.18840659975E+03  0.53609186940E+02  0.50827563834E+03  0.55236821979E+03  0.91627146378E+02 0.  0.
          4    1    3    3  502    0  0.58990782606E+01 -0.90717040281E+01  0.69965975143E+00  0.10843636939E+02  0.00000000000E+00 0. -1.
         -3    1    3    3    0  502  0.64736842344E+03 -0.20646434237E+03 -0.41948135084E+03  0.79854743380E+03  0.00000000000E+00 0.  1.
         13    1    5    5    0    0 -0.62526992605E+03  0.15484362464E+03  0.55214024910E+03  0.84840903059E+03  0.00000000000E+00 0. -1.
        -13    1    5    5    0    0 -0.21640417540E+03  0.70832348185E+01  0.20136984352E+03  0.29568691757E+03  0.00000000000E+00 0.  1.
          2    1    6    6  503    0  0.13748226343E+03 -0.56958642622E+01  0.34162662420E+03  0.36829684494E+03  0.00000000000E+00 0. -1.
         -2    1    6    6    0  503  0.50924336318E+02  0.59305051203E+02  0.16664901414E+03  0.18407137485E+03  0.00000000000E+00 0.  1.
<mgrwt>
<rscale>  0 0.23597997E+04</rscale>
<asrwt>0</asrwt>
<pdfrwt beam="1">  1        2 0.25760456E+00 0.23597997E+04</pdfrwt>
<pdfrwt beam="2">  1       -1 0.12791163E+00 0.23597997E+04</pdfrwt>
<totfact> 0.54998568E+00</totfact>
</mgrwt>
</event>
<event>
12    7  0.1605494E-007  0.1548717E+04  0.7818608E-02  0.8852688E-01
          2   -1    0    0  501    0  0.00000000000E+00  0.00000000000E+00  0.30663714011E+04  0.30663714011E+04  0.00000000000E+00 0. -1.
         -1   -1    0    0    0  501 -0.00000000000E+00 -0.00000000000E+00 -0.19555061714E+03  0.19555061714E+03  0.00000000000E+00 0.  1.
         24    2    1    2    0    0 -0.14561487712E+03  0.23558707023E+03  0.52997395378E+02  0.29344763341E+03  0.81227024695E+02 0.  0.
        254    2    1    2    0    0  0.14561487712E+03 -0.23558707023E+03  0.28178233886E+04  0.29684743848E+04  0.89163140591E+03 0.  0.
         23    2    4    4    0    0  0.59477621371E+02  0.58609741744E+02  0.25449206264E+04  0.25479742249E+04  0.92622710917E+02 0.  0.
         23    2    4    4    0    0  0.86137255750E+02 -0.29419681197E+03  0.27290276213E+03  0.42050015991E+03  0.91504513042E+02 0.  0.
          4    1    3    3  502    0 -0.12808530905E+03  0.13340145527E+03  0.33001513485E+02  0.18785870902E+03  0.00000000000E+00 0. -1.
         -1    1    3    3    0  502 -0.17529568070E+02  0.10218561496E+03  0.19995881894E+02  0.10558892440E+03  0.00000000000E+00 0.  1.
         13    1    5    5    0    0 -0.16905511977E+02  0.29420070230E+01  0.12090399223E+03  0.12211562995E+03  0.00000000000E+00 0.  1.
        -13    1    5    5    0    0  0.76383133348E+02  0.55667734721E+02  0.24240166342E+04  0.24258585950E+04  0.00000000000E+00 0. -1.
          1    1    6    6  503    0  0.99393053463E+02 -0.24398927454E+03  0.19895346899E+03  0.33013970980E+03  0.00000000000E+00 0. -1.
         -1    1    6    6    0  503 -0.13255797712E+02 -0.50207537435E+02  0.73949293142E+02  0.90360450113E+02  0.00000000000E+00 0.  1.
<mgrwt>
<rscale>  0 0.15487167E+04</rscale>
<asrwt>0</asrwt>
<pdfrwt beam="1">  1        2 0.47174941E+00 0.15487167E+04</pdfrwt>
<pdfrwt beam="2">  1       -1 0.30084712E-01 0.15487167E+04</pdfrwt>
<totfact> 0.17726372E+01</totfact>
</mgrwt>
</event>
<event>
12    7  0.1605494E-007  0.1287852E+04  0.7818608E-02  0.9039255E-01
         -3   -1    0    0    0  501 -0.00000000000E+00  0.00000000000E+00  0.22978961636E+03  0.22978961636E+03  0.00000000000E+00 0.  1.
          2   -1    0    0  501    0  0.00000000000E+00 -0.00000000000E+00 -0.18044347961E+04  0.18044347961E+04  0.00000000000E+00 0. -1.
         24    2    1    2    0    0 -0.23620695156E+03 -0.16990175250E+03 -0.63767868212E+03  0.70544024798E+03  0.79696376105E+02 0.  0.
        254    2    1    2    0    0  0.23620695156E+03  0.16990175250E+03 -0.93696649764E+03  0.13287841645E+04  0.89615891930E+03 0.  0.
         23    2    4    4    0    0  0.33418264380E+03 -0.22680316900E+03 -0.15583432832E+03  0.44286566369E+03  0.93423451588E+02 0.  0.
         23    2    4    4    0    0 -0.97975692240E+02  0.39670492149E+03 -0.78113216932E+03  0.88591850080E+03  0.87807135897E+02 0.  0.
          2    1    3    3  502    0 -0.22612740031E+03 -0.13074703644E+03 -0.55627573277E+03  0.61454949319E+03  0.00000000000E+00 0. -1.
         -1    1    3    3    0  502 -0.10079551252E+02 -0.39154716053E+02 -0.81402949348E+02  0.90890754784E+02  0.00000000000E+00 0.  1.
         13    1    5    5    0    0  0.68721026563E+02 -0.91985804609E+02 -0.63135195069E+02  0.13103442524E+03  0.00000000000E+00 0. -1.
        -13    1    5    5    0    0  0.26546161724E+03 -0.13481736439E+03 -0.92699133249E+02  0.31183123845E+03  0.00000000000E+00 0.  1.
          2    1    6    6  503    0 -0.92345181700E+02  0.35093842611E+03 -0.62074049000E+03  0.71903001845E+03  0.00000000000E+00 0. -1.
         -2    1    6    6    0  503 -0.56305105398E+01  0.45766495386E+02 -0.16039167931E+03  0.16688848235E+03  0.00000000000E+00 0.  1.
<mgrwt>
<rscale>  0 0.12878515E+04</rscale>
<asrwt>0</asrwt>
<pdfrwt beam="1">  1        2 0.27760537E+00 0.12878515E+04</pdfrwt>
<pdfrwt beam="2">  1       -3 0.35352246E-01 0.12878515E+04</pdfrwt>
<totfact> 0.42948759E+01</totfact>
</mgrwt>
</event>
<event>
12    7  0.1605494E-007  0.1190836E+04  0.7818608E-02  0.9120916E-01
         -1   -1    0    0    0  501 -0.00000000000E+00  0.00000000000E+00  0.24946016307E+03  0.24946016307E+03  0.00000000000E+00 0.  1.
          2   -1    0    0  501    0  0.00000000000E+00 -0.00000000000E+00 -0.14211584493E+04  0.14211584493E+04  0.00000000000E+00 0. -1.
         24    2    1    2    0    0 -0.15367777490E+01  0.89105941126E+02  0.67973270609E+02  0.13791752662E+03  0.80365715342E+02 0.  0.
        254    2    1    2    0    0  0.15367777490E+01 -0.89105941126E+02 -0.12396715569E+04  0.15327010858E+04  0.89690847862E+03 0.  0.
         23    2    4    4    0    0  0.34923175150E+03 -0.22772821549E+03 -0.97700208624E+03  0.10661957569E+04  0.91746166477E+02 0.  0.
         23    2    4    4    0    0 -0.34769497375E+03  0.13862227437E+03 -0.26266947062E+03  0.46650532891E+03  0.92325735224E+02 0.  0.
          2    1    3    3  502    0  0.12234584665E+02 -0.45665935473E+01 -0.90306406212E+01  0.15877383556E+02  0.00000000000E+00 0. -1.
         -1    1    3    3    0  502 -0.13771362414E+02  0.93672534674E+02  0.77003911230E+02  0.12204014307E+03  0.00000000000E+00 0.  1.
         13    1    5    5    0    0  0.71135724062E+02 -0.66347745559E+01 -0.15236404072E+03  0.16828283447E+03  0.00000000000E+00 0. -1.
        -13    1    5    5    0    0  0.27809602743E+03 -0.22109344094E+03 -0.82463804552E+03  0.89791292240E+03  0.00000000000E+00 0.  1.
          1    1    6    6  503    0 -0.64091500291E+02  0.40960281409E+02 -0.98882283625E+02  0.12475243916E+03  0.00000000000E+00 0. -1.
         -1    1    6    6    0  503 -0.28360347346E+03  0.97661992956E+02 -0.16378718700E+03  0.34175288975E+03  0.00000000000E+00 0.  1.
<mgrwt>
<rscale>  0 0.11908357E+04</rscale>
<asrwt>0</asrwt>
<pdfrwt beam="1">  1        2 0.21863975E+00 0.11908357E+04</pdfrwt>
<pdfrwt beam="2">  1       -1 0.38378488E-01 0.11908357E+04</pdfrwt>
<totfact> 0.10395187E+02</totfact>
</mgrwt>
</event>
<event>
12    7  0.1605494E-007  0.2664782E+04  0.7818608E-02  0.8346523E-01
         -1   -1    0    0    0  501 -0.00000000000E+00  0.00000000000E+00  0.78988401577E+03  0.78988401577E+03  0.00000000000E+00 0.  1.
          2   -1    0    0  501    0  0.00000000000E+00 -0.00000000000E+00 -0.22475012533E+04  0.22475012533E+04  0.00000000000E+00 0. -1.
         24    2    1    2    0    0  0.86330031343E+03 -0.45898994735E+03  0.85996499586E+02  0.98475222872E+03  0.79889618258E+02 0.  0.
        254    2    1    2    0    0 -0.86330031343E+03  0.45898994735E+03 -0.15436137371E+04  0.20526330404E+04  0.93520042024E+03 0.  0.
         23    2    4    4    0    0 -0.89330867196E+03  0.50157947131E+03 -0.16215756753E+04  0.19199358967E+04  0.84046578023E+02 0.  0.
         23    2    4    4    0    0  0.30008358530E+02 -0.42589523960E+02  0.77961938174E+02  0.13269714367E+03  0.93894083947E+02 0.  0.
          2    1    3    3  502    0  0.51663104397E+03 -0.24827811859E+03  0.18491002088E+02  0.57349069471E+03  0.00000000000E+00 0. -1.
         -1    1    3    3    0  502  0.34666926946E+03 -0.21071182876E+03  0.67505497497E+02  0.41126153401E+03  0.00000000000E+00 0.  1.
         13    1    5    5    0    0 -0.73051321792E+03  0.44133578191E+03 -0.13170064861E+04  0.15693734158E+04  0.00000000000E+00 0.  1.
        -13    1    5    5    0    0 -0.16279545404E+03  0.60243689399E+02 -0.30456918926E+03  0.35056248090E+03  0.00000000000E+00 0. -1.
          1    1    6    6  503    0 -0.37012525580E+01 -0.37335808574E+02  0.89206480027E+02  0.96775296182E+02  0.00000000000E+00 0. -1.
         -1    1    6    6    0  503  0.33709611088E+02 -0.52537153856E+01 -0.11244541853E+02  0.35921847483E+02  0.00000000000E+00 0.  1.
<mgrwt>
<rscale>  0 0.26647817E+04</rscale>
<asrwt>0</asrwt>
<pdfrwt beam="1">  1        2 0.34576942E+00 0.26647817E+04</pdfrwt>
<pdfrwt beam="2">  1       -1 0.12152062E+00 0.26647817E+04</pdfrwt>
<totfact> 0.29154040E+00</totfact>
</mgrwt>
</event>
<event>
12    7  0.1605494E-007  0.1932513E+04  0.7818608E-02  0.8638840E-01
          2   -1    0    0  501    0  0.00000000000E+00  0.00000000000E+00  0.13930798795E+04  0.13930798795E+04  0.00000000000E+00 0. -1.
         -1   -1    0    0    0  501 -0.00000000000E+00 -0.00000000000E+00 -0.67020671153E+03  0.67020671153E+03  0.00000000000E+00 0.  1.
         24    2    1    2    0    0 -0.18922707503E+03  0.10287134200E+03 -0.49129491567E+03  0.54228385667E+03  0.79446133376E+02 0.  0.
        254    2    1    2    0    0  0.18922707503E+03 -0.10287134200E+03  0.12141680837E+04  0.15210027344E+04  0.89042449636E+03 0.  0.
         23    2    4    4    0    0  0.23538725308E+03 -0.20411140355E+03  0.28001115407E+02  0.32591065764E+03  0.91460758406E+02 0.  0.
         23    2    4    4    0    0 -0.46160178042E+02  0.10124006155E+03  0.11861669683E+04  0.11950920768E+04  0.94194921471E+02 0.  0.
          2    1    3    3  502    0 -0.65575733557E+02  0.64702139177E+02 -0.13697739734E+03  0.16507377450E+03  0.00000000000E+00 0. -1.
         -1    1    3    3    0  502 -0.12365134148E+03  0.38169202821E+02 -0.35431751833E+03  0.37721008217E+03  0.00000000000E+00 0.  1.
         13    1    5    5    0    0  0.81002561456E+02 -0.65196706881E+02 -0.33617406286E+02  0.10928017000E+03  0.00000000000E+00 0.  1.
        -13    1    5    5    0    0  0.15438469162E+03 -0.13891469666E+03  0.61618521693E+02  0.21663048763E+03  0.00000000000E+00 0. -1.
          4    1    6    6  503    0 -0.26626448402E+02  0.84814933822E+01  0.65066662107E+03  0.65126642417E+03  0.00000000000E+00 0.  1.
         -4    1    6    6    0  503 -0.19533729641E+02  0.92758568166E+02  0.53550034721E+03  0.54382565260E+03  0.00000000000E+00 0. -1.
<mgrwt>
<rscale>  0 0.19325129E+04</rscale>
<asrwt>0</asrwt>
<pdfrwt beam="1">  1        2 0.21431998E+00 0.19325129E+04</pdfrwt>
<pdfrwt beam="2">  1       -1 0.10310873E+00 0.19325129E+04</pdfrwt>
<totfact> 0.13808166E+01</totfact>
</mgrwt>
</event>
<event>
12    7  0.1605494E-007  0.2233551E+04  0.7818608E-02  0.8504592E-01
          2   -1    0    0  501    0  0.00000000000E+00  0.00000000000E+00  0.34164548859E+04  0.34164548859E+04  0.00000000000E+00 0. -1.
         -1   -1    0    0    0  501 -0.00000000000E+00 -0.00000000000E+00 -0.36505312967E+03  0.36505312967E+03  0.00000000000E+00 0.  1.
         24    2    1    2    0    0  0.13836193466E+03  0.67172479601E+03  0.20588382147E+03  0.72012560050E+03  0.76383938161E+02 0.  0.
        254    2    1    2    0    0 -0.13836193466E+03 -0.67172479601E+03  0.28455179348E+04  0.30613824151E+04  0.89706841864E+03 0.  0.
         23    2    4    4    0    0 -0.38941086581E+02  0.12031887616E+03  0.67745863648E+02  0.16972083083E+03  0.90678653464E+02 0.  0.
         23    2    4    4    0    0 -0.99420848080E+02 -0.79204367216E+03  0.27777720712E+04  0.28916615843E+04  0.92039964326E+02 0.  0.
          2    1    3    3  502    0  0.74095271399E+02  0.20674755613E+03  0.84209640758E+02  0.23521463561E+03  0.00000000000E+00 0. -1.
         -1    1    3    3    0  502  0.64266663262E+02  0.46497723988E+03  0.12167418071E+03  0.48491096488E+03  0.00000000000E+00 0.  1.
         13    1    5    5    0    0  0.23557421924E+01 -0.97294183250E+01  0.24688314651E+02  0.26640645310E+02  0.00000000000E+00 0. -1.
        -13    1    5    5    0    0 -0.41296828774E+02  0.13004829448E+03  0.43057548997E+02  0.14308018552E+03  0.00000000000E+00 0.  1.
          3    1    6    6  503    0  0.70736193122E+01 -0.65850782451E+02  0.31303447494E+03  0.31996397319E+03  0.00000000000E+00 0. -1.
         -3    1    6    6    0  503 -0.10649446739E+03 -0.72619288971E+03  0.24647375962E+04  0.25716976111E+04  0.00000000000E+00 0.  1.
<mgrwt>
<rscale>  0 0.22335510E+04</rscale>
<asrwt>0</asrwt>
<pdfrwt beam="1">  1        2 0.52560842E+00 0.22335510E+04</pdfrwt>
<pdfrwt beam="2">  1       -1 0.56162022E-01 0.22335510E+04</pdfrwt>
<totfact> 0.30991423E+00</totfact>
</mgrwt>
</event>
<event>
12    7  0.1605494E-007  0.1748167E+04  0.7818608E-02  0.8734360E-01
         -1   -1    0    0    0  501 -0.00000000000E+00  0.00000000000E+00  0.83109541079E+03  0.83109541079E+03  0.00000000000E+00 0.  1.
          2   -1    0    0  501    0  0.00000000000E+00 -0.00000000000E+00 -0.91929548695E+03  0.91929548695E+03  0.00000000000E+00 0. -1.
         24    2    1    2    0    0 -0.11257971532E+03 -0.61449687006E+03  0.12505501489E+03  0.64652578784E+03  0.10989195593E+03 0.  0.
        254    2    1    2    0    0  0.11257971532E+03  0.61449687006E+03 -0.21325509105E+03  0.11038651099E+04  0.88473716514E+03 0.  0.
         23    2    4    4    0    0  0.37181473922E+03  0.10407814943E+03 -0.32658346424E+03  0.51329528648E+03  0.87959254840E+02 0.  0.
         23    2    4    4    0    0 -0.25923502391E+03  0.51041872063E+03  0.11332837320E+03  0.59056982342E+03  0.90550141765E+02 0.  0.
          4    1    3    3  502    0 -0.36899719348E+02 -0.35864100532E+03  0.11892271788E+03  0.37964137395E+03  0.00000000000E+00 0. -1.
         -3    1    3    3    0  502 -0.75679995969E+02 -0.25585586475E+03  0.61322970094E+01  0.26688441390E+03  0.00000000000E+00 0.  1.
         13    1    5    5    0    0  0.22811259647E+03  0.59002602582E+02 -0.25282870359E+03  0.34559950396E+03  0.00000000000E+00 0.  1.
        -13    1    5    5    0    0  0.14370214275E+03  0.45075546851E+02 -0.73754760657E+02  0.16769578252E+03  0.00000000000E+00 0. -1.
          4    1    6    6  503    0 -0.61593283481E+01 -0.23342914829E+01 -0.26846217472E+01  0.71129063225E+01  0.00000000000E+00 0. -1.
         -4    1    6    6    0  503 -0.25307569556E+03  0.51275301211E+03  0.11601299494E+03  0.58345691710E+03  0.00000000000E+00 0.  1.
<mgrwt>
<rscale>  0 0.17481673E+04</rscale>
<asrwt>0</asrwt>
<pdfrwt beam="1">  1        2 0.14143008E+00 0.17481673E+04</pdfrwt>
<pdfrwt beam="2">  1       -1 0.12786083E+00 0.17481673E+04</pdfrwt>
<totfact> 0.16280931E+01</totfact>
</mgrwt>
</event>
<event>
12    7  0.1605494E-007  0.1631519E+04  0.7818608E-02  0.8801415E-01
         -1   -1    0    0    0  501 -0.00000000000E+00  0.00000000000E+00  0.68480589671E+03  0.68480589671E+03  0.00000000000E+00 0.  1.
          2   -1    0    0  501    0  0.00000000000E+00 -0.00000000000E+00 -0.97175493458E+03  0.97175493458E+03  0.00000000000E+00 0. -1.
         24    2    1    2    0    0 -0.24583203533E+03 -0.47759151412E+03 -0.26094021402E+03  0.60234217366E+03  0.78735347303E+02 0.  0.
        254    2    1    2    0    0  0.24583203533E+03  0.47759151412E+03 -0.26008823843E+02  0.10542186576E+04  0.90673782056E+03 0.  0.
         23    2    4    4    0    0  0.41141904753E+03  0.63537713545E+03 -0.15267540764E+03  0.77728523903E+03  0.88841577000E+02 0.  0.
         23    2    4    4    0    0 -0.16558701220E+03 -0.15778562132E+03  0.12666658380E+03  0.27693341860E+03  0.91281619077E+02 0.  0.
          2    1    3    3  502    0 -0.18120638804E+03 -0.26813712258E+03 -0.15102102119E+03  0.35712829685E+03  0.00000000000E+00 0. -1.
         -1    1    3    3    0  502 -0.64625647292E+02 -0.20945439155E+03 -0.10991919283E+03  0.24521387681E+03  0.00000000000E+00 0.  1.
         13    1    5    5    0    0  0.19328806896E+03  0.32426347525E+03 -0.33098314288E+02  0.37894930716E+03  0.00000000000E+00 0.  1.
        -13    1    5    5    0    0  0.21813097857E+03  0.31111366019E+03 -0.11957709335E+03  0.39833593188E+03  0.00000000000E+00 0. -1.
          1    1    6    6  503    0 -0.16317201198E+03 -0.14868378111E+03  0.13940991026E+03  0.26108829031E+03  0.00000000000E+00 0. -1.
         -1    1    6    6    0  503 -0.24150002230E+01 -0.91018402160E+01 -0.12743326460E+02  0.15845128295E+02  0.00000000000E+00 0.  1.
<mgrwt>
<rscale>  0 0.16315189E+04</rscale>
<asrwt>0</asrwt>
<pdfrwt beam="1">  1        2 0.14950076E+00 0.16315189E+04</pdfrwt>
<pdfrwt beam="2">  1       -1 0.10535475E+00 0.16315189E+04</pdfrwt>
<totfact> 0.24228389E+01</totfact>
</mgrwt>
</event>
<event>
12    7  0.1605494E-007  0.1386571E+04  0.7818608E-02  0.8963597E-01
          2   -1    0    0  501    0  0.00000000000E+00  0.00000000000E+00  0.32238288846E+04  0.32238288846E+04  0.00000000000E+00 0. -1.
         -1   -1    0    0    0  501 -0.00000000000E+00 -0.00000000000E+00 -0.14909126625E+03  0.14909126625E+03  0.00000000000E+00 0.  1.
         24    2    1    2    0    0 -0.26049374432E+03 -0.27894825996E+03  0.68372471762E+03  0.78711647098E+03  0.80023289353E+02 0.  0.
        254    2    1    2    0    0  0.26049374432E+03  0.27894825996E+03  0.23910129007E+04  0.25858036798E+04  0.90761713117E+03 0.  0.
         23    2    4    4    0    0  0.39188386679E+02 -0.22931696411E+03  0.15766550768E+04  0.15963226611E+04  0.91009931710E+02 0.  0.
         23    2    4    4    0    0  0.22130535764E+03  0.50826522407E+03  0.81435782391E+03  0.98948101869E+03  0.92652154110E+02 0.  0.
          4    1    3    3  502    0 -0.25826525041E+03 -0.27144498418E+03  0.63132402290E+03  0.73413441610E+03  0.00000000000E+00 0. -1.
         -3    1    3    3    0  502 -0.22284939079E+01 -0.75032757805E+01  0.52400694721E+02  0.52982054884E+02  0.00000000000E+00 0.  1.
         13    1    5    5    0    0 -0.29249418047E+01  0.81377311004E+01  0.55718360207E+02  0.56385402510E+02  0.00000000000E+00 0.  1.
        -13    1    5    5    0    0  0.42113328484E+02 -0.23745469521E+03  0.15209367166E+04  0.15399372586E+04  0.00000000000E+00 0. -1.
          3    1    6    6  503    0 -0.24982104750E+01  0.45394454015E+02  0.94556778509E+02  0.10491845344E+03  0.00000000000E+00 0.  1.
         -3    1    6    6    0  503  0.22380356811E+03  0.46287077006E+03  0.71980104540E+03  0.88456256525E+03  0.00000000000E+00 0. -1.
<mgrwt>
<rscale>  0 0.13865709E+04</rscale>
<asrwt>0</asrwt>
<pdfrwt beam="1">  1        2 0.49597362E+00 0.13865709E+04</pdfrwt>
<pdfrwt beam="2">  1       -1 0.22937120E-01 0.13865709E+04</pdfrwt>
<totfact> 0.22815505E+01</totfact>
</mgrwt>
</event>
<event>
12    7  0.1605494E-007  0.1639942E+04  0.7818608E-02  0.8796379E-01
         -1   -1    0    0    0  501 -0.00000000000E+00  0.00000000000E+00  0.43520404591E+03  0.43520404591E+03  0.00000000000E+00 0.  1.
          2   -1    0    0  501    0  0.00000000000E+00 -0.00000000000E+00 -0.15449138692E+04  0.15449138692E+04  0.00000000000E+00 0. -1.
         24    2    1    2    0    0  0.92740731136E+01  0.51775612462E+03 -0.92052181220E+02  0.53203066781E+03  0.80159930211E+02 0.  0.
        254    2    1    2    0    0 -0.92740731136E+01 -0.51775612462E+03 -0.10176576420E+04  0.14480872473E+04  0.89060214814E+03 0.  0.
         23    2    4    4    0    0  0.26455069744E+03 -0.32891590319E+03 -0.10154150686E+04  0.11034212695E+04  0.91093323288E+02 0.  0.
         23    2    4    4    0    0 -0.27382477055E+03 -0.18884022144E+03 -0.22425734208E+01  0.34466597775E+03  0.90271661567E+02 0.  0.
          2    1    3    3  502    0 -0.78544013565E+01  0.10646467249E+02  0.71297969506E+01  0.15029068171E+02  0.00000000000E+00 0. -1.
         -1    1    3    3    0  502  0.17128474470E+02  0.50710965737E+03 -0.99181978170E+02  0.51700159964E+03  0.00000000000E+00 0.  1.
         13    1    5    5    0    0  0.64682064849E+02 -0.92359267758E+02 -0.38297144960E+03  0.39922566934E+03  0.00000000000E+00 0. -1.
        -13    1    5    5    0    0  0.19986863259E+03 -0.23655663543E+03 -0.63244361902E+03  0.70419560017E+03  0.00000000000E+00 0.  1.
          3    1    6    6  503    0 -0.15644746742E+01 -0.25365757628E+02  0.88315208991E+01  0.26904739405E+02  0.00000000000E+00 0. -1.
         -3    1    6    6    0  503 -0.27226029588E+03 -0.16347446381E+03 -0.11074094320E+02  0.31776123834E+03  0.00000000000E+00 0.  1.
<mgrwt>
<rscale>  0 0.16399424E+04</rscale>
<asrwt>0</asrwt>
<pdfrwt beam="1">  1        2 0.23767906E+00 0.16399424E+04</pdfrwt>
<pdfrwt beam="2">  1       -1 0.66954468E-01 0.16399424E+04</pdfrwt>
<totfact> 0.29475901E+01</totfact>
</mgrwt>
</event>
<event>
12    7  0.1605494E-007  0.1765279E+04  0.7818608E-02  0.8724985E-01
          2   -1    0    0  501    0  0.00000000000E+00  0.00000000000E+00  0.43534867988E+03  0.43534867988E+03  0.00000000000E+00 0. -1.
         -1   -1    0    0    0  501 -0.00000000000E+00 -0.00000000000E+00 -0.17894917591E+04  0.17894917591E+04  0.00000000000E+00 0.  1.
         24    2    1    2    0    0  0.37469768981E+03  0.41782137706E+03 -0.88512023774E+03  0.10511575301E+04  0.80754293225E+02 0.  0.
        254    2    1    2    0    0 -0.37469768981E+03 -0.41782137706E+03 -0.46902284149E+03  0.11736829089E+04  0.91791943164E+03 0.  0.
         23    2    4    4    0    0 -0.24256430646E+03  0.26457077516E+03 -0.10773912923E+03  0.38503353950E+03  0.88362711245E+02 0.  0.
         23    2    4    4    0    0 -0.13213338336E+03 -0.68239215222E+03 -0.36128371226E+03  0.78864936942E+03  0.91233912226E+02 0.  0.
          4    1    3    3  502    0  0.12037630464E+02  0.26260057608E+01 -0.65540670906E+01  0.13955509624E+02  0.00000000000E+00 0. -1.
         -3    1    3    3    0  502  0.36266005935E+03  0.41519537130E+03 -0.87856617065E+03  0.10372020204E+04  0.00000000000E+00 0.  1.
         13    1    5    5    0    0 -0.17366832886E+03  0.16418784683E+03 -0.30705931286E+02  0.24095890046E+03  0.00000000000E+00 0. -1.
        -13    1    5    5    0    0 -0.68895977598E+02  0.10038292833E+03 -0.77033197942E+02  0.14407463904E+03  0.00000000000E+00 0.  1.
          2    1    6    6  503    0 -0.78954256533E+02 -0.48406770509E+03 -0.20962798928E+03  0.53338467510E+03  0.00000000000E+00 0.  1.
         -2    1    6    6    0  503 -0.53179126822E+02 -0.19832444713E+03 -0.15165572297E+03  0.25526469433E+03  0.00000000000E+00 0. -1.
<mgrwt>
<rscale>  0 0.17652794E+04</rscale>
<asrwt>0</asrwt>
<pdfrwt beam="1">  1        2 0.66976720E-01 0.17652794E+04</pdfrwt>
<pdfrwt beam="2">  1       -1 0.27530642E+00 0.17652794E+04</pdfrwt>
<totfact> 0.37338323E+00</totfact>
</mgrwt>
</event>
<event>
12    7  0.1605494E-007  0.1967670E+04  0.7818608E-02  0.8621887E-01
         -3   -1    0    0    0  501 -0.00000000000E+00  0.00000000000E+00  0.50659303027E+03  0.50659303027E+03  0.00000000000E+00 0.  1.
          2   -1    0    0  501    0  0.00000000000E+00 -0.00000000000E+00 -0.19106692372E+04  0.19106692372E+04  0.00000000000E+00 0. -1.
         24    2    1    2    0    0  0.16255771533E+03 -0.32710789357E+03 -0.14032876770E+04  0.14522496181E+04  0.79925364789E+02 0.  0.
        254    2    1    2    0    0 -0.16255771533E+03  0.32710789357E+03 -0.78852993296E+00  0.96501264940E+03  0.89321005754E+03 0.  0.
         23    2    4    4    0    0  0.20219223151E+03  0.20983782697E+03 -0.33147283990E+03  0.45077909223E+03  0.91727500196E+02 0.  0.
         23    2    4    4    0    0 -0.36474994683E+03  0.11727006660E+03  0.33068430997E+03  0.51423355717E+03  0.91045297672E+02 0.  0.
          2    1    3    3  502    0  0.86468762361E+02 -0.19146389121E+03 -0.95229399291E+03  0.97519183622E+03  0.00000000000E+00 0. -1.
         -1    1    3    3    0  502  0.76088952966E+02 -0.13564400236E+03 -0.45099368409E+03  0.47705778186E+03  0.00000000000E+00 0.  1.
         13    1    5    5    0    0  0.16682960955E+02  0.59655570409E+02 -0.10408026491E+03  0.12111899029E+03  0.00000000000E+00 0. -1.
        -13    1    5    5    0    0  0.18550927055E+03  0.15018225656E+03 -0.22739257499E+03  0.32966010194E+03  0.00000000000E+00 0.  1.
          4    1    6    6  503    0 -0.38327405531E+02  0.19402304723E+02  0.81298357924E+02  0.91950325961E+02  0.00000000000E+00 0. -1.
         -4    1    6    6    0  503 -0.32642254130E+03  0.97867761872E+02  0.24938595204E+03  0.42228323121E+03  0.00000000000E+00 0.  1.
<mgrwt>
<rscale>  0 0.19676704E+04</rscale>
<asrwt>0</asrwt>
<pdfrwt beam="1">  1        2 0.29394912E+00 0.19676704E+04</pdfrwt>
<pdfrwt beam="2">  1       -3 0.77937388E-01 0.19676704E+04</pdfrwt>
<totfact> 0.68735808E+00</totfact>
</mgrwt>
</event>
<event>
12    7  0.1605494E-007  0.2517704E+04  0.7818608E-02  0.8396706E-01
         -1   -1    0    0    0  501 -0.00000000000E+00  0.00000000000E+00  0.70880129262E+03  0.70880129262E+03  0.00000000000E+00 0.  1.
          2   -1    0    0  501    0  0.00000000000E+00 -0.00000000000E+00 -0.22357577811E+04  0.22357577811E+04  0.00000000000E+00 0. -1.
         24    2    1    2    0    0 -0.63419387630E+03  0.82578591290E+03 -0.10718256362E+04  0.14964155137E+04  0.79529544726E+02 0.  0.
        254    2    1    2    0    0  0.63419387630E+03 -0.82578591290E+03 -0.45513085225E+03  0.14481435600E+04  0.89769228084E+03 0.  0.
         23    2    4    4    0    0  0.77526275733E+02 -0.99654641315E+02  0.24632801494E+03  0.29153358465E+03  0.91503929274E+02 0.  0.
         23    2    4    4    0    0  0.55666760057E+03 -0.72613127159E+03 -0.70145886719E+03  0.11566099754E+04  0.92502171072E+02 0.  0.
          4    1    3    3  502    0 -0.58644630463E+03  0.78525227472E+03 -0.10254648287E+04  0.14184916348E+04  0.00000000000E+00 0. -1.
         -1    1    3    3    0  502 -0.47747571670E+02  0.40533638181E+02 -0.46360807540E+02  0.77923878884E+02  0.00000000000E+00 0.  1.
         13    1    5    5    0    0  0.89172273766E+02 -0.44888673596E+02  0.16294479981E+03  0.19109603662E+03  0.00000000000E+00 0.  1.
        -13    1    5    5    0    0 -0.11645998033E+02 -0.54765967718E+02  0.83383215132E+02  0.10043754804E+03  0.00000000000E+00 0. -1.
          1    1    6    6  503    0  0.26371062168E+03 -0.28457556644E+03 -0.26155266014E+03  0.46790633574E+03  0.00000000000E+00 0. -1.
         -1    1    6    6    0  503  0.29295697889E+03 -0.44155570515E+03 -0.43990620705E+03  0.68870363963E+03  0.00000000000E+00 0.  1.
<mgrwt>
<rscale>  0 0.25177037E+04</rscale>
<asrwt>0</asrwt>
<pdfrwt beam="1">  1        2 0.34396274E+00 0.25177037E+04</pdfrwt>
<pdfrwt beam="2">  1       -1 0.10904635E+00 0.25177037E+04</pdfrwt>
<totfact> 0.38900556E+00</totfact>
</mgrwt>
</event>
<event>
12    7  0.1605494E-007  0.3481639E+04  0.7818608E-02  0.8118155E-01
         -1   -1    0    0    0  501 -0.00000000000E+00  0.00000000000E+00  0.30834512860E+04  0.30834512860E+04  0.00000000000E+00 0.  1.
          2   -1    0    0  501    0  0.00000000000E+00 -0.00000000000E+00 -0.98281160505E+03  0.98281160505E+03  0.00000000000E+00 0. -1.
         24    2    1    2    0    0  0.82489127100E+03  0.62122358453E+03  0.24808835965E+04  0.26886013590E+04  0.86194531233E+02 0.  0.
        254    2    1    2    0    0 -0.82489127100E+03 -0.62122358453E+03 -0.38024391557E+03  0.13776615321E+04  0.82885554268E+03 0.  0.
         23    2    4    4    0    0 -0.96400015109E+03 -0.52015425713E+03 -0.20973149802E+03  0.11189189627E+04  0.90197568010E+02 0.  0.
         23    2    4    4    0    0  0.13910888009E+03 -0.10106932740E+03 -0.17051241755E+03  0.25874256937E+03  0.91142433613E+02 0.  0.
          2    1    3    3  502    0  0.14963131587E+02  0.27426344029E+02  0.59263917278E+02  0.66994862078E+02  0.00000000000E+00 0. -1.
         -1    1    3    3    0  502  0.80992813942E+03  0.59379724050E+03  0.24216196793E+04  0.26216064969E+04  0.00000000000E+00 0.  1.
         13    1    5    5    0    0 -0.78391553494E+03 -0.43723614981E+03 -0.20442198313E+03  0.92059076891E+03  0.00000000000E+00 0. -1.
        -13    1    5    5    0    0 -0.18008461615E+03 -0.82918107321E+02 -0.53095148934E+01  0.19832819377E+03  0.00000000000E+00 0.  1.
          1    1    6    6  503    0  0.12567979839E+03 -0.42229167830E+02 -0.10091203871E+03  0.16661918826E+03  0.00000000000E+00 0. -1.
         -1    1    6    6    0  503  0.13429081705E+02 -0.58840159571E+02 -0.69600378840E+02  0.92123381117E+02  0.00000000000E+00 0.  1.
<mgrwt>
<rscale>  0 0.34816385E+04</rscale>
<asrwt>0</asrwt>
<pdfrwt beam="1">  1        2 0.15120179E+00 0.34816385E+04</pdfrwt>
<pdfrwt beam="2">  1       -1 0.47437711E+00 0.34816385E+04</pdfrwt>
<totfact> 0.53359171E-02</totfact>
</mgrwt>
</event>
<event>
12    7  0.1605494E-007  0.1713734E+04  0.7818608E-02  0.8753570E-01
         -1   -1    0    0    0  501 -0.00000000000E+00  0.00000000000E+00  0.19105556624E+04  0.19105556624E+04  0.00000000000E+00 0.  1.
          2   -1    0    0  501    0  0.00000000000E+00 -0.00000000000E+00 -0.38429723937E+03  0.38429723937E+03  0.00000000000E+00 0. -1.
         24    2    1    2    0    0  0.32185938156E+03  0.28299823704E+03  0.11508943418E+04  0.12306893949E+04  0.79731656014E+02 0.  0.
        254    2    1    2    0    0 -0.32185938156E+03 -0.28299823704E+03  0.37536408124E+03  0.10641635069E+04  0.89881272370E+03 0.  0.
         23    2    4    4    0    0 -0.14483000522E+03 -0.42465426947E+02 -0.28434081198E+03  0.33391745729E+03  0.88725013533E+02 0.  0.
         23    2    4    4    0    0 -0.17702937634E+03 -0.24053281010E+03  0.65970489322E+03  0.73024604962E+03  0.94092050847E+02 0.  0.
          4    1    3    3  502    0  0.32962335962E+02  0.68609268579E+01  0.58631297645E+02  0.67610775568E+02  0.00000000000E+00 0. -1.
         -3    1    3    3    0  502  0.28889704560E+03  0.27613731019E+03  0.10922630441E+04  0.11630786193E+04  0.00000000000E+00 0.  1.
         13    1    5    5    0    0 -0.95259799990E+02 -0.22004506624E+02 -0.92027955072E+02  0.13426754009E+03  0.00000000000E+00 0. -1.
        -13    1    5    5    0    0 -0.49570205232E+02 -0.20460920323E+02 -0.19231285691E+03  0.19964991720E+03  0.00000000000E+00 0.  1.
          3    1    6    6  503    0 -0.49101767660E+02 -0.43749450728E+02  0.24557578852E+03  0.25422916027E+03  0.00000000000E+00 0. -1.
         -3    1    6    6    0  503 -0.12792760868E+03 -0.19678335937E+03  0.41412910470E+03  0.47601688935E+03  0.00000000000E+00 0.  1.
<mgrwt>
<rscale>  0 0.17137342E+04</rscale>
<asrwt>0</asrwt>
<pdfrwt beam="1">  1        2 0.59122653E-01 0.17137342E+04</pdfrwt>
<pdfrwt beam="2">  1       -1 0.29393163E+00 0.17137342E+04</pdfrwt>
<totfact> 0.32742699E+00</totfact>
</mgrwt>
</event>
<event>
12    7  0.1605494E-007  0.1606503E+04  0.7818608E-02  0.8816563E-01
         -1   -1    0    0    0  501 -0.00000000000E+00  0.00000000000E+00  0.35700463549E+03  0.35700463549E+03  0.00000000000E+00 0.  1.
          2   -1    0    0  501    0  0.00000000000E+00 -0.00000000000E+00 -0.18072964876E+04  0.18072964876E+04  0.00000000000E+00 0. -1.
         24    2    1    2    0    0 -0.32294802689E+03  0.42964361865E+03 -0.48326274775E+03  0.72716277654E+03  0.79584879855E+02 0.  0.
        254    2    1    2    0    0  0.32294802689E+03 -0.42964361865E+03 -0.96702910431E+03  0.14371383465E+04  0.91724166459E+03 0.  0.
         23    2    4    4    0    0  0.47410905460E+03 -0.59673087087E+03 -0.90283734472E+03  0.11858837740E+04  0.10167559399E+03 0.  0.
         23    2    4    4    0    0 -0.15116102771E+03  0.16708725222E+03 -0.64191759590E+02  0.25125457253E+03  0.90777045921E+02 0.  0.
          4    1    3    3  502    0 -0.13625059169E+03  0.22950708845E+03 -0.20214599110E+03  0.33481446967E+03  0.00000000000E+00 0. -1.
         -1    1    3    3    0  502 -0.18669743521E+03  0.20013653020E+03 -0.28111675665E+03  0.39234830687E+03  0.00000000000E+00 0.  1.
         13    1    5    5    0    0  0.42448788001E+03 -0.57497874047E+03 -0.83684622040E+03  0.11005008446E+04  0.00000000000E+00 0. -1.
        -13    1    5    5    0    0  0.49621174594E+02 -0.21752130404E+02 -0.65991124316E+02  0.85382929404E+02  0.00000000000E+00 0.  1.
          4    1    6    6  503    0 -0.55313380640E+02  0.16083018154E+02 -0.41433752020E+02  0.70957658905E+02  0.00000000000E+00 0.  1.
         -4    1    6    6    0  503 -0.95847647070E+02  0.15100423407E+03 -0.22758007570E+02  0.18029691363E+03  0.00000000000E+00 0. -1.
<mgrwt>
<rscale>  0 0.16065033E+04</rscale>
<asrwt>0</asrwt>
<pdfrwt beam="1">  1        2 0.27804562E+00 0.16065033E+04</pdfrwt>
<pdfrwt beam="2">  1       -1 0.54923789E-01 0.16065033E+04</pdfrwt>
<totfact> 0.31268010E+01</totfact>
</mgrwt>
</event>
<event>
12    7  0.1605494E-007  0.1273821E+04  0.7818608E-02  0.9050587E-01
          2   -1    0    0  501    0  0.00000000000E+00  0.00000000000E+00  0.66454660228E+03  0.66454660228E+03  0.00000000000E+00 0. -1.
         -1   -1    0    0    0  501 -0.00000000000E+00 -0.00000000000E+00 -0.61042356346E+03  0.61042356346E+03  0.00000000000E+00 0.  1.
         24    2    1    2    0    0  0.21015876719E+03  0.32663722897E+02 -0.21769372781E+03  0.31431767403E+03  0.78558353210E+02 0.  0.
        254    2    1    2    0    0 -0.21015876719E+03 -0.32663722897E+02  0.27181676662E+03  0.96065249172E+03  0.89651281586E+03 0.  0.
         23    2    4    4    0    0 -0.35047778633E+03  0.26147975577E+03 -0.10102664774E+03  0.45687676325E+03  0.85578337524E+02 0.  0.
         23    2    4    4    0    0  0.14031901913E+03 -0.29414347867E+03  0.37284341437E+03  0.50377572847E+03  0.92563274479E+02 0.  0.
          2    1    3    3  502    0  0.85393660664E-01 -0.10648112874E+02 -0.35452439692E+01  0.11223116976E+02  0.00000000000E+00 0. -1.
         -1    1    3    3    0  502  0.21007337353E+03  0.43311835772E+02 -0.21414848384E+03  0.30309455705E+03  0.00000000000E+00 0.  1.
         13    1    5    5    0    0 -0.32964190495E+02  0.49930356343E+02 -0.36043645163E+02  0.69848569750E+02  0.00000000000E+00 0. -1.
        -13    1    5    5    0    0 -0.31751359583E+03  0.21154939943E+03 -0.64983002581E+02  0.38702819350E+03  0.00000000000E+00 0.  1.
          4    1    6    6  503    0  0.54550552643E+02 -0.21422009840E+03  0.25645455476E+03  0.33857783745E+03  0.00000000000E+00 0. -1.
         -4    1    6    6    0  503  0.85768466489E+02 -0.79923380270E+02  0.11638885961E+03  0.16519789102E+03  0.00000000000E+00 0.  1.
<mgrwt>
<rscale>  0 0.12738209E+04</rscale>
<asrwt>0</asrwt>
<pdfrwt beam="1">  1        2 0.10223794E+00 0.12738209E+04</pdfrwt>
<pdfrwt beam="2">  1       -1 0.93911317E-01 0.12738209E+04</pdfrwt>
<totfact> 0.53945955E+01</totfact>
</mgrwt>
</event>
<event>
12    7  0.1605494E-007  0.1083387E+04  0.7818608E-02  0.9221537E-01
         -1   -1    0    0    0  501 -0.00000000000E+00  0.00000000000E+00  0.57153672403E+03  0.57153672403E+03  0.00000000000E+00 0.  1.
          2   -1    0    0  501    0  0.00000000000E+00 -0.00000000000E+00 -0.51340867519E+03  0.51340867519E+03  0.00000000000E+00 0. -1.
         24    2    1    2    0    0 -0.70053113914E+02  0.10332783262E+03  0.93260155770E+02  0.17486993506E+03  0.79359673458E+02 0.  0.
        254    2    1    2    0    0  0.70053113914E+02 -0.10332783262E+03 -0.35132106935E+02  0.91007546416E+03  0.90078799157E+03 0.  0.
         23    2    4    4    0    0  0.15116885999E+03 -0.25464847024E+03 -0.39563794244E+03  0.50095615474E+03  0.82035479205E+02 0.  0.
         23    2    4    4    0    0 -0.81115746078E+02  0.15132063762E+03  0.36050583550E+03  0.40911930942E+03  0.89086768232E+02 0.  0.
          2    1    3    3  502    0 -0.24746189730E+02  0.58312110555E+02  0.18688073029E+01  0.63373248175E+02  0.00000000000E+00 0. -1.
         -1    1    3    3    0  502 -0.45306924184E+02  0.45015722065E+02  0.91391348468E+02  0.11149668689E+03  0.00000000000E+00 0.  1.
         13    1    5    5    0    0  0.62177082826E+02 -0.14113064559E+03 -0.26363513824E+03  0.30542975440E+03  0.00000000000E+00 0. -1.
        -13    1    5    5    0    0  0.88991777166E+02 -0.11351782465E+03 -0.13200280419E+03  0.19552640034E+03  0.00000000000E+00 0.  1.
          4    1    6    6  503    0 -0.66593745494E+02  0.14505620565E+03  0.35941969424E+03  0.39326650803E+03  0.00000000000E+00 0. -1.
         -4    1    6    6    0  503 -0.14522000584E+02  0.62644319725E+01  0.10861412689E+01  0.15852801385E+02  0.00000000000E+00 0.  1.
<mgrwt>
<rscale>  0 0.10833871E+04</rscale>
<asrwt>0</asrwt>
<pdfrwt beam="1">  1        2 0.78985950E-01 0.10833871E+04</pdfrwt>
<pdfrwt beam="2">  1       -1 0.87928727E-01 0.10833871E+04</pdfrwt>
<totfact> 0.86325544E+01</totfact>
</mgrwt>
</event>
<event>
12    7  0.1605494E-007  0.2252787E+04  0.7818608E-02  0.8496773E-01
          2   -1    0    0  501    0  0.00000000000E+00  0.00000000000E+00  0.10838788566E+04  0.10838788566E+04  0.00000000000E+00 0. -1.
         -1   -1    0    0    0  501 -0.00000000000E+00 -0.00000000000E+00 -0.11705757984E+04  0.11705757984E+04  0.00000000000E+00 0.  1.
         24    2    1    2    0    0 -0.73365230562E+03 -0.34088616777E+03  0.45608359277E+03  0.93219647177E+03  0.80801816050E+02 0.  0.
        254    2    1    2    0    0  0.73365230562E+03  0.34088616777E+03 -0.54278053459E+03  0.13222581832E+04  0.89403965765E+03 0.  0.
         23    2    4    4    0    0  0.69826768389E+03  0.44703328383E+03 -0.71359310466E+03  0.10975942756E+04  0.89897494427E+02 0.  0.
         23    2    4    4    0    0  0.35384621730E+02 -0.10614711606E+03  0.17081257007E+03  0.22466390766E+03  0.93689143492E+02 0.  0.
          4    1    3    3  502    0 -0.39536034758E+03 -0.20088042225E+03  0.29215888455E+03  0.53105514055E+03  0.00000000000E+00 0. -1.
         -3    1    3    3    0  502 -0.33829195804E+03 -0.14000574553E+03  0.16392470822E+03  0.40114133122E+03  0.00000000000E+00 0.  1.
         13    1    5    5    0    0  0.38498186508E+03  0.24894867276E+03 -0.45290862636E+03  0.64444759441E+03  0.00000000000E+00 0.  1.
        -13    1    5    5    0    0  0.31328581880E+03  0.19808461107E+03 -0.26068447830E+03  0.45314668115E+03  0.00000000000E+00 0. -1.
          1    1    6    6  503    0  0.67754589853E+00 -0.11047637002E+03  0.13723966052E+03  0.17618232551E+03  0.00000000000E+00 0. -1.
         -1    1    6    6    0  503  0.34707075831E+02  0.43292539573E+01  0.33572909548E+02  0.48481582154E+02  0.00000000000E+00 0.  1.
<mgrwt>
<rscale>  0 0.22527870E+04</rscale>
<asrwt>0</asrwt>
<pdfrwt beam="1">  1        2 0.16675059E+00 0.22527870E+04</pdfrwt>
<pdfrwt beam="2">  1       -1 0.18008858E+00 0.22527870E+04</pdfrwt>
<totfact> 0.48074107E+00</totfact>
</mgrwt>
</event>
<event>
12    7  0.1605494E-007  0.2699908E+04  0.7818608E-02  0.8335035E-01
         -1   -1    0    0    0  501 -0.00000000000E+00  0.00000000000E+00  0.58969775576E+03  0.58969775576E+03  0.00000000000E+00 0.  1.
          2   -1    0    0  501    0  0.00000000000E+00 -0.00000000000E+00 -0.30903554833E+04  0.30903554833E+04  0.00000000000E+00 0. -1.
         24    2    1    2    0    0  0.29043425834E+03 -0.27601606664E+03  0.42737030873E+03  0.59147195474E+03  0.81589000489E+02 0.  0.
        254    2    1    2    0    0 -0.29043425834E+03  0.27601606664E+03 -0.29280280363E+04  0.30885812843E+04  0.89746823965E+03 0.  0.
         23    2    4    4    0    0 -0.20366540331E+03 -0.52603624493E+02 -0.25914647883E+04  0.26015946546E+04  0.91423520437E+02 0.  0.
         23    2    4    4    0    0 -0.86768855037E+02  0.32861969113E+03 -0.33656324797E+03  0.48698662970E+03  0.91440811569E+02 0.  0.
          4    1    3    3  502    0  0.32218155529E+02 -0.15014263141E+02  0.13000618235E+02  0.37847770315E+02  0.00000000000E+00 0. -1.
         -3    1    3    3    0  502  0.25821610281E+03 -0.26100180350E+03  0.41436969049E+03  0.55362418443E+03  0.00000000000E+00 0.  1.
         13    1    5    5    0    0 -0.92773220413E+02 -0.71149903217E+02 -0.13088234136E+04  0.13140349718E+04  0.00000000000E+00 0. -1.
        -13    1    5    5    0    0 -0.11089218289E+03  0.18546278725E+02 -0.12826413747E+04  0.12875596828E+04  0.00000000000E+00 0.  1.
          2    1    6    6  503    0 -0.75194427275E+02  0.33158628605E+03 -0.32434957810E+03  0.46990032539E+03  0.00000000000E+00 0. -1.
         -2    1    6    6    0  503 -0.11574427761E+02 -0.29665949141E+01 -0.12213669867E+02  0.17086304311E+02  0.00000000000E+00 0.  1.
<mgrwt>
<rscale>  0 0.26999079E+04</rscale>
<asrwt>0</asrwt>
<pdfrwt beam="1">  1        2 0.47543932E+00 0.26999079E+04</pdfrwt>
<pdfrwt beam="2">  1       -1 0.90722729E-01 0.26999079E+04</pdfrwt>
<totfact> 0.18060427E+00</totfact>
</mgrwt>
</event>
<event>
12    7  0.1605494E-007  0.2042913E+04  0.7818608E-02  0.8586816E-01
         -1   -1    0    0    0  501 -0.00000000000E+00  0.00000000000E+00  0.11431192342E+04  0.11431192342E+04  0.00000000000E+00 0.  1.
          2   -1    0    0  501    0  0.00000000000E+00 -0.00000000000E+00 -0.91274242418E+03  0.91274242418E+03  0.00000000000E+00 0. -1.
         24    2    1    2    0    0  0.17149006087E+03 -0.14378633718E+03 -0.70030650657E+03  0.73839324950E+03  0.68644271620E+02 0.  0.
        254    2    1    2    0    0 -0.17149006087E+03  0.14378633718E+03  0.93068331656E+03  0.13174684088E+04  0.90524484028E+03 0.  0.
         23    2    4    4    0    0  0.12440889637E+03  0.22286900760E+02 -0.13072827752E+03  0.20507153604E+03  0.94816522349E+02 0.  0.
         23    2    4    4    0    0 -0.29589895725E+03  0.12149943642E+03  0.10614115941E+04  0.11123968728E+04  0.92270930563E+02 0.  0.
          4    1    3    3  502    0  0.28051175745E+02 -0.58303649085E+02 -0.24620768550E+03  0.25456709991E+03  0.00000000000E+00 0. -1.
         -3    1    3    3    0  502  0.14343888513E+03 -0.85482688092E+02 -0.45409882107E+03  0.48382614959E+03  0.00000000000E+00 0.  1.
         13    1    5    5    0    0  0.12621335324E+03  0.32512586300E+02 -0.79207106951E+02  0.15251440783E+03  0.00000000000E+00 0. -1.
        -13    1    5    5    0    0 -0.18044568699E+01 -0.10225685539E+02 -0.51521170567E+02  0.52557128212E+02  0.00000000000E+00 0.  1.
          3    1    6    6  503    0 -0.11942592022E+03  0.25987382494E+01  0.34837679941E+03  0.36828752114E+03  0.00000000000E+00 0. -1.
         -3    1    6    6    0  503 -0.17647303703E+03  0.11890069817E+03  0.71303479467E+03  0.74410935166E+03  0.00000000000E+00 0.  1.
<mgrwt>
<rscale>  0 0.20429130E+04</rscale>
<asrwt>0</asrwt>
<pdfrwt beam="1">  1        2 0.14042191E+00 0.20429130E+04</pdfrwt>
<pdfrwt beam="2">  1       -1 0.17586450E+00 0.20429130E+04</pdfrwt>
<totfact> 0.67691448E+00</totfact>
</mgrwt>
</event>
<event>
12    7  0.1605494E-007  0.2932141E+04  0.7818608E-02  0.8263378E-01
         -1   -1    0    0    0  501 -0.00000000000E+00  0.00000000000E+00  0.92095117599E+03  0.92095117599E+03  0.00000000000E+00 0.  1.
          2   -1    0    0  501    0  0.00000000000E+00 -0.00000000000E+00 -0.23338515913E+04  0.23338515913E+04  0.00000000000E+00 0. -1.
         24    2    1    2    0    0  0.10726146762E+04 -0.70369285847E+03 -0.30501274196E+03  0.13209625189E+04  0.78888026973E+02 0.  0.
        254    2    1    2    0    0 -0.10726146762E+04  0.70369285847E+03 -0.11078876733E+04  0.19338402484E+04  0.93093347071E+03 0.  0.
         23    2    4    4    0    0 -0.11309483201E+03 -0.13594793974E+03  0.52485749044E+02  0.20737141893E+03  0.94741058623E+02 0.  0.
         23    2    4    4    0    0 -0.95951984420E+03  0.83964079821E+03 -0.11603734224E+04  0.17264688295E+04  0.92483178509E+02 0.  0.
          2    1    3    3  502    0  0.89396228436E+03 -0.59056581120E+03 -0.28428023113E+03  0.11084907726E+04  0.00000000000E+00 0. -1.
         -1    1    3    3    0  502  0.17865239186E+03 -0.11312704727E+03 -0.20732510833E+02  0.21247174623E+03  0.00000000000E+00 0.  1.
         13    1    5    5    0    0 -0.17701376400E+02 -0.10581940544E+01 -0.20197648800E+02  0.26877565331E+02  0.00000000000E+00 0.  1.
        -13    1    5    5    0    0 -0.95393455611E+02 -0.13488974569E+03  0.72683397843E+02  0.18049385360E+03  0.00000000000E+00 0. -1.
          1    1    6    6  503    0 -0.95813794593E+03  0.84095718263E+03 -0.11531890612E+04  0.17190352868E+04  0.00000000000E+00 0. -1.
         -1    1    6    6    0  503 -0.13818982778E+01 -0.13163844126E+01 -0.71843611923E+01  0.74335426624E+01  0.00000000000E+00 0.  1.
<mgrwt>
<rscale>  0 0.29321414E+04</rscale>
<asrwt>0</asrwt>
<pdfrwt beam="1">  1        2 0.35905409E+00 0.29321414E+04</pdfrwt>
<pdfrwt beam="2">  1       -1 0.14168480E+00 0.29321414E+04</pdfrwt>
<totfact> 0.17238502E+00</totfact>
</mgrwt>
</event>
<event>
12    7  0.1605494E-007  0.1449651E+04  0.7818608E-02  0.8918642E-01
         -1   -1    0    0    0  501 -0.00000000000E+00  0.00000000000E+00  0.28835445050E+03  0.28835445050E+03  0.00000000000E+00 0.  1.
          2   -1    0    0  501    0  0.00000000000E+00 -0.00000000000E+00 -0.18219666567E+04  0.18219666567E+04  0.00000000000E+00 0. -1.
         24    2    1    2    0    0  0.10789214678E+03 -0.42666784744E+03 -0.54266121901E+03  0.70326921393E+03  0.80126283219E+02 0.  0.
        254    2    1    2    0    0 -0.10789214678E+03  0.42666784744E+03 -0.99095098721E+03  0.14070518933E+04  0.89673017344E+03 0.  0.
         23    2    4    4    0    0  0.37964315070E+02 -0.18982787561E+03  0.15623973650E+02  0.21399564135E+03  0.89856075957E+02 0.  0.
         23    2    4    4    0    0 -0.14585646185E+03  0.61649572305E+03 -0.10065749609E+04  0.11930562519E+04  0.94069040820E+02 0.  0.
          2    1    3    3  502    0 -0.58710645928E+01 -0.83120074934E+02 -0.12986390798E+03  0.15429857696E+03  0.00000000000E+00 0. -1.
         -1    1    3    3    0  502  0.11376321137E+03 -0.34354777251E+03 -0.41279731104E+03  0.54897063697E+03  0.00000000000E+00 0.  1.
         13    1    5    5    0    0  0.38544772509E+01 -0.16527626040E+03 -0.84955259335E+01  0.16553934036E+03  0.00000000000E+00 0. -1.
        -13    1    5    5    0    0  0.34109837819E+02 -0.24551615217E+02  0.24119499583E+02  0.48456300993E+02  0.00000000000E+00 0.  1.
          3    1    6    6  503    0 -0.46934855092E+02  0.20321172297E+03 -0.41751932354E+03  0.46671219237E+03  0.00000000000E+00 0. -1.
         -3    1    6    6    0  503 -0.98921606759E+02  0.41328400008E+03 -0.58905563731E+03  0.72634405956E+03  0.00000000000E+00 0.  1.
<mgrwt>
<rscale>  0 0.14496513E+04</rscale>
<asrwt>0</asrwt>
<pdfrwt beam="1">  1        2 0.28030257E+00 0.14496513E+04</pdfrwt>
<pdfrwt beam="2">  1       -1 0.44362223E-01 0.14496513E+04</pdfrwt>
<totfact> 0.46625120E+01</totfact>
</mgrwt>
</event>
<event>
12    7  0.1605494E-007  0.1826619E+04  0.7818608E-02  0.8692270E-01
         -1   -1    0    0    0  501 -0.00000000000E+00  0.00000000000E+00  0.91393440711E+03  0.91393440711E+03  0.00000000000E+00 0.  1.
          2   -1    0    0  501    0  0.00000000000E+00 -0.00000000000E+00 -0.91268551003E+03  0.91268551003E+03  0.00000000000E+00 0. -1.
         24    2    1    2    0    0 -0.36570064310E+02 -0.17096593280E+03  0.66839508065E+03  0.69559244454E+03  0.80809314383E+02 0.  0.
        254    2    1    2    0    0  0.36570064310E+02  0.17096593280E+03 -0.66714618357E+03  0.11310274726E+04  0.89642199534E+03 0.  0.
         23    2    4    4    0    0 -0.41326291545E+03  0.56152269852E+02 -0.41731146514E+03  0.59701378865E+03  0.91308762978E+02 0.  0.
         23    2    4    4    0    0  0.44983297976E+03  0.11481366295E+03 -0.24983471843E+03  0.53401368395E+03  0.84978475086E+02 0.  0.
          2    1    3    3  502    0  0.10410680931E+02 -0.56193721519E+02  0.11433273753E+03  0.12782054407E+03  0.00000000000E+00 0. -1.
         -3    1    3    3    0  502 -0.46980745240E+02 -0.11477221129E+03  0.55406234312E+03  0.56777190047E+03  0.00000000000E+00 0.  1.
         13    1    5    5    0    0 -0.29310637685E+03  0.28400061177E+02 -0.34679700555E+03  0.45495722291E+03  0.00000000000E+00 0. -1.
        -13    1    5    5    0    0 -0.12015653861E+03  0.27752208675E+02 -0.70514459593E+02  0.14205656573E+03  0.00000000000E+00 0.  1.
          2    1    6    6  503    0  0.37539901831E+03  0.12609326186E+03 -0.22014594508E+03  0.45308737653E+03  0.00000000000E+00 0. -1.
         -2    1    6    6    0  503  0.74433961458E+02 -0.11279598912E+02 -0.29688773349E+02  0.80926307422E+02  0.00000000000E+00 0.  1.
<mgrwt>
<rscale>  0 0.18266195E+04</rscale>
<asrwt>0</asrwt>
<pdfrwt beam="1">  1        2 0.14041315E+00 0.18266195E+04</pdfrwt>
<pdfrwt beam="2">  1       -1 0.14060529E+00 0.18266195E+04</pdfrwt>
<totfact> 0.12809633E+01</totfact>
</mgrwt>
</event>
<event>
12    7  0.1605494E-007  0.3738585E+04  0.7818608E-02  0.8059464E-01
          2   -1    0    0  501    0  0.00000000000E+00  0.00000000000E+00  0.26098544799E+04  0.26098544799E+04  0.00000000000E+00 0. -1.
         -1   -1    0    0    0  501 -0.00000000000E+00 -0.00000000000E+00 -0.13388691367E+04  0.13388691367E+04  0.00000000000E+00 0.  1.
         24    2    1    2    0    0  0.97223244544E+03  0.13936413692E+04  0.11118628871E+03  0.17047692877E+04  0.80023368940E+02 0.  0.
        254    2    1    2    0    0 -0.97223244544E+03 -0.13936413692E+04  0.11597990545E+04  0.22439543288E+04  0.89594921136E+03 0.  0.
         23    2    4    4    0    0  0.15507910184E+03 -0.27609022008E+03  0.21992425204E+03  0.39688388344E+03  0.94206172035E+02 0.  0.
         23    2    4    4    0    0 -0.11273115473E+04 -0.11175511491E+04  0.93987480242E+03  0.18470704454E+04  0.92480757766E+02 0.  0.
          4    1    3    3  502    0  0.35799122085E+03  0.48569137107E+03  0.45061784087E+01  0.60338555484E+03  0.00000000000E+00 0. -1.
         -3    1    3    3    0  502  0.61424122459E+03  0.90794999811E+03  0.10668011030E+03  0.11013837329E+04  0.00000000000E+00 0.  1.
         13    1    5    5    0    0  0.63539760158E+02 -0.19428194288E+03  0.16357873383E+03  0.26180293469E+03  0.00000000000E+00 0. -1.
        -13    1    5    5    0    0  0.91539341678E+02 -0.81808277202E+02  0.56345518205E+02  0.13508094875E+03  0.00000000000E+00 0.  1.
          4    1    6    6  503    0 -0.92266005855E+03 -0.96100801298E+03  0.79759339799E+03  0.15527373291E+04  0.00000000000E+00 0. -1.
         -4    1    6    6    0  503 -0.20465148873E+03 -0.15654313613E+03  0.14228140443E+03  0.29433311631E+03  0.00000000000E+00 0.  1.
<mgrwt>
<rscale>  0 0.37385846E+04</rscale>
<asrwt>0</asrwt>
<pdfrwt beam="1">  1        2 0.40151607E+00 0.37385846E+04</pdfrwt>
<pdfrwt beam="2">  1       -1 0.20597987E+00 0.37385846E+04</pdfrwt>
<totfact> 0.37643394E-01</totfact>
</mgrwt>
</event>
<event>
12    7  0.1605494E-007  0.3636788E+04  0.7818608E-02  0.8082117E-01
          2   -1    0    0  501    0  0.00000000000E+00  0.00000000000E+00  0.30788632779E+04  0.30788632779E+04  0.00000000000E+00 0. -1.
         -1   -1    0    0    0  501 -0.00000000000E+00 -0.00000000000E+00 -0.10739536179E+04  0.10739536179E+04  0.00000000000E+00 0.  1.
         24    2    1    2    0    0 -0.33982498249E+03  0.47053407739E+03  0.27752025182E+04  0.28364856269E+04  0.83775639304E+02 0.  0.
        254    2    1    2    0    0  0.33982498249E+03 -0.47053407739E+03 -0.77029285819E+03  0.13163312690E+04  0.89582006320E+03 0.  0.
         23    2    4    4    0    0  0.32622763384E+03  0.17011479960E+03 -0.12037599244E+03  0.39925661147E+03  0.97734068366E+02 0.  0.
         23    2    4    4    0    0  0.13597348650E+02 -0.64064887699E+03 -0.64991686575E+03  0.91707465752E+03  0.89543975774E+02 0.  0.
          2    1    3    3  502    0 -0.16746380895E+03  0.25096813232E+03  0.16356072220E+04  0.16632017663E+04  0.00000000000E+00 0. -1.
         -1    1    3    3    0  502 -0.17236117355E+03  0.21956594507E+03  0.11395952962E+04  0.11732838606E+04  0.00000000000E+00 0.  1.
         13    1    5    5    0    0  0.14141655914E+03  0.12249965389E+03 -0.83487156098E+02  0.20487780172E+03  0.00000000000E+00 0. -1.
        -13    1    5    5    0    0  0.18481107470E+03  0.47615145706E+02 -0.36888836340E+02  0.19437880975E+03  0.00000000000E+00 0.  1.
          4    1    6    6  503    0  0.48947535701E+02 -0.26696749125E+03 -0.26014935449E+03  0.37595902606E+03  0.00000000000E+00 0. -1.
         -4    1    6    6    0  503 -0.35350187051E+02 -0.37368138574E+03 -0.38976751127E+03  0.54111563146E+03  0.00000000000E+00 0.  1.
<mgrwt>
<rscale>  0 0.36367878E+04</rscale>
<asrwt>0</asrwt>
<pdfrwt beam="1">  1        2 0.47367127E+00 0.36367878E+04</pdfrwt>
<pdfrwt beam="2">  1       -1 0.16522364E+00 0.36367878E+04</pdfrwt>
<totfact> 0.38205029E-01</totfact>
</mgrwt>
</event>
<event>
12    7  0.1605494E-007  0.1378065E+04  0.7818608E-02  0.8969851E-01
          2   -1    0    0  501    0  0.00000000000E+00  0.00000000000E+00  0.32709511025E+03  0.32709511025E+03  0.00000000000E+00 0. -1.
         -1   -1    0    0    0  501 -0.00000000000E+00 -0.00000000000E+00 -0.14514614730E+04  0.14514614730E+04  0.00000000000E+00 0.  1.
         24    2    1    2    0    0  0.34822889052E+03 -0.47671129792E+02 -0.93999225657E+02  0.37289484996E+03  0.81724034974E+02 0.  0.
        254    2    1    2    0    0 -0.34822889052E+03  0.47671129792E+02 -0.10303671371E+04  0.14056617333E+04  0.88920895995E+03 0.  0.
         23    2    4    4    0    0  0.19470746933E+03  0.17022226593E+03 -0.56332300888E+02  0.27995087000E+03  0.91173148787E+02 0.  0.
         23    2    4    4    0    0 -0.54293635984E+03 -0.12255113614E+03 -0.97403483622E+03  0.11257108633E+04  0.93179470933E+02 0.  0.
          2    1    3    3  502    0  0.24434276616E+03 -0.35309970754E+02 -0.26289944513E+02  0.24827674597E+03  0.00000000000E+00 0. -1.
         -1    1    3    3    0  502  0.10388612436E+03 -0.12361159038E+02 -0.67709281143E+02  0.12461810398E+03  0.00000000000E+00 0.  1.
         13    1    5    5    0    0  0.17954563335E+03  0.10824731682E+03 -0.34229919642E+02  0.21242834899E+03  0.00000000000E+00 0. -1.
        -13    1    5    5    0    0  0.15161835976E+02  0.61974949108E+02 -0.22102381245E+02  0.67522521012E+02  0.00000000000E+00 0.  1.
          1    1    6    6  503    0 -0.22995049630E+03 -0.64908245519E+02 -0.50790089670E+03  0.56129638512E+03  0.00000000000E+00 0. -1.
         -1    1    6    6    0  503 -0.31298586354E+03 -0.57642890617E+02 -0.46613393952E+03  0.56441447819E+03  0.00000000000E+00 0.  1.
<mgrwt>
<rscale>  0 0.13780652E+04</rscale>
<asrwt>0</asrwt>
<pdfrwt beam="1">  1        2 0.50322326E-01 0.13780652E+04</pdfrwt>
<pdfrwt beam="2">  1       -1 0.22330176E+00 0.13780652E+04</pdfrwt>
<totfact> 0.11641713E+01</totfact>
</mgrwt>
</event>
<event>
12    7  0.1605494E-007  0.1610960E+04  0.7818608E-02  0.8813843E-01
         -1   -1    0    0    0  501 -0.00000000000E+00  0.00000000000E+00  0.28964810065E+03  0.28964810065E+03  0.00000000000E+00 0.  1.
          2   -1    0    0  501    0  0.00000000000E+00 -0.00000000000E+00 -0.22399533566E+04  0.22399533566E+04  0.00000000000E+00 0. -1.
         24    2    1    2    0    0  0.35387807286E+03 -0.43743222376E+03 -0.71211896232E+03  0.91131966043E+03  0.82543722626E+02 0.  0.
        254    2    1    2    0    0 -0.35387807286E+03  0.43743222376E+03 -0.12381862937E+04  0.16182817969E+04  0.87701427320E+03 0.  0.
         23    2    4    4    0    0  0.17729457092E+03  0.14942482669E+03 -0.14834298075E+02  0.25079525617E+03  0.94430188022E+02 0.  0.
         23    2    4    4    0    0 -0.53117264378E+03  0.28800739707E+03 -0.12233519956E+04  0.13674865407E+04  0.91305506885E+02 0.  0.
          2    1    3    3  502    0  0.31595314768E+03 -0.40502210466E+03 -0.60859518467E+03  0.79640278477E+03  0.00000000000E+00 0. -1.
         -1    1    3    3    0  502  0.37924925178E+02 -0.32410119099E+02 -0.10352377766E+03  0.11491687565E+03  0.00000000000E+00 0.  1.
         13    1    5    5    0    0  0.93211911953E+02  0.11281385952E+03  0.28943049559E+02  0.14917482209E+03  0.00000000000E+00 0.  1.
        -13    1    5    5    0    0  0.84082658963E+02  0.36610967171E+02 -0.43777347634E+02  0.10162043407E+03  0.00000000000E+00 0. -1.
          1    1    6    6  503    0 -0.17186242330E+03  0.10415149964E+03 -0.31705704609E+03  0.37537900567E+03  0.00000000000E+00 0. -1.
         -1    1    6    6    0  503 -0.35931022048E+03  0.18385589743E+03 -0.90629494951E+03  0.99210753503E+03  0.00000000000E+00 0.  1.
<mgrwt>
<rscale>  0 0.16109603E+04</rscale>
<asrwt>0</asrwt>
<pdfrwt beam="1">  1        2 0.34460821E+00 0.16109603E+04</pdfrwt>
<pdfrwt beam="2">  1       -1 0.44561247E-01 0.16109603E+04</pdfrwt>
<totfact> 0.26708616E+01</totfact>
</mgrwt>
</event>
<event>
12    7  0.1605494E-007  0.2571364E+04  0.7818608E-02  0.8377994E-01
         -1   -1    0    0    0  501 -0.00000000000E+00  0.00000000000E+00  0.58049582625E+03  0.58049582625E+03  0.00000000000E+00 0.  1.
          2   -1    0    0  501    0  0.00000000000E+00 -0.00000000000E+00 -0.28475291043E+04  0.28475291043E+04  0.00000000000E+00 0. -1.
         24    2    1    2    0    0 -0.31525490304E+03 -0.40373882328E+03 -0.23324952225E+04  0.23894264550E+04  0.80213026166E+02 0.  0.
        254    2    1    2    0    0  0.31525490304E+03  0.40373882328E+03  0.65461944451E+02  0.10385984755E+04  0.90111643860E+03 0.  0.
         23    2    4    4    0    0  0.13922802242E+03 -0.24718570824E+03 -0.13780444363E+03  0.32812705612E+03  0.90510130290E+02 0.  0.
         23    2    4    4    0    0  0.17602688063E+03  0.65092453153E+03  0.20326638808E+03  0.71047141943E+03  0.93617332011E+02 0.  0.
          2    1    3    3  502    0 -0.20484154103E+03 -0.23336587112E+03 -0.15667747752E+04  0.15972485351E+04  0.00000000000E+00 0. -1.
         -1    1    3    3    0  502 -0.11041336201E+03 -0.17037295216E+03 -0.76572044731E+03  0.79217791990E+03  0.00000000000E+00 0.  1.
         13    1    5    5    0    0 -0.13068591294E+02 -0.27822895179E+02 -0.14007079995E+02  0.33780169694E+02  0.00000000000E+00 0. -1.
        -13    1    5    5    0    0  0.15229661371E+03 -0.21936281307E+03 -0.12379736364E+03  0.29434688642E+03  0.00000000000E+00 0.  1.
          1    1    6    6  503    0  0.75556883537E+02  0.14772302754E+03  0.28250566277E+02  0.16831229904E+03  0.00000000000E+00 0. -1.
         -1    1    6    6    0  503  0.10046999709E+03  0.50320150399E+03  0.17501582180E+03  0.54215912038E+03  0.00000000000E+00 0.  1.
<mgrwt>
<rscale>  0 0.25713644E+04</rscale>
<asrwt>0</asrwt>
<pdfrwt beam="1">  1        2 0.43808139E+00 0.25713644E+04</pdfrwt>
<pdfrwt beam="2">  1       -1 0.89307052E-01 0.25713644E+04</pdfrwt>
<totfact> 0.26798859E+00</totfact>
</mgrwt>
</event>
<event>
12    7  0.1605494E-007  0.2557259E+04  0.7818608E-02  0.8382866E-01
          2   -1    0    0  501    0  0.00000000000E+00  0.00000000000E+00  0.89420717434E+03  0.89420717434E+03  0.00000000000E+00 0. -1.
         -1   -1    0    0    0  501 -0.00000000000E+00 -0.00000000000E+00 -0.18283166612E+04  0.18283166612E+04  0.00000000000E+00 0.  1.
         24    2    1    2    0    0  0.11747313924E+03 -0.24193662591E+01 -0.15943942386E+04  0.16007686564E+04  0.81003156906E+02 0.  0.
        254    2    1    2    0    0 -0.11747313924E+03  0.24193662591E+01  0.66028475171E+03  0.11217551792E+04  0.89919571668E+03 0.  0.
         23    2    4    4    0    0 -0.73801670779E+01 -0.36973091751E+03  0.61156494846E+03  0.72042552669E+03  0.90806580628E+02 0.  0.
         23    2    4    4    0    0 -0.11009297217E+03  0.37215028377E+03  0.48719803242E+02  0.40132965249E+03  0.89864200367E+02 0.  0.
          2    1    3    3  502    0 -0.50601710019E+01  0.14844600194E+02 -0.31904445044E+03  0.31942969311E+03  0.00000000000E+00 0. -1.
         -1    1    3    3    0  502  0.12253331025E+03 -0.17263966454E+02 -0.12753497881E+04  0.12813389633E+04  0.00000000000E+00 0.  1.
         13    1    5    5    0    0  0.14562451182E+02 -0.14386656414E+03  0.16418935986E+03  0.21878710920E+03  0.00000000000E+00 0. -1.
        -13    1    5    5    0    0 -0.21942618260E+02 -0.22586435337E+03  0.44737558860E+03  0.50163841749E+03  0.00000000000E+00 0.  1.
          4    1    6    6  503    0 -0.49479245292E+02  0.13483204833E+03  0.61099836515E+02  0.15608032225E+03  0.00000000000E+00 0. -1.
         -4    1    6    6    0  503 -0.60613726874E+02  0.23731823544E+03 -0.12380033273E+02  0.24524933024E+03  0.00000000000E+00 0.  1.
<mgrwt>
<rscale>  0 0.25572594E+04</rscale>
<asrwt>0</asrwt>
<pdfrwt beam="1">  1        2 0.13757034E+00 0.25572594E+04</pdfrwt>
<pdfrwt beam="2">  1       -1 0.28127948E+00 0.25572594E+04</pdfrwt>
<totfact> 0.13077679E+00</totfact>
</mgrwt>
</event>
<event>
12    7  0.1605494E-007  0.2967317E+04  0.7818608E-02  0.8253126E-01
          2   -1    0    0  501    0  0.00000000000E+00  0.00000000000E+00  0.73207252889E+03  0.73207252889E+03  0.00000000000E+00 0. -1.
         -1   -1    0    0    0  501 -0.00000000000E+00 -0.00000000000E+00 -0.30068632338E+04  0.30068632338E+04  0.00000000000E+00 0.  1.
         24    2    1    2    0    0 -0.34244642733E+03  0.11552105257E+04 -0.27490147610E+03  0.12384444802E+04  0.79956204216E+02 0.  0.
        254    2    1    2    0    0  0.34244642733E+03 -0.11552105257E+04 -0.19998892288E+04  0.25004912825E+04  0.89505240751E+03 0.  0.
         23    2    4    4    0    0 -0.93905093064E+02 -0.28313751788E+03 -0.11883955117E+04  0.12285928487E+04  0.90396211801E+02 0.  0.
         23    2    4    4    0    0  0.43635152039E+03 -0.87207300782E+03 -0.81149371707E+03  0.12718984338E+04  0.91047200476E+02 0.  0.
          4    1    3    3  502    0 -0.14053745104E+03  0.35891751669E+03 -0.69563211999E+02  0.39167792815E+03  0.00000000000E+00 0. -1.
         -3    1    3    3    0  502 -0.20190897628E+03  0.79629300901E+03 -0.20533826410E+03  0.84676655201E+03  0.00000000000E+00 0.  1.
         13    1    5    5    0    0 -0.58293374209E+02 -0.10647031404E+03 -0.33338595219E+03  0.35479605179E+03  0.00000000000E+00 0.  1.
        -13    1    5    5    0    0 -0.35611718855E+02 -0.17666720385E+03 -0.85500955954E+03  0.87379679693E+03  0.00000000000E+00 0. -1.
          4    1    6    6  503    0  0.13361582931E+03 -0.25463586646E+03 -0.18721976472E+03  0.34313824420E+03  0.00000000000E+00 0. -1.
         -4    1    6    6    0  503  0.30273569108E+03 -0.61743714136E+03 -0.62427395235E+03  0.92876018959E+03  0.00000000000E+00 0.  1.
<mgrwt>
<rscale>  0 0.29673166E+04</rscale>
<asrwt>0</asrwt>
<pdfrwt beam="1">  1        2 0.11262654E+00 0.29673166E+04</pdfrwt>
<pdfrwt beam="2">  1       -1 0.46259434E+00 0.29673166E+04</pdfrwt>
<totfact> 0.10023673E-01</totfact>
</mgrwt>
</event>
<event>
12    7  0.1605494E-007  0.1168953E+04  0.7818608E-02  0.9140474E-01
          2   -1    0    0  501    0  0.00000000000E+00  0.00000000000E+00  0.47192009891E+03  0.47192009891E+03  0.00000000000E+00 0. -1.
         -1   -1    0    0    0  501 -0.00000000000E+00 -0.00000000000E+00 -0.72387870631E+03  0.72387870631E+03  0.00000000000E+00 0.  1.
         24    2    1    2    0    0 -0.44743765237E+02  0.11726053584E+03  0.10096850297E+02  0.14973150786E+03  0.81028021496E+02 0.  0.
        254    2    1    2    0    0  0.44743765237E+02 -0.11726053584E+03 -0.26205545770E+03  0.10460672974E+04  0.10049038212E+04 0.  0.
         23    2    4    4    0    0  0.13405638746E+03  0.52444846897E+02 -0.61275756098E+03  0.63590437483E+03  0.90448705933E+02 0.  0.
         23    2    4    4    0    0 -0.89312622223E+02 -0.16970538273E+03  0.35070210329E+03  0.41016292252E+03  0.92005414751E+02 0.  0.
          4    1    3    3  502    0 -0.20498033392E+02  0.17124172594E+02  0.34715219081E+02  0.43801291029E+02  0.00000000000E+00 0. -1.
         -1    1    3    3    0  502 -0.24245731846E+02  0.10013636324E+03 -0.24618368784E+02  0.10593021683E+03  0.00000000000E+00 0.  1.
         13    1    5    5    0    0  0.52493093009E+02  0.59884963044E+02 -0.40159886819E+03  0.40941834906E+03  0.00000000000E+00 0. -1.
        -13    1    5    5    0    0  0.81563294451E+02 -0.74401161474E+01 -0.21115869279E+03  0.22648602577E+03  0.00000000000E+00 0.  1.
          2    1    6    6  503    0 -0.79135741002E+02 -0.53172958188E+02  0.16980571724E+03  0.19474036714E+03  0.00000000000E+00 0.  1.
         -2    1    6    6    0  503 -0.10176881221E+02 -0.11653242454E+03  0.18089638605E+03  0.21542255538E+03  0.00000000000E+00 0. -1.
<mgrwt>
<rscale>  0 0.11689532E+04</rscale>
<asrwt>0</asrwt>
<pdfrwt beam="1">  1        2 0.72603092E-01 0.11689532E+04</pdfrwt>
<pdfrwt beam="2">  1       -1 0.11136595E+00 0.11689532E+04</pdfrwt>
<totfact> 0.55220457E+01</totfact>
</mgrwt>
</event>
<event>
12    7  0.1605494E-007  0.1943616E+04  0.7818608E-02  0.8633445E-01
          2   -1    0    0  501    0  0.00000000000E+00  0.00000000000E+00  0.29337142242E+04  0.29337142242E+04  0.00000000000E+00 0. -1.
         -1   -1    0    0    0  501 -0.00000000000E+00 -0.00000000000E+00 -0.32191653634E+03  0.32191653634E+03  0.00000000000E+00 0.  1.
         24    2    1    2    0    0 -0.23980120690E+03 -0.71223803299E+03  0.81804751682E+03  0.11138395540E+04  0.81542490685E+02 0.  0.
        254    2    1    2    0    0  0.23980120690E+03  0.71223803299E+03  0.17937501711E+04  0.21417912066E+04  0.89718574545E+03 0.  0.
         23    2    4    4    0    0 -0.75661199624E+02  0.70330795076E+03  0.69864236235E+03  0.99839701255E+03  0.91262004473E+02 0.  0.
         23    2    4    4    0    0  0.31546240653E+03  0.89300822305E+01  0.10951078087E+04  0.11433941940E+04  0.92156898278E+02 0.  0.
          4    1    3    3  502    0 -0.24371673674E+03 -0.69880877096E+03  0.81179178804E+03  0.10985160232E+04  0.00000000000E+00 0. -1.
         -1    1    3    3    0  502  0.39155298417E+01 -0.13429262035E+02  0.62557287738E+01  0.15323530769E+02  0.00000000000E+00 0.  1.
         13    1    5    5    0    0 -0.30125581001E+02  0.44613748496E+03  0.38336318453E+03  0.58899366496E+03  0.00000000000E+00 0.  1.
        -13    1    5    5    0    0 -0.45535618624E+02  0.25717046581E+03  0.31527917782E+03  0.40940334759E+03  0.00000000000E+00 0. -1.
          3    1    6    6  503    0  0.70837823969E+02 -0.35195146164E+02  0.22624883178E+03  0.23967734457E+03  0.00000000000E+00 0. -1.
         -3    1    6    6    0  503  0.24462458256E+03  0.44125228394E+02  0.86885897694E+03  0.90371684945E+03  0.00000000000E+00 0.  1.
<mgrwt>
<rscale>  0 0.19436163E+04</rscale>
<asrwt>0</asrwt>
<pdfrwt beam="1">  1        2 0.45134063E+00 0.19436163E+04</pdfrwt>
<pdfrwt beam="2">  1       -1 0.49525623E-01 0.19436163E+04</pdfrwt>
<totfact> 0.83357176E+00</totfact>
</mgrwt>
</event>
<event>
12    7  0.1605494E-007  0.2949363E+04  0.7818608E-02  0.8258340E-01
         -1   -1    0    0    0  501 -0.00000000000E+00  0.00000000000E+00  0.19155401865E+04  0.19155401865E+04  0.00000000000E+00 0.  1.
          2   -1    0    0  501    0  0.00000000000E+00 -0.00000000000E+00 -0.11352855439E+04  0.11352855439E+04  0.00000000000E+00 0. -1.
         24    2    1    2    0    0 -0.24202895357E+03  0.12980345179E+04  0.14573202238E+03  0.13301616157E+04  0.67974093879E+02 0.  0.
        254    2    1    2    0    0  0.24202895357E+03 -0.12980345179E+04  0.63452262018E+03  0.17206641147E+04  0.90254884411E+03 0.  0.
         23    2    4    4    0    0  0.54359055989E+03 -0.10895662011E+04  0.48357086392E+03  0.13136107270E+04  0.95326586262E+02 0.  0.
         23    2    4    4    0    0 -0.30156160631E+03 -0.20846831680E+03  0.15095175627E+03  0.40705338776E+03  0.92236577672E+02 0.  0.
          2    1    3    3  502    0 -0.45131129348E+01  0.41025305895E+02 -0.68666690544E+01  0.41840113002E+02  0.00000000000E+00 0. -1.
         -1    1    3    3    0  502 -0.23751584064E+03  0.12570092121E+04  0.15259869144E+03  0.12883215027E+04  0.00000000000E+00 0.  1.
         13    1    5    5    0    0  0.42974541203E+03 -0.90312299858E+03  0.43006602111E+03  0.10887006256E+04  0.00000000000E+00 0. -1.
        -13    1    5    5    0    0  0.11384514785E+03 -0.18644320256E+03  0.53504842808E+02  0.22491010132E+03  0.00000000000E+00 0.  1.
          3    1    6    6  503    0 -0.26072142712E+03 -0.13876095167E+03  0.13484058330E+03  0.32467252297E+03  0.00000000000E+00 0. -1.
         -3    1    6    6    0  503 -0.40840179195E+02 -0.69707365131E+02  0.16111172962E+02  0.82380864796E+02  0.00000000000E+00 0.  1.
<mgrwt>
<rscale>  0 0.29493627E+04</rscale>
<asrwt>0</asrwt>
<pdfrwt beam="1">  1        2 0.17465931E+00 0.29493627E+04</pdfrwt>
<pdfrwt beam="2">  1       -1 0.29469849E+00 0.29493627E+04</pdfrwt>
<totfact> 0.72552357E-01</totfact>
</mgrwt>
</event>
<event>
12    7  0.1605494E-007  0.1610765E+04  0.7818608E-02  0.8813962E-01
          2   -1    0    0  501    0  0.00000000000E+00  0.00000000000E+00  0.11832208505E+04  0.11832208505E+04  0.00000000000E+00 0. -1.
         -1   -1    0    0    0  501 -0.00000000000E+00 -0.00000000000E+00 -0.54819918196E+03  0.54819918196E+03  0.00000000000E+00 0.  1.
         24    2    1    2    0    0 -0.33598220488E+03 -0.41898960086E+03  0.11350837043E+03  0.55471778023E+03  0.79945843691E+02 0.  0.
        254    2    1    2    0    0  0.33598220488E+03  0.41898960086E+03  0.52151329815E+03  0.11767022523E+04  0.90786328415E+03 0.  0.
         23    2    4    4    0    0  0.54295115214E+03 -0.28962147697E+02  0.23997093209E+03  0.60137964572E+03  0.91851349651E+02 0.  0.
         23    2    4    4    0    0 -0.20696894726E+03  0.44795174856E+03  0.28154236606E+03  0.57532260654E+03  0.90736340811E+02 0.  0.
          2    1    3    3  502    0 -0.10338573263E+03 -0.84972539687E+02  0.49530993281E+02  0.14269639627E+03  0.00000000000E+00 0. -1.
         -1    1    3    3    0  502 -0.23259647225E+03 -0.33401706118E+03  0.63977377150E+02  0.41202138397E+03  0.00000000000E+00 0.  1.
         13    1    5    5    0    0  0.48347408404E+03 -0.54823341799E+01  0.23401359599E+03  0.53715883036E+03  0.00000000000E+00 0. -1.
        -13    1    5    5    0    0  0.59477068099E+02 -0.23479813517E+02  0.59573361035E+01  0.64220815363E+02  0.00000000000E+00 0.  1.
          3    1    6    6  503    0 -0.20357815944E+03  0.45165090909E+03  0.28237598275E+03  0.57023574627E+03  0.00000000000E+00 0. -1.
         -3    1    6    6    0  503 -0.33907878197E+01 -0.36991605341E+01 -0.83361668658E+00  0.50868602768E+01  0.00000000000E+00 0.  1.
<mgrwt>
<rscale>  0 0.16107647E+04</rscale>
<asrwt>0</asrwt>
<pdfrwt beam="1">  1        2 0.18203398E+00 0.16107647E+04</pdfrwt>
<pdfrwt beam="2">  1       -1 0.84338336E-01 0.16107647E+04</pdfrwt>
<totfact> 0.29496890E+01</totfact>
</mgrwt>
</event>
<event>
12    7  0.1605494E-007  0.2303038E+04  0.7818608E-02  0.8476724E-01
          2   -1    0    0  501    0  0.00000000000E+00  0.00000000000E+00  0.21934176325E+04  0.21934176325E+04  0.00000000000E+00 0. -1.
         -1   -1    0    0    0  501 -0.00000000000E+00 -0.00000000000E+00 -0.60453428267E+03  0.60453428267E+03  0.00000000000E+00 0.  1.
         24    2    1    2    0    0 -0.46489275337E+02 -0.61758355103E+03  0.15773963338E+04  0.16968122550E+04  0.86150679174E+02 0.  0.
        254    2    1    2    0    0  0.46489275337E+02  0.61758355103E+03  0.11487015979E+02  0.11011396602E+04  0.91038777694E+03 0.  0.
         23    2    4    4    0    0 -0.15189216022E+03  0.75562715201E+03 -0.15701416676E+03  0.79155927827E+03  0.88707503929E+02 0.  0.
         23    2    4    4    0    0  0.19838143556E+03 -0.13804360098E+03  0.16850118273E+03  0.30958038189E+03  0.95058584675E+02 0.  0.
          4    1    3    3  502    0 -0.64492071255E+02 -0.39351859191E+03  0.10682639369E+04  0.11402648589E+04  0.00000000000E+00 0. -1.
         -3    1    3    3    0  502  0.18002795917E+02 -0.22406495912E+03  0.50913239689E+03  0.55654739612E+03  0.00000000000E+00 0.  1.
         13    1    5    5    0    0 -0.52453201531E+02  0.47386289116E+03 -0.86217684911E+02  0.48449031689E+03  0.00000000000E+00 0. -1.
        -13    1    5    5    0    0 -0.99438958689E+02  0.28176426085E+03 -0.70796481845E+02  0.30706896137E+03  0.00000000000E+00 0.  1.
          1    1    6    6  503    0  0.18626045420E+03 -0.14350013002E+03  0.17655745944E+03  0.29403703950E+03  0.00000000000E+00 0. -1.
         -1    1    6    6    0  503  0.12120981356E+02  0.54565290335E+01 -0.80562767079E+01  0.15543342386E+02  0.00000000000E+00 0.  1.
<mgrwt>
<rscale>  0 0.23030381E+04</rscale>
<asrwt>0</asrwt>
<pdfrwt beam="1">  1        2 0.33744886E+00 0.23030381E+04</pdfrwt>
<pdfrwt beam="2">  1       -1 0.93005275E-01 0.23030381E+04</pdfrwt>
<totfact> 0.60311136E+00</totfact>
</mgrwt>
</event>
<event>
12    7  0.1605494E-007  0.1463374E+04  0.7818608E-02  0.8909181E-01
          2   -1    0    0  501    0  0.00000000000E+00  0.00000000000E+00  0.41788551681E+03  0.41788551681E+03  0.00000000000E+00 0. -1.
         -1   -1    0    0    0  501 -0.00000000000E+00 -0.00000000000E+00 -0.12811304025E+04  0.12811304025E+04  0.00000000000E+00 0.  1.
         24    2    1    2    0    0  0.26667521610E+03 -0.31567041986E+03 -0.44567730278E+02  0.42340879563E+03  0.80778962463E+02 0.  0.
        254    2    1    2    0    0 -0.26667521610E+03  0.31567041986E+03 -0.81867715542E+03  0.12756071237E+04  0.88666665909E+03 0.  0.
         23    2    4    4    0    0  0.48783929805E+02 -0.25493371221E+03 -0.42909600544E+03  0.51064041045E+03  0.96224619873E+02 0.  0.
         23    2    4    4    0    0 -0.31545914590E+03  0.57060413207E+03 -0.38958114997E+03  0.76496671324E+03  0.91088153357E+02 0.  0.
          4    1    3    3  502    0  0.20255612301E+03 -0.26959540872E+03 -0.61201520132E+02  0.34271897152E+03  0.00000000000E+00 0. -1.
         -3    1    3    3    0  502  0.64119093086E+02 -0.46075011143E+02  0.16633789854E+02  0.80689824111E+02  0.00000000000E+00 0.  1.
         13    1    5    5    0    0  0.44675769262E+02 -0.26353056858E+03 -0.41475879847E+03  0.49342592741E+03  0.00000000000E+00 0. -1.
        -13    1    5    5    0    0  0.41081605430E+01  0.85968563691E+01 -0.14337206972E+02  0.17214483037E+02  0.00000000000E+00 0.  1.
          4    1    6    6  503    0 -0.14334277362E+03  0.23116167329E+03 -0.21268541518E+03  0.34527953281E+03  0.00000000000E+00 0. -1.
         -4    1    6    6    0  503 -0.17211637229E+03  0.33944245878E+03 -0.17689573480E+03  0.41968718043E+03  0.00000000000E+00 0.  1.
<mgrwt>
<rscale>  0 0.14633740E+04</rscale>
<asrwt>0</asrwt>
<pdfrwt beam="1">  1        2 0.64290079E-01 0.14633740E+04</pdfrwt>
<pdfrwt beam="2">  1       -1 0.19709699E+00 0.14633740E+04</pdfrwt>
<totfact> 0.13219007E+01</totfact>
</mgrwt>
</event>
<event>
12    7  0.1605494E-007  0.2166014E+04  0.7818608E-02  0.8532709E-01
         -1   -1    0    0    0  501 -0.00000000000E+00  0.00000000000E+00  0.54526294174E+03  0.54526294174E+03  0.00000000000E+00 0.  1.
          2   -1    0    0  501    0  0.00000000000E+00 -0.00000000000E+00 -0.21510790327E+04  0.21510790327E+04  0.00000000000E+00 0. -1.
         24    2    1    2    0    0 -0.27954967924E+03  0.12406164700E+03 -0.17124987144E+04  0.17414005072E+04  0.79275244144E+02 0.  0.
        254    2    1    2    0    0  0.27954967924E+03 -0.12406164700E+03  0.10668262344E+03  0.95494146720E+03  0.89832772874E+03 0.  0.
         23    2    4    4    0    0  0.18475706542E+03  0.37794472951E+03  0.42448192366E+02  0.43194547391E+03  0.88304312482E+02 0.  0.
         23    2    4    4    0    0  0.94792613822E+02 -0.50200637651E+03  0.64234431079E+02  0.52299599330E+03  0.91666270635E+02 0.  0.
          4    1    3    3  502    0 -0.20949875465E+03  0.56644727398E+02 -0.10955667900E+04  0.11168549345E+04  0.00000000000E+00 0. -1.
         -3    1    3    3    0  502 -0.70050924594E+02  0.67416919602E+02 -0.61693192439E+03  0.62454557273E+03  0.00000000000E+00 0.  1.
         13    1    5    5    0    0  0.10767339794E+03  0.20615786465E+03 -0.20324090950E+02  0.23346882973E+03  0.00000000000E+00 0. -1.
        -13    1    5    5    0    0  0.77083667476E+02  0.17178686486E+03  0.62772283316E+02  0.19847664418E+03  0.00000000000E+00 0.  1.
          4    1    6    6  503    0  0.16667902109E+02 -0.18452081405E+03 -0.17145911181E+02  0.18606378490E+03  0.00000000000E+00 0. -1.
         -4    1    6    6    0  503  0.78124711712E+02 -0.31748556246E+03  0.81380342260E+02  0.33693220840E+03  0.00000000000E+00 0.  1.
<mgrwt>
<rscale>  0 0.21660136E+04</rscale>
<asrwt>0</asrwt>
<pdfrwt beam="1">  1        2 0.33093523E+00 0.21660136E+04</pdfrwt>
<pdfrwt beam="2">  1       -1 0.83886607E-01 0.21660136E+04</pdfrwt>
<totfact> 0.80845737E+00</totfact>
</mgrwt>
</event>
<event>
12    7  0.1605494E-007  0.3338980E+04  0.7818608E-02  0.8153047E-01
         -1   -1    0    0    0  501 -0.00000000000E+00  0.00000000000E+00  0.84081462850E+03  0.84081462850E+03  0.00000000000E+00 0.  1.
          2   -1    0    0  501    0  0.00000000000E+00 -0.00000000000E+00 -0.33148776968E+04  0.33148776968E+04  0.00000000000E+00 0. -1.
         24    2    1    2    0    0  0.40003036861E+03 -0.54175430750E+03 -0.28857246140E+04  0.29643568711E+04  0.80517612262E+02 0.  0.
        254    2    1    2    0    0 -0.40003036861E+03  0.54175430750E+03  0.41166154566E+03  0.11913354542E+04  0.89235245886E+03 0.  0.
         23    2    4    4    0    0 -0.41025666988E+03  0.41970345962E+03  0.66737243973E+03  0.89350800589E+03  0.92244534160E+02 0.  0.
         23    2    4    4    0    0  0.10226301269E+02  0.12205084787E+03 -0.25571089407E+03  0.29782744834E+03  0.91170943490E+02 0.  0.
          2    1    3    3  502    0  0.26504821604E+03 -0.40482760711E+03 -0.19563941228E+04  0.20153446137E+04  0.00000000000E+00 0. -1.
         -1    1    3    3    0  502  0.13498215258E+03 -0.13692670039E+03 -0.92933049116E+03  0.94901225735E+03  0.00000000000E+00 0.  1.
         13    1    5    5    0    0 -0.14608982952E+03  0.20294833776E+03  0.24326621775E+03  0.34886776690E+03  0.00000000000E+00 0. -1.
        -13    1    5    5    0    0 -0.26416684037E+03  0.21675512187E+03  0.42410622198E+03  0.54464023899E+03  0.00000000000E+00 0.  1.
          3    1    6    6  503    0 -0.40316545821E+02  0.64548022374E+02 -0.12484350019E+03  0.14621139012E+03  0.00000000000E+00 0. -1.
         -3    1    6    6    0  503  0.50542847090E+02  0.57502825500E+02 -0.13086739387E+03  0.15161605823E+03  0.00000000000E+00 0.  1.
<mgrwt>
<rscale>  0 0.33389805E+04</rscale>
<asrwt>0</asrwt>
<pdfrwt beam="1">  1        2 0.50998119E+00 0.33389805E+04</pdfrwt>
<pdfrwt beam="2">  1       -1 0.12935610E+00 0.33389805E+04</pdfrwt>
<totfact> 0.52788315E-01</totfact>
</mgrwt>
</event>
<event>
12    7  0.1605494E-007  0.1200872E+04  0.7818608E-02  0.9112094E-01
          2   -1    0    0  501    0  0.00000000000E+00  0.00000000000E+00  0.22160783896E+03  0.22160783896E+03  0.00000000000E+00 0. -1.
         -1   -1    0    0    0  501 -0.00000000000E+00 -0.00000000000E+00 -0.16268529889E+04  0.16268529889E+04  0.00000000000E+00 0.  1.
         24    2    1    2    0    0  0.25288112947E+03  0.22974979529E+02 -0.31101262119E+03  0.40933351374E+03  0.79676593814E+02 0.  0.
        254    2    1    2    0    0 -0.25288112947E+03 -0.22974979529E+02 -0.10942325288E+04  0.14391273141E+04  0.89959206530E+03 0.  0.
         23    2    4    4    0    0 -0.55494031831E+02  0.35395513941E+02  0.14315669441E+03  0.18135438687E+03  0.89795013804E+02 0.  0.
         23    2    4    4    0    0 -0.19738709764E+03 -0.58370493470E+02 -0.12373892232E+04  0.12577729273E+04  0.92151321786E+02 0.  0.
          2    1    3    3  502    0  0.17768863013E+03  0.38553792220E+02 -0.25952674463E+03  0.31688132692E+03  0.00000000000E+00 0. -1.
         -1    1    3    3    0  502  0.75192499345E+02 -0.15578812691E+02 -0.51485876561E+02  0.92452186820E+02  0.00000000000E+00 0.  1.
         13    1    5    5    0    0 -0.10158449253E+02  0.11385787981E+02  0.12650025978E+03  0.12741721227E+03  0.00000000000E+00 0.  1.
        -13    1    5    5    0    0 -0.45335582578E+02  0.24009725960E+02  0.16656434635E+02  0.53937174593E+02  0.00000000000E+00 0. -1.
          4    1    6    6  503    0 -0.16210140949E+03 -0.67161772661E+02 -0.80725233704E+03  0.82610163195E+03  0.00000000000E+00 0.  1.
         -4    1    6    6    0  503 -0.35285688148E+02  0.87912791915E+01 -0.43013688614E+03  0.43167129531E+03  0.00000000000E+00 0. -1.
<mgrwt>
<rscale>  0 0.12008720E+04</rscale>
<asrwt>0</asrwt>
<pdfrwt beam="1">  1        2 0.34093516E-01 0.12008720E+04</pdfrwt>
<pdfrwt beam="2">  1       -1 0.25028506E+00 0.12008720E+04</pdfrwt>
<totfact> 0.12137928E+01</totfact>
</mgrwt>
</event>
<event>
12    7  0.1605494E-007  0.3117256E+04  0.7818608E-02  0.8211018E-01
         -1   -1    0    0    0  501 -0.00000000000E+00  0.00000000000E+00  0.78420206493E+03  0.78420206493E+03  0.00000000000E+00 0.  1.
          2   -1    0    0  501    0  0.00000000000E+00 -0.00000000000E+00 -0.30978259612E+04  0.30978259612E+04  0.00000000000E+00 0. -1.
         24    2    1    2    0    0  0.37452387092E+03 -0.75339354293E+02  0.65136024229E+03  0.75930216324E+03  0.79532771122E+02 0.  0.
        254    2    1    2    0    0 -0.37452387092E+03  0.75339354293E+02 -0.29649841385E+04  0.31227258629E+04  0.90240884563E+03 0.  0.
         23    2    4    4    0    0 -0.43584970255E+03 -0.33186989314E+03 -0.17947196650E+04  0.18786960409E+04  0.91528950435E+02 0.  0.
         23    2    4    4    0    0  0.61325831631E+02  0.40720924744E+03 -0.11702644735E+04  0.12440298220E+04  0.92255250464E+02 0.  0.
          2    1    3    3  502    0  0.10609094576E+03  0.14652875802E+02  0.18010902021E+03  0.20954535237E+03  0.00000000000E+00 0. -1.
         -1    1    3    3    0  502  0.26843292516E+03 -0.89992230096E+02  0.47125122208E+03  0.54975681087E+03  0.00000000000E+00 0.  1.
         13    1    5    5    0    0 -0.35860288288E+03 -0.23885011715E+03 -0.14838623820E+04  0.15451514407E+04  0.00000000000E+00 0. -1.
        -13    1    5    5    0    0 -0.77246819676E+02 -0.93019775990E+02 -0.31085728307E+03  0.33354460018E+03  0.00000000000E+00 0.  1.
          1    1    6    6  503    0  0.63498301390E+02  0.28733099682E+03 -0.93112682328E+03  0.97651845709E+03  0.00000000000E+00 0. -1.
         -1    1    6    6    0  503 -0.21724697583E+01  0.11987825061E+03 -0.23913765023E+03  0.26751136490E+03  0.00000000000E+00 0.  1.
<mgrwt>
<rscale>  0 0.31172562E+04</rscale>
<asrwt>0</asrwt>
<pdfrwt beam="1">  1        2 0.47658861E+00 0.31172562E+04</pdfrwt>
<pdfrwt beam="2">  1       -1 0.12064647E+00 0.31172562E+04</pdfrwt>
<totfact> 0.88760518E-01</totfact>
</mgrwt>
</event>
<event>
12    7  0.1605494E-007  0.1599883E+04  0.7818608E-02  0.8820620E-01
         -1   -1    0    0    0  501 -0.00000000000E+00  0.00000000000E+00  0.80940401501E+03  0.80940401501E+03  0.00000000000E+00 0.  1.
          2   -1    0    0  501    0  0.00000000000E+00 -0.00000000000E+00 -0.79058916856E+03  0.79058916856E+03  0.00000000000E+00 0. -1.
         24    2    1    2    0    0  0.11207617736E+03  0.50338263680E+03 -0.16918783744E+03  0.54864726760E+03  0.80213161897E+02 0.  0.
        254    2    1    2    0    0 -0.11207617736E+03 -0.50338263680E+03  0.18800268389E+03  0.10513459160E+04  0.89667612734E+03 0.  0.
         23    2    4    4    0    0  0.29849759352E+03 -0.10323531155E+03  0.31525111255E+03  0.45710012016E+03  0.98989459045E+02 0.  0.
         23    2    4    4    0    0 -0.41057377088E+03 -0.40014732525E+03 -0.12724842865E+03  0.59424579582E+03  0.90814095933E+02 0.  0.
          4    1    3    3  502    0  0.89246008241E+02  0.43131905039E+03 -0.17238076998E+03  0.47298636669E+03  0.00000000000E+00 0. -1.
         -3    1    3    3    0  502  0.22830169118E+02  0.72063586410E+02  0.31929325336E+01  0.75660900909E+02  0.00000000000E+00 0.  1.
         13    1    5    5    0    0  0.32578175297E+02 -0.48200993093E+02  0.71640490205E+02  0.92287773176E+02  0.00000000000E+00 0. -1.
        -13    1    5    5    0    0  0.26591941822E+03 -0.55034318454E+02  0.24361062234E+03  0.36481234698E+03  0.00000000000E+00 0.  1.
          3    1    6    6  503    0 -0.74891539782E+02 -0.91712218494E+02  0.81794163871E+01  0.11868772727E+03  0.00000000000E+00 0. -1.
         -3    1    6    6    0  503 -0.33568223109E+03 -0.30843510676E+03 -0.13542784504E+03  0.47555806855E+03  0.00000000000E+00 0.  1.
<mgrwt>
<rscale>  0 0.15998826E+04</rscale>
<asrwt>0</asrwt>
<pdfrwt beam="1">  1        2 0.12162910E+00 0.15998826E+04</pdfrwt>
<pdfrwt beam="2">  1       -1 0.12452370E+00 0.15998826E+04</pdfrwt>
<totfact> 0.21649649E+01</totfact>
</mgrwt>
</event>
<event>
12    7  0.1605494E-007  0.1405943E+04  0.7818608E-02  0.8949528E-01
         -1   -1    0    0    0  501 -0.00000000000E+00  0.00000000000E+00  0.38101542347E+03  0.38101542347E+03  0.00000000000E+00 0.  1.
          2   -1    0    0  501    0  0.00000000000E+00 -0.00000000000E+00 -0.12969781069E+04  0.12969781069E+04  0.00000000000E+00 0. -1.
         24    2    1    2    0    0 -0.14281525643E+03  0.33752408033E+02  0.18620922215E+03  0.24856011603E+03  0.74651418951E+02 0.  0.
        254    2    1    2    0    0  0.14281525643E+03 -0.33752408033E+02 -0.11021719056E+04  0.14294334144E+04  0.89831038848E+03 0.  0.
         23    2    4    4    0    0 -0.32218266263E+03  0.15389060345E+03 -0.64485166422E+03  0.74324469174E+03  0.95367798678E+02 0.  0.
         23    2    4    4    0    0  0.46499791906E+03 -0.18764301148E+03 -0.45732024139E+03  0.68618872262E+03  0.10139129832E+03 0.  0.
          2    1    3    3  502    0 -0.48080633670E+02 -0.15815463160E+02  0.28686864236E+02  0.58179140495E+02  0.00000000000E+00 0. -1.
         -1    1    3    3    0  502 -0.94734622762E+02  0.49567871193E+02  0.15752235791E+03  0.19038097554E+03  0.00000000000E+00 0.  1.
         13    1    5    5    0    0 -0.53389845480E+02 -0.82678853019E+01 -0.12139766197E+03  0.13287673182E+03  0.00000000000E+00 0. -1.
        -13    1    5    5    0    0 -0.26879281715E+03  0.16215848875E+03 -0.52345400226E+03  0.61036795993E+03  0.00000000000E+00 0.  1.
          3    1    6    6  503    0  0.32502041971E+02 -0.65663220165E+01 -0.72117397431E+02  0.79375174515E+02  0.00000000000E+00 0. -1.
         -3    1    6    6    0  503  0.43249587709E+03 -0.18107668946E+03 -0.38520284395E+03  0.60681354810E+03  0.00000000000E+00 0.  1.
<mgrwt>
<rscale>  0 0.14059426E+04</rscale>
<asrwt>0</asrwt>
<pdfrwt beam="1">  1        2 0.19953509E+00 0.14059426E+04</pdfrwt>
<pdfrwt beam="2">  1       -1 0.58617758E-01 0.14059426E+04</pdfrwt>
<totfact> 0.54290329E+01</totfact>
</mgrwt>
</event>
<event>
12    7  0.1605494E-007  0.1529673E+04  0.7818608E-02  0.8864957E-01
          2   -1    0    0  501    0  0.00000000000E+00  0.00000000000E+00  0.69473304700E+03  0.69473304700E+03  0.00000000000E+00 0. -1.
         -1   -1    0    0    0  501 -0.00000000000E+00 -0.00000000000E+00 -0.84201398727E+03  0.84201398727E+03  0.00000000000E+00 0.  1.
         24    2    1    2    0    0 -0.18223084083E+02  0.47123992978E+03  0.10682286459E+03  0.49003451937E+03  0.79520774408E+02 0.  0.
        254    2    1    2    0    0  0.18223084083E+02 -0.47123992978E+03 -0.25410380486E+03  0.10467125149E+04  0.89924367832E+03 0.  0.
         23    2    4    4    0    0 -0.29344971285E+03  0.12446975470E+03 -0.36385473433E+02  0.33406678476E+03  0.93119601571E+02 0.  0.
         23    2    4    4    0    0  0.31167279693E+03 -0.59570968448E+03 -0.21771833142E+03  0.71264573014E+03  0.91938589965E+02 0.  0.
          2    1    3    3  502    0  0.22968903569E+02  0.55890195064E+02  0.20546633733E+02  0.63823573961E+02  0.00000000000E+00 0. -1.
         -1    1    3    3    0  502 -0.41191987652E+02  0.41534973471E+03  0.86276230859E+02  0.42621094541E+03  0.00000000000E+00 0.  1.
         13    1    5    5    0    0 -0.28112217024E+03  0.97802815633E+02 -0.15559828040E+02  0.29805565520E+03  0.00000000000E+00 0. -1.
        -13    1    5    5    0    0 -0.12327542601E+02  0.26666939069E+02 -0.20825645393E+02  0.36011129557E+02  0.00000000000E+00 0.  1.
          3    1    6    6  503    0  0.31205808381E+03 -0.58052467920E+03 -0.22414280237E+03  0.69615310578E+03  0.00000000000E+00 0. -1.
         -3    1    6    6    0  503 -0.38528688399E+00 -0.15185005284E+02  0.64244709502E+01  0.16492624365E+02  0.00000000000E+00 0.  1.
<mgrwt>
<rscale>  0 0.15296731E+04</rscale>
<asrwt>0</asrwt>
<pdfrwt beam="1">  1        2 0.10688201E+00 0.15296731E+04</pdfrwt>
<pdfrwt beam="2">  1       -1 0.12954061E+00 0.15296731E+04</pdfrwt>
<totfact> 0.23313065E+01</totfact>
</mgrwt>
</event>
<event>
12    7  0.1605494E-007  0.1847023E+04  0.7818608E-02  0.8681685E-01
          2   -1    0    0  501    0  0.00000000000E+00  0.00000000000E+00  0.11644170076E+04  0.11644170076E+04  0.00000000000E+00 0. -1.
         -1   -1    0    0    0  501 -0.00000000000E+00 -0.00000000000E+00 -0.73244672420E+03  0.73244672420E+03  0.00000000000E+00 0.  1.
         24    2    1    2    0    0  0.16796236055E+03  0.39817994739E+03 -0.40155735683E+03  0.59529387303E+03  0.79798868260E+02 0.  0.
        254    2    1    2    0    0 -0.16796236055E+03 -0.39817994739E+03  0.83352764026E+03  0.13015698588E+04  0.90141951675E+03 0.  0.
         23    2    4    4    0    0 -0.49027353715E+03 -0.54884307338E+02  0.30240875032E+03  0.58583989703E+03  0.91525429559E+02 0.  0.
         23    2    4    4    0    0  0.32231117660E+03 -0.34329564005E+03  0.53111888995E+03  0.71572996177E+03  0.91900554295E+02 0.  0.
          2    1    3    3  502    0  0.84212493312E+02  0.16013255389E+03 -0.11950421805E+03  0.21683043370E+03  0.00000000000E+00 0. -1.
         -1    1    3    3    0  502  0.83749867239E+02  0.23804739349E+03 -0.28205313878E+03  0.37846343933E+03  0.00000000000E+00 0.  1.
         13    1    5    5    0    0 -0.40626888831E+03 -0.77742311927E+02  0.26382631077E+03  0.49061451154E+03  0.00000000000E+00 0. -1.
        -13    1    5    5    0    0 -0.84004648841E+02  0.22858004590E+02  0.38582439547E+02  0.95225385492E+02  0.00000000000E+00 0.  1.
          2    1    6    6  503    0  0.24612518120E+03 -0.20573580994E+03  0.38435411873E+03  0.50063251682E+03  0.00000000000E+00 0. -1.
         -2    1    6    6    0  503  0.76185995404E+02 -0.13755983011E+03  0.14676477122E+03  0.21509744495E+03  0.00000000000E+00 0.  1.
<mgrwt>
<rscale>  0 0.18470229E+04</rscale>
<asrwt>0</asrwt>
<pdfrwt beam="1">  1        2 0.17914108E+00 0.18470229E+04</pdfrwt>
<pdfrwt beam="2">  1       -1 0.11268411E+00 0.18470229E+04</pdfrwt>
<totfact> 0.15381522E+01</totfact>
</mgrwt>
</event>
<event>
12    7  0.1605494E-007  0.1700675E+04  0.7818608E-02  0.8760979E-01
         -1   -1    0    0    0  501 -0.00000000000E+00  0.00000000000E+00  0.21742702219E+03  0.21742702219E+03  0.00000000000E+00 0.  1.
          2   -1    0    0  501    0  0.00000000000E+00 -0.00000000000E+00 -0.33255943815E+04  0.33255943815E+04  0.00000000000E+00 0. -1.
         24    2    1    2    0    0 -0.10510404450E+03 -0.32348403479E+01 -0.19987865837E+04  0.20031360052E+04  0.79678879282E+02 0.  0.
        254    2    1    2    0    0  0.10510404450E+03  0.32348403479E+01 -0.11093807757E+04  0.15398853986E+04  0.10627624433E+04 0.  0.
         23    2    4    4    0    0  0.44921622860E+03  0.19728085123E+03 -0.99925700537E+03  0.11170381496E+04  0.92437603820E+02 0.  0.
         23    2    4    4    0    0 -0.34411218410E+03 -0.19404601088E+03 -0.11012377032E+03  0.42284724895E+03  0.10298301594E+03 0.  0.
          2    1    3    3  502    0 -0.96001042024E+02 -0.12234807261E+02 -0.19579452094E+04  0.19603355156E+04  0.00000000000E+00 0. -1.
         -1    1    3    3    0  502 -0.91030024733E+01  0.89999669128E+01 -0.40841374287E+02  0.42800489625E+02  0.00000000000E+00 0.  1.
         13    1    5    5    0    0  0.32729201407E+03  0.11949392433E+03 -0.78121478418E+03  0.85539195662E+03  0.00000000000E+00 0.  1.
        -13    1    5    5    0    0  0.12192421453E+03  0.77786926893E+02 -0.21804222119E+03  0.26164619299E+03  0.00000000000E+00 0. -1.
          3    1    6    6  503    0 -0.21126925477E+03 -0.73330735209E+02 -0.27743873361E+02  0.22534821332E+03  0.00000000000E+00 0.  1.
         -3    1    6    6    0  503 -0.13284292933E+03 -0.12071527567E+03 -0.82379896960E+02  0.19749903564E+03  0.00000000000E+00 0. -1.
<mgrwt>
<rscale>  0 0.17006753E+04</rscale>
<asrwt>0</asrwt>
<pdfrwt beam="1">  1        2 0.51162990E+00 0.17006753E+04</pdfrwt>
<pdfrwt beam="2">  1       -1 0.33450311E-01 0.17006753E+04</pdfrwt>
<totfact> 0.98387837E+00</totfact>
</mgrwt>
</event>
<event>
12    7  0.1605494E-007  0.2116947E+04  0.7818608E-02  0.8553815E-01
          2   -1    0    0  501    0  0.00000000000E+00  0.00000000000E+00  0.57913487549E+03  0.57913487549E+03  0.00000000000E+00 0. -1.
         -1   -1    0    0    0  501 -0.00000000000E+00 -0.00000000000E+00 -0.19345511339E+04  0.19345511339E+04  0.00000000000E+00 0.  1.
         24    2    1    2    0    0 -0.45131868283E+03 -0.77874661230E+02 -0.14270184297E+04  0.15009196166E+04  0.81394597409E+02 0.  0.
        254    2    1    2    0    0  0.45131868283E+03  0.77874661230E+02  0.71602171328E+02  0.10127663927E+04  0.90045315202E+03 0.  0.
         23    2    4    4    0    0  0.11556050709E+03  0.42730522367E+03  0.21339237000E+03  0.49957651901E+03  0.89980052201E+02 0.  0.
         23    2    4    4    0    0  0.33575817574E+03 -0.34943056244E+03 -0.14179019868E+03  0.51318987373E+03  0.91782980562E+02 0.  0.
          2    1    3    3  502    0 -0.82698991831E+02 -0.44696848807E+02 -0.25039718870E+03  0.26746155547E+03  0.00000000000E+00 0. -1.
         -1    1    3    3    0  502 -0.36861969100E+03 -0.33177812424E+02 -0.11766212410E+04  0.12334580612E+04  0.00000000000E+00 0.  1.
         13    1    5    5    0    0  0.11908628658E+03  0.42009088630E+03  0.22022171881E+03  0.48903527668E+03  0.00000000000E+00 0. -1.
        -13    1    5    5    0    0 -0.35257794904E+01  0.72143373704E+01 -0.68293488047E+01  0.10541242327E+02  0.00000000000E+00 0.  1.
          1    1    6    6  503    0  0.32206391444E+03 -0.34298204628E+03 -0.11811703457E+03  0.48509121091E+03  0.00000000000E+00 0. -1.
         -1    1    6    6    0  503  0.13694261304E+02 -0.64485161573E+01 -0.23673164108E+02  0.28098662818E+02  0.00000000000E+00 0.  1.
<mgrwt>
<rscale>  0 0.21169469E+04</rscale>
<asrwt>0</asrwt>
<pdfrwt beam="1">  1        2 0.89097674E-01 0.21169469E+04</pdfrwt>
<pdfrwt beam="2">  1       -1 0.29762325E+00 0.21169469E+04</pdfrwt>
<totfact> 0.18619293E+00</totfact>
</mgrwt>
</event>
<event>
12    7  0.1605494E-007  0.1329585E+04  0.7818608E-02  0.9006427E-01
         -1   -1    0    0    0  501 -0.00000000000E+00  0.00000000000E+00  0.33626544406E+03  0.33626544406E+03  0.00000000000E+00 0.  1.
          2   -1    0    0  501    0  0.00000000000E+00 -0.00000000000E+00 -0.13142862957E+04  0.13142862957E+04  0.00000000000E+00 0. -1.
         24    2    1    2    0    0  0.23728886067E+03 -0.12388842885E+03 -0.55646756713E+03  0.62032159851E+03  0.59062561039E+02 0.  0.
        254    2    1    2    0    0 -0.23728886067E+03  0.12388842885E+03 -0.42155328453E+03  0.10302301413E+04  0.90111743190E+03 0.  0.
         23    2    4    4    0    0 -0.16860958254E+03  0.32210359443E+03 -0.62206807309E+03  0.72623070503E+03  0.90897923521E+02 0.  0.
         23    2    4    4    0    0 -0.68679278126E+02 -0.19821516558E+03  0.20051478856E+03  0.30399943623E+03  0.90572521709E+02 0.  0.
          4    1    3    3  502    0  0.20221863806E+03 -0.10156405281E+03 -0.51013009983E+03  0.55806841261E+03  0.00000000000E+00 0. -1.
         -3    1    3    3    0  502  0.35070222602E+02 -0.22324376043E+02 -0.46337467295E+02  0.62253185897E+02  0.00000000000E+00 0.  1.
         13    1    5    5    0    0 -0.44977119137E+01  0.91877423023E+02 -0.14829015584E+03  0.17450404177E+03  0.00000000000E+00 0.  1.
        -13    1    5    5    0    0 -0.16411187063E+03  0.23022617140E+03 -0.47377791725E+03  0.55172666326E+03  0.00000000000E+00 0. -1.
          2    1    6    6  503    0 -0.60163521360E+02 -0.19409101833E+03  0.14990390987E+03  0.25251169258E+03  0.00000000000E+00 0. -1.
         -2    1    6    6    0  503 -0.85157567651E+01 -0.41241472517E+01  0.50610878697E+02  0.51487743651E+02  0.00000000000E+00 0.  1.
<mgrwt>
<rscale>  0 0.13295850E+04</rscale>
<asrwt>0</asrwt>
<pdfrwt beam="1">  1        2 0.20219789E+00 0.13295850E+04</pdfrwt>
<pdfrwt beam="2">  1       -1 0.51733145E-01 0.13295850E+04</pdfrwt>
<totfact> 0.67984530E+01</totfact>
</mgrwt>
</event>
<event>
12    7  0.1605494E-007  0.3976250E+04  0.7818608E-02  0.8009355E-01
          2   -1    0    0  501    0  0.00000000000E+00  0.00000000000E+00  0.23378236116E+04  0.23378236116E+04  0.00000000000E+00 0. -1.
         -1   -1    0    0    0  501 -0.00000000000E+00 -0.00000000000E+00 -0.16907356770E+04  0.16907356770E+04  0.00000000000E+00 0.  1.
         24    2    1    2    0    0  0.13301294956E+04  0.52361566506E+03  0.15540093764E+04  0.21129865439E+04  0.79681573137E+02 0.  0.
        254    2    1    2    0    0 -0.13301294956E+04 -0.52361566506E+03 -0.90692144183E+03  0.19155727447E+04  0.89637860241E+03 0.  0.
         23    2    4    4    0    0 -0.39630738194E+02 -0.32427048665E+03 -0.36561565873E+03  0.49884049178E+03  0.91897129466E+02 0.  0.
         23    2    4    4    0    0 -0.12904987574E+04 -0.19934517841E+03 -0.54130578310E+03  0.14167322529E+04  0.94830283524E+02 0.  0.
          2    1    3    3  502    0  0.86253310043E+03  0.32201007170E+03  0.10509458966E+04  0.13971904356E+04  0.00000000000E+00 0. -1.
         -1    1    3    3    0  502  0.46759639515E+03  0.20160559336E+03  0.50306347975E+03  0.71579610832E+03  0.00000000000E+00 0.  1.
         13    1    5    5    0    0  0.10943413605E+02 -0.16616924102E+03 -0.13326533485E+03  0.21328765655E+03  0.00000000000E+00 0. -1.
        -13    1    5    5    0    0 -0.50574151799E+02 -0.15810124563E+03 -0.23235032388E+03  0.28555283523E+03  0.00000000000E+00 0.  1.
          4    1    6    6  503    0 -0.58757773229E+03 -0.87126277355E+02 -0.19540871680E+03  0.62531843591E+03  0.00000000000E+00 0.  1.
         -4    1    6    6    0  503 -0.70292102510E+03 -0.11221890106E+03 -0.34589706630E+03  0.79141381701E+03  0.00000000000E+00 0. -1.
<mgrwt>
<rscale>  0 0.39762504E+04</rscale>
<asrwt>0</asrwt>
<pdfrwt beam="1">  1        2 0.35966517E+00 0.39762504E+04</pdfrwt>
<pdfrwt beam="2">  1       -1 0.26011318E+00 0.39762504E+04</pdfrwt>
<totfact> 0.23225218E-01</totfact>
</mgrwt>
</event>
<event>
12    7  0.1605494E-007  0.1611704E+04  0.7818608E-02  0.8813390E-01
          2   -1    0    0  501    0  0.00000000000E+00  0.00000000000E+00  0.41227391676E+03  0.41227391676E+03  0.00000000000E+00 0. -1.
         -1   -1    0    0    0  501 -0.00000000000E+00 -0.00000000000E+00 -0.15751596612E+04  0.15751596612E+04  0.00000000000E+00 0.  1.
         24    2    1    2    0    0 -0.80798604181E+02  0.36748913608E+03  0.92824872528E+02  0.39548319400E+03  0.78827788271E+02 0.  0.
        254    2    1    2    0    0  0.80798604181E+02 -0.36748913608E+03 -0.12557106169E+04  0.15919503839E+04  0.90328300761E+03 0.  0.
         23    2    4    4    0    0  0.11628155930E+03 -0.59131930535E+03 -0.11948506883E+04  0.13412993277E+04  0.90751293279E+02 0.  0.
         23    2    4    4    0    0 -0.35482955115E+02  0.22383016928E+03 -0.60859928638E+02  0.25065105624E+03  0.88108094388E+02 0.  0.
          4    1    3    3  502    0 -0.71843750674E+02  0.33097339938E+03  0.10718368383E+03  0.35523690361E+03  0.00000000000E+00 0. -1.
         -3    1    3    3    0  502 -0.89548535069E+01  0.36515736695E+02 -0.14358811304E+02  0.40246290385E+02  0.00000000000E+00 0.  1.
         13    1    5    5    0    0  0.10524789139E+03 -0.30780708252E+03 -0.61365866915E+03  0.69454969650E+03  0.00000000000E+00 0.  1.
        -13    1    5    5    0    0  0.11033667907E+02 -0.28351222283E+03 -0.58119201915E+03  0.64674963119E+03  0.00000000000E+00 0. -1.
          2    1    6    6  503    0  0.14096297482E+02  0.15561821951E+03 -0.56690763342E+02  0.16622147422E+03  0.00000000000E+00 0. -1.
         -2    1    6    6    0  503 -0.49579252597E+02  0.68211949771E+02 -0.41691652955E+01  0.84429582013E+02  0.00000000000E+00 0.  1.
<mgrwt>
<rscale>  0 0.16117037E+04</rscale>
<asrwt>0</asrwt>
<pdfrwt beam="1">  1        2 0.63426757E-01 0.16117037E+04</pdfrwt>
<pdfrwt beam="2">  1       -1 0.24233225E+00 0.16117037E+04</pdfrwt>
<totfact> 0.65915743E+00</totfact>
</mgrwt>
</event>
<event>
12    7  0.1605494E-007  0.1377877E+04  0.7818608E-02  0.8969990E-01
          2   -1    0    0  501    0  0.00000000000E+00  0.00000000000E+00  0.16364793893E+04  0.16364793893E+04  0.00000000000E+00 0. -1.
         -1   -1    0    0    0  501 -0.00000000000E+00 -0.00000000000E+00 -0.29003514455E+03  0.29003514455E+03  0.00000000000E+00 0.  1.
         24    2    1    2    0    0 -0.35186863459E+03 -0.40751327950E+02  0.24245131041E+03  0.43652333588E+03  0.79358541525E+02 0.  0.
        254    2    1    2    0    0  0.35186863459E+03  0.40751327950E+02  0.11039929343E+04  0.14899911980E+04  0.93584248900E+03 0.  0.
         23    2    4    4    0    0 -0.20436695347E+03  0.29713390007E+03  0.32269349583E+03  0.49310044682E+03  0.94670756614E+02 0.  0.
         23    2    4    4    0    0  0.55623558806E+03 -0.25638257212E+03  0.78129943849E+03  0.99689075113E+03  0.90732047313E+02 0.  0.
          4    1    3    3  502    0 -0.25739226048E+02  0.47443468563E+01  0.46453387874E+02  0.53319169439E+02  0.00000000000E+00 0. -1.
         -3    1    3    3    0  502 -0.32612940854E+03 -0.45495674807E+02  0.19599792254E+03  0.38320416644E+03  0.00000000000E+00 0.  1.
         13    1    5    5    0    0 -0.12806798246E+03  0.24118230337E+03  0.20162027713E+03  0.33944225980E+03  0.00000000000E+00 0.  1.
        -13    1    5    5    0    0 -0.76298971011E+02  0.55951596707E+02  0.12107321870E+03  0.15365818702E+03  0.00000000000E+00 0. -1.
          2    1    6    6  503    0  0.12552237872E+03 -0.10113058495E+03  0.19456587213E+03  0.25266408801E+03  0.00000000000E+00 0. -1.
         -2    1    6    6    0  503  0.43071320933E+03 -0.15525198717E+03  0.58673356635E+03  0.74422666312E+03  0.00000000000E+00 0.  1.
<mgrwt>
<rscale>  0 0.13778774E+04</rscale>
<asrwt>0</asrwt>
<pdfrwt beam="1">  1        2 0.25176606E+00 0.13778774E+04</pdfrwt>
<pdfrwt beam="2">  1       -1 0.44620792E-01 0.13778774E+04</pdfrwt>
<totfact> 0.58792347E+01</totfact>
</mgrwt>
</event>
<event>
12    7  0.1605494E-007  0.1332312E+04  0.7818608E-02  0.9004327E-01
         -1   -1    0    0    0  501 -0.00000000000E+00  0.00000000000E+00  0.41264277230E+03  0.41264277230E+03  0.00000000000E+00 0.  1.
          2   -1    0    0  501    0  0.00000000000E+00 -0.00000000000E+00 -0.10754191197E+04  0.10754191197E+04  0.00000000000E+00 0. -1.
         24    2    1    2    0    0  0.21952307364E+03 -0.29228980504E+03 -0.12068954027E+03  0.39287995921E+03  0.78517432638E+02 0.  0.
        254    2    1    2    0    0 -0.21952307364E+03  0.29228980504E+03 -0.54208680710E+03  0.10951819328E+04  0.87860209960E+03 0.  0.
         23    2    4    4    0    0  0.11699090254E+02 -0.65647431863E+02  0.20313475966E+03  0.23232724123E+03  0.90916238448E+02 0.  0.
         23    2    4    4    0    0 -0.23122216390E+03  0.35793723690E+03 -0.74522156676E+03  0.86285469153E+03  0.87064806229E+02 0.  0.
          2    1    3    3  502    0 -0.54300527442E+01 -0.11454568402E+02  0.17486129365E+01  0.12796493945E+02  0.00000000000E+00 0. -1.
         -1    1    3    3    0  502  0.22495312639E+03 -0.28083523664E+03 -0.12243815321E+03  0.38008346527E+03  0.00000000000E+00 0.  1.
         13    1    5    5    0    0  0.44754238908E+02 -0.52296067288E+02  0.17099432836E+03  0.18432818799E+03  0.00000000000E+00 0. -1.
        -13    1    5    5    0    0 -0.33055148654E+02 -0.13351364575E+02  0.32140431296E+02  0.47999053246E+02  0.00000000000E+00 0.  1.
          1    1    6    6  503    0 -0.18078228328E+03  0.22434139458E+03 -0.44085775993E+03  0.52665630136E+03  0.00000000000E+00 0. -1.
         -1    1    6    6    0  503 -0.50439880617E+02  0.13359584232E+03 -0.30436380683E+03  0.33619839017E+03  0.00000000000E+00 0.  1.
<mgrwt>
<rscale>  0 0.13323122E+04</rscale>
<asrwt>0</asrwt>
<pdfrwt beam="1">  1        2 0.16544909E+00 0.13323122E+04</pdfrwt>
<pdfrwt beam="2">  1       -1 0.63483504E-01 0.13323122E+04</pdfrwt>
<totfact> 0.63346363E+01</totfact>
</mgrwt>
</event>
<event>
12    7  0.1605494E-007  0.1579261E+04  0.7818608E-02  0.8833391E-01
         -1   -1    0    0    0  501 -0.00000000000E+00  0.00000000000E+00  0.59081198849E+03  0.59081198849E+03  0.00000000000E+00 0.  1.
          2   -1    0    0  501    0  0.00000000000E+00 -0.00000000000E+00 -0.10553554094E+04  0.10553554094E+04  0.00000000000E+00 0. -1.
         24    2    1    2    0    0 -0.15016663360E+03 -0.45208598781E+03  0.96089256064E+02  0.49247733472E+03  0.79806151812E+02 0.  0.
        254    2    1    2    0    0  0.15016663360E+03  0.45208598781E+03 -0.56063267701E+03  0.11536900632E+04  0.88868442385E+03 0.  0.
         23    2    4    4    0    0 -0.28618445886E+03  0.18340987711E+03  0.46097093074E+02  0.35396528149E+03  0.87325546081E+02 0.  0.
         23    2    4    4    0    0  0.43635109246E+03  0.26867611070E+03 -0.60672977008E+03  0.79972478171E+03  0.94072228822E+02 0.  0.
          2    1    3    3  502    0 -0.14084833014E+02 -0.10783575750E+03 -0.46253789214E+01  0.10885002181E+03  0.00000000000E+00 0. -1.
         -1    1    3    3    0  502 -0.13608180059E+03 -0.34425023031E+03  0.10071463499E+03  0.38362731292E+03  0.00000000000E+00 0.  1.
         13    1    5    5    0    0 -0.21306579790E+02  0.49330274523E+02  0.15118302891E+01  0.53756227152E+02  0.00000000000E+00 0.  1.
        -13    1    5    5    0    0 -0.26487787907E+03  0.13407960258E+03  0.44585262785E+02  0.30020905434E+03  0.00000000000E+00 0. -1.
          4    1    6    6  503    0  0.84768721869E+02  0.87483382308E+02 -0.18534338172E+03  0.22179099967E+03  0.00000000000E+00 0. -1.
         -4    1    6    6    0  503  0.35158237059E+03  0.18119272839E+03 -0.42138638835E+03  0.57793378204E+03  0.00000000000E+00 0.  1.
<mgrwt>
<rscale>  0 0.15792614E+04</rscale>
<asrwt>0</asrwt>
<pdfrwt beam="1">  1        2 0.16236237E+00 0.15792614E+04</pdfrwt>
<pdfrwt beam="2">  1       -1 0.90894153E-01 0.15792614E+04</pdfrwt>
<totfact> 0.30080775E+01</totfact>
</mgrwt>
</event>
<event>
12    7  0.1605494E-007  0.2035149E+04  0.7818608E-02  0.8590362E-01
         -1   -1    0    0    0  501 -0.00000000000E+00  0.00000000000E+00  0.85661938132E+03  0.85661938132E+03  0.00000000000E+00 0.  1.
          2   -1    0    0  501    0  0.00000000000E+00 -0.00000000000E+00 -0.12087720470E+04  0.12087720470E+04  0.00000000000E+00 0. -1.
         24    2    1    2    0    0  0.61799119488E+03  0.38535553875E+03 -0.51704773449E+03  0.89657970216E+03  0.78133183663E+02 0.  0.
        254    2    1    2    0    0 -0.61799119488E+03 -0.38535553875E+03  0.16489506879E+03  0.11688117262E+04  0.89917654515E+03 0.  0.
         23    2    4    4    0    0  0.46760476123E+02  0.22491379174E+03  0.18811252397E+01  0.24721875433E+03  0.91328079013E+02 0.  0.
         23    2    4    4    0    0 -0.66475167101E+03 -0.61026933049E+03  0.16301394355E+03  0.92159297185E+03  0.91851075889E+02 0.  0.
          4    1    3    3  502    0  0.52314004647E+03  0.35112064868E+03 -0.42452893487E+03  0.75972760559E+03  0.00000000000E+00 0. -1.
         -3    1    3    3    0  502  0.94851148412E+02  0.34234890066E+02 -0.92518799622E+02  0.13685209657E+03  0.00000000000E+00 0.  1.
         13    1    5    5    0    0  0.26447000270E+02  0.12218669552E+03  0.46511987707E+02  0.13338814560E+03  0.00000000000E+00 0. -1.
        -13    1    5    5    0    0  0.20313475853E+02  0.10272709622E+03 -0.44630862467E+02  0.11383060873E+03  0.00000000000E+00 0.  1.
          3    1    6    6  503    0 -0.14328578778E+03 -0.18602391896E+03  0.40491444754E+02  0.23827562297E+03  0.00000000000E+00 0. -1.
         -3    1    6    6    0  503 -0.52146588323E+03 -0.42424541152E+03  0.12252249880E+03  0.68331734888E+03  0.00000000000E+00 0.  1.
<mgrwt>
<rscale>  0 0.20351487E+04</rscale>
<asrwt>0</asrwt>
<pdfrwt beam="1">  1        2 0.18596493E+00 0.20351487E+04</pdfrwt>
<pdfrwt beam="2">  1       -1 0.13178760E+00 0.20351487E+04</pdfrwt>
<totfact> 0.96835118E+00</totfact>
</mgrwt>
</event>
<event>
12    7  0.1605494E-007  0.1411111E+04  0.7818608E-02  0.8945815E-01
         -1   -1    0    0    0  501 -0.00000000000E+00  0.00000000000E+00  0.38484970149E+03  0.38484970149E+03  0.00000000000E+00 0.  1.
          2   -1    0    0  501    0  0.00000000000E+00 -0.00000000000E+00 -0.12935141337E+04  0.12935141337E+04  0.00000000000E+00 0. -1.
         24    2    1    2    0    0 -0.37504169493E+03  0.50538062414E+02 -0.32537856447E+03  0.50539742447E+03  0.79655368632E+02 0.  0.
        254    2    1    2    0    0  0.37504169493E+03 -0.50538062414E+02 -0.58328586773E+03  0.11729664107E+04  0.94467847890E+03 0.  0.
         23    2    4    4    0    0 -0.21113677034E+03 -0.27744515187E+02 -0.52785231711E+03  0.57651533286E+03  0.91615317675E+02 0.  0.
         23    2    4    4    0    0  0.58617846527E+03 -0.22793547227E+02 -0.55433550613E+02  0.59645107786E+03  0.92500112465E+02 0.  0.
          2    1    3    3  502    0 -0.53924842653E+02  0.11022349389E+02 -0.89243263898E+02  0.10485104192E+03  0.00000000000E+00 0. -1.
         -1    1    3    3    0  502 -0.32111685228E+03  0.39515713025E+02 -0.23613530058E+03  0.40054638254E+03  0.00000000000E+00 0.  1.
         13    1    5    5    0    0 -0.88605873313E+01 -0.27406852955E+01  0.13949559789E+01  0.93790866254E+01  0.00000000000E+00 0. -1.
        -13    1    5    5    0    0 -0.20227618301E+03 -0.25003829891E+02 -0.52924727309E+03  0.56713624624E+03  0.00000000000E+00 0.  1.
          1    1    6    6  503    0  0.20783591257E+03 -0.61884979691E+01  0.24604942961E+02  0.20937876511E+03  0.00000000000E+00 0. -1.
         -1    1    6    6    0  503  0.37834255270E+03 -0.16605049258E+02 -0.80038493574E+02  0.38707231275E+03  0.00000000000E+00 0.  1.
<mgrwt>
<rscale>  0 0.14111109E+04</rscale>
<asrwt>0</asrwt>
<pdfrwt beam="1">  1        2 0.19900217E+00 0.14111109E+04</pdfrwt>
<pdfrwt beam="2">  1       -1 0.59207646E-01 0.14111109E+04</pdfrwt>
<totfact> 0.53457314E+01</totfact>
</mgrwt>
</event>
<event>
12    7  0.1605494E-007  0.1074525E+04  0.7818608E-02  0.9230383E-01
         -1   -1    0    0    0  501 -0.00000000000E+00  0.00000000000E+00  0.16856692199E+03  0.16856692199E+03  0.00000000000E+00 0.  1.
          2   -1    0    0  501    0  0.00000000000E+00 -0.00000000000E+00 -0.17123829010E+04  0.17123829010E+04  0.00000000000E+00 0. -1.
         24    2    1    2    0    0 -0.13912585294E+03  0.44569881007E+02 -0.30723548605E+03  0.34945943250E+03  0.79911036949E+02 0.  0.
        254    2    1    2    0    0  0.13912585294E+03 -0.44569881007E+02 -0.12365804930E+04  0.15314903905E+04  0.89162156956E+03 0.  0.
         23    2    4    4    0    0 -0.12687468896E+03  0.16044657713E+03 -0.11508388003E+04  0.11723270354E+04  0.89891283360E+02 0.  0.
         23    2    4    4    0    0  0.26600054191E+03 -0.20501645813E+03 -0.85741692694E+02  0.35916335512E+03  0.94120355886E+02 0.  0.
          2    1    3    3  502    0 -0.10610306358E+03  0.46676528935E+02 -0.28965745032E+03  0.31199037963E+03  0.00000000000E+00 0. -1.
         -1    1    3    3    0  502 -0.33022789366E+02 -0.21066479279E+01 -0.17578035723E+02  0.37469052869E+02  0.00000000000E+00 0.  1.
         13    1    5    5    0    0 -0.14453049759E+02 -0.11169344824E+02 -0.95891895431E+02  0.97616087407E+02  0.00000000000E+00 0.  1.
        -13    1    5    5    0    0 -0.11242163921E+03  0.17161592195E+03 -0.10549469048E+04  0.10747109480E+04  0.00000000000E+00 0. -1.
          1    1    6    6  503    0  0.98117751657E+02 -0.13485288965E+03 -0.44147885610E+02  0.17251501627E+03  0.00000000000E+00 0. -1.
         -1    1    6    6    0  503  0.16788279025E+03 -0.70163568489E+02 -0.41593807084E+02  0.18664833885E+03  0.00000000000E+00 0.  1.
<mgrwt>
<rscale>  0 0.10745252E+04</rscale>
<asrwt>0</asrwt>
<pdfrwt beam="1">  1        2 0.26344352E+00 0.10745252E+04</pdfrwt>
<pdfrwt beam="2">  1       -1 0.25933373E-01 0.10745252E+04</pdfrwt>
<totfact> 0.14381231E+02</totfact>
</mgrwt>
</event>
<event>
12    7  0.1605494E-007  0.2147118E+04  0.7818608E-02  0.8540767E-01
          2   -1    0    0  501    0  0.00000000000E+00  0.00000000000E+00  0.18090553350E+04  0.18090553350E+04  0.00000000000E+00 0. -1.
         -1   -1    0    0    0  501 -0.00000000000E+00 -0.00000000000E+00 -0.63708860519E+03  0.63708860519E+03  0.00000000000E+00 0.  1.
         24    2    1    2    0    0 -0.60521578656E+03 -0.60357757974E+03  0.25650559410E+03  0.89592304563E+03  0.79315451321E+02 0.  0.
        254    2    1    2    0    0  0.60521578656E+03  0.60357757974E+03  0.91546113574E+03  0.15502208946E+04  0.91352268058E+03 0.  0.
         23    2    4    4    0    0  0.66034186420E+03  0.58946665977E+02  0.33955575918E+03  0.75053283511E+03  0.92061587702E+02 0.  0.
         23    2    4    4    0    0 -0.55126077646E+02  0.54463091376E+03  0.57590537655E+03  0.79968805949E+03  0.90400625447E+02 0.  0.
          4    1    3    3  502    0 -0.53021324531E+02 -0.81732636147E+02  0.44692450225E+02  0.10718628538E+03  0.00000000000E+00 0. -1.
         -3    1    3    3    0  502 -0.55219446203E+03 -0.52184494359E+03  0.21181314388E+03  0.78873676025E+03  0.00000000000E+00 0.  1.
         13    1    5    5    0    0  0.57338851414E+03  0.19982959364E+02  0.28311801842E+03  0.63978865195E+03  0.00000000000E+00 0. -1.
        -13    1    5    5    0    0  0.86953350068E+02  0.38963706613E+02  0.56437740769E+02  0.11074418316E+03  0.00000000000E+00 0.  1.
          3    1    6    6  503    0 -0.14357551451E+02  0.45724011146E+03  0.49258383545E+03  0.67224511434E+03  0.00000000000E+00 0. -1.
         -3    1    6    6    0  503 -0.40768526195E+02  0.87390802305E+02  0.83321541102E+02  0.12744294514E+03  0.00000000000E+00 0.  1.
<mgrwt>
<rscale>  0 0.21471176E+04</rscale>
<asrwt>0</asrwt>
<pdfrwt beam="1">  1        2 0.27831620E+00 0.21471176E+04</pdfrwt>
<pdfrwt beam="2">  1       -1 0.98013632E-01 0.21471176E+04</pdfrwt>
<totfact> 0.88950952E+00</totfact>
</mgrwt>
</event>
<event>
12    7  0.1605494E-007  0.2162029E+04  0.7818608E-02  0.8534401E-01
          2   -1    0    0  501    0  0.00000000000E+00  0.00000000000E+00  0.11542728934E+04  0.11542728934E+04  0.00000000000E+00 0. -1.
         -1   -1    0    0    0  501 -0.00000000000E+00 -0.00000000000E+00 -0.10124056615E+04  0.10124056615E+04  0.00000000000E+00 0.  1.
         24    2    1    2    0    0  0.60508942928E+03  0.16363979851E+03  0.69367153433E+03  0.93809992982E+03  0.77071912536E+02 0.  0.
        254    2    1    2    0    0 -0.60508942928E+03 -0.16363979851E+03 -0.55180430248E+03  0.12285786250E+04  0.90111389325E+03 0.  0.
         23    2    4    4    0    0 -0.38598046228E+03  0.26355751546E+03  0.19631882093E+02  0.47654167663E+03  0.90901471721E+02 0.  0.
         23    2    4    4    0    0 -0.21910896700E+03 -0.42719731396E+03 -0.57143618457E+03  0.75203694841E+03  0.92271199540E+02 0.  0.
          4    1    3    3  502    0  0.26650855395E+03  0.66559364489E+02  0.24831464059E+03  0.37029328790E+03  0.00000000000E+00 0. -1.
         -3    1    3    3    0  502  0.33858087533E+03  0.97080434017E+02  0.44535689374E+03  0.56780664192E+03  0.00000000000E+00 0.  1.
         13    1    5    5    0    0 -0.36027271645E+03  0.23958150068E+03 -0.65484755211E+01  0.43271076739E+03  0.00000000000E+00 0.  1.
        -13    1    5    5    0    0 -0.25707745828E+02  0.23976014780E+02  0.26180357614E+02  0.43830909244E+02  0.00000000000E+00 0. -1.
          4    1    6    6  503    0 -0.53674679644E+02 -0.89796307792E+02 -0.71896924404E+02  0.12693902421E+03  0.00000000000E+00 0. -1.
         -4    1    6    6    0  503 -0.16543428736E+03 -0.33740100617E+03 -0.49953926017E+03  0.62509792421E+03  0.00000000000E+00 0.  1.
<mgrwt>
<rscale>  0 0.21620291E+04</rscale>
<asrwt>0</asrwt>
<pdfrwt beam="1">  1        2 0.17758044E+00 0.21620291E+04</pdfrwt>
<pdfrwt beam="2">  1       -1 0.15575472E+00 0.21620291E+04</pdfrwt>
<totfact> 0.66436649E+00</totfact>
</mgrwt>
</event>
<event>
12    7  0.1605494E-007  0.1412260E+04  0.7818608E-02  0.8944992E-01
         -1   -1    0    0    0  501 -0.00000000000E+00  0.00000000000E+00  0.34655755516E+03  0.34655755516E+03  0.00000000000E+00 0.  1.
          2   -1    0    0  501    0  0.00000000000E+00 -0.00000000000E+00 -0.14387785903E+04  0.14387785903E+04  0.00000000000E+00 0. -1.
         24    2    1    2    0    0  0.10430723004E+03 -0.39283675419E+03 -0.24455460076E+03  0.48294145139E+03  0.90690567533E+02 0.  0.
        254    2    1    2    0    0 -0.10430723004E+03  0.39283675419E+03 -0.84766643439E+03  0.13023946941E+04  0.90138384803E+03 0.  0.
         23    2    4    4    0    0  0.32516466831E+03  0.34745418254E+02 -0.58870804719E+03  0.67960680400E+03  0.91372521082E+02 0.  0.
         23    2    4    4    0    0 -0.42947189835E+03  0.35809133594E+03 -0.25895838720E+03  0.62278789008E+03  0.90165366872E+02 0.  0.
          4    1    3    3  502    0  0.12489181007E+01  0.48308769364E+01 -0.63326958126E+01  0.80622704403E+01  0.00000000000E+00 0. -1.
         -3    1    3    3    0  502  0.10305831194E+03 -0.39766763113E+03 -0.23822190495E+03  0.47487918095E+03  0.00000000000E+00 0.  1.
         13    1    5    5    0    0  0.58814600165E+02  0.40707292802E+02 -0.15314796042E+03  0.16902821854E+03  0.00000000000E+00 0.  1.
        -13    1    5    5    0    0  0.26635006814E+03 -0.59618745475E+01 -0.43556008677E+03  0.51057858546E+03  0.00000000000E+00 0. -1.
          2    1    6    6  503    0 -0.38243408379E+03  0.35045846384E+03 -0.23851919322E+03  0.57093639651E+03  0.00000000000E+00 0. -1.
         -2    1    6    6    0  503 -0.47037814559E+02  0.76328720928E+01 -0.20439193981E+02  0.51851493571E+02  0.00000000000E+00 0.  1.
<mgrwt>
<rscale>  0 0.14122600E+04</rscale>
<asrwt>0</asrwt>
<pdfrwt beam="1">  1        2 0.22135056E+00 0.14122600E+04</pdfrwt>
<pdfrwt beam="2">  1       -1 0.53316546E-01 0.14122600E+04</pdfrwt>
<totfact> 0.54068509E+01</totfact>
</mgrwt>
</event>
<event>
12    7  0.1605494E-007  0.2173960E+04  0.7818608E-02  0.8529345E-01
          2   -1    0    0  501    0  0.00000000000E+00  0.00000000000E+00  0.10786191735E+04  0.10786191735E+04  0.00000000000E+00 0. -1.
         -1   -1    0    0    0  501 -0.00000000000E+00 -0.00000000000E+00 -0.10954058480E+04  0.10954058480E+04  0.00000000000E+00 0.  1.
         24    2    1    2    0    0 -0.30669636681E+03 -0.78152319387E+03 -0.32740817538E+03  0.90451882019E+03  0.78211372511E+02 0.  0.
        254    2    1    2    0    0  0.30669636681E+03  0.78152319387E+03  0.31062150086E+03  0.12695062013E+04  0.90017726833E+03 0.  0.
         23    2    4    4    0    0  0.24940586707E+03  0.81939987847E+03 -0.75177867072E+02  0.86469145748E+03  0.91761416629E+02 0.  0.
         23    2    4    4    0    0  0.57290499736E+02 -0.37876684599E+02  0.38579936793E+03  0.40481474383E+03  0.10157253533E+03 0.  0.
          4    1    3    3  502    0 -0.27288139982E+03 -0.62658970731E+03 -0.24681471521E+03  0.72663362385E+03  0.00000000000E+00 0. -1.
         -3    1    3    3    0  502 -0.33814966989E+02 -0.15493348656E+03 -0.80593460171E+02  0.17788519633E+03  0.00000000000E+00 0.  1.
         13    1    5    5    0    0  0.19727941176E+02  0.65264449974E+02 -0.31613649804E+02  0.75153595705E+02  0.00000000000E+00 0. -1.
        -13    1    5    5    0    0  0.22967792590E+03  0.75413542850E+03 -0.43564217269E+02  0.78953786178E+03  0.00000000000E+00 0.  1.
          3    1    6    6  503    0 -0.18374375046E+02 -0.39872600117E+02  0.18723011220E+03  0.19230849386E+03  0.00000000000E+00 0. -1.
         -3    1    6    6    0  503  0.75664874783E+02  0.19959155181E+01  0.19856925573E+03  0.21250624997E+03  0.00000000000E+00 0.  1.
<mgrwt>
<rscale>  0 0.21739602E+04</rscale>
<asrwt>0</asrwt>
<pdfrwt beam="1">  1        2 0.16594141E+00 0.21739602E+04</pdfrwt>
<pdfrwt beam="2">  1       -1 0.16852398E+00 0.21739602E+04</pdfrwt>
<totfact> 0.59198011E+00</totfact>
</mgrwt>
</event>
<event>
12    7  0.1605494E-007  0.1495837E+04  0.7818608E-02  0.8887226E-01
         -1   -1    0    0    0  501 -0.00000000000E+00  0.00000000000E+00  0.43652294582E+03  0.43652294582E+03  0.00000000000E+00 0.  1.
          2   -1    0    0  501    0  0.00000000000E+00 -0.00000000000E+00 -0.12814493384E+04  0.12814493384E+04  0.00000000000E+00 0. -1.
         24    2    1    2    0    0  0.43551494293E+03 -0.11286264688E+03 -0.53047494082E+02  0.45988215681E+03  0.79160084289E+02 0.  0.
        254    2    1    2    0    0 -0.43551494293E+03  0.11286264688E+03 -0.79187889846E+03  0.12580901274E+04  0.86793279474E+03 0.  0.
         23    2    4    4    0    0  0.14457739135E+03 -0.23190705024E+03 -0.31634705320E+03  0.42765971526E+03  0.90187981175E+02 0.  0.
         23    2    4    4    0    0 -0.58009233428E+03  0.34476969711E+03 -0.47553184526E+03  0.83043041211E+03  0.90060386221E+02 0.  0.
          2    1    3    3  502    0  0.29838980254E+03 -0.95164250346E+02 -0.68982435154E+02  0.32070435788E+03  0.00000000000E+00 0. -1.
         -1    1    3    3    0  502  0.13712514040E+03 -0.17698396533E+02  0.15934941072E+02  0.13917779893E+03  0.00000000000E+00 0.  1.
         13    1    5    5    0    0  0.34076106700E+02 -0.15136774252E+02 -0.80910613318E+02  0.89088890048E+02  0.00000000000E+00 0. -1.
        -13    1    5    5    0    0  0.11050128465E+03 -0.21677027598E+03 -0.23543643988E+03  0.33857082521E+03  0.00000000000E+00 0.  1.
          3    1    6    6  503    0 -0.10754365293E+03  0.10298313711E+03 -0.85212891320E+02  0.17155873823E+03  0.00000000000E+00 0. -1.
         -3    1    6    6    0  503 -0.47254868135E+03  0.24178656000E+03 -0.39031895394E+03  0.65887167388E+03  0.00000000000E+00 0.  1.
<mgrwt>
<rscale>  0 0.14958369E+04</rscale>
<asrwt>0</asrwt>
<pdfrwt beam="1">  1        2 0.19714605E+00 0.14958369E+04</pdfrwt>
<pdfrwt beam="2">  1       -1 0.67157377E-01 0.14958369E+04</pdfrwt>
<totfact> 0.41945034E+01</totfact>
</mgrwt>
</event>
<event>
12    7  0.1605494E-007  0.1609364E+04  0.7818608E-02  0.8814816E-01
         -1   -1    0    0    0  501 -0.00000000000E+00  0.00000000000E+00  0.52243511379E+03  0.52243511379E+03  0.00000000000E+00 0.  1.
          2   -1    0    0  501    0  0.00000000000E+00 -0.00000000000E+00 -0.12394138692E+04  0.12394138692E+04  0.00000000000E+00 0. -1.
         24    2    1    2    0    0  0.15512552148E+03 -0.29527528707E+03 -0.74249721421E+03  0.81810936348E+03  0.82154701185E+02 0.  0.
        254    2    1    2    0    0 -0.15512552148E+03  0.29527528707E+03  0.25518458760E+02  0.94373961956E+03  0.88246351495E+03 0.  0.
         23    2    4    4    0    0  0.15993049733E+03  0.49499902592E+03  0.13149890088E+03  0.54565722208E+03  0.99237308699E+02 0.  0.
         23    2    4    4    0    0 -0.31505601881E+03 -0.19972373884E+03 -0.10598044212E+03  0.39808239748E+03  0.89932609337E+02 0.  0.
          4    1    3    3  502    0  0.46798938511E+00 -0.44051449145E+02 -0.14833164054E+03  0.15473533782E+03  0.00000000000E+00 0. -1.
         -3    1    3    3    0  502  0.15465753209E+03 -0.25122383793E+03 -0.59416557368E+03  0.66337402566E+03  0.00000000000E+00 0.  1.
         13    1    5    5    0    0  0.45831366060E+02  0.28026039764E+03  0.44803434865E+02  0.28749565627E+03  0.00000000000E+00 0. -1.
        -13    1    5    5    0    0  0.11409913127E+03  0.21473862828E+03  0.86695466017E+02  0.25816156581E+03  0.00000000000E+00 0.  1.
          3    1    6    6  503    0 -0.84268623484E+02 -0.96911719927E+02 -0.13907801722E+02  0.12917627225E+03  0.00000000000E+00 0. -1.
         -3    1    6    6    0  503 -0.23078739533E+03 -0.10281201892E+03 -0.92072640400E+02  0.26890612523E+03  0.00000000000E+00 0.  1.
<mgrwt>
<rscale>  0 0.16093643E+04</rscale>
<asrwt>0</asrwt>
<pdfrwt beam="1">  1        2 0.19067906E+00 0.16093643E+04</pdfrwt>
<pdfrwt beam="2">  1       -1 0.80374634E-01 0.16093643E+04</pdfrwt>
<totfact> 0.30281807E+01</totfact>
</mgrwt>
</event>
<event>
12    7  0.1605494E-007  0.2107376E+04  0.7818608E-02  0.8558001E-01
         -1   -1    0    0    0  501 -0.00000000000E+00  0.00000000000E+00  0.65175697952E+03  0.65175697952E+03  0.00000000000E+00 0.  1.
          2   -1    0    0  501    0  0.00000000000E+00 -0.00000000000E+00 -0.17034852972E+04  0.17034852972E+04  0.00000000000E+00 0. -1.
         24    2    1    2    0    0 -0.64973536459E+03  0.55952466367E+03 -0.54133821216E+03  0.10168925731E+04  0.76154789867E+02 0.  0.
        254    2    1    2    0    0  0.64973536459E+03 -0.55952466367E+03 -0.51039010548E+03  0.13383497036E+04  0.89188450824E+03 0.  0.
         23    2    4    4    0    0  0.58151637516E+03 -0.55881749034E+03 -0.72955760939E+03  0.10913722771E+04  0.91656204135E+02 0.  0.
         23    2    4    4    0    0  0.68218989427E+02 -0.70717333094E+00  0.21916750391E+03  0.24697742646E+03  0.91154395384E+02 0.  0.
          4    1    3    3  502    0 -0.50957388433E+03  0.40804102977E+03 -0.43756252610E+03  0.78589057115E+03  0.00000000000E+00 0. -1.
         -3    1    3    3    0  502 -0.14016148025E+03  0.15148363390E+03 -0.10377568606E+03  0.23100200195E+03  0.00000000000E+00 0.  1.
         13    1    5    5    0    0  0.40878800021E+03 -0.40600539600E+03 -0.57339072374E+03  0.81284988329E+03  0.00000000000E+00 0.  1.
        -13    1    5    5    0    0  0.17272837495E+03 -0.15281209434E+03 -0.15616688565E+03  0.27852239383E+03  0.00000000000E+00 0. -1.
          3    1    6    6  503    0  0.11010554230E+02 -0.22155836512E+02  0.63210491749E+01  0.25535642906E+02  0.00000000000E+00 0. -1.
         -3    1    6    6    0  503  0.57208435197E+02  0.21448663181E+02  0.21284645473E+03  0.22144178355E+03  0.00000000000E+00 0.  1.
<mgrwt>
<rscale>  0 0.21073760E+04</rscale>
<asrwt>0</asrwt>
<pdfrwt beam="1">  1        2 0.26207466E+00 0.21073760E+04</pdfrwt>
<pdfrwt beam="2">  1       -1 0.10027031E+00 0.21073760E+04</pdfrwt>
<totfact> 0.96998054E+00</totfact>
</mgrwt>
</event>
<event>
12    7  0.1605494E-007  0.1182808E+04  0.7818608E-02  0.9128039E-01
          2   -1    0    0  501    0  0.00000000000E+00  0.00000000000E+00  0.13573414148E+04  0.13573414148E+04  0.00000000000E+00 0. -1.
         -1   -1    0    0    0  501 -0.00000000000E+00 -0.00000000000E+00 -0.25767941631E+03  0.25767941631E+03  0.00000000000E+00 0.  1.
         24    2    1    2    0    0 -0.11118109901E+03  0.20789141328E+03  0.29785508670E+03  0.38823764152E+03  0.80191876935E+02 0.  0.
        254    2    1    2    0    0  0.11118109901E+03 -0.20789141328E+03  0.80180691176E+03  0.12267831896E+04  0.89806602986E+03 0.  0.
         23    2    4    4    0    0  0.42089378029E+03 -0.51645023627E+02  0.11000630388E+03  0.44755089256E+03  0.91551252221E+02 0.  0.
         23    2    4    4    0    0 -0.30971268129E+03 -0.15624638965E+03  0.69180060788E+03  0.77923229702E+03  0.90994573560E+02 0.  0.
          4    1    3    3  502    0 -0.78799026875E+02  0.20089663407E+03  0.25453042008E+03  0.33369818544E+03  0.00000000000E+00 0. -1.
         -3    1    3    3    0  502 -0.32382072131E+02  0.69947792053E+01  0.43324666627E+02  0.54539456084E+02  0.00000000000E+00 0.  1.
         13    1    5    5    0    0  0.18454618882E+03  0.10182141631E+02  0.15027127003E+02  0.18543674491E+03  0.00000000000E+00 0. -1.
        -13    1    5    5    0    0  0.23634759147E+03 -0.61827165259E+02  0.94979176878E+02  0.26211414765E+03  0.00000000000E+00 0.  1.
          3    1    6    6  503    0 -0.29856845998E+03 -0.16552571265E+03  0.67855819505E+03  0.75959404349E+03  0.00000000000E+00 0. -1.
         -3    1    6    6    0  503 -0.11144221309E+02  0.92793229940E+01  0.13242412832E+02  0.19638253523E+02  0.00000000000E+00 0.  1.
<mgrwt>
<rscale>  0 0.11828084E+04</rscale>
<asrwt>0</asrwt>
<pdfrwt beam="1">  1        2 0.20882175E+00 0.11828084E+04</pdfrwt>
<pdfrwt beam="2">  1       -1 0.39642988E-01 0.11828084E+04</pdfrwt>
<totfact> 0.10666565E+02</totfact>
</mgrwt>
</event>
<event>
12    7  0.1605494E-007  0.1722387E+04  0.7818608E-02  0.8748698E-01
         -1   -1    0    0    0  501 -0.00000000000E+00  0.00000000000E+00  0.48554413066E+03  0.48554413066E+03  0.00000000000E+00 0.  1.
          2   -1    0    0  501    0  0.00000000000E+00 -0.00000000000E+00 -0.15274708732E+04  0.15274708732E+04  0.00000000000E+00 0. -1.
         24    2    1    2    0    0  0.58031414830E+03 -0.65588300362E+02 -0.63267065746E+03  0.86469350799E+03  0.79726821588E+02 0.  0.
        254    2    1    2    0    0 -0.58031414830E+03  0.65588300362E+02 -0.40925608507E+03  0.11483214959E+04  0.90004743144E+03 0.  0.
         23    2    4    4    0    0 -0.30099445869E+03  0.45268688047E+03 -0.36679202414E+03  0.66171978025E+03  0.88394585176E+02 0.  0.
         23    2    4    4    0    0 -0.27931968961E+03 -0.38709858011E+03 -0.42464060926E+02  0.48660171562E+03  0.84339987239E+02 0.  0.
          4    1    3    3  502    0  0.24619181180E+03 -0.62540856694E+02 -0.30161965148E+03  0.39433004084E+03  0.00000000000E+00 0. -1.
         -3    1    3    3    0  502  0.33412233650E+03 -0.30474436679E+01 -0.33105100598E+03  0.47036346714E+03  0.00000000000E+00 0.  1.
         13    1    5    5    0    0 -0.11423863227E+03  0.18445806948E+03 -0.19862076404E+03  0.29415209061E+03  0.00000000000E+00 0. -1.
        -13    1    5    5    0    0 -0.18675582642E+03  0.26822881098E+03 -0.16817126010E+03  0.36756768964E+03  0.00000000000E+00 0.  1.
          1    1    6    6  503    0 -0.51992451852E+02 -0.11278915272E+03  0.17186802835E+02  0.12537940107E+03  0.00000000000E+00 0. -1.
         -1    1    6    6    0  503 -0.22732723776E+03 -0.27430942739E+03 -0.59650863762E+02  0.36122231455E+03  0.00000000000E+00 0.  1.
<mgrwt>
<rscale>  0 0.17223873E+04</rscale>
<asrwt>0</asrwt>
<pdfrwt beam="1">  1        2 0.23499551E+00 0.17223873E+04</pdfrwt>
<pdfrwt beam="2">  1       -1 0.74699099E-01 0.17223873E+04</pdfrwt>
<totfact> 0.23902429E+01</totfact>
</mgrwt>
</event>
<event>
12    7  0.1605494E-007  0.1701877E+04  0.7818608E-02  0.8760295E-01
         -1   -1    0    0    0  501 -0.00000000000E+00  0.00000000000E+00  0.18952844551E+03  0.18952844551E+03  0.00000000000E+00 0.  1.
          2   -1    0    0  501    0  0.00000000000E+00 -0.00000000000E+00 -0.38205147426E+04  0.38205147426E+04  0.00000000000E+00 0. -1.
         24    2    1    2    0    0  0.20989594529E+03  0.28647030413E+02  0.35349481267E+02  0.23005959106E+03  0.82467383932E+02 0.  0.
        254    2    1    2    0    0 -0.20989594529E+03 -0.28647030413E+02 -0.36663357784E+04  0.37799835971E+04  0.89519885726E+03 0.  0.
         23    2    4    4    0    0 -0.31668149746E+03  0.13170659947E+03 -0.54247176357E+03  0.64893526518E+03  0.95956057389E+02 0.  0.
         23    2    4    4    0    0  0.10678555217E+03 -0.16035362988E+03 -0.31238640148E+04  0.31310483319E+04  0.88435472327E+02 0.  0.
          2    1    3    3  502    0  0.10336897460E+03  0.36919556956E+02 -0.17006547820E+02  0.11107394503E+03  0.00000000000E+00 0. -1.
         -1    1    3    3    0  502  0.10652697069E+03 -0.82725265428E+01  0.52356029087E+02  0.11898564603E+03  0.00000000000E+00 0.  1.
         13    1    5    5    0    0 -0.54437678979E+02  0.11575213578E+02 -0.16325563865E+03  0.17248144832E+03  0.00000000000E+00 0. -1.
        -13    1    5    5    0    0 -0.26224381848E+03  0.12013138589E+03 -0.37921612492E+03  0.47645381687E+03  0.00000000000E+00 0.  1.
          2    1    6    6  503    0 -0.13705979704E+02 -0.30149985288E+02 -0.37162593332E+03  0.37309879363E+03  0.00000000000E+00 0. -1.
         -2    1    6    6    0  503  0.12049153188E+03 -0.13020364460E+03 -0.27522380815E+04  0.27579495383E+04  0.00000000000E+00 0.  1.
<mgrwt>
<rscale>  0 0.17018769E+04</rscale>
<asrwt>0</asrwt>
<pdfrwt beam="1">  1        2 0.58777148E+00 0.17018769E+04</pdfrwt>
<pdfrwt beam="2">  1       -1 0.29158223E-01 0.17018769E+04</pdfrwt>
<totfact> 0.55836355E+00</totfact>
</mgrwt>
</event>
<event>
12    7  0.1605494E-007  0.1813606E+04  0.7818608E-02  0.8699097E-01
         -1   -1    0    0    0  501 -0.00000000000E+00  0.00000000000E+00  0.10212714574E+04  0.10212714574E+04  0.00000000000E+00 0.  1.
          2   -1    0    0  501    0  0.00000000000E+00 -0.00000000000E+00 -0.80516460575E+03  0.80516460575E+03  0.00000000000E+00 0. -1.
         24    2    1    2    0    0 -0.31396745618E+03 -0.32731492117E+03 -0.43624686371E+03  0.63435406364E+03  0.79894497949E+02 0.  0.
        254    2    1    2    0    0  0.31396745618E+03  0.32731492117E+03  0.65235371532E+03  0.11920819995E+04  0.88869764397E+03 0.  0.
         23    2    4    4    0    0  0.10075893744E+03  0.61329517366E+03  0.42780486039E+03  0.76080921019E+03  0.97623369332E+02 0.  0.
         23    2    4    4    0    0  0.21320851874E+03 -0.28598025249E+03  0.22454885494E+03  0.43127278927E+03  0.91276794617E+02 0.  0.
          4    1    3    3  502    0 -0.17658841671E+03 -0.23723360925E+03 -0.26594180957E+03  0.39772892823E+03  0.00000000000E+00 0. -1.
         -3    1    3    3    0  502 -0.13737903948E+03 -0.90081311920E+02 -0.17030505414E+03  0.23662513542E+03  0.00000000000E+00 0.  1.
         13    1    5    5    0    0  0.16153103657E+02  0.28448511259E+03  0.14937875161E+03  0.32172459259E+03  0.00000000000E+00 0.  1.
        -13    1    5    5    0    0  0.84605833783E+02  0.32881006107E+03  0.27842610878E+03  0.43908461760E+03  0.00000000000E+00 0. -1.
          3    1    6    6  503    0  0.20828488463E+02 -0.15114988832E+02 -0.65671966547E+01  0.26559685446E+02  0.00000000000E+00 0. -1.
         -3    1    6    6    0  503  0.19238003028E+03 -0.27086526366E+03  0.23111605159E+03  0.40471310383E+03  0.00000000000E+00 0.  1.
<mgrwt>
<rscale>  0 0.18136059E+04</rscale>
<asrwt>0</asrwt>
<pdfrwt beam="1">  1        2 0.12387148E+00 0.18136059E+04</pdfrwt>
<pdfrwt beam="2">  1       -1 0.15711869E+00 0.18136059E+04</pdfrwt>
<totfact> 0.11300780E+01</totfact>
</mgrwt>
</event>
<event>
12    7  0.1605494E-007  0.1957565E+04  0.7818608E-02  0.8626721E-01
          2   -1    0    0  501    0  0.00000000000E+00  0.00000000000E+00  0.19259438361E+04  0.19259438361E+04  0.00000000000E+00 0. -1.
         -1   -1    0    0    0  501 -0.00000000000E+00 -0.00000000000E+00 -0.49742636324E+03  0.49742636324E+03  0.00000000000E+00 0.  1.
         24    2    1    2    0    0  0.68779448066E+03 -0.26458515158E+03  0.30145118845E+03  0.79994029515E+03  0.77234103387E+02 0.  0.
        254    2    1    2    0    0 -0.68779448066E+03  0.26458515158E+03  0.11270662844E+04  0.16234299042E+04  0.90674124988E+03 0.  0.
         23    2    4    4    0    0  0.88468025492E+02  0.82078314571E+01  0.67142225150E+03  0.68314525858E+03  0.89362433255E+02 0.  0.
         23    2    4    4    0    0 -0.77626250616E+03  0.25637732012E+03  0.45564403291E+03  0.94028464559E+03  0.90614133977E+02 0.  0.
          4    1    3    3  502    0  0.18540796173E+03 -0.60524195660E+02  0.11562820151E+03  0.22673590699E+03  0.00000000000E+00 0. -1.
         -3    1    3    3    0  502  0.50238651894E+03 -0.20406095592E+03  0.18582298693E+03  0.57320438817E+03  0.00000000000E+00 0.  1.
         13    1    5    5    0    0  0.80568658941E+02 -0.24910471523E+02  0.35419192054E+03  0.36409306087E+03  0.00000000000E+00 0.  1.
        -13    1    5    5    0    0  0.78993665517E+01  0.33118302980E+02  0.31723033096E+03  0.31905219771E+03  0.00000000000E+00 0. -1.
          1    1    6    6  503    0 -0.54797875003E+02  0.28235818885E+02  0.61631328338E+02  0.87169313441E+02  0.00000000000E+00 0. -1.
         -1    1    6    6    0  503 -0.72146463115E+03  0.22814150124E+03  0.39401270457E+03  0.85311533215E+03  0.00000000000E+00 0.  1.
<mgrwt>
<rscale>  0 0.19575651E+04</rscale>
<asrwt>0</asrwt>
<pdfrwt beam="1">  1        2 0.29629905E+00 0.19575651E+04</pdfrwt>
<pdfrwt beam="2">  1       -1 0.76527134E-01 0.19575651E+04</pdfrwt>
<totfact> 0.13362717E+01</totfact>
</mgrwt>
</event>
<event>
12    7  0.1605494E-007  0.3022120E+04  0.7818608E-02  0.8237442E-01
          2   -1    0    0  501    0  0.00000000000E+00  0.00000000000E+00  0.23513798174E+04  0.23513798174E+04  0.00000000000E+00 0. -1.
         -1   -1    0    0    0  501 -0.00000000000E+00 -0.00000000000E+00 -0.97104797722E+03  0.97104797722E+03  0.00000000000E+00 0.  1.
         24    2    1    2    0    0 -0.78676091344E+03 -0.11009759335E+04  0.36246902569E+03  0.14029255493E+04  0.75336319751E+02 0.  0.
        254    2    1    2    0    0  0.78676091344E+03  0.11009759335E+04  0.10178628145E+04  0.19195022454E+04  0.90404835034E+03 0.  0.
         23    2    4    4    0    0  0.91170386376E+03  0.10300216867E+04  0.67120459686E+03  0.15333375116E+04  0.91976646310E+02 0.  0.
         23    2    4    4    0    0 -0.12494295032E+03  0.70954246840E+02  0.34665821760E+03  0.38616473374E+03  0.91137455371E+02 0.  0.
          4    1    3    3  502    0 -0.68264030899E+03 -0.94843849732E+03  0.33910150421E+03  0.12167675229E+04  0.00000000000E+00 0. -1.
         -3    1    3    3    0  502 -0.10412060444E+03 -0.15253743619E+03  0.23367521479E+02  0.18615802633E+03  0.00000000000E+00 0.  1.
         13    1    5    5    0    0  0.73712141941E+03  0.77521485751E+03  0.51694723106E+03  0.11880827000E+04  0.00000000000E+00 0. -1.
        -13    1    5    5    0    0  0.17458244435E+03  0.25480682916E+03  0.15425736580E+03  0.34525481165E+03  0.00000000000E+00 0.  1.
          2    1    6    6  503    0 -0.73907811792E+02  0.82021597178E+02  0.28333222191E+03  0.30408396048E+03  0.00000000000E+00 0. -1.
         -2    1    6    6    0  503 -0.51035138531E+02 -0.11067350338E+02  0.63325995687E+02  0.82080773255E+02  0.00000000000E+00 0.  1.
<mgrwt>
<rscale>  0 0.30221202E+04</rscale>
<asrwt>0</asrwt>
<pdfrwt beam="1">  1        2 0.36175074E+00 0.30221202E+04</pdfrwt>
<pdfrwt beam="2">  1       -1 0.14939200E+00 0.30221202E+04</pdfrwt>
<totfact> 0.14520766E+00</totfact>
</mgrwt>
</event>
<event>
12    7  0.1605494E-007  0.3494900E+04  0.7818608E-02  0.8115000E-01
         -1   -1    0    0    0  501 -0.00000000000E+00  0.00000000000E+00  0.12738229252E+04  0.12738229252E+04  0.00000000000E+00 0.  1.
          2   -1    0    0  501    0  0.00000000000E+00 -0.00000000000E+00 -0.23971785207E+04  0.23971785207E+04  0.00000000000E+00 0. -1.
         24    2    1    2    0    0 -0.31653094375E+03  0.84207029214E+02 -0.21967312011E+04  0.22223120241E+04  0.75895326615E+02 0.  0.
        254    2    1    2    0    0  0.31653094375E+03 -0.84207029214E+02  0.10733756056E+04  0.14486894217E+04  0.91612400238E+03 0.  0.
         23    2    4    4    0    0  0.47059570828E+03 -0.21064307823E+03  0.22092494794E+03  0.56805457781E+03  0.89706987989E+02 0.  0.
         23    2    4    4    0    0 -0.15406476453E+03  0.12643604902E+03  0.85245065765E+03  0.88063484388E+03  0.95517424413E+02 0.  0.
          4    1    3    3  502    0 -0.18264442563E+03  0.79421704744E+02 -0.14566238283E+04  0.14701767821E+04  0.00000000000E+00 0. -1.
         -3    1    3    3    0  502 -0.13388651812E+03  0.47853244697E+01 -0.74010737276E+03  0.75213524201E+03  0.00000000000E+00 0.  1.
         13    1    5    5    0    0  0.46156072299E+03 -0.20577956881E+03  0.22917190738E+03  0.55489034509E+03  0.00000000000E+00 0.  1.
        -13    1    5    5    0    0  0.90349852883E+01 -0.48635094237E+01 -0.82469594396E+01  0.13164232719E+02  0.00000000000E+00 0. -1.
          1    1    6    6  503    0  0.52377358563E+01  0.38609983587E+02  0.13884676793E+03  0.14421022735E+03  0.00000000000E+00 0. -1.
         -1    1    6    6    0  503 -0.15930250039E+03  0.87826065429E+02  0.71360388972E+03  0.73642461653E+03  0.00000000000E+00 0.  1.
<mgrwt>
<rscale>  0 0.34948997E+04</rscale>
<asrwt>0</asrwt>
<pdfrwt beam="1">  1        2 0.36879669E+00 0.34948997E+04</pdfrwt>
<pdfrwt beam="2">  1       -1 0.19597276E+00 0.34948997E+04</pdfrwt>
<totfact> 0.59834841E-01</totfact>
</mgrwt>
</event>
<event>
12    7  0.1605494E-007  0.1833225E+04  0.7818608E-02  0.8688828E-01
         -1   -1    0    0    0  501 -0.00000000000E+00  0.00000000000E+00  0.15484800890E+04  0.15484800890E+04  0.00000000000E+00 0.  1.
          2   -1    0    0  501    0  0.00000000000E+00 -0.00000000000E+00 -0.54258243719E+03  0.54258243719E+03  0.00000000000E+00 0. -1.
         24    2    1    2    0    0  0.89450021998E+02  0.54677393787E+03  0.84486552494E+03  0.10133975499E+04  0.78827618376E+02 0.  0.
        254    2    1    2    0    0 -0.89450021998E+02 -0.54677393787E+03  0.16103212691E+03  0.10776649763E+04  0.91020185105E+03 0.  0.
         23    2    4    4    0    0  0.28560141722E+03 -0.15773447738E+03 -0.22425503147E+03  0.40798182211E+03  0.98541936046E+02 0.  0.
         23    2    4    4    0    0 -0.37505143922E+03 -0.38903946049E+03  0.38528715838E+03  0.66968315418E+03  0.89521219288E+02 0.  0.
          4    1    3    3  502    0  0.52140327976E+01  0.36037723930E+02  0.99207779028E+02  0.10567917062E+03  0.00000000000E+00 0. -1.
         -3    1    3    3    0  502  0.84235989201E+02  0.51073621394E+03  0.74565774591E+03  0.90771837932E+03  0.00000000000E+00 0.  1.
         13    1    5    5    0    0  0.11649666457E+03 -0.31933458380E+02 -0.37777486774E+02  0.12656364852E+03  0.00000000000E+00 0. -1.
        -13    1    5    5    0    0  0.16910475265E+03 -0.12580101901E+03 -0.18647754470E+03  0.28141817359E+03  0.00000000000E+00 0.  1.
          1    1    6    6  503    0 -0.14734498560E+03 -0.15075071462E+03  0.20481755248E+03  0.29391589366E+03  0.00000000000E+00 0. -1.
         -1    1    6    6    0  503 -0.22770645362E+03 -0.23828874586E+03  0.18046960589E+03  0.37576726052E+03  0.00000000000E+00 0.  1.
<mgrwt>
<rscale>  0 0.18332246E+04</rscale>
<asrwt>0</asrwt>
<pdfrwt beam="1">  1        2 0.83474222E-01 0.18332246E+04</pdfrwt>
<pdfrwt beam="2">  1       -1 0.23822770E+00 0.18332246E+04</pdfrwt>
<totfact> 0.50117177E+00</totfact>
</mgrwt>
</event>
<event>
12    7  0.1605494E-007  0.2881169E+04  0.7818608E-02  0.8278502E-01
         -1   -1    0    0    0  501 -0.00000000000E+00  0.00000000000E+00  0.22703188307E+04  0.22703188307E+04  0.00000000000E+00 0.  1.
          2   -1    0    0  501    0  0.00000000000E+00 -0.00000000000E+00 -0.91409338467E+03  0.91409338467E+03  0.00000000000E+00 0. -1.
         24    2    1    2    0    0  0.12045398732E+04 -0.21885054252E+03  0.10887249672E+04  0.16402565660E+04  0.79420915454E+02 0.  0.
        254    2    1    2    0    0 -0.12045398732E+04  0.21885054252E+03  0.26750047875E+03  0.15441556494E+04  0.90224625092E+03 0.  0.
         23    2    4    4    0    0 -0.61829555359E+02 -0.12977757350E+03  0.30103033663E+03  0.34538079251E+03  0.89462370660E+02 0.  0.
         23    2    4    4    0    0 -0.11427103178E+04  0.34862811602E+03 -0.33529857876E+02  0.11987748569E+04  0.92781853452E+02 0.  0.
          4    1    3    3  502    0  0.23562024218E+03 -0.73992104149E+02  0.23055130263E+03  0.33785445556E+03  0.00000000000E+00 0. -1.
         -1    1    3    3    0  502  0.96891963101E+03 -0.14485843837E+03  0.85817366461E+03  0.13024021104E+04  0.00000000000E+00 0.  1.
         13    1    5    5    0    0 -0.84641661986E+02 -0.10694705650E+03  0.25467837843E+03  0.28889956781E+03  0.00000000000E+00 0.  1.
        -13    1    5    5    0    0  0.22812106627E+02 -0.22830517005E+02  0.46351958192E+02  0.56481224701E+02  0.00000000000E+00 0. -1.
          1    1    6    6  503    0 -0.62443962162E+01  0.30775384890E+01  0.74936230872E+01  0.10228299674E+02  0.00000000000E+00 0. -1.
         -1    1    6    6    0  503 -0.11364659216E+04  0.34555057753E+03 -0.41023480963E+02  0.11885465572E+04  0.00000000000E+00 0.  1.
<mgrwt>
<rscale>  0 0.28811688E+04</rscale>
<asrwt>0</asrwt>
<pdfrwt beam="1">  1        2 0.14062975E+00 0.28811688E+04</pdfrwt>
<pdfrwt beam="2">  1       -1 0.34927982E+00 0.28811688E+04</pdfrwt>
<totfact> 0.44394855E-01</totfact>
</mgrwt>
</event>
<event>
12    7  0.1605494E-007  0.2497900E+04  0.7818608E-02  0.8403734E-01
         -1   -1    0    0    0  501 -0.00000000000E+00  0.00000000000E+00  0.16317450656E+04  0.16317450656E+04  0.00000000000E+00 0.  1.
          2   -1    0    0  501    0  0.00000000000E+00 -0.00000000000E+00 -0.95595563865E+03  0.95595563865E+03  0.00000000000E+00 0. -1.
         24    2    1    2    0    0  0.58763390322E+03 -0.50093652345E+03 -0.49400589984E+03  0.92105438755E+03  0.89712602268E+02 0.  0.
        254    2    1    2    0    0 -0.58763390322E+03  0.50093652345E+03  0.11697953268E+04  0.16666463167E+04  0.90168610593E+03 0.  0.
         23    2    4    4    0    0 -0.37835038929E+03 -0.20547708302E+03  0.50803594035E+03  0.67206828576E+03  0.90583747535E+02 0.  0.
         23    2    4    4    0    0 -0.20928351393E+03  0.70641360647E+03  0.66175938643E+03  0.99457803092E+03  0.91870569081E+02 0.  0.
          4    1    3    3  502    0  0.39743022507E+03 -0.36940123520E+03 -0.30538109668E+03  0.62262803549E+03  0.00000000000E+00 0. -1.
         -3    1    3    3    0  502  0.19020367814E+03 -0.13153528825E+03 -0.18862480316E+03  0.29842635206E+03  0.00000000000E+00 0.  1.
         13    1    5    5    0    0 -0.27523679059E+03 -0.16454552193E+03  0.43011487145E+03  0.53649727150E+03  0.00000000000E+00 0.  1.
        -13    1    5    5    0    0 -0.10311359870E+03 -0.40931561094E+02  0.77921068899E+02  0.13557101427E+03  0.00000000000E+00 0. -1.
          3    1    6    6  503    0 -0.13124417676E+03  0.52387925015E+03  0.52739491002E+03  0.75486415585E+03  0.00000000000E+00 0. -1.
         -3    1    6    6    0  503 -0.78039337172E+02  0.18253435632E+03  0.13436447641E+03  0.23971387508E+03  0.00000000000E+00 0.  1.
<mgrwt>
<rscale>  0 0.24978998E+04</rscale>
<asrwt>0</asrwt>
<pdfrwt beam="1">  1        2 0.14707010E+00 0.24978998E+04</pdfrwt>
<pdfrwt beam="2">  1       -1 0.25103770E+00 0.24978998E+04</pdfrwt>
<totfact> 0.18782848E+00</totfact>
</mgrwt>
</event>
<event>
12    7  0.1605494E-007  0.2153098E+04  0.7818608E-02  0.8538207E-01
          2   -1    0    0  501    0  0.00000000000E+00  0.00000000000E+00  0.21751997342E+04  0.21751997342E+04  0.00000000000E+00 0. -1.
         -1   -1    0    0    0  501 -0.00000000000E+00 -0.00000000000E+00 -0.53280525384E+03  0.53280525384E+03  0.00000000000E+00 0.  1.
         24    2    1    2    0    0 -0.33407382376E+03 -0.44107020888E+03 -0.19338673860E+03  0.59165107044E+03  0.80649300143E+02 0.  0.
        254    2    1    2    0    0  0.33407382376E+03  0.44107020888E+03  0.18357812190E+04  0.21163539176E+04  0.89594250473E+03 0.  0.
         23    2    4    4    0    0 -0.13539521947E+03  0.43541490728E+03  0.13774463729E+04  0.14537992562E+04  0.90861213553E+02 0.  0.
         23    2    4    4    0    0  0.46946904323E+03  0.56553015938E+01  0.45833484611E+03  0.66255466146E+03  0.92058042996E+02 0.  0.
          4    1    3    3  502    0 -0.76493965180E+02 -0.75197702322E+02 -0.88087706627E+01  0.10762720652E+03  0.00000000000E+00 0. -1.
         -3    1    3    3    0  502 -0.25757985858E+03 -0.36587250656E+03 -0.18457796793E+03  0.48402386392E+03  0.00000000000E+00 0.  1.
         13    1    5    5    0    0 -0.90651673498E+02  0.36989870939E+03  0.12097729340E+04  0.12683033285E+04  0.00000000000E+00 0. -1.
        -13    1    5    5    0    0 -0.44743545973E+02  0.65516197898E+02  0.16767343883E+03  0.18549592767E+03  0.00000000000E+00 0.  1.
          4    1    6    6  503    0  0.46604719845E+03 -0.24300826268E+01  0.43459386583E+03  0.63724228101E+03  0.00000000000E+00 0. -1.
         -4    1    6    6    0  503  0.34218447796E+01  0.80853842206E+01  0.23740980283E+02  0.25312380459E+02  0.00000000000E+00 0.  1.
<mgrwt>
<rscale>  0 0.21530981E+04</rscale>
<asrwt>0</asrwt>
<pdfrwt beam="1">  1        2 0.33464611E+00 0.21530981E+04</pdfrwt>
<pdfrwt beam="2">  1       -1 0.81970040E-01 0.21530981E+04</pdfrwt>
<totfact> 0.82455109E+00</totfact>
</mgrwt>
</event>
<event>
12    7  0.1605494E-007  0.1664510E+04  0.7818608E-02  0.8781868E-01
         -1   -1    0    0    0  501 -0.00000000000E+00  0.00000000000E+00  0.63865954339E+03  0.63865954339E+03  0.00000000000E+00 0.  1.
          2   -1    0    0  501    0  0.00000000000E+00 -0.00000000000E+00 -0.10845347254E+04  0.10845347254E+04  0.00000000000E+00 0. -1.
         24    2    1    2    0    0  0.10923974303E+03  0.47643733999E+03  0.17245862795E+03  0.52464219639E+03  0.81127033007E+02 0.  0.
        254    2    1    2    0    0 -0.10923974303E+03 -0.47643733999E+03 -0.61833380993E+03  0.11985520724E+04  0.90291999053E+03 0.  0.
         23    2    4    4    0    0 -0.94832439435E+02  0.95476746518E+02 -0.59755159925E+03  0.61947172005E+03  0.92565098672E+02 0.  0.
         23    2    4    4    0    0 -0.14407303598E+02 -0.57191408650E+03 -0.20782210687E+02  0.57908035232E+03  0.87228787815E+02 0.  0.
          2    1    3    3  502    0  0.48385485909E+02  0.31992164414E+03  0.81523922179E+02  0.33367223967E+03  0.00000000000E+00 0. -1.
         -1    1    3    3    0  502  0.60854257125E+02  0.15651569584E+03  0.90934705772E+02  0.19096995672E+03  0.00000000000E+00 0.  1.
         13    1    5    5    0    0 -0.10562066990E+03  0.10448477138E+03 -0.56011304100E+03  0.57948202048E+03  0.00000000000E+00 0.  1.
        -13    1    5    5    0    0  0.10788230469E+02 -0.90080248627E+01 -0.37438558249E+02  0.39989699578E+02  0.00000000000E+00 0. -1.
          1    1    6    6  503    0 -0.17608781862E+02 -0.89068788194E+02  0.24684671568E+02  0.94088528734E+02  0.00000000000E+00 0. -1.
         -1    1    6    6    0  503  0.32014782634E+01 -0.48284529831E+03 -0.45466882254E+02  0.48499182359E+03  0.00000000000E+00 0.  1.
<mgrwt>
<rscale>  0 0.16645101E+04</rscale>
<asrwt>0</asrwt>
<pdfrwt beam="1">  1        2 0.16685149E+00 0.16645101E+04</pdfrwt>
<pdfrwt beam="2">  1       -1 0.98255316E-01 0.16645101E+04</pdfrwt>
<totfact> 0.24055415E+01</totfact>
</mgrwt>
</event>
<event>
12    7  0.1605494E-007  0.2594138E+04  0.7818608E-02  0.8370195E-01
          2   -1    0    0  501    0  0.00000000000E+00  0.00000000000E+00  0.76168944755E+03  0.76168944755E+03  0.00000000000E+00 0. -1.
         -1   -1    0    0    0  501 -0.00000000000E+00 -0.00000000000E+00 -0.22087591452E+04  0.22087591452E+04  0.00000000000E+00 0.  1.
         24    2    1    2    0    0 -0.68929387323E+03  0.56711395527E+03  0.10203021346E+03  0.90183449515E+03  0.78428376626E+02 0.  0.
        254    2    1    2    0    0  0.68929387323E+03 -0.56711395527E+03 -0.15490999111E+04  0.20686140976E+04  0.10405332615E+04 0.  0.
         23    2    4    4    0    0  0.62309295263E+03 -0.44984766414E+03 -0.16865073597E+04  0.18554527460E+04  0.88261372570E+02 0.  0.
         23    2    4    4    0    0  0.66200920593E+02 -0.11726629113E+03  0.13740744862E+03  0.21316135153E+03  0.91776957501E+02 0.  0.
          2    1    3    3  502    0 -0.18017946114E+03  0.14197761959E+03  0.60591690715E+02  0.23726279874E+03  0.00000000000E+00 0. -1.
         -1    1    3    3    0  502 -0.50911441209E+03  0.42513633568E+03  0.41438522746E+02  0.66457169641E+03  0.00000000000E+00 0.  1.
         13    1    5    5    0    0  0.10066714761E+02  0.38198223795E+01 -0.19409565942E+02  0.22195968985E+02  0.00000000000E+00 0. -1.
        -13    1    5    5    0    0  0.61302623787E+03 -0.45366748652E+03 -0.16670977938E+04  0.18332567771E+04  0.00000000000E+00 0.  1.
          4    1    6    6  503    0 -0.11186161569E+00  0.95648034004E+01 -0.53959192444E+01  0.10982436961E+02  0.00000000000E+00 0. -1.
         -4    1    6    6    0  503  0.66312782209E+02 -0.12683109453E+03  0.14280336786E+03  0.20217891457E+03  0.00000000000E+00 0.  1.
<mgrwt>
<rscale>  0 0.25941384E+04</rscale>
<asrwt>0</asrwt>
<pdfrwt beam="1">  1        2 0.11718299E+00 0.25941384E+04</pdfrwt>
<pdfrwt beam="2">  1       -1 0.33980910E+00 0.25941384E+04</pdfrwt>
<totfact> 0.67322353E-01</totfact>
</mgrwt>
</event>
<event>
12    7  0.1605494E-007  0.1408656E+04  0.7818608E-02  0.8947576E-01
         -1   -1    0    0    0  501 -0.00000000000E+00  0.00000000000E+00  0.92027878074E+03  0.92027878074E+03  0.00000000000E+00 0.  1.
          2   -1    0    0  501    0  0.00000000000E+00 -0.00000000000E+00 -0.53905205847E+03  0.53905205847E+03  0.00000000000E+00 0. -1.
         24    2    1    2    0    0  0.67837861769E+02 -0.81952271719E+02  0.52213493047E+03  0.53866848236E+03  0.78871401266E+02 0.  0.
        254    2    1    2    0    0 -0.67837861769E+02  0.81952271719E+02 -0.14090820820E+03  0.92066235684E+03  0.90357396036E+03 0.  0.
         23    2    4    4    0    0 -0.99773766491E+02  0.43272988632E+03 -0.27841697196E+03  0.53189383645E+03  0.90471453923E+02 0.  0.
         23    2    4    4    0    0  0.31935904722E+02 -0.35077761460E+03  0.13750876376E+03  0.38876852040E+03  0.90374030689E+02 0.  0.
          4    1    3    3  502    0 -0.15462983015E+02 -0.70162723068E+00  0.46614656735E+02  0.49117434247E+02  0.00000000000E+00 0. -1.
         -3    1    3    3    0  502  0.83300844784E+02 -0.81250644488E+02  0.47552027374E+03  0.48955104811E+03  0.00000000000E+00 0.  1.
         13    1    5    5    0    0 -0.96807013568E+01  0.70639152513E+02 -0.94415138872E+01  0.71921818880E+02  0.00000000000E+00 0. -1.
        -13    1    5    5    0    0 -0.90093065134E+02  0.36209073381E+03 -0.26897545808E+03  0.45997201757E+03  0.00000000000E+00 0.  1.
          2    1    6    6  503    0  0.20833303107E+02 -0.24339235830E+03  0.13848601550E+03  0.28080641568E+03  0.00000000000E+00 0.  1.
         -2    1    6    6    0  503  0.11102601614E+02 -0.10738525631E+03 -0.97725173896E+00  0.10796210472E+03  0.00000000000E+00 0. -1.
<mgrwt>
<rscale>  0 0.14086563E+04</rscale>
<asrwt>0</asrwt>
<pdfrwt beam="1">  1        2 0.82931086E-01 0.14086563E+04</pdfrwt>
<pdfrwt beam="2">  1       -1 0.14158135E+00 0.14086563E+04</pdfrwt>
<totfact> 0.25517356E+01</totfact>
</mgrwt>
</event>
<event>
12    7  0.1605494E-007  0.1609291E+04  0.7818608E-02  0.8814861E-01
          2   -1    0    0  501    0  0.00000000000E+00  0.00000000000E+00  0.36545753629E+04  0.36545753629E+04  0.00000000000E+00 0. -1.
         -1   -1    0    0    0  501 -0.00000000000E+00 -0.00000000000E+00 -0.17716257675E+03  0.17716257675E+03  0.00000000000E+00 0.  1.
         24    2    1    2    0    0 -0.24788804402E+03 -0.32409679390E+03  0.20825688348E+04  0.21237041733E+04  0.80865628570E+02 0.  0.
        254    2    1    2    0    0  0.24788804402E+03  0.32409679390E+03  0.13948439514E+04  0.17080337664E+04  0.89738647424E+03 0.  0.
         23    2    4    4    0    0 -0.26585582379E+03 -0.11272933398E+03  0.45842717984E+03  0.54973414085E+03  0.93085576801E+02 0.  0.
         23    2    4    4    0    0  0.51374386781E+03  0.43682612788E+03  0.93641677153E+03  0.11582996255E+04  0.10015899730E+03 0.  0.
          2    1    3    3  502    0 -0.25050582985E+03 -0.29798064247E+03  0.19726802623E+04  0.20107245091E+04  0.00000000000E+00 0. -1.
         -1    1    3    3    0  502  0.26177858287E+01 -0.26116151430E+02  0.10988857245E+03  0.11297966420E+03  0.00000000000E+00 0.  1.
         13    1    5    5    0    0 -0.67361393829E+02 -0.73195964902E+02  0.17781644574E+03  0.20374958904E+03  0.00000000000E+00 0. -1.
        -13    1    5    5    0    0 -0.19849442997E+03 -0.39533369079E+02  0.28061073410E+03  0.34598455181E+03  0.00000000000E+00 0.  1.
          4    1    6    6  503    0  0.87394126291E+02  0.33377566773E+02  0.15382270107E+03  0.18003671470E+03  0.00000000000E+00 0.  1.
         -4    1    6    6    0  503  0.42634974152E+03  0.40344856111E+03  0.78259407045E+03  0.97826291081E+03  0.00000000000E+00 0. -1.
<mgrwt>
<rscale>  0 0.16092905E+04</rscale>
<asrwt>0</asrwt>
<pdfrwt beam="1">  1        2 0.56224231E+00 0.16092905E+04</pdfrwt>
<pdfrwt beam="2">  1       -1 0.27255784E-01 0.16092905E+04</pdfrwt>
<totfact> 0.84147818E+00</totfact>
</mgrwt>
</event>
<event>
12    7  0.1605494E-007  0.1188659E+04  0.7818608E-02  0.9122842E-01
         -1   -1    0    0    0  501 -0.00000000000E+00  0.00000000000E+00  0.38267843755E+03  0.38267843755E+03  0.00000000000E+00 0.  1.
          2   -1    0    0  501    0  0.00000000000E+00 -0.00000000000E+00 -0.92303956045E+03  0.92303956045E+03  0.00000000000E+00 0. -1.
         24    2    1    2    0    0  0.63154485486E+02  0.23408506795E+03 -0.10765806156E+03  0.27639435689E+03  0.77583981760E+02 0.  0.
        254    2    1    2    0    0 -0.63154485486E+02 -0.23408506795E+03 -0.43270306134E+03  0.10293236411E+04  0.90193730979E+03 0.  0.
         23    2    4    4    0    0  0.31591516172E+02  0.30859945272E+03 -0.32587172929E+03  0.46072857949E+03  0.99231012763E+02 0.  0.
         23    2    4    4    0    0 -0.94746001658E+02 -0.54268452068E+03 -0.10683133206E+03  0.56859506163E+03  0.91673970084E+02 0.  0.
          4    1    3    3  502    0  0.16327189228E+02  0.19519852534E+02 -0.38493707424E+02  0.46145067584E+02  0.00000000000E+00 0. -1.
         -1    1    3    3    0  502  0.46827296258E+02  0.21456521542E+03 -0.69164354134E+02  0.23024928931E+03  0.00000000000E+00 0.  1.
         13    1    5    5    0    0 -0.31616390240E+02  0.48478082422E+02 -0.53050291827E+02  0.78511490051E+02  0.00000000000E+00 0. -1.
        -13    1    5    5    0    0  0.63207906412E+02  0.26012137030E+03 -0.27282143746E+03  0.38221708943E+03  0.00000000000E+00 0.  1.
          3    1    6    6  503    0  0.10710301519E+02 -0.17301960492E+03 -0.46477587168E+02  0.17947328591E+03  0.00000000000E+00 0. -1.
         -3    1    6    6    0  503 -0.10545630318E+03 -0.36966491576E+03 -0.60353744888E+02  0.38912177572E+03  0.00000000000E+00 0.  1.
<mgrwt>
<rscale>  0 0.11886586E+04</rscale>
<asrwt>0</asrwt>
<pdfrwt beam="1">  1        2 0.14200608E+00 0.11886586E+04</pdfrwt>
<pdfrwt beam="2">  1       -1 0.58873607E-01 0.11886586E+04</pdfrwt>
<totfact> 0.93214086E+01</totfact>
</mgrwt>
</event>
<event>
12    7  0.1605494E-007  0.3078004E+04  0.7818608E-02  0.8221801E-01
          2   -1    0    0  501    0  0.00000000000E+00  0.00000000000E+00  0.12303356805E+04  0.12303356805E+04  0.00000000000E+00 0. -1.
         -1   -1    0    0    0  501 -0.00000000000E+00 -0.00000000000E+00 -0.19251064974E+04  0.19251064974E+04  0.00000000000E+00 0.  1.
         24    2    1    2    0    0  0.46832119983E+03  0.55718770208E+03 -0.15445728724E+04  0.17095162019E+04  0.83411058204E+02 0.  0.
        254    2    1    2    0    0 -0.46832119983E+03 -0.55718770208E+03  0.84980205557E+03  0.14459259761E+04  0.91583596408E+03 0.  0.
         23    2    4    4    0    0 -0.15318851760E+03  0.14817902462E+03  0.57881110860E+03  0.62221121343E+03  0.81858105343E+02 0.  0.
         23    2    4    4    0    0 -0.31513268222E+03 -0.70536672670E+03  0.27099094697E+03  0.82371476266E+03  0.90659198868E+02 0.  0.
          4    1    3    3  502    0  0.27585748099E+03  0.35625921593E+03 -0.10376902773E+04  0.11312908955E+04  0.00000000000E+00 0. -1.
         -3    1    3    3    0  502  0.19246371883E+03  0.20092848616E+03 -0.50688259513E+03  0.57822530631E+03  0.00000000000E+00 0.  1.
         13    1    5    5    0    0 -0.64421268067E+02  0.22866691408E+02  0.11664976724E+03  0.13520411811E+03  0.00000000000E+00 0.  1.
        -13    1    5    5    0    0 -0.88767249537E+02  0.12531233321E+03  0.46216134136E+03  0.48700709532E+03  0.00000000000E+00 0. -1.
          3    1    6    6  503    0 -0.15584664176E+03 -0.36126262862E+03  0.18565539350E+03  0.43504802921E+03  0.00000000000E+00 0. -1.
         -3    1    6    6    0  503 -0.15928604046E+03 -0.34410409809E+03  0.85335553474E+02  0.38866673345E+03  0.00000000000E+00 0.  1.
<mgrwt>
<rscale>  0 0.30780040E+04</rscale>
<asrwt>0</asrwt>
<pdfrwt beam="1">  1        2 0.18928241E+00 0.30780040E+04</pdfrwt>
<pdfrwt beam="2">  1       -1 0.29617023E+00 0.30780040E+04</pdfrwt>
<totfact> 0.61549537E-01</totfact>
</mgrwt>
</event>
<event>
12    7  0.1605494E-007  0.1720628E+04  0.7818608E-02  0.8749686E-01
         -1   -1    0    0    0  501 -0.00000000000E+00  0.00000000000E+00  0.14163036931E+04  0.14163036931E+04  0.00000000000E+00 0.  1.
          2   -1    0    0  501    0  0.00000000000E+00 -0.00000000000E+00 -0.52258561812E+03  0.52258561812E+03  0.00000000000E+00 0. -1.
         24    2    1    2    0    0  0.12743113716E+03 -0.59835678277E+03  0.30799638347E+03  0.68965229697E+03  0.80554231965E+02 0.  0.
        254    2    1    2    0    0 -0.12743113716E+03  0.59835678277E+03  0.58572169147E+03  0.12492370142E+04  0.91828845337E+03 0.  0.
         23    2    4    4    0    0  0.15388701269E+02 -0.18752693280E+03  0.35863873545E+03  0.41430682547E+03  0.87322622599E+02 0.  0.
         23    2    4    4    0    0 -0.14281983843E+03  0.78588371556E+03  0.22708295602E+03  0.83493018873E+03  0.86781510120E+02 0.  0.
          2    1    3    3  502    0  0.57209247566E+02 -0.35173188521E+03  0.13877916480E+03  0.38242368345E+03  0.00000000000E+00 0. -1.
         -1    1    3    3    0  502  0.70221889592E+02 -0.24662489756E+03  0.16921721867E+03  0.30722861352E+03  0.00000000000E+00 0.  1.
         13    1    5    5    0    0  0.37482230090E+02 -0.45001191677E+02  0.67248754581E+02  0.89176341131E+02  0.00000000000E+00 0.  1.
        -13    1    5    5    0    0 -0.22093528822E+02 -0.14252574112E+03  0.29138998087E+03  0.32513048434E+03  0.00000000000E+00 0. -1.
          2    1    6    6  503    0 -0.50604171108E+02  0.51066545725E+03  0.14140448258E+03  0.53229241874E+03  0.00000000000E+00 0. -1.
         -2    1    6    6    0  503 -0.92215667320E+02  0.27521825832E+03  0.85678473438E+02  0.30263776999E+03  0.00000000000E+00 0.  1.
<mgrwt>
<rscale>  0 0.17206277E+04</rscale>
<asrwt>0</asrwt>
<pdfrwt beam="1">  1        2 0.80397788E-01 0.17206277E+04</pdfrwt>
<pdfrwt beam="2">  1       -1 0.21789287E+00 0.17206277E+04</pdfrwt>
<totfact> 0.72171672E+00</totfact>
</mgrwt>
</event>
<event>
12    7  0.1605494E-007  0.1094099E+04  0.7818608E-02  0.9210963E-01
          2   -1    0    0  501    0  0.00000000000E+00  0.00000000000E+00  0.13978990959E+04  0.13978990959E+04  0.00000000000E+00 0. -1.
         -1   -1    0    0    0  501 -0.00000000000E+00 -0.00000000000E+00 -0.21408056584E+03  0.21408056584E+03  0.00000000000E+00 0.  1.
         24    2    1    2    0    0 -0.13786081012E+03  0.12245963997E+03  0.77625990297E+02  0.21750831095E+03  0.85335248136E+02 0.  0.
        254    2    1    2    0    0  0.13786081012E+03 -0.12245963997E+03  0.11061925398E+04  0.13944713508E+04  0.82878612851E+03 0.  0.
         23    2    4    4    0    0  0.34628756223E+03  0.20547050709E+03  0.77028045250E+03  0.87346907041E+03  0.86504545652E+02 0.  0.
         23    2    4    4    0    0 -0.20842675210E+03 -0.32793014706E+03  0.33591208730E+03  0.52100228043E+03  0.87330140710E+02 0.  0.
          4    1    3    3  502    0 -0.49354276693E+02 -0.96622330815E+00  0.64672555948E+01  0.49785576328E+02  0.00000000000E+00 0. -1.
         -3    1    3    3    0  502 -0.88506533428E+02  0.12342586327E+03  0.71158734702E+02  0.16772273462E+03  0.00000000000E+00 0.  1.
         13    1    5    5    0    0  0.29691686011E+03  0.20055169059E+03  0.63122759673E+03  0.72582978809E+03  0.00000000000E+00 0. -1.
        -13    1    5    5    0    0  0.49370702112E+02  0.49188165039E+01  0.13905285578E+03  0.14763928232E+03  0.00000000000E+00 0.  1.
          4    1    6    6  503    0 -0.31559498023E+02 -0.88714833635E+02  0.12421114021E+03  0.15586767136E+03  0.00000000000E+00 0. -1.
         -4    1    6    6    0  503 -0.17686725408E+03 -0.23921531342E+03  0.21170094709E+03  0.36513460907E+03  0.00000000000E+00 0.  1.
<mgrwt>
<rscale>  0 0.10940988E+04</rscale>
<asrwt>0</asrwt>
<pdfrwt beam="1">  1        2 0.21506139E+00 0.10940988E+04</pdfrwt>
<pdfrwt beam="2">  1       -1 0.32935473E-01 0.10940988E+04</pdfrwt>
<totfact> 0.14194100E+02</totfact>
</mgrwt>
</event>
<event>
12    7  0.1605494E-007  0.1658272E+04  0.7818608E-02  0.8785528E-01
         -1   -1    0    0    0  501 -0.00000000000E+00  0.00000000000E+00  0.37231696743E+03  0.37231696743E+03  0.00000000000E+00 0.  1.
          2   -1    0    0  501    0  0.00000000000E+00 -0.00000000000E+00 -0.18464553963E+04  0.18464553963E+04  0.00000000000E+00 0. -1.
         24    2    1    2    0    0  0.43985858151E+03 -0.36742375152E+03 -0.54802255743E+03  0.79697902594E+03  0.79818916428E+02 0.  0.
        254    2    1    2    0    0 -0.43985858151E+03  0.36742375152E+03 -0.92611587146E+03  0.14217933378E+04  0.91396384129E+03 0.  0.
         23    2    4    4    0    0 -0.26589230187E+03  0.48656026425E+03 -0.10269113900E+04  0.11706276008E+04  0.91555283504E+02 0.  0.
         23    2    4    4    0    0 -0.17396627964E+03 -0.11913651273E+03  0.10079551855E+03  0.25116573700E+03  0.92014758418E+02 0.  0.
          2    1    3    3  502    0  0.25046969490E+03 -0.18823973080E+03 -0.34876323058E+03  0.46883371820E+03  0.00000000000E+00 0. -1.
         -1    1    3    3    0  502  0.18938888661E+03 -0.17918402072E+03 -0.19925932685E+03  0.32814530773E+03  0.00000000000E+00 0.  1.
         13    1    5    5    0    0 -0.19642116809E+03  0.42875077414E+03 -0.86125703498E+03  0.98192269650E+03  0.00000000000E+00 0. -1.
        -13    1    5    5    0    0 -0.69471133774E+02  0.57809490104E+02 -0.16565435502E+03  0.18870490431E+03  0.00000000000E+00 0.  1.
          1    1    6    6  503    0 -0.15436531039E+03 -0.88650127293E+02  0.11534226278E+03  0.21211160200E+03  0.00000000000E+00 0. -1.
         -1    1    6    6    0  503 -0.19600969253E+02 -0.30486385433E+02 -0.14546744237E+02  0.39054134996E+02  0.00000000000E+00 0.  1.
<mgrwt>
<rscale>  0 0.16582722E+04</rscale>
<asrwt>0</asrwt>
<pdfrwt beam="1">  1        2 0.28407005E+00 0.16582722E+04</pdfrwt>
<pdfrwt beam="2">  1       -1 0.57279535E-01 0.16582722E+04</pdfrwt>
<totfact> 0.27290747E+01</totfact>
</mgrwt>
</event>
<event>
12    7  0.1605494E-007  0.2029471E+04  0.7818608E-02  0.8592964E-01
         -1   -1    0    0    0  501 -0.00000000000E+00  0.00000000000E+00  0.54613570317E+03  0.54613570317E+03  0.00000000000E+00 0.  1.
          2   -1    0    0  501    0  0.00000000000E+00 -0.00000000000E+00 -0.18854078110E+04  0.18854078110E+04  0.00000000000E+00 0. -1.
         24    2    1    2    0    0  0.40255850966E+03  0.67488819932E+03 -0.78739059512E+03  0.11153505847E+04  0.80594926240E+02 0.  0.
        254    2    1    2    0    0 -0.40255850966E+03 -0.67488819932E+03 -0.55188151270E+03  0.13161929295E+04  0.90014620387E+03 0.  0.
         23    2    4    4    0    0 -0.92834763920E+02 -0.53666026508E+03 -0.73576333766E+03  0.91993113358E+03  0.91121171970E+02 0.  0.
         23    2    4    4    0    0 -0.30972374574E+03 -0.13822793424E+03  0.18388182496E+03  0.39626179592E+03  0.90416397189E+02 0.  0.
          2    1    3    3  502    0  0.37390182975E+03  0.65233952057E+03 -0.73454164601E+03  0.10511426440E+04  0.00000000000E+00 0. -1.
         -1    1    3    3    0  502  0.28656679908E+02  0.22548678741E+02 -0.52848949107E+02  0.64207940615E+02  0.00000000000E+00 0.  1.
         13    1    5    5    0    0 -0.93105680090E+02 -0.53646928417E+03 -0.71281321485E+03  0.89697861725E+03  0.00000000000E+00 0.  1.
        -13    1    5    5    0    0  0.27091616989E+00 -0.19098090449E+00 -0.22950122806E+02  0.22952516335E+02  0.00000000000E+00 0. -1.
          4    1    6    6  503    0 -0.64570866645E+01  0.11161832581E+02  0.54728271853E+01  0.14008294406E+02  0.00000000000E+00 0. -1.
         -4    1    6    6    0  503 -0.30326665907E+03 -0.14938976682E+03  0.17840899777E+03  0.38225350152E+03  0.00000000000E+00 0.  1.
<mgrwt>
<rscale>  0 0.20294714E+04</rscale>
<asrwt>0</asrwt>
<pdfrwt beam="1">  1        2 0.29006273E+00 0.20294714E+04</pdfrwt>
<pdfrwt beam="2">  1       -1 0.84020879E-01 0.20294714E+04</pdfrwt>
<totfact> 0.11461735E+01</totfact>
</mgrwt>
</event>
<event>
12    7  0.1605494E-007  0.1640781E+04  0.7818608E-02  0.8795879E-01
          2   -1    0    0  501    0  0.00000000000E+00  0.00000000000E+00  0.22695113798E+04  0.22695113798E+04  0.00000000000E+00 0. -1.
         -1   -1    0    0    0  501 -0.00000000000E+00 -0.00000000000E+00 -0.29655734648E+03  0.29655734648E+03  0.00000000000E+00 0.  1.
         24    2    1    2    0    0  0.28542947645E+03  0.37345776494E+03  0.13163410554E+03  0.49445461948E+03  0.78848872956E+02 0.  0.
        254    2    1    2    0    0 -0.28542947645E+03 -0.37345776494E+03  0.18413199278E+04  0.20716141068E+04  0.82473343742E+03 0.  0.
         23    2    4    4    0    0  0.16348066044E+03  0.13364961417E+02  0.64918557786E+02  0.19678292652E+03  0.87204085319E+02 0.  0.
         23    2    4    4    0    0 -0.44891013688E+03 -0.38682272635E+03  0.17764013700E+04  0.18748311802E+04  0.90763398834E+02 0.  0.
          2    1    3    3  502    0  0.60990645333E+02  0.85512517538E+02 -0.36889489457E+01  0.10509927601E+03  0.00000000000E+00 0. -1.
         -1    1    3    3    0  502  0.22443883112E+03  0.28794524740E+03  0.13532305449E+03  0.38935534347E+03  0.00000000000E+00 0.  1.
         13    1    5    5    0    0  0.10111470709E+03 -0.56665300578E+01 -0.47189989068E+01  0.10138324567E+03  0.00000000000E+00 0.  1.
        -13    1    5    5    0    0  0.62365953351E+02  0.19031491475E+02  0.69637556692E+02  0.95399680855E+02  0.00000000000E+00 0. -1.
          3    1    6    6  503    0 -0.33910679974E+02 -0.55908053892E+02  0.14038297212E+03  0.15486453296E+03  0.00000000000E+00 0. -1.
         -3    1    6    6    0  503 -0.41499945691E+03 -0.33091467246E+03  0.16360183978E+04  0.17199666473E+04  0.00000000000E+00 0.  1.
<mgrwt>
<rscale>  0 0.16407806E+04</rscale>
<asrwt>0</asrwt>
<pdfrwt beam="1">  1        2 0.34915559E+00 0.16407806E+04</pdfrwt>
<pdfrwt beam="2">  1       -1 0.45624209E-01 0.16407806E+04</pdfrwt>
<totfact> 0.24534691E+01</totfact>
</mgrwt>
</event>
<event>
12    7  0.1605494E-007  0.2768230E+04  0.7818608E-02  0.8313200E-01
         -1   -1    0    0    0  501 -0.00000000000E+00  0.00000000000E+00  0.98138619191E+03  0.98138619191E+03  0.00000000000E+00 0.  1.
          2   -1    0    0  501    0  0.00000000000E+00 -0.00000000000E+00 -0.19521101646E+04  0.19521101646E+04  0.00000000000E+00 0. -1.
         24    2    1    2    0    0  0.38581505004E+03  0.57426228240E+03  0.65108072867E+03  0.95294633577E+03  0.74633650517E+02 0.  0.
        254    2    1    2    0    0 -0.38581505004E+03 -0.57426228240E+03 -0.16218047013E+04  0.19805500207E+04  0.90205181309E+03 0.  0.
         23    2    4    4    0    0  0.12445473653E+03 -0.36518686774E+03 -0.12451132957E+04  0.13067227413E+04  0.91470070676E+02 0.  0.
         23    2    4    4    0    0 -0.51026978657E+03 -0.20907541466E+03 -0.37669140569E+03  0.67382727942E+03  0.89771951477E+02 0.  0.
          2    1    3    3  502    0  0.14996268041E+03  0.28781834098E+03  0.29093830526E+03  0.43585926672E+03  0.00000000000E+00 0. -1.
         -1    1    3    3    0  502  0.23585236964E+03  0.28644394141E+03  0.36014242341E+03  0.51708706905E+03  0.00000000000E+00 0.  1.
         13    1    5    5    0    0 -0.79091451593E+00 -0.39071355883E+02 -0.63602030323E+02  0.74648607874E+02  0.00000000000E+00 0.  1.
        -13    1    5    5    0    0  0.12524565104E+03 -0.32611551186E+03 -0.11815112653E+04  0.12320741334E+04  0.00000000000E+00 0. -1.
          1    1    6    6  503    0 -0.48278061138E+03 -0.20403845303E+03 -0.32984784860E+03  0.61928056022E+03  0.00000000000E+00 0. -1.
         -1    1    6    6    0  503 -0.27489175193E+02 -0.50369616273E+01 -0.46843557089E+02  0.54546719204E+02  0.00000000000E+00 0.  1.
<mgrwt>
<rscale>  0 0.27682297E+04</rscale>
<asrwt>0</asrwt>
<pdfrwt beam="1">  1        2 0.30032464E+00 0.27682297E+04</pdfrwt>
<pdfrwt beam="2">  1       -1 0.15098249E+00 0.27682297E+04</pdfrwt>
<totfact> 0.24171235E+00</totfact>
</mgrwt>
</event>
<event>
12    7  0.1605494E-007  0.1502346E+04  0.7818608E-02  0.8882894E-01
          2   -1    0    0  501    0  0.00000000000E+00  0.00000000000E+00  0.48202651596E+03  0.48202651596E+03  0.00000000000E+00 0. -1.
         -1   -1    0    0    0  501 -0.00000000000E+00 -0.00000000000E+00 -0.11706014352E+04  0.11706014352E+04  0.00000000000E+00 0.  1.
         24    2    1    2    0    0 -0.92451791516E+02 -0.41374880435E+02  0.29542695068E+03  0.32171628841E+03  0.77233882171E+02 0.  0.
        254    2    1    2    0    0  0.92451791516E+02  0.41374880435E+02 -0.98400186989E+03  0.13309116627E+04  0.89039707972E+03 0.  0.
         23    2    4    4    0    0  0.23512415889E+03 -0.32602272837E+03 -0.76930659127E+03  0.87287129710E+03  0.92181779216E+02 0.  0.
         23    2    4    4    0    0 -0.14267236737E+03  0.36739760881E+03 -0.21469527862E+03  0.45804036564E+03  0.91490472318E+02 0.  0.
          4    1    3    3  502    0 -0.10564847947E+03 -0.36284456799E+02  0.24354670292E+03  0.26794245562E+03  0.00000000000E+00 0. -1.
         -3    1    3    3    0  502  0.13196687952E+02 -0.50904236359E+01  0.51880247755E+02  0.53773832789E+02  0.00000000000E+00 0.  1.
         13    1    5    5    0    0  0.17418016206E+03 -0.27278938882E+03 -0.67515964467E+03  0.74872780455E+03  0.00000000000E+00 0.  1.
        -13    1    5    5    0    0  0.60943996825E+02 -0.53233339554E+02 -0.94146946594E+02  0.12414349255E+03  0.00000000000E+00 0. -1.
          2    1    6    6  503    0 -0.73270401973E+01  0.12513866433E+03 -0.47431284316E+02  0.13402648082E+03  0.00000000000E+00 0. -1.
         -2    1    6    6    0  503 -0.13534532717E+03  0.24225894447E+03 -0.16726399431E+03  0.32401388482E+03  0.00000000000E+00 0.  1.
<mgrwt>
<rscale>  0 0.15023461E+04</rscale>
<asrwt>0</asrwt>
<pdfrwt beam="1">  1        2 0.74157925E-01 0.15023461E+04</pdfrwt>
<pdfrwt beam="2">  1       -1 0.18009253E+00 0.15023461E+04</pdfrwt>
<totfact> 0.14745382E+01</totfact>
</mgrwt>
</event>
<event>
12    7  0.1605494E-007  0.2923195E+04  0.7818608E-02  0.8266009E-01
         -1   -1    0    0    0  501 -0.00000000000E+00  0.00000000000E+00  0.74152640629E+03  0.74152640629E+03  0.00000000000E+00 0.  1.
          2   -1    0    0  501    0  0.00000000000E+00 -0.00000000000E+00 -0.28809057891E+04  0.28809057891E+04  0.00000000000E+00 0. -1.
         24    2    1    2    0    0 -0.10122840360E+04 -0.77765919342E+03 -0.12886893133E+04  0.18156685978E+04  0.80371141761E+02 0.  0.
        254    2    1    2    0    0  0.10122840360E+04  0.77765919342E+03 -0.85069006954E+03  0.18067635975E+04  0.95459327062E+03 0.  0.
         23    2    4    4    0    0  0.81715116210E+03  0.78596005829E+03 -0.10236071067E+04  0.15302467174E+04  0.91729343127E+02 0.  0.
         23    2    4    4    0    0  0.19513287390E+03 -0.83008648737E+01  0.17291703717E+03  0.27651688009E+03  0.91736254532E+02 0.  0.
          4    1    3    3  502    0 -0.72205342768E+03 -0.55493953745E+03 -0.96988461753E+03  0.13304116709E+04  0.00000000000E+00 0. -1.
         -3    1    3    3    0  502 -0.29023060831E+03 -0.22271965597E+03 -0.31880469573E+03  0.48525692698E+03  0.00000000000E+00 0.  1.
         13    1    5    5    0    0  0.63287017531E+03  0.57580071273E+03 -0.72793316535E+03  0.11233689567E+04  0.00000000000E+00 0. -1.
        -13    1    5    5    0    0  0.18428098679E+03  0.21015934556E+03 -0.29567394135E+03  0.40687776078E+03  0.00000000000E+00 0.  1.
          4    1    6    6  503    0  0.47157628542E+01 -0.21842967013E+02  0.32914243013E+02  0.39783175092E+02  0.00000000000E+00 0. -1.
         -4    1    6    6    0  503  0.19041711105E+03  0.13542102139E+02  0.14000279416E+03  0.23673370500E+03  0.00000000000E+00 0.  1.
<mgrwt>
<rscale>  0 0.29231953E+04</rscale>
<asrwt>0</asrwt>
<pdfrwt beam="1">  1        2 0.44321627E+00 0.29231953E+04</pdfrwt>
<pdfrwt beam="2">  1       -1 0.11408099E+00 0.29231953E+04</pdfrwt>
<totfact> 0.14132133E+00</totfact>
</mgrwt>
</event>
<event>
12    7  0.1605494E-007  0.1697602E+04  0.7818608E-02  0.8762733E-01
         -1   -1    0    0    0  501 -0.00000000000E+00  0.00000000000E+00  0.40909365698E+03  0.40909365698E+03  0.00000000000E+00 0.  1.
          2   -1    0    0  501    0  0.00000000000E+00 -0.00000000000E+00 -0.17611196899E+04  0.17611196899E+04  0.00000000000E+00 0. -1.
         24    2    1    2    0    0 -0.32396542940E+03 -0.37825386954E+03 -0.49157537466E+02  0.50798042734E+03  0.87166861793E+02 0.  0.
        254    2    1    2    0    0  0.32396542940E+03  0.37825386954E+03 -0.13028684954E+04  0.16622329195E+04  0.90416943828E+03 0.  0.
         23    2    4    4    0    0  0.89312856279E+02  0.40736099109E+03 -0.10729090272E+03  0.44041800946E+03  0.92395464668E+02 0.  0.
         23    2    4    4    0    0  0.23465257312E+03 -0.29107121542E+02 -0.11955775927E+04  0.12218149101E+04  0.86699709824E+02 0.  0.
          4    1    3    3  502    0 -0.57349297122E+02 -0.91750547692E+02 -0.43377153768E+02  0.11657050378E+03  0.00000000000E+00 0. -1.
         -3    1    3    3    0  502 -0.26661613228E+03 -0.28650332185E+03 -0.57803836982E+01  0.39140992356E+03  0.00000000000E+00 0.  1.
         13    1    5    5    0    0  0.12656452272E+02  0.16116451642E+03 -0.13977904042E+01  0.16166675896E+03  0.00000000000E+00 0. -1.
        -13    1    5    5    0    0  0.76656404007E+02  0.24619647467E+03 -0.10589311232E+03  0.27875125049E+03  0.00000000000E+00 0.  1.
          1    1    6    6  503    0  0.15259392535E+03  0.52412064384E+01 -0.57639552235E+03  0.59627525060E+03  0.00000000000E+00 0. -1.
         -1    1    6    6    0  503  0.82058647773E+02 -0.34348327981E+02 -0.61918207038E+03  0.62553965949E+03  0.00000000000E+00 0.  1.
<mgrwt>
<rscale>  0 0.16976017E+04</rscale>
<asrwt>0</asrwt>
<pdfrwt beam="1">  1        2 0.27094150E+00 0.16976017E+04</pdfrwt>
<pdfrwt beam="2">  1       -1 0.62937485E-01 0.16976017E+04</pdfrwt>
<totfact> 0.25173160E+01</totfact>
</mgrwt>
</event>
<event>
12    7  0.1605494E-007  0.2754818E+04  0.7818608E-02  0.8317435E-01
          2   -1    0    0  501    0  0.00000000000E+00  0.00000000000E+00  0.11592191528E+04  0.11592191528E+04  0.00000000000E+00 0. -1.
         -1   -1    0    0    0  501 -0.00000000000E+00 -0.00000000000E+00 -0.16366663425E+04  0.16366663425E+04  0.00000000000E+00 0.  1.
         24    2    1    2    0    0 -0.95722128655E+03 -0.62321254054E+03  0.25116239098E+03  0.11721167433E+04  0.78157860833E+02 0.  0.
        254    2    1    2    0    0  0.95722128655E+03  0.62321254054E+03 -0.72860958064E+03  0.16237687520E+04  0.89503439981E+03 0.  0.
         23    2    4    4    0    0  0.84994023664E+03  0.83497116478E+03 -0.63365219348E+03  0.13525847302E+04  0.91624768981E+02 0.  0.
         23    2    4    4    0    0  0.10728104991E+03 -0.21175862424E+03 -0.94957387166E+02  0.27118402176E+03  0.90404256948E+02 0.  0.
          2    1    3    3  502    0 -0.51030539210E+03 -0.37462962370E+03  0.15504270757E+03  0.65176467328E+03  0.00000000000E+00 0. -1.
         -1    1    3    3    0  502 -0.44691589445E+03 -0.24858291684E+03  0.96119683409E+02  0.52035207004E+03  0.00000000000E+00 0.  1.
         13    1    5    5    0    0  0.40553558922E+03  0.46053892692E+03 -0.31245028790E+03  0.68860758037E+03  0.00000000000E+00 0. -1.
        -13    1    5    5    0    0  0.44440464741E+03  0.37443223786E+03 -0.32120190558E+03  0.66397714986E+03  0.00000000000E+00 0.  1.
          1    1    6    6  503    0 -0.12124712281E+02 -0.22142392495E+02  0.51403846395E+01  0.25762720112E+02  0.00000000000E+00 0. -1.
         -1    1    6    6    0  503  0.11940576219E+03 -0.18961623174E+03 -0.10009777181E+03  0.24542130165E+03  0.00000000000E+00 0.  1.
<mgrwt>
<rscale>  0 0.27548176E+04</rscale>
<asrwt>0</asrwt>
<pdfrwt beam="1">  1        2 0.17834141E+00 0.27548176E+04</pdfrwt>
<pdfrwt beam="2">  1       -1 0.25179482E+00 0.27548176E+04</pdfrwt>
<totfact> 0.13535941E+00</totfact>
</mgrwt>
</event>
<event>
12    7  0.1605494E-007  0.2255627E+04  0.7818608E-02  0.8495625E-01
          2   -1    0    0  501    0  0.00000000000E+00  0.00000000000E+00  0.57079621997E+03  0.57079621997E+03  0.00000000000E+00 0. -1.
         -1   -1    0    0    0  501 -0.00000000000E+00 -0.00000000000E+00 -0.22284017021E+04  0.22284017021E+04  0.00000000000E+00 0.  1.
         24    2    1    2    0    0  0.24279096054E+03 -0.78276693325E+03 -0.12634090826E+04  0.15080509583E+04  0.79647099761E+02 0.  0.
        254    2    1    2    0    0 -0.24279096054E+03  0.78276693325E+03 -0.39419639953E+03  0.12911469638E+04  0.91651413428E+03 0.  0.
         23    2    4    4    0    0  0.31288344902E+03  0.45898443022E+03 -0.29057621029E+03  0.63344388623E+03  0.90850774183E+02 0.  0.
         23    2    4    4    0    0 -0.55567440955E+03  0.32378250304E+03 -0.10362018925E+03  0.65770307754E+03  0.90703009201E+02 0.  0.
          4    1    3    3  502    0  0.13519991330E+03 -0.30817563771E+03 -0.49815206636E+03  0.60117112494E+03  0.00000000000E+00 0. -1.
         -3    1    3    3    0  502  0.10759104723E+03 -0.47459129555E+03 -0.76525701621E+03  0.90687983334E+03  0.00000000000E+00 0.  1.
         13    1    5    5    0    0  0.18048397974E+03  0.18591103702E+03 -0.14376627811E+03  0.29632098028E+03  0.00000000000E+00 0. -1.
        -13    1    5    5    0    0  0.13239946928E+03  0.27307339319E+03 -0.14680993218E+03  0.33712290596E+03  0.00000000000E+00 0.  1.
          4    1    6    6  503    0 -0.51501076688E+03  0.30600447081E+03 -0.11893681866E+03  0.61075428200E+03  0.00000000000E+00 0. -1.
         -4    1    6    6    0  503 -0.40663642678E+02  0.17778032227E+02  0.15316629409E+02  0.46948795534E+02  0.00000000000E+00 0.  1.
<mgrwt>
<rscale>  0 0.22556270E+04</rscale>
<asrwt>0</asrwt>
<pdfrwt beam="1">  1        2 0.87814804E-01 0.22556270E+04</pdfrwt>
<pdfrwt beam="2">  1       -1 0.34283103E+00 0.22556270E+04</pdfrwt>
<totfact> 0.94885012E-01</totfact>
</mgrwt>
</event>
<event>
12    7  0.1605494E-007  0.1494196E+04  0.7818608E-02  0.8888322E-01
         -1   -1    0    0    0  501 -0.00000000000E+00  0.00000000000E+00  0.99735790578E+03  0.99735790578E+03  0.00000000000E+00 0.  1.
          2   -1    0    0  501    0  0.00000000000E+00 -0.00000000000E+00 -0.55963420668E+03  0.55963420668E+03  0.00000000000E+00 0. -1.
         24    2    1    2    0    0 -0.20071146797E+03 -0.30945097401E+03 -0.79417679713E+02  0.38669186614E+03  0.84725632488E+02 0.  0.
        254    2    1    2    0    0  0.20071146797E+03  0.30945097401E+03  0.51714137881E+03  0.11703002463E+04  0.98291528739E+03 0.  0.
         23    2    4    4    0    0  0.36326482796E+03  0.13041349622E+03 -0.17334263684E+03  0.43286909820E+03  0.91427409454E+02 0.  0.
         23    2    4    4    0    0 -0.16255335999E+03  0.17903747779E+03  0.69048401565E+03  0.73743114813E+03  0.92512210363E+02 0.  0.
          2    1    3    3  502    0 -0.15233774035E+03 -0.23039602838E+03 -0.20706435493E+02  0.27697991533E+03  0.00000000000E+00 0. -1.
         -1    1    3    3    0  502 -0.48373727621E+02 -0.79054945627E+02 -0.58711244220E+02  0.10971195081E+03  0.00000000000E+00 0.  1.
         13    1    5    5    0    0  0.17057021015E+03  0.18921875853E+02 -0.51992636269E+02  0.17931945851E+03  0.00000000000E+00 0.  1.
        -13    1    5    5    0    0  0.19269461781E+03  0.11149162036E+03 -0.12135000057E+03  0.25354963968E+03  0.00000000000E+00 0. -1.
          3    1    6    6  503    0 -0.17407608725E+02 -0.56461648698E+01  0.10503757103E+03  0.10661986375E+03  0.00000000000E+00 0. -1.
         -3    1    6    6    0  503 -0.14514575126E+03  0.18468364266E+03  0.58544644462E+03  0.63081128438E+03  0.00000000000E+00 0.  1.
<mgrwt>
<rscale>  0 0.14941962E+04</rscale>
<asrwt>0</asrwt>
<pdfrwt beam="1">  1        2 0.86097571E-01 0.14941962E+04</pdfrwt>
<pdfrwt beam="2">  1       -1 0.15343968E+00 0.14941962E+04</pdfrwt>
<totfact> 0.19546148E+01</totfact>
</mgrwt>
</event>
<event>
12    7  0.1605494E-007  0.2001553E+04  0.7818608E-02  0.8605895E-01
          2   -1    0    0  501    0  0.00000000000E+00  0.00000000000E+00  0.97133339084E+03  0.97133339084E+03  0.00000000000E+00 0. -1.
         -1   -1    0    0    0  501 -0.00000000000E+00 -0.00000000000E+00 -0.10311119596E+04  0.10311119596E+04  0.00000000000E+00 0.  1.
         24    2    1    2    0    0  0.62914161976E+03 -0.48060925179E+03 -0.99938243567E+02  0.80196042648E+03  0.79677113996E+02 0.  0.
        254    2    1    2    0    0 -0.62914161976E+03  0.48060925179E+03  0.40159674762E+02  0.12004849240E+04  0.90152472106E+03 0.  0.
         23    2    4    4    0    0 -0.50416981307E+03  0.22715871183E+03  0.43279004197E+03  0.70810772210E+03  0.91219761559E+02 0.  0.
         23    2    4    4    0    0 -0.12497180669E+03  0.25345053996E+03 -0.39263036721E+03  0.49237720191E+03  0.91769139840E+02 0.  0.
          2    1    3    3  502    0  0.41633919316E+03 -0.33536234905E+03 -0.32297263415E+02  0.53558317948E+03  0.00000000000E+00 0. -1.
         -1    1    3    3    0  502  0.21280242660E+03 -0.14524690274E+03 -0.67640980152E+02  0.26637724700E+03  0.00000000000E+00 0.  1.
         13    1    5    5    0    0 -0.49444951370E+02  0.20934130542E+02  0.81546164141E+02  0.97636150701E+02  0.00000000000E+00 0. -1.
        -13    1    5    5    0    0 -0.45472486170E+03  0.20622458129E+03  0.35124387783E+03  0.61047157140E+03  0.00000000000E+00 0.  1.
          4    1    6    6  503    0 -0.68058902480E+02  0.10145897226E+03 -0.24133616512E+03  0.27049784075E+03  0.00000000000E+00 0.  1.
         -4    1    6    6    0  503 -0.56912904208E+02  0.15199156770E+03 -0.15129420209E+03  0.22187936115E+03  0.00000000000E+00 0. -1.
<mgrwt>
<rscale>  0 0.20015529E+04</rscale>
<asrwt>0</asrwt>
<pdfrwt beam="1">  1        2 0.14943591E+00 0.20015529E+04</pdfrwt>
<pdfrwt beam="2">  1       -1 0.15863261E+00 0.20015529E+04</pdfrwt>
<totfact> 0.83390080E+00</totfact>
</mgrwt>
</event>
<event>
12    7  0.1605494E-007  0.3774987E+04  0.7818608E-02  0.8051544E-01
         -1   -1    0    0    0  501 -0.00000000000E+00  0.00000000000E+00  0.10691910330E+04  0.10691910330E+04  0.00000000000E+00 0.  1.
          2   -1    0    0  501    0  0.00000000000E+00 -0.00000000000E+00 -0.33320812406E+04  0.33320812406E+04  0.00000000000E+00 0. -1.
         24    2    1    2    0    0  0.17015158894E+04 -0.52240679733E+03 -0.99409009110E+03  0.20402038610E+04  0.78431506065E+02 0.  0.
        254    2    1    2    0    0 -0.17015158894E+04  0.52240679733E+03 -0.12688001164E+04  0.23610684127E+04  0.89259460558E+03 0.  0.
         23    2    4    4    0    0 -0.15187598941E+04  0.10412029239E+03 -0.10205284497E+04  0.18351267308E+04  0.93483421375E+02 0.  0.
         23    2    4    4    0    0 -0.18275599530E+03  0.41828650494E+03 -0.24827166678E+03  0.52594168190E+03  0.81317145781E+02 0.  0.
          2    1    3    3  502    0  0.75354215113E+03 -0.25511238099E+03 -0.48054242720E+03  0.92942408233E+03  0.00000000000E+00 0. -1.
         -1    1    3    3    0  502  0.94797373831E+03 -0.26729441634E+03 -0.51354766390E+03  0.11107797786E+04  0.00000000000E+00 0.  1.
         13    1    5    5    0    0 -0.14937565681E+04  0.11434785153E+03 -0.10044047882E+04  0.18036665697E+04  0.00000000000E+00 0. -1.
        -13    1    5    5    0    0 -0.25003326055E+02 -0.10227559137E+02 -0.16123661441E+02  0.31460161124E+02  0.00000000000E+00 0.  1.
          1    1    6    6  503    0 -0.12100927337E+03  0.25530254255E+03 -0.10893605757E+03  0.30280306655E+03  0.00000000000E+00 0. -1.
         -1    1    6    6    0  503 -0.61746721931E+02  0.16298396239E+03 -0.13933560920E+03  0.22313861534E+03  0.00000000000E+00 0.  1.
<mgrwt>
<rscale>  0 0.37749868E+04</rscale>
<asrwt>0</asrwt>
<pdfrwt beam="1">  1        2 0.51262789E+00 0.37749868E+04</pdfrwt>
<pdfrwt beam="2">  1       -1 0.16449093E+00 0.37749868E+04</pdfrwt>
<totfact> 0.26101577E-01</totfact>
</mgrwt>
</event>
<event>
12    7  0.2525207E-007  0.1711996E+04  0.7818608E-02  0.8754552E-01
          2   -1    0    0  501    0  0.00000000000E+00  0.00000000000E+00  0.16876211096E+04  0.16876211096E+04  0.00000000000E+00 0. -1.
         -1   -1    0    0    0  501 -0.00000000000E+00 -0.00000000000E+00 -0.43418088623E+03  0.43418088623E+03  0.00000000000E+00 0.  1.
         24    2    1    2    0    0  0.23131627159E+03 -0.30743681366E+03  0.10535548978E+04  0.11242523705E+04  0.77076961429E+02 0.  0.
        254    2    1    2    0    0 -0.23131627159E+03  0.30743681366E+03  0.19988532561E+03  0.99754962537E+03  0.89840219267E+03 0.  0.
         23    2    4    4    0    0  0.30271202200E+03  0.50281880388E+01  0.20473855547E+03  0.37694533115E+03  0.92249962859E+02 0.  0.
         23    2    4    4    0    0 -0.53402829358E+03  0.30240862562E+03 -0.48532298578E+01  0.62060429422E+03  0.92135449004E+02 0.  0.
          2    1    3    3  502    0  0.22363521708E+03 -0.29987670698E+03  0.10465510631E+04  0.11113990630E+04  0.00000000000E+00 0. -1.
         -1    1    3    3    0  502  0.76810545029E+01 -0.75601066772E+01  0.70038347007E+01  0.12853307425E+02  0.00000000000E+00 0.  1.
         13    1    5    5    0    0  0.79023821304E+02  0.83960667351E+01  0.95305071338E+01  0.80038046180E+02  0.00000000000E+00 0.  1.
        -13    1    5    5    0    0  0.22368820069E+03 -0.33678786964E+01  0.19520804834E+03  0.29690728497E+03  0.00000000000E+00 0. -1.
          3    1    6    6  503    0 -0.52627281723E+03  0.30344874853E+03  0.56380670505E+01  0.60751626228E+03  0.00000000000E+00 0. -1.
         -3    1    6    6    0  503 -0.77554763571E+01 -0.10401229060E+01 -0.10491296908E+02  0.13088031938E+02  0.00000000000E+00 0.  1.
<mgrwt>
<rscale>  0 0.17119963E+04</rscale>
<asrwt>0</asrwt>
<pdfrwt beam="1">  1        2 0.25963401E+00 0.17119963E+04</pdfrwt>
<pdfrwt beam="2">  1       -1 0.66797060E-01 0.17119963E+04</pdfrwt>
<totfact> 0.24500434E+01</totfact>
</mgrwt>
</event>
<event>
12    7  0.1605494E-007  0.2000337E+04  0.7818608E-02  0.8606463E-01
         -1   -1    0    0    0  501 -0.00000000000E+00  0.00000000000E+00  0.46028827097E+03  0.46028827097E+03  0.00000000000E+00 0.  1.
          2   -1    0    0  501    0  0.00000000000E+00 -0.00000000000E+00 -0.21732848259E+04  0.21732848259E+04  0.00000000000E+00 0. -1.
         24    2    1    2    0    0  0.53262424446E+03 -0.57106715249E+03 -0.56505861218E+03  0.96719159286E+03  0.79762545473E+02 0.  0.
        254    2    1    2    0    0 -0.53262424446E+03  0.57106715249E+03 -0.11479379427E+04  0.16663815040E+04  0.92155277552E+03 0.  0.
         23    2    4    4    0    0  0.14208442027E+03  0.35745724599E+03 -0.75387517930E+03  0.85122872977E+03  0.91098294303E+02 0.  0.
         23    2    4    4    0    0 -0.67470866473E+03  0.21360990650E+03 -0.39406276342E+03  0.81515277422E+03  0.91255736165E+02 0.  0.
          4    1    3    3  502    0  0.13166968225E+01 -0.17701253744E+02 -0.14823036725E+02  0.23125537666E+02  0.00000000000E+00 0. -1.
         -3    1    3    3    0  502  0.53130754763E+03 -0.55336589875E+03 -0.55023557546E+03  0.94406605519E+03  0.00000000000E+00 0.  1.
         13    1    5    5    0    0  0.11118632370E+03  0.29459534138E+03 -0.68032923288E+03  0.74966437747E+03  0.00000000000E+00 0. -1.
        -13    1    5    5    0    0  0.30898096572E+02  0.62861904606E+02 -0.73545946427E+02  0.10156435230E+03  0.00000000000E+00 0.  1.
          3    1    6    6  503    0 -0.39697313900E+03  0.13880881495E+03 -0.18427942184E+03  0.45914536425E+03  0.00000000000E+00 0. -1.
         -3    1    6    6    0  503 -0.27773552573E+03  0.74801091550E+02 -0.20978334158E+03  0.35600740997E+03  0.00000000000E+00 0.  1.
<mgrwt>
<rscale>  0 0.20003375E+04</rscale>
<asrwt>0</asrwt>
<pdfrwt beam="1">  1        2 0.33435151E+00 0.20003375E+04</pdfrwt>
<pdfrwt beam="2">  1       -1 0.70813581E-01 0.20003375E+04</pdfrwt>
<totfact> 0.11390978E+01</totfact>
</mgrwt>
</event>
<event>
12    7  0.1605494E-007  0.1412365E+04  0.7818608E-02  0.8944916E-01
         -1   -1    0    0    0  501 -0.00000000000E+00  0.00000000000E+00  0.45477013045E+03  0.45477013045E+03  0.00000000000E+00 0.  1.
          2   -1    0    0  501    0  0.00000000000E+00 -0.00000000000E+00 -0.10965842878E+04  0.10965842878E+04  0.00000000000E+00 0. -1.
         24    2    1    2    0    0 -0.27475512934E+03  0.41844982504E+02  0.15267450307E+03  0.32765267122E+03  0.82494759899E+02 0.  0.
        254    2    1    2    0    0  0.27475512934E+03 -0.41844982504E+02 -0.79448866043E+03  0.12237017470E+04  0.88825241374E+03 0.  0.
         23    2    4    4    0    0  0.52925820059E+03 -0.16572395413E+03 -0.72634996382E+03  0.91869203105E+03  0.93979285536E+02 0.  0.
         23    2    4    4    0    0 -0.25450307125E+03  0.12387897163E+03 -0.68138696612E+02  0.30500971600E+03  0.90940815836E+02 0.  0.
          2    1    3    3  502    0 -0.72105357183E+02 -0.23616598296E+02  0.27963762585E+02  0.80863454461E+02  0.00000000000E+00 0. -1.
         -1    1    3    3    0  502 -0.20264977216E+03  0.65461580800E+02  0.12471074048E+03  0.24678921676E+03  0.00000000000E+00 0.  1.
         13    1    5    5    0    0  0.13151458996E+02  0.74181248094E+01 -0.71729928143E+01  0.16716497101E+02  0.00000000000E+00 0.  1.
        -13    1    5    5    0    0  0.51610674160E+03 -0.17314207894E+03 -0.71917697100E+03  0.90197553395E+03  0.00000000000E+00 0. -1.
          1    1    6    6  503    0 -0.23307031347E+03  0.13025504073E+03 -0.81251188686E+02  0.27908762480E+03  0.00000000000E+00 0. -1.
         -1    1    6    6    0  503 -0.21432757788E+02 -0.63760690954E+01  0.13112492074E+02  0.25922091194E+02  0.00000000000E+00 0.  1.
<mgrwt>
<rscale>  0 0.14123651E+04</rscale>
<asrwt>0</asrwt>
<pdfrwt beam="1">  1        2 0.16870528E+00 0.14123651E+04</pdfrwt>
<pdfrwt beam="2">  1       -1 0.69964635E-01 0.14123651E+04</pdfrwt>
<totfact> 0.50155866E+01</totfact>
</mgrwt>
</event>
<event>
12    7  0.1605494E-007  0.1636104E+04  0.7818608E-02  0.8798670E-01
         -1   -1    0    0    0  501 -0.00000000000E+00  0.00000000000E+00  0.42061766048E+03  0.42061766048E+03  0.00000000000E+00 0.  1.
          2   -1    0    0  501    0  0.00000000000E+00 -0.00000000000E+00 -0.15910146741E+04  0.15910146741E+04  0.00000000000E+00 0. -1.
         24    2    1    2    0    0 -0.12391001554E+03  0.10137432151E+03  0.25628583953E+03  0.31761315900E+03  0.97802056293E+02 0.  0.
        254    2    1    2    0    0  0.12391001554E+03 -0.10137432151E+03 -0.14266828531E+04  0.16940191756E+04  0.89924777384E+03 0.  0.
         23    2    4    4    0    0 -0.21485024371E+03  0.14142214046E+03 -0.85108455962E+02  0.28621201342E+03  0.92266019271E+02 0.  0.
         23    2    4    4    0    0  0.33876025925E+03 -0.24279646197E+03 -0.13415743972E+04  0.14078071621E+04  0.91599713259E+02 0.  0.
          2    1    3    3  502    0 -0.17246800085E+02  0.32089956441E+02  0.14207088293E+03  0.14666749194E+03  0.00000000000E+00 0. -1.
         -1    1    3    3    0  502 -0.10666321545E+03  0.69284365066E+02  0.11421495660E+03  0.17094566705E+03  0.00000000000E+00 0.  1.
         13    1    5    5    0    0  0.81909230977E+01 -0.12219269760E+01 -0.62423536575E+00  0.83050584898E+01  0.00000000000E+00 0.  1.
        -13    1    5    5    0    0 -0.22304116681E+03  0.14264406744E+03 -0.84484220597E+02  0.27790695493E+03  0.00000000000E+00 0. -1.
          2    1    6    6  503    0  0.19527432742E+03 -0.14740483885E+03 -0.92949235366E+03  0.96115362195E+03  0.00000000000E+00 0. -1.
         -2    1    6    6    0  503  0.14348593183E+03 -0.95391623115E+02 -0.41208204349E+03  0.44665354019E+03  0.00000000000E+00 0.  1.
<mgrwt>
<rscale>  0 0.16361037E+04</rscale>
<asrwt>0</asrwt>
<pdfrwt beam="1">  1        2 0.24477149E+00 0.16361037E+04</pdfrwt>
<pdfrwt beam="2">  1       -1 0.64710410E-01 0.16361037E+04</pdfrwt>
<totfact> 0.29763011E+01</totfact>
</mgrwt>
</event>
<event>
12    7  0.1605494E-007  0.2902597E+04  0.7818608E-02  0.8272105E-01
         -1   -1    0    0    0  501 -0.00000000000E+00  0.00000000000E+00  0.12506449304E+04  0.12506449304E+04  0.00000000000E+00 0.  1.
          2   -1    0    0  501    0  0.00000000000E+00 -0.00000000000E+00 -0.16841451543E+04  0.16841451543E+04  0.00000000000E+00 0. -1.
         24    2    1    2    0    0  0.96764197148E+03 -0.87400327812E+03 -0.30810915682E+03  0.13422420999E+04  0.80435608096E+02 0.  0.
        254    2    1    2    0    0 -0.96764197148E+03  0.87400327812E+03 -0.12539106706E+03  0.15925479848E+04  0.90568948825E+03 0.  0.
         23    2    4    4    0    0 -0.97054314339E+03  0.10159854353E+04 -0.56528280883E+02  0.14091805533E+04  0.91727789613E+02 0.  0.
         23    2    4    4    0    0  0.29011719113E+01 -0.14198215716E+03 -0.68862786181E+02  0.18336743152E+03  0.93349782378E+02 0.  0.
          4    1    3    3  502    0  0.10656289884E+02 -0.22665851398E+02 -0.92167681549E+00  0.25062857416E+02  0.00000000000E+00 0. -1.
         -3    1    3    3    0  502  0.95698568160E+03 -0.85133742673E+03 -0.30718748000E+03  0.13171792425E+04  0.00000000000E+00 0.  1.
         13    1    5    5    0    0 -0.90455333835E+03  0.95503198319E+03 -0.30937332374E+02  0.13157735175E+04  0.00000000000E+00 0. -1.
        -13    1    5    5    0    0 -0.65989805046E+02  0.60953452093E+02 -0.25590948509E+02  0.93407035804E+02  0.00000000000E+00 0.  1.
          1    1    6    6  503    0  0.27550620713E+02 -0.14008286395E+03 -0.69176114307E+02  0.15864293323E+03  0.00000000000E+00 0. -1.
         -1    1    6    6    0  503 -0.24649448802E+02 -0.18992932123E+01  0.31332812606E+00  0.24724498285E+02  0.00000000000E+00 0.  1.
<mgrwt>
<rscale>  0 0.29025972E+04</rscale>
<asrwt>0</asrwt>
<pdfrwt beam="1">  1        2 0.25909925E+00 0.29025972E+04</pdfrwt>
<pdfrwt beam="2">  1       -1 0.19240691E+00 0.29025972E+04</pdfrwt>
<totfact> 0.16708600E+00</totfact>
</mgrwt>
</event>
<event>
12    7  0.1605494E-007  0.2210601E+04  0.7818608E-02  0.8514029E-01
          2   -1    0    0  501    0  0.00000000000E+00  0.00000000000E+00  0.20717121322E+04  0.20717121322E+04  0.00000000000E+00 0. -1.
         -1   -1    0    0    0  501 -0.00000000000E+00 -0.00000000000E+00 -0.58970015054E+03  0.58970015054E+03  0.00000000000E+00 0.  1.
         24    2    1    2    0    0  0.27958397780E+02  0.42570684387E+03 -0.36141265398E+03  0.56438000133E+03  0.76796422568E+02 0.  0.
        254    2    1    2    0    0 -0.27958397780E+02 -0.42570684387E+03  0.18434246356E+04  0.20970322814E+04  0.90405863364E+03 0.  0.
         23    2    4    4    0    0  0.23922283619E+03 -0.73691778725E+02  0.15186164115E+04  0.15418468113E+04  0.91857175344E+02 0.  0.
         23    2    4    4    0    0 -0.26718123397E+03 -0.35201506514E+03  0.32480822407E+03  0.55518547003E+03  0.86198061687E+02 0.  0.
          2    1    3    3  502    0 -0.65250128323E+01  0.33668808173E+03 -0.26310028197E+03  0.42734435593E+03  0.00000000000E+00 0. -1.
         -1    1    3    3    0  502  0.34483410612E+02  0.89018762143E+02 -0.98312372001E+02  0.13703564540E+03  0.00000000000E+00 0.  1.
         13    1    5    5    0    0  0.12626801102E+03 -0.82562202026E+02  0.96894432559E+03  0.98061880153E+03  0.00000000000E+00 0. -1.
        -13    1    5    5    0    0  0.11295482517E+03  0.88704233010E+01  0.54967208594E+03  0.56122800982E+03  0.00000000000E+00 0.  1.
          1    1    6    6  503    0 -0.19103461847E+03 -0.23191920994E+03  0.17102152843E+03  0.34572982020E+03  0.00000000000E+00 0. -1.
         -1    1    6    6    0  503 -0.76146615503E+02 -0.12009585521E+03  0.15378669564E+03  0.20945564983E+03  0.00000000000E+00 0.  1.
<mgrwt>
<rscale>  0 0.22106008E+04</rscale>
<asrwt>0</asrwt>
<pdfrwt beam="1">  1        2 0.31872494E+00 0.22106008E+04</pdfrwt>
<pdfrwt beam="2">  1       -1 0.90723101E-01 0.22106008E+04</pdfrwt>
<totfact> 0.75159733E+00</totfact>
</mgrwt>
</event>
<event>
12    7  0.1605494E-007  0.1871959E+04  0.7818608E-02  0.8668941E-01
          2   -1    0    0  501    0  0.00000000000E+00  0.00000000000E+00  0.30255933236E+04  0.30255933236E+04  0.00000000000E+00 0. -1.
         -1   -1    0    0    0  501 -0.00000000000E+00 -0.00000000000E+00 -0.28954910566E+03  0.28954910566E+03  0.00000000000E+00 0.  1.
         24    2    1    2    0    0  0.22706540216E+03 -0.65491013716E+03  0.13886026150E+04  0.15540066490E+04  0.79078809308E+02 0.  0.
        254    2    1    2    0    0 -0.22706540216E+03  0.65491013716E+03  0.13474416030E+04  0.17611357803E+04  0.89751567044E+03 0.  0.
         23    2    4    4    0    0 -0.56996441655E+02 -0.16170120928E+03  0.62235247577E+03  0.65219013483E+03  0.92916588588E+02 0.  0.
         23    2    4    4    0    0 -0.17006896050E+03  0.81661134645E+03  0.72508912723E+03  0.11089456455E+04  0.90711960543E+02 0.  0.
          4    1    3    3  502    0  0.13301217513E+03 -0.40970780479E+03  0.94393723588E+03  0.10375790232E+04  0.00000000000E+00 0. -1.
         -3    1    3    3    0  502  0.94053227031E+02 -0.24520233237E+03  0.44466537910E+03  0.51642762579E+03  0.00000000000E+00 0.  1.
         13    1    5    5    0    0 -0.67801064603E+02 -0.73939947499E+02  0.24769383375E+03  0.26723834956E+03  0.00000000000E+00 0. -1.
        -13    1    5    5    0    0  0.10804622949E+02 -0.87761261785E+02  0.37465864202E+03  0.38495178527E+03  0.00000000000E+00 0.  1.
          4    1    6    6  503    0 -0.17588807848E+03  0.81318015029E+03  0.71625784280E+03  0.10978268854E+04  0.00000000000E+00 0. -1.
         -4    1    6    6    0  503  0.58191179802E+01  0.34311961562E+01  0.88312844341E+01  0.11118760088E+02  0.00000000000E+00 0.  1.
<mgrwt>
<rscale>  0 0.18719592E+04</rscale>
<asrwt>0</asrwt>
<pdfrwt beam="1">  1        2 0.46547587E+00 0.18719592E+04</pdfrwt>
<pdfrwt beam="2">  1       -1 0.44546018E-01 0.18719592E+04</pdfrwt>
<totfact> 0.89790181E+00</totfact>
</mgrwt>
</event>
<event>
12    7  0.1605494E-007  0.2860359E+04  0.7818608E-02  0.8284771E-01
         -1   -1    0    0    0  501 -0.00000000000E+00  0.00000000000E+00  0.13605593405E+04  0.13605593405E+04  0.00000000000E+00 0.  1.
          2   -1    0    0  501    0  0.00000000000E+00 -0.00000000000E+00 -0.15033617433E+04  0.15033617433E+04  0.00000000000E+00 0. -1.
         24    2    1    2    0    0  0.78077450399E+02  0.12233002574E+04  0.32432917224E+03  0.12705435267E+04  0.80819757029E+02 0.  0.
        254    2    1    2    0    0 -0.78077450399E+02 -0.12233002574E+04 -0.46713157509E+03  0.15933775571E+04  0.90447803890E+03 0.  0.
         23    2    4    4    0    0 -0.28759248717E+03 -0.18499492907E+03 -0.39103792177E+03  0.52762899387E+03  0.92461540386E+02 0.  0.
         23    2    4    4    0    0  0.20951503677E+03 -0.10383053284E+04 -0.76093653313E+02  0.10657485632E+04  0.89751046507E+02 0.  0.
          2    1    3    3  502    0 -0.97231615640E+01  0.41273993209E+02  0.31736868214E+01  0.42522402028E+02  0.00000000000E+00 0. -1.
         -1    1    3    3    0  502  0.87800611963E+02  0.11820262642E+04  0.32115548542E+03  0.12280211247E+04  0.00000000000E+00 0.  1.
         13    1    5    5    0    0 -0.24699079596E+03 -0.16969097491E+03 -0.28711443839E+03  0.41501106128E+03  0.00000000000E+00 0. -1.
        -13    1    5    5    0    0 -0.40601691210E+02 -0.15303954161E+02 -0.10392348338E+03  0.11261793259E+03  0.00000000000E+00 0.  1.
          1    1    6    6  503    0  0.74424112632E+02 -0.40019732361E+03  0.14030938574E+02  0.40730052001E+03  0.00000000000E+00 0.  1.
         -1    1    6    6    0  503  0.13509092414E+03 -0.63810800476E+03 -0.90124591887E+02  0.65844804320E+03  0.00000000000E+00 0. -1.
<mgrwt>
<rscale>  0 0.28603586E+04</rscale>
<asrwt>0</asrwt>
<pdfrwt beam="1">  1        2 0.23128642E+00 0.28603586E+04</pdfrwt>
<pdfrwt beam="2">  1       -1 0.20931682E+00 0.28603586E+04</pdfrwt>
<totfact> 0.16192761E+00</totfact>
</mgrwt>
</event>
<event>
12    7  0.1605494E-007  0.1165013E+04  0.7818608E-02  0.9144045E-01
          2   -1    0    0  501    0  0.00000000000E+00  0.00000000000E+00  0.31688901635E+03  0.31688901635E+03  0.00000000000E+00 0. -1.
         -1   -1    0    0    0  501 -0.00000000000E+00 -0.00000000000E+00 -0.10707645909E+04  0.10707645909E+04  0.00000000000E+00 0.  1.
         24    2    1    2    0    0 -0.50974823136E+02 -0.26511497788E+03 -0.15689913839E+03  0.32212828506E+03  0.79151173843E+02 0.  0.
        254    2    1    2    0    0  0.50974823136E+02  0.26511497788E+03 -0.59697643613E+03  0.10655253222E+04  0.84028504853E+03 0.  0.
         23    2    4    4    0    0 -0.21723503717E+02 -0.29459064617E+03 -0.23106922288E+03  0.38634022018E+03  0.92791274047E+02 0.  0.
         23    2    4    4    0    0  0.72698326853E+02  0.55970562405E+03 -0.36590721325E+03  0.67918510199E+03  0.94068494874E+02 0.  0.
          2    1    3    3  502    0 -0.95767396869E+01 -0.81278517169E+01  0.71430120818E+01  0.14449862912E+02  0.00000000000E+00 0. -1.
         -1    1    3    3    0  502 -0.41398083449E+02 -0.25698712616E+03 -0.16404215047E+03  0.30767842215E+03  0.00000000000E+00 0.  1.
         13    1    5    5    0    0  0.36583071178E+02 -0.12538517417E+03 -0.10053194038E+03  0.16482243183E+03  0.00000000000E+00 0. -1.
        -13    1    5    5    0    0 -0.58306574895E+02 -0.16920547200E+03 -0.13053728251E+03  0.22151778835E+03  0.00000000000E+00 0.  1.
          2    1    6    6  503    0 -0.23071527147E+02  0.11306623841E+03 -0.74908332737E+02  0.13757735259E+03  0.00000000000E+00 0. -1.
         -2    1    6    6    0  503  0.95769854000E+02  0.44663938564E+03 -0.29099888052E+03  0.54160774939E+03  0.00000000000E+00 0.  1.
<mgrwt>
<rscale>  0 0.11650125E+04</rscale>
<asrwt>0</asrwt>
<pdfrwt beam="1">  1        2 0.48752156E-01 0.11650125E+04</pdfrwt>
<pdfrwt beam="2">  1       -1 0.16473302E+00 0.11650125E+04</pdfrwt>
<totfact> 0.31502491E+01</totfact>
</mgrwt>
</event>
<event>
12    7  0.1605494E-007  0.1395207E+04  0.7818608E-02  0.8957295E-01
          2   -1    0    0  501    0  0.00000000000E+00  0.00000000000E+00  0.65284641205E+03  0.65284641205E+03  0.00000000000E+00 0. -1.
         -1   -1    0    0    0  501 -0.00000000000E+00 -0.00000000000E+00 -0.74542888743E+03  0.74542888743E+03  0.00000000000E+00 0.  1.
         24    2    1    2    0    0 -0.22325195969E+02  0.31501725195E+03  0.21202039343E+03  0.38860614780E+03  0.79547517115E+02 0.  0.
        254    2    1    2    0    0  0.22325195969E+02 -0.31501725195E+03 -0.30460286882E+03  0.10096691517E+04  0.90934845068E+03 0.  0.
         23    2    4    4    0    0 -0.21397437457E+03  0.90713476338E+02  0.19491809078E+03  0.31708130541E+03  0.92377077067E+02 0.  0.
         23    2    4    4    0    0  0.23629957054E+03 -0.40573072828E+03 -0.49952095960E+03  0.69258784627E+03  0.98497841645E+02 0.  0.
          2    1    3    3  502    0 -0.26506258878E+02  0.31790257886E+03  0.20260177334E+03  0.37790489540E+03  0.00000000000E+00 0. -1.
         -1    1    3    3    0  502  0.41810629094E+01 -0.28853269172E+01  0.94186200952E+01  0.10701252402E+02  0.00000000000E+00 0.  1.
         13    1    5    5    0    0 -0.96643449041E+02  0.82866691774E+02  0.13328994242E+03  0.18431780597E+03  0.00000000000E+00 0.  1.
        -13    1    5    5    0    0 -0.11733092553E+03  0.78467845635E+01  0.61628148358E+02  0.13276349944E+03  0.00000000000E+00 0. -1.
          1    1    6    6  503    0  0.18400392270E+03 -0.22933325985E+03 -0.33547752081E+03  0.44609007455E+03  0.00000000000E+00 0. -1.
         -1    1    6    6    0  503  0.52295647841E+02 -0.17639746844E+03 -0.16404343879E+03  0.24649777172E+03  0.00000000000E+00 0.  1.
<mgrwt>
<rscale>  0 0.13952069E+04</rscale>
<asrwt>0</asrwt>
<pdfrwt beam="1">  1        2 0.10043791E+00 0.13952069E+04</pdfrwt>
<pdfrwt beam="2">  1       -1 0.11468137E+00 0.13952069E+04</pdfrwt>
<totfact> 0.34386332E+01</totfact>
</mgrwt>
</event>
<event>
12    7  0.1853153E-007  0.2790477E+04  0.7818608E-02  0.8306231E-01
          2   -1    0    0  501    0  0.00000000000E+00  0.00000000000E+00  0.30136019498E+04  0.30136019498E+04  0.00000000000E+00 0. -1.
         -1   -1    0    0    0  501 -0.00000000000E+00 -0.00000000000E+00 -0.64596819867E+03  0.64596819867E+03  0.00000000000E+00 0.  1.
         24    2    1    2    0    0  0.53818280765E+03 -0.50702706290E+03  0.23797164407E+04  0.24932310693E+04  0.80210036322E+02 0.  0.
        254    2    1    2    0    0 -0.53818280765E+03  0.50702706290E+03 -0.12082689566E+02  0.11663390791E+04  0.90193330085E+03 0.  0.
         23    2    4    4    0    0 -0.22753173645E+03  0.70882180270E+03  0.12744815940E+03  0.76071568140E+03  0.90809005711E+02 0.  0.
         23    2    4    4    0    0 -0.31065107121E+03 -0.20179473980E+03 -0.13953084897E+03  0.40562339775E+03  0.88522753750E+02 0.  0.
          2    1    3    3  502    0  0.48133217982E+03 -0.46756633226E+03  0.20772605632E+04  0.21829590903E+04  0.00000000000E+00 0. -1.
         -1    1    3    3    0  502  0.56850627833E+02 -0.39460730642E+02  0.30245587743E+03  0.31027197898E+03  0.00000000000E+00 0.  1.
         13    1    5    5    0    0 -0.10304014521E+03  0.32564229347E+03  0.10442892846E+03  0.35716323427E+03  0.00000000000E+00 0. -1.
        -13    1    5    5    0    0 -0.12449159124E+03  0.38317950923E+03  0.23019230936E+02  0.40355244712E+03  0.00000000000E+00 0.  1.
          4    1    6    6  503    0 -0.27716184246E+03 -0.15128022353E+03 -0.13903347301E+03  0.34501405705E+03  0.00000000000E+00 0. -1.
         -4    1    6    6    0  503 -0.33489228748E+02 -0.50514516272E+02 -0.49737595571E+00  0.60609340693E+02  0.00000000000E+00 0.  1.
<mgrwt>
<rscale>  0 0.27904774E+04</rscale>
<asrwt>0</asrwt>
<pdfrwt beam="1">  1        2 0.46363106E+00 0.27904774E+04</pdfrwt>
<pdfrwt beam="2">  1       -1 0.99379724E-01 0.27904774E+04</pdfrwt>
<totfact> 0.16329885E+00</totfact>
</mgrwt>
</event>
<event>
12    7  0.1605494E-007  0.2275917E+04  0.7818608E-02  0.8487477E-01
          2   -1    0    0  501    0  0.00000000000E+00  0.00000000000E+00  0.18413667831E+04  0.18413667831E+04  0.00000000000E+00 0. -1.
         -1   -1    0    0    0  501 -0.00000000000E+00 -0.00000000000E+00 -0.70325483354E+03  0.70325483354E+03  0.00000000000E+00 0.  1.
         24    2    1    2    0    0  0.22270890465E+03 -0.31255326255E+03  0.14757596093E+04  0.15268218752E+04  0.77651890402E+02 0.  0.
        254    2    1    2    0    0 -0.22270890465E+03  0.31255326255E+03 -0.33764765975E+03  0.10177997414E+04  0.88012588492E+03 0.  0.
         23    2    4    4    0    0 -0.41431160353E+03 -0.12601771602E+03 -0.35495645527E+02  0.44438297391E+03  0.93175732261E+02 0.  0.
         23    2    4    4    0    0  0.19160269888E+03  0.43857097857E+03 -0.30215201422E+03  0.57341676749E+03  0.91950269576E+02 0.  0.
          2    1    3    3  502    0  0.22043558126E+03 -0.29399952544E+03  0.13285853503E+04  0.13784653059E+04  0.00000000000E+00 0. -1.
         -1    1    3    3    0  502  0.22733233886E+01 -0.18553737103E+02  0.14717425894E+03  0.14835656930E+03  0.00000000000E+00 0.  1.
         13    1    5    5    0    0 -0.15333284428E+02 -0.27619721017E+02 -0.76746275437E+01  0.32509360319E+02  0.00000000000E+00 0.  1.
        -13    1    5    5    0    0 -0.39897831910E+03 -0.98397995003E+02 -0.27821017984E+02  0.41187361359E+03  0.00000000000E+00 0. -1.
          1    1    6    6  503    0  0.17968437267E+03  0.41505001615E+03 -0.25452033096E+03  0.51897359139E+03  0.00000000000E+00 0. -1.
         -1    1    6    6    0  503  0.11918326209E+02  0.23520962416E+02 -0.47631683268E+02  0.54443176097E+02  0.00000000000E+00 0.  1.
<mgrwt>
<rscale>  0 0.22759175E+04</rscale>
<asrwt>0</asrwt>
<pdfrwt beam="1">  1        2 0.28328720E+00 0.22759175E+04</pdfrwt>
<pdfrwt beam="2">  1       -1 0.10819305E+00 0.22759175E+04</pdfrwt>
<totfact> 0.67166797E+00</totfact>
</mgrwt>
</event>
<event>
12    7  0.1605494E-007  0.2626331E+04  0.7818608E-02  0.8359312E-01
          2   -1    0    0  501    0  0.00000000000E+00  0.00000000000E+00  0.15939005288E+04  0.15939005288E+04  0.00000000000E+00 0. -1.
         -1   -1    0    0    0  501 -0.00000000000E+00 -0.00000000000E+00 -0.10818764580E+04  0.10818764580E+04  0.00000000000E+00 0.  1.
         24    2    1    2    0    0  0.97558542797E+03 -0.45178027494E+03 -0.21384306433E+03  0.10991001088E+04  0.80123959467E+02 0.  0.
        254    2    1    2    0    0 -0.97558542797E+03  0.45178027494E+03  0.72586713512E+03  0.15766768781E+04  0.89618889520E+03 0.  0.
         23    2    4    4    0    0 -0.88942317416E+03  0.68184530392E+03  0.66728568333E+03  0.13075797966E+04  0.92239579370E+02 0.  0.
         23    2    4    4    0    0 -0.86162253809E+02 -0.23006502898E+03  0.58581451782E+02  0.26909708149E+03  0.92884881632E+02 0.  0.
          2    1    3    3  502    0  0.31952083013E+02 -0.31923305618E+00 -0.85313147796E+01  0.33072962529E+02  0.00000000000E+00 0. -1.
         -1    1    3    3    0  502  0.94363334495E+03 -0.45146104189E+03 -0.20531174955E+03  0.10660271463E+04  0.00000000000E+00 0.  1.
         13    1    5    5    0    0 -0.42617027968E+03  0.28528353643E+03  0.26759562320E+03  0.57845935120E+03  0.00000000000E+00 0. -1.
        -13    1    5    5    0    0 -0.46325289448E+03  0.39656176749E+03  0.39969006013E+03  0.72912044537E+03  0.00000000000E+00 0.  1.
          3    1    6    6  503    0  0.16732747807E+02 -0.15152681854E+02 -0.35593096339E+01  0.22852949517E+02  0.00000000000E+00 0. -1.
         -3    1    6    6    0  503 -0.10289500162E+03 -0.21491234712E+03  0.62140761416E+02  0.24624413198E+03  0.00000000000E+00 0.  1.
<mgrwt>
<rscale>  0 0.26263309E+04</rscale>
<asrwt>0</asrwt>
<pdfrwt beam="1">  1        2 0.24521547E+00 0.26263309E+04</pdfrwt>
<pdfrwt beam="2">  1       -1 0.16644253E+00 0.26263309E+04</pdfrwt>
<totfact> 0.29534478E+00</totfact>
</mgrwt>
</event>
<event>
12    7  0.1605494E-007  0.1467844E+04  0.7818608E-02  0.8906122E-01
          2   -1    0    0  501    0  0.00000000000E+00  0.00000000000E+00  0.11173916761E+04  0.11173916761E+04  0.00000000000E+00 0. -1.
         -1   -1    0    0    0  501 -0.00000000000E+00 -0.00000000000E+00 -0.48205271924E+03  0.48205271924E+03  0.00000000000E+00 0.  1.
         24    2    1    2    0    0  0.39486244508E+03  0.42766011652E+02  0.48278151458E+03  0.63015093063E+03  0.79163895003E+02 0.  0.
        254    2    1    2    0    0 -0.39486244508E+03 -0.42766011652E+02  0.15255744231E+03  0.96929346475E+03  0.87092523520E+03 0.  0.
         23    2    4    4    0    0  0.11417627631E+03  0.20755043262E+03  0.28244477064E+03  0.38001774993E+03  0.92331130414E+02 0.  0.
         23    2    4    4    0    0 -0.50903872138E+03 -0.25031644427E+03 -0.12988732834E+03  0.58927571482E+03  0.92716815458E+02 0.  0.
          2    1    3    3  502    0  0.20397540964E+03  0.60989455338E+02  0.26670130374E+03  0.34125542752E+03  0.00000000000E+00 0. -1.
         -1    1    3    3    0  502  0.19088703544E+03 -0.18223443685E+02  0.21608021084E+03  0.28889550310E+03  0.00000000000E+00 0.  1.
         13    1    5    5    0    0 -0.11186952366E+02  0.36273389308E+02  0.70466269876E+02  0.80040001658E+02  0.00000000000E+00 0. -1.
        -13    1    5    5    0    0  0.12536322867E+03  0.17127704331E+03  0.21197850077E+03  0.29997774827E+03  0.00000000000E+00 0.  1.
          1    1    6    6  503    0 -0.26225820071E+03 -0.17519785759E+03 -0.50763777245E+02  0.31945361827E+03  0.00000000000E+00 0. -1.
         -1    1    6    6    0  503 -0.24678052067E+03 -0.75118586683E+02 -0.79123551091E+02  0.26982209655E+03  0.00000000000E+00 0.  1.
<mgrwt>
<rscale>  0 0.14678443E+04</rscale>
<asrwt>0</asrwt>
<pdfrwt beam="1">  1        2 0.17190641E+00 0.14678443E+04</pdfrwt>
<pdfrwt beam="2">  1       -1 0.74161957E-01 0.14678443E+04</pdfrwt>
<totfact> 0.42981024E+01</totfact>
</mgrwt>
</event>
<event>
12    7  0.1605494E-007  0.3290341E+04  0.7818608E-02  0.8165358E-01
         -1   -1    0    0    0  501 -0.00000000000E+00  0.00000000000E+00  0.14655850146E+04  0.14655850146E+04  0.00000000000E+00 0.  1.
          2   -1    0    0  501    0  0.00000000000E+00 -0.00000000000E+00 -0.18467613538E+04  0.18467613538E+04  0.00000000000E+00 0. -1.
         24    2    1    2    0    0 -0.11948477240E+04 -0.85506197883E+03  0.21396196500E+03  0.14869144004E+04  0.79640695265E+02 0.  0.
        254    2    1    2    0    0  0.11948477240E+04  0.85506197883E+03 -0.59513830416E+03  0.18254319679E+04  0.90510783733E+03 0.  0.
         23    2    4    4    0    0  0.96185400899E+03  0.73692216063E+03 -0.82242973040E+03  0.14675547378E+04  0.95440250803E+02 0.  0.
         23    2    4    4    0    0  0.23299371505E+03  0.11813981821E+03  0.22729142624E+03  0.35787723017E+03  0.90397077005E+02 0.  0.
          4    1    3    3  502    0 -0.28191551878E+03 -0.21683423908E+03  0.19746896005E+02  0.35620694388E+03  0.00000000000E+00 0. -1.
         -3    1    3    3    0  502 -0.91293220527E+03 -0.63822773975E+03  0.19421506899E+03  0.11307074565E+04  0.00000000000E+00 0.  1.
         13    1    5    5    0    0  0.25725420953E+03  0.24163078911E+03 -0.26965820264E+03  0.44416293498E+03  0.00000000000E+00 0. -1.
        -13    1    5    5    0    0  0.70459979947E+03  0.49529137152E+03 -0.55277152777E+03  0.10233918028E+04  0.00000000000E+00 0.  1.
          2    1    6    6  503    0  0.10099372082E+03  0.89344923548E+01  0.56955427339E+02  0.11629048758E+03  0.00000000000E+00 0. -1.
         -2    1    6    6    0  503  0.13199999423E+03  0.10920532585E+03  0.17033599890E+03  0.24158674258E+03  0.00000000000E+00 0.  1.
<mgrwt>
<rscale>  0 0.32903409E+04</rscale>
<asrwt>0</asrwt>
<pdfrwt beam="1">  1        2 0.28411713E+00 0.32903409E+04</pdfrwt>
<pdfrwt beam="2">  1       -1 0.22547462E+00 0.32903409E+04</pdfrwt>
<totfact> 0.78201394E-01</totfact>
</mgrwt>
</event>
<event>
12    7  0.1605494E-007  0.2062871E+04  0.7818608E-02  0.8577778E-01
          2   -1    0    0  501    0  0.00000000000E+00  0.00000000000E+00  0.41009938711E+04  0.41009938711E+04  0.00000000000E+00 0. -1.
         -1   -1    0    0    0  501 -0.00000000000E+00 -0.00000000000E+00 -0.25941493846E+03  0.25941493846E+03  0.00000000000E+00 0.  1.
         24    2    1    2    0    0  0.42963991318E+03  0.50193245723E+02  0.30681727806E+04  0.30995650164E+04  0.80679997008E+02 0.  0.
        254    2    1    2    0    0 -0.42963991318E+03 -0.50193245723E+02  0.77340615197E+03  0.12608437932E+04  0.89691704073E+03 0.  0.
         23    2    4    4    0    0 -0.25647413428E+03 -0.46602626308E+02  0.95470619137E+03  0.99485898159E+03  0.10163510748E+03 0.  0.
         23    2    4    4    0    0 -0.17316577890E+03 -0.35906194147E+01 -0.18130003940E+03  0.26598481157E+03  0.88763371790E+02 0.  0.
          2    1    3    3  502    0  0.30945398944E+03  0.72289745815E+02  0.21981687274E+04  0.22210207862E+04  0.00000000000E+00 0. -1.
         -1    1    3    3    0  502  0.12018592373E+03 -0.22096500092E+02  0.87000405328E+03  0.87854423013E+03  0.00000000000E+00 0.  1.
         13    1    5    5    0    0 -0.14799124738E+02  0.23779227047E+02  0.89415044813E+02  0.93699071345E+02  0.00000000000E+00 0.  1.
        -13    1    5    5    0    0 -0.24167500954E+03 -0.70381853355E+02  0.86529114656E+03  0.90115991024E+03  0.00000000000E+00 0. -1.
          3    1    6    6  503    0 -0.67155809546E+02 -0.44684965819E+02 -0.82098009771E+02  0.11509444876E+03  0.00000000000E+00 0. -1.
         -3    1    6    6    0  503 -0.10600996935E+03  0.41094346404E+02 -0.99202029632E+02  0.15089036282E+03  0.00000000000E+00 0.  1.
<mgrwt>
<rscale>  0 0.20628709E+04</rscale>
<asrwt>0</asrwt>
<pdfrwt beam="1">  1        2 0.63092209E+00 0.20628709E+04</pdfrwt>
<pdfrwt beam="2">  1       -1 0.39909994E-01 0.20628709E+04</pdfrwt>
<totfact> 0.18365050E+00</totfact>
</mgrwt>
</event>
<event>
12    7  0.1605494E-007  0.2083049E+04  0.7818608E-02  0.8568747E-01
          2   -1    0    0  501    0  0.00000000000E+00  0.00000000000E+00  0.47744877776E+03  0.47744877776E+03  0.00000000000E+00 0. -1.
         -1   -1    0    0    0  501 -0.00000000000E+00 -0.00000000000E+00 -0.22720209490E+04  0.22720209490E+04  0.00000000000E+00 0.  1.
         24    2    1    2    0    0  0.74603127031E+03 -0.35006802950E+03 -0.98185563713E+03  0.12837745911E+04  0.70188510774E+02 0.  0.
        254    2    1    2    0    0 -0.74603127031E+03  0.35006802950E+03 -0.81271653409E+03  0.14656951356E+04  0.89924623119E+03 0.  0.
         23    2    4    4    0    0 -0.74690309209E+03  0.37919452700E+03 -0.96803393835E+03  0.12839123755E+04  0.98430503083E+02 0.  0.
         23    2    4    4    0    0  0.87182177827E+00 -0.29126497507E+02  0.15531740426E+03  0.18178276012E+03  0.89846329262E+02 0.  0.
          4    1    3    3  502    0  0.28761712319E+03 -0.13250227073E+03 -0.43100012462E+03  0.53482854143E+03  0.00000000000E+00 0. -1.
         -3    1    3    3    0  502  0.45841414712E+03 -0.21756575877E+03 -0.55085551251E+03  0.74894604968E+03  0.00000000000E+00 0.  1.
         13    1    5    5    0    0 -0.57848099935E+03  0.27939365738E+03 -0.67825199490E+03  0.93419850727E+03  0.00000000000E+00 0. -1.
        -13    1    5    5    0    0 -0.16842209274E+03  0.99800869627E+02 -0.28978194344E+03  0.34971386825E+03  0.00000000000E+00 0.  1.
          3    1    6    6  503    0  0.15354489226E+02  0.20944613172E+02  0.10900804242E+03  0.11205887057E+03  0.00000000000E+00 0. -1.
         -3    1    6    6    0  503 -0.14482667448E+02 -0.50071110678E+02  0.46309361839E+02  0.69723889557E+02  0.00000000000E+00 0.  1.
<mgrwt>
<rscale>  0 0.20830493E+04</rscale>
<asrwt>0</asrwt>
<pdfrwt beam="1">  1        2 0.73453660E-01 0.20830493E+04</pdfrwt>
<pdfrwt beam="2">  1       -1 0.34954168E+00 0.20830493E+04</pdfrwt>
<totfact> 0.10729336E+00</totfact>
</mgrwt>
</event>
<event>
12    7  0.1605494E-007  0.1504276E+04  0.7818608E-02  0.8881614E-01
         -1   -1    0    0    0  501 -0.00000000000E+00  0.00000000000E+00  0.49314351607E+03  0.49314351607E+03  0.00000000000E+00 0.  1.
          2   -1    0    0  501    0  0.00000000000E+00 -0.00000000000E+00 -0.11471539242E+04  0.11471539242E+04  0.00000000000E+00 0. -1.
         24    2    1    2    0    0 -0.47113862759E+03  0.14294246195E+02 -0.25883751661E+03  0.54251577156E+03  0.71767475258E+02 0.  0.
        254    2    1    2    0    0  0.47113862759E+03 -0.14294246195E+02 -0.39517289149E+03  0.10977816687E+04  0.90927831056E+03 0.  0.
         23    2    4    4    0    0  0.56993860661E+03  0.12140048242E+03 -0.58261986998E+03  0.82915362020E+03  0.92096256999E+02 0.  0.
         23    2    4    4    0    0 -0.98799979022E+02 -0.13569472862E+03  0.18744697849E+03  0.26862804849E+03  0.94075307383E+02 0.  0.
          2    1    3    3  502    0 -0.14400634622E+03 -0.11985687095E+02 -0.11273487684E+03  0.18327748608E+03  0.00000000000E+00 0. -1.
         -1    1    3    3    0  502 -0.32713228137E+03  0.26279933289E+02 -0.14610263977E+03  0.35923828548E+03  0.00000000000E+00 0.  1.
         13    1    5    5    0    0  0.39342530067E+03  0.75478392863E+02 -0.45681115618E+03  0.60758282350E+03  0.00000000000E+00 0. -1.
        -13    1    5    5    0    0  0.17651330594E+03  0.45922089559E+02 -0.12580871380E+03  0.22157079670E+03  0.00000000000E+00 0.  1.
          4    1    6    6  503    0  0.12697733311E+02  0.42989947290E+01  0.11652060397E+02  0.17761877672E+02  0.00000000000E+00 0. -1.
         -4    1    6    6    0  503 -0.11149771233E+03 -0.13999372335E+03  0.17579491809E+03  0.25086617081E+03  0.00000000000E+00 0.  1.
<mgrwt>
<rscale>  0 0.15042759E+04</rscale>
<asrwt>0</asrwt>
<pdfrwt beam="1">  1        2 0.17648522E+00 0.15042759E+04</pdfrwt>
<pdfrwt beam="2">  1       -1 0.75868234E-01 0.15042759E+04</pdfrwt>
<totfact> 0.39190176E+01</totfact>
</mgrwt>
</event>
<event>
12    7  0.1605494E-007  0.2031212E+04  0.7818608E-02  0.8592166E-01
          2   -1    0    0  501    0  0.00000000000E+00  0.00000000000E+00  0.19780470530E+04  0.19780470530E+04  0.00000000000E+00 0. -1.
         -1   -1    0    0    0  501 -0.00000000000E+00 -0.00000000000E+00 -0.52145145518E+03  0.52145145518E+03  0.00000000000E+00 0.  1.
         24    2    1    2    0    0 -0.74379713090E+03  0.23509351961E+03  0.31278311524E+03  0.84426342417E+03  0.80276505283E+02 0.  0.
        254    2    1    2    0    0  0.74379713090E+03 -0.23509351961E+03  0.11438124826E+04  0.16552350840E+04  0.90718964565E+03 0.  0.
         23    2    4    4    0    0  0.80524332288E+03 -0.36254872521E+03  0.56932815181E+03  0.10545996701E+04  0.90484985010E+02 0.  0.
         23    2    4    4    0    0 -0.61446191972E+02  0.12745520560E+03  0.57448433081E+03  0.60063541396E+03  0.10349004889E+03 0.  0.
          2    1    3    3  502    0 -0.54726627690E+03  0.15243328130E+03  0.25914209429E+03  0.62441245031E+03  0.00000000000E+00 0. -1.
         -1    1    3    3    0  502 -0.19653085401E+03  0.82660238312E+02  0.53641020956E+02  0.21985097385E+03  0.00000000000E+00 0.  1.
         13    1    5    5    0    0  0.71087171374E+03 -0.34943862985E+03  0.49917298210E+03  0.93627966734E+03  0.00000000000E+00 0.  1.
        -13    1    5    5    0    0  0.94371609139E+02 -0.13110095363E+02  0.70155169710E+02  0.11832000274E+03  0.00000000000E+00 0. -1.
          3    1    6    6  503    0 -0.39422189376E+02  0.80514618473E+01  0.26754310599E+03  0.27055174850E+03  0.00000000000E+00 0. -1.
         -3    1    6    6    0  503 -0.22024002596E+02  0.11940374375E+03  0.30694122481E+03  0.33008366546E+03  0.00000000000E+00 0.  1.
<mgrwt>
<rscale>  0 0.20312120E+04</rscale>
<asrwt>0</asrwt>
<pdfrwt beam="1">  1        2 0.30431493E+00 0.20312120E+04</pdfrwt>
<pdfrwt beam="2">  1       -1 0.80223302E-01 0.20312120E+04</pdfrwt>
<totfact> 0.11242206E+01</totfact>
</mgrwt>
</event>
<event>
12    7  0.1605494E-007  0.2020538E+04  0.7818608E-02  0.8597078E-01
         -1   -1    0    0    0  501 -0.00000000000E+00  0.00000000000E+00  0.40274283123E+03  0.40274283123E+03  0.00000000000E+00 0.  1.
          2   -1    0    0  501    0  0.00000000000E+00 -0.00000000000E+00 -0.25342309445E+04  0.25342309445E+04  0.00000000000E+00 0. -1.
         24    2    1    2    0    0 -0.66664168874E+03 -0.30592412055E+03 -0.35416586063E+03  0.81844301348E+03  0.80092451470E+02 0.  0.
        254    2    1    2    0    0  0.66664168874E+03  0.30592412055E+03 -0.17773222526E+04  0.21185307622E+04  0.88954903864E+03 0.  0.
         23    2    4    4    0    0  0.11453539316E+03 -0.16771203043E+03 -0.31162938695E+02  0.22482970646E+03  0.91277525824E+02 0.  0.
         23    2    4    4    0    0  0.55210629558E+03  0.47363615099E+03 -0.17461593139E+04  0.18937010558E+04  0.88762457550E+02 0.  0.
          4    1    3    3  502    0 -0.41081965507E+03 -0.19499285991E+03 -0.17641339938E+03  0.48776704674E+03  0.00000000000E+00 0. -1.
         -3    1    3    3    0  502 -0.25582203367E+03 -0.11093126065E+03 -0.17775246126E+03  0.33067596674E+03  0.00000000000E+00 0.  1.
         13    1    5    5    0    0  0.11009640711E+03 -0.16886495853E+03 -0.85607374257E+01  0.20176689348E+03  0.00000000000E+00 0.  1.
        -13    1    5    5    0    0  0.44389860476E+01  0.11529280995E+01 -0.22602201270E+02  0.23062812980E+02  0.00000000000E+00 0. -1.
          3    1    6    6  503    0  0.31628322602E+02  0.55554617666E+02 -0.12321502372E+03  0.13881141310E+03  0.00000000000E+00 0. -1.
         -3    1    6    6    0  503  0.52047797298E+03  0.41808153332E+03 -0.16229442902E+04  0.17548896427E+04  0.00000000000E+00 0.  1.
<mgrwt>
<rscale>  0 0.20205379E+04</rscale>
<asrwt>0</asrwt>
<pdfrwt beam="1">  1        2 0.38988169E+00 0.20205379E+04</pdfrwt>
<pdfrwt beam="2">  1       -1 0.61960435E-01 0.20205379E+04</pdfrwt>
<totfact> 0.92805045E+00</totfact>
</mgrwt>
</event>
<event>
12    7  0.1605494E-007  0.1702633E+04  0.7818608E-02  0.8759864E-01
          2   -1    0    0  501    0  0.00000000000E+00  0.00000000000E+00  0.26492500139E+04  0.26492500139E+04  0.00000000000E+00 0. -1.
         -1   -1    0    0    0  501 -0.00000000000E+00 -0.00000000000E+00 -0.27356407052E+03  0.27356407052E+03  0.00000000000E+00 0.  1.
         24    2    1    2    0    0 -0.14588439866E+03 -0.24251363300E+03 -0.64069767711E+02  0.30070856440E+03  0.78902380254E+02 0.  0.
        254    2    1    2    0    0  0.14588439866E+03  0.24251363300E+03  0.24397557111E+04  0.26221055200E+04  0.91811453988E+03 0.  0.
         23    2    4    4    0    0 -0.13542826920E+03 -0.30062290373E+03  0.86802944468E+03  0.93318957869E+03  0.93020033293E+02 0.  0.
         23    2    4    4    0    0  0.28131266786E+03  0.54313653673E+03  0.15717262664E+04  0.16889159413E+04  0.89327967161E+02 0.  0.
          2    1    3    3  502    0  0.17462262856E+01 -0.80571365171E+01  0.10913087909E+02  0.13677069964E+02  0.00000000000E+00 0. -1.
         -1    1    3    3    0  502 -0.14763062494E+03 -0.23445649648E+03 -0.74982855620E+02  0.28703149444E+03  0.00000000000E+00 0.  1.
         13    1    5    5    0    0 -0.78516796385E+01 -0.42715703432E+01  0.96506523765E+02  0.96919576534E+02  0.00000000000E+00 0. -1.
        -13    1    5    5    0    0 -0.12757658957E+03 -0.29635133339E+03  0.77152292092E+03  0.83627000216E+03  0.00000000000E+00 0.  1.
          2    1    6    6  503    0  0.12004075033E+03  0.14313500466E+03  0.46461516797E+03  0.50076408179E+03  0.00000000000E+00 0. -1.
         -2    1    6    6    0  503  0.16127191753E+03  0.40000153207E+03  0.11071110984E+04  0.11881518595E+04  0.00000000000E+00 0.  1.
<mgrwt>
<rscale>  0 0.17026328E+04</rscale>
<asrwt>0</asrwt>
<pdfrwt beam="1">  1        2 0.40757691E+00 0.17026328E+04</pdfrwt>
<pdfrwt beam="2">  1       -1 0.42086782E-01 0.17026328E+04</pdfrwt>
<totfact> 0.17143053E+01</totfact>
</mgrwt>
</event>
<event>
12    7  0.1605494E-007  0.1178426E+04  0.7818608E-02  0.9131952E-01
         -1   -1    0    0    0  501 -0.00000000000E+00  0.00000000000E+00  0.14304477080E+03  0.14304477080E+03  0.00000000000E+00 0.  1.
          2   -1    0    0  501    0  0.00000000000E+00 -0.00000000000E+00 -0.24270181262E+04  0.24270181262E+04  0.00000000000E+00 0. -1.
         24    2    1    2    0    0  0.18597869969E+03  0.52029533742E+02 -0.31477595878E+03  0.37757276833E+03  0.78626598805E+02 0.  0.
        254    2    1    2    0    0 -0.18597869969E+03 -0.52029533742E+02 -0.19691973966E+04  0.21924901286E+04  0.94444662544E+03 0.  0.
         23    2    4    4    0    0 -0.56503985032E+02 -0.33916314422E+03 -0.23219620563E+03  0.42486040737E+03  0.91471028848E+02 0.  0.
         23    2    4    4    0    0 -0.12947471466E+03  0.28713361048E+03 -0.17370011910E+04  0.17676297213E+04  0.90179166633E+02 0.  0.
          4    1    3    3  502    0  0.55795127432E+02  0.69895130389E+01 -0.16385934845E+03  0.17323924386E+03  0.00000000000E+00 0. -1.
         -3    1    3    3    0  502  0.13018357226E+03  0.45040020703E+02 -0.15091661033E+03  0.20433352448E+03  0.00000000000E+00 0.  1.
         13    1    5    5    0    0 -0.47269065632E+02 -0.26726543366E+03 -0.22399882410E+03  0.35191000241E+03  0.00000000000E+00 0. -1.
        -13    1    5    5    0    0 -0.92349193991E+01 -0.71897710561E+02 -0.81973815292E+01  0.72950404962E+02  0.00000000000E+00 0.  1.
          1    1    6    6  503    0 -0.19498553241E+02  0.13395281087E+03 -0.59844854187E+03  0.61356679048E+03  0.00000000000E+00 0. -1.
         -1    1    6    6    0  503 -0.10997616142E+03  0.15318079961E+03 -0.11385526491E+04  0.11540629308E+04  0.00000000000E+00 0.  1.
<mgrwt>
<rscale>  0 0.11784265E+04</rscale>
<asrwt>0</asrwt>
<pdfrwt beam="1">  1        2 0.37338744E+00 0.11784265E+04</pdfrwt>
<pdfrwt beam="2">  1       -1 0.22006886E-01 0.11784265E+04</pdfrwt>
<totfact> 0.75610413E+01</totfact>
</mgrwt>
</event>
<event>
12    7  0.1605494E-007  0.1848330E+04  0.7818608E-02  0.8681012E-01
         -1   -1    0    0    0  501 -0.00000000000E+00  0.00000000000E+00  0.70517405348E+03  0.70517405348E+03  0.00000000000E+00 0.  1.
          2   -1    0    0  501    0  0.00000000000E+00 -0.00000000000E+00 -0.12111633508E+04  0.12111633508E+04  0.00000000000E+00 0. -1.
         24    2    1    2    0    0  0.16325762438E+03 -0.28154652443E+03  0.45350588019E+03  0.56394615203E+03  0.80288116699E+02 0.  0.
        254    2    1    2    0    0 -0.16325762438E+03  0.28154652443E+03 -0.95949517750E+03  0.13523912522E+04  0.89577318902E+03 0.  0.
         23    2    4    4    0    0  0.16596096646E+03  0.50580578176E+03 -0.61135234104E+03  0.81567273873E+03  0.90486466221E+02 0.  0.
         23    2    4    4    0    0 -0.32921859084E+03 -0.22425925733E+03 -0.34814283646E+03  0.53671851351E+03  0.90477804539E+02 0.  0.
          4    1    3    3  502    0  0.14324162149E+02 -0.23539657159E+02  0.92787280659E+01  0.29075623380E+02  0.00000000000E+00 0. -1.
         -3    1    3    3    0  502  0.14893346223E+03 -0.25800686727E+03  0.44422715212E+03  0.53487052865E+03  0.00000000000E+00 0.  1.
         13    1    5    5    0    0 -0.85743146119E+01  0.39941059400E+02 -0.31032169463E+02  0.51301097831E+02  0.00000000000E+00 0.  1.
        -13    1    5    5    0    0  0.17453528107E+03  0.46586472236E+03 -0.58032017158E+03  0.76437164090E+03  0.00000000000E+00 0. -1.
          4    1    6    6  503    0 -0.31332125429E+03 -0.20570634139E+03 -0.34918359541E+03  0.51226408285E+03  0.00000000000E+00 0. -1.
         -4    1    6    6    0  503 -0.15897336550E+02 -0.18552915944E+02  0.10407589580E+01  0.24454430655E+02  0.00000000000E+00 0.  1.
<mgrwt>
<rscale>  0 0.18483300E+04</rscale>
<asrwt>0</asrwt>
<pdfrwt beam="1">  1        2 0.18633282E+00 0.18483300E+04</pdfrwt>
<pdfrwt beam="2">  1       -1 0.10848832E+00 0.18483300E+04</pdfrwt>
<totfact> 0.15772744E+01</totfact>
</mgrwt>
</event>
<event>
12    7  0.1605494E-007  0.1478695E+04  0.7818608E-02  0.8898745E-01
         -1   -1    0    0    0  501 -0.00000000000E+00  0.00000000000E+00  0.30044321156E+03  0.30044321156E+03  0.00000000000E+00 0.  1.
          2   -1    0    0  501    0  0.00000000000E+00 -0.00000000000E+00 -0.18194277189E+04  0.18194277189E+04  0.00000000000E+00 0. -1.
         24    2    1    2    0    0  0.12551239835E+03 -0.28161022776E+03 -0.95368294292E+03  0.10054587071E+04  0.79864719701E+02 0.  0.
        254    2    1    2    0    0 -0.12551239835E+03  0.28161022776E+03 -0.56530156445E+03  0.11144122234E+04  0.90955542022E+03 0.  0.
         23    2    4    4    0    0 -0.24972892080E+03  0.51661285409E+03 -0.59468238823E+03  0.83146654990E+03  0.91848276192E+02 0.  0.
         23    2    4    4    0    0  0.12421652246E+03 -0.23500262634E+03  0.29380823773E+02  0.28294567354E+03  0.92406939842E+02 0.  0.
          4    1    3    3  502    0  0.98149590458E+02 -0.26054853735E+03 -0.89567610970E+03  0.93795233136E+03  0.00000000000E+00 0. -1.
         -3    1    3    3    0  502  0.27362807890E+02 -0.21061690411E+02 -0.58006833227E+02  0.67506375696E+02  0.00000000000E+00 0.  1.
         13    1    5    5    0    0 -0.18997209324E+02  0.60984190078E+02 -0.31573722803E+02  0.71252125394E+02  0.00000000000E+00 0.  1.
        -13    1    5    5    0    0 -0.23073171148E+03  0.45562866401E+03 -0.56310866542E+03  0.76021442451E+03  0.00000000000E+00 0. -1.
          2    1    6    6  503    0  0.12666218452E+03 -0.15455432083E+03  0.95538135125E+01  0.20005404876E+03  0.00000000000E+00 0. -1.
         -2    1    6    6    0  503 -0.24456620598E+01 -0.80448305504E+02  0.19827010260E+02  0.82891624771E+02  0.00000000000E+00 0.  1.
<mgrwt>
<rscale>  0 0.14786950E+04</rscale>
<asrwt>0</asrwt>
<pdfrwt beam="1">  1        2 0.27991195E+00 0.14786950E+04</pdfrwt>
<pdfrwt beam="2">  1       -1 0.46222033E-01 0.14786950E+04</pdfrwt>
<totfact> 0.43220412E+01</totfact>
</mgrwt>
</event>
<event>
12    7  0.1605494E-007  0.1267108E+04  0.7818608E-02  0.9056063E-01
          2   -1    0    0  501    0  0.00000000000E+00  0.00000000000E+00  0.82710678839E+02  0.82710678839E+02  0.00000000000E+00 0. -1.
         -1   -1    0    0    0  501 -0.00000000000E+00 -0.00000000000E+00 -0.48529514897E+04  0.48529514897E+04  0.00000000000E+00 0.  1.
         24    2    1    2    0    0 -0.11127836295E+03 -0.27390997363E+03 -0.86702300760E+03  0.91955124575E+03  0.80224996905E+02 0.  0.
        254    2    1    2    0    0  0.11127836295E+03  0.27390997363E+03 -0.39032178033E+04  0.40161109228E+04  0.89812481135E+03 0.  0.
         23    2    4    4    0    0 -0.18271894732E+03  0.49711183118E+03 -0.17925987384E+04  0.18714904450E+04  0.92519525145E+02 0.  0.
         23    2    4    4    0    0  0.29399731027E+03 -0.22320185755E+03 -0.21106190649E+04  0.21446204778E+04  0.91818674564E+02 0.  0.
          2    1    3    3  502    0 -0.34208226241E+02 -0.13825152135E+03 -0.31112708707E+03  0.34217502861E+03  0.00000000000E+00 0. -1.
         -3    1    3    3    0  502 -0.77070136708E+02 -0.13565845229E+03 -0.55589592054E+03  0.57737621714E+03  0.00000000000E+00 0.  1.
         13    1    5    5    0    0 -0.16394455488E+03  0.32007233872E+03 -0.11990486089E+04  0.12518153560E+04  0.00000000000E+00 0. -1.
        -13    1    5    5    0    0 -0.18774392436E+02  0.17703949247E+03 -0.59355012947E+03  0.61967508897E+03  0.00000000000E+00 0.  1.
          3    1    6    6  503    0  0.26910525540E+03 -0.22353934020E+03 -0.18478359949E+04  0.18806608783E+04  0.00000000000E+00 0. -1.
         -3    1    6    6    0  503  0.24892054868E+02  0.33748264288E+00 -0.26278306997E+03  0.26395959947E+03  0.00000000000E+00 0.  1.
<mgrwt>
<rscale>  0 0.12671084E+04</rscale>
<asrwt>0</asrwt>
<pdfrwt beam="1">  1        2 0.12724721E-01 0.12671084E+04</pdfrwt>
<pdfrwt beam="2">  1       -1 0.74660784E+00 0.12671084E+04</pdfrwt>
<totfact> 0.74988843E-02</totfact>
</mgrwt>
</event>
<event>
12    7  0.1605494E-007  0.2511424E+04  0.7818608E-02  0.8398927E-01
         -1   -1    0    0    0  501 -0.00000000000E+00  0.00000000000E+00  0.38802898604E+03  0.38802898604E+03  0.00000000000E+00 0.  1.
          2   -1    0    0  501    0  0.00000000000E+00 -0.00000000000E+00 -0.40636463338E+04  0.40636463338E+04  0.00000000000E+00 0. -1.
         24    2    1    2    0    0 -0.10387382755E+04 -0.33665718657E+03 -0.16035800309E+04  0.19417197378E+04  0.80568965755E+02 0.  0.
        254    2    1    2    0    0  0.10387382755E+04  0.33665718657E+03 -0.20720373169E+04  0.25099555821E+04  0.90234312508E+03 0.  0.
         23    2    4    4    0    0  0.55505180399E+03  0.59757449475E+03 -0.15082391480E+04  0.17169916100E+04  0.89983772292E+02 0.  0.
         23    2    4    4    0    0  0.48368647150E+03 -0.26091730818E+03 -0.56379816883E+03  0.79296397209E+03  0.94302923809E+02 0.  0.
          4    1    3    3  502    0 -0.72098266569E+03 -0.26518266178E+03 -0.11635050352E+04  0.13942316218E+04  0.00000000000E+00 0. -1.
         -3    1    3    3    0  502 -0.31775560980E+03 -0.71474524783E+02 -0.44007499573E+03  0.54748811596E+03  0.00000000000E+00 0.  1.
         13    1    5    5    0    0  0.44702804026E+03  0.44736784970E+03 -0.12261038458E+04  0.13796023711E+04  0.00000000000E+00 0. -1.
        -13    1    5    5    0    0  0.10802376373E+03  0.15020664505E+03 -0.28213530226E+03  0.33738923890E+03  0.00000000000E+00 0.  1.
          3    1    6    6  503    0  0.20502382482E+03 -0.15640078911E+03 -0.22743645061E+03  0.34383617413E+03  0.00000000000E+00 0. -1.
         -3    1    6    6    0  503  0.27866264668E+03 -0.10451651907E+03 -0.33636171822E+03  0.44912779796E+03  0.00000000000E+00 0.  1.
<mgrwt>
<rscale>  0 0.25114240E+04</rscale>
<asrwt>0</asrwt>
<pdfrwt beam="1">  1        2 0.62517639E+00 0.25114240E+04</pdfrwt>
<pdfrwt beam="2">  1       -1 0.59696764E-01 0.25114240E+04</pdfrwt>
<totfact> 0.87795018E-01</totfact>
</mgrwt>
</event>
<event>
12    7  0.1605494E-007  0.1919666E+04  0.7818608E-02  0.8645129E-01
         -1   -1    0    0    0  501 -0.00000000000E+00  0.00000000000E+00  0.74710949529E+03  0.74710949529E+03  0.00000000000E+00 0.  1.
          2   -1    0    0  501    0  0.00000000000E+00 -0.00000000000E+00 -0.12331254004E+04  0.12331254004E+04  0.00000000000E+00 0. -1.
         24    2    1    2    0    0  0.39467943117E+03 -0.38789796417E+03  0.32126024855E+03  0.64485340568E+03  0.79944252620E+02 0.  0.
        254    2    1    2    0    0 -0.39467943117E+03  0.38789796417E+03 -0.80727615362E+03  0.13353814900E+04  0.90846697878E+03 0.  0.
         23    2    4    4    0    0  0.17575685198E+03  0.33557418512E+03 -0.60939483977E+03  0.72291040751E+03  0.87959546454E+02 0.  0.
         23    2    4    4    0    0 -0.57043628315E+03  0.52323779057E+02 -0.19788131385E+03  0.61247108245E+03  0.88478706355E+02 0.  0.
          4    1    3    3  502    0  0.10508384869E+03 -0.14954708903E+03  0.12604133892E+03  0.22202109406E+03  0.00000000000E+00 0. -1.
         -3    1    3    3    0  502  0.28959558248E+03 -0.23835087514E+03  0.19521890963E+03  0.42283231162E+03  0.00000000000E+00 0.  1.
         13    1    5    5    0    0  0.15276944832E+03  0.23698411394E+03 -0.38961882118E+03  0.48093949767E+03  0.00000000000E+00 0.  1.
        -13    1    5    5    0    0  0.22987403661E+02  0.98590071176E+02 -0.21977601859E+03  0.24197090984E+03  0.00000000000E+00 0. -1.
          1    1    6    6  503    0 -0.17992948453E+03  0.52888026020E+02 -0.43255210931E+02  0.19246499934E+03  0.00000000000E+00 0. -1.
         -1    1    6    6    0  503 -0.39050679862E+03 -0.56424696309E+00 -0.15462610292E+03  0.42000608311E+03  0.00000000000E+00 0.  1.
<mgrwt>
<rscale>  0 0.19196663E+04</rscale>
<asrwt>0</asrwt>
<pdfrwt beam="1">  1        2 0.18971160E+00 0.19196663E+04</pdfrwt>
<pdfrwt beam="2">  1       -1 0.11493992E+00 0.19196663E+04</pdfrwt>
<totfact> 0.13262508E+01</totfact>
</mgrwt>
</event>
<event>
12    7  0.1605494E-007  0.2998586E+04  0.7818608E-02  0.8244135E-01
          2   -1    0    0  501    0  0.00000000000E+00  0.00000000000E+00  0.41417101078E+04  0.41417101078E+04  0.00000000000E+00 0. -1.
         -1   -1    0    0    0  501 -0.00000000000E+00 -0.00000000000E+00 -0.54274182013E+03  0.54274182013E+03  0.00000000000E+00 0.  1.
         24    2    1    2    0    0  0.11010191331E+04 -0.77383005782E+03  0.12965343497E+04  0.18704392845E+04  0.80533888488E+02 0.  0.
        254    2    1    2    0    0 -0.11010191331E+04  0.77383005782E+03  0.23024339380E+04  0.28140126435E+04  0.89800280008E+03 0.  0.
         23    2    4    4    0    0 -0.74400336718E+03 -0.64682381796E+01  0.95346898299E+03  0.12126138318E+04  0.88013380595E+02 0.  0.
         23    2    4    4    0    0 -0.35701576592E+03  0.78029829600E+03  0.13489649551E+04  0.16013988117E+04  0.91902210051E+02 0.  0.
          4    1    3    3  502    0  0.10438140948E+04 -0.75168185391E+03  0.12262483334E+04  0.17771489665E+04  0.00000000000E+00 0. -1.
         -3    1    3    3    0  502  0.57205038306E+02 -0.22148203910E+02  0.70286016234E+02  0.93290317944E+02  0.00000000000E+00 0.  1.
         13    1    5    5    0    0 -0.57135513041E+02 -0.86081507071E+01  0.11518414256E+03  0.12886409045E+03  0.00000000000E+00 0. -1.
        -13    1    5    5    0    0 -0.68686785414E+03  0.21399125275E+01  0.83828484042E+03  0.10837497414E+04  0.00000000000E+00 0.  1.
          3    1    6    6  503    0 -0.18225063946E-01  0.38182295343E+02  0.43407502768E+02  0.57810892628E+02  0.00000000000E+00 0. -1.
         -3    1    6    6    0  503 -0.35699754085E+03  0.74211600065E+03  0.13055574523E+04  0.15435879190E+04  0.00000000000E+00 0.  1.
<mgrwt>
<rscale>  0 0.29985859E+04</rscale>
<asrwt>0</asrwt>
<pdfrwt beam="1">  1        2 0.63718615E+00 0.29985859E+04</pdfrwt>
<pdfrwt beam="2">  1       -1 0.83498744E-01 0.29985859E+04</pdfrwt>
<totfact> 0.36096088E-01</totfact>
</mgrwt>
</event>
<event>
12    7  0.1605494E-007  0.1268835E+04  0.7818608E-02  0.9054651E-01
          2   -1    0    0  501    0  0.00000000000E+00  0.00000000000E+00  0.17042515166E+04  0.17042515166E+04  0.00000000000E+00 0. -1.
         -1   -1    0    0    0  501 -0.00000000000E+00 -0.00000000000E+00 -0.23616576885E+03  0.23616576885E+03  0.00000000000E+00 0.  1.
         24    2    1    2    0    0  0.17220114872E+03  0.23985647530E+03  0.51246230311E+03  0.59668263959E+03  0.78918919807E+02 0.  0.
        254    2    1    2    0    0 -0.17220114872E+03 -0.23985647530E+03  0.95562344468E+03  0.13437346459E+04  0.89734177783E+03 0.  0.
         23    2    4    4    0    0  0.26774204190E+03 -0.82431655878E+02  0.20297459380E+02  0.29408513219E+03  0.87139538834E+02 0.  0.
         23    2    4    4    0    0 -0.43994319062E+03 -0.15742481943E+03  0.93532598530E+03  0.10496495137E+04  0.92719027833E+02 0.  0.
          2    1    3    3  502    0  0.43067926318E+02  0.39450672499E+02  0.16719432973E+03  0.17710207716E+03  0.00000000000E+00 0. -1.
         -1    1    3    3    0  502  0.12913322241E+03  0.20040580281E+03  0.34526797338E+03  0.41958056243E+03  0.00000000000E+00 0.  1.
         13    1    5    5    0    0  0.10671402185E+03 -0.93228740950E+01  0.43709611712E+02  0.11569498086E+03  0.00000000000E+00 0.  1.
        -13    1    5    5    0    0  0.16102802006E+03 -0.73108781783E+02 -0.23412152332E+02  0.17839015134E+03  0.00000000000E+00 0. -1.
          4    1    6    6  503    0 -0.28121751900E+03 -0.10602520999E+03  0.69384239507E+03  0.75613616984E+03  0.00000000000E+00 0. -1.
         -4    1    6    6    0  503 -0.15872567163E+03 -0.51399609440E+02  0.24148359024E+03  0.29351334388E+03  0.00000000000E+00 0.  1.
<mgrwt>
<rscale>  0 0.12688355E+04</rscale>
<asrwt>0</asrwt>
<pdfrwt beam="1">  1        2 0.26219253E+00 0.12688355E+04</pdfrwt>
<pdfrwt beam="2">  1       -1 0.36333196E-01 0.12688355E+04</pdfrwt>
<totfact> 0.79175880E+01</totfact>
</mgrwt>
</event>
<event>
12    7  0.1605494E-007  0.1222515E+04  0.7818608E-02  0.9093374E-01
         -1   -1    0    0    0  501 -0.00000000000E+00  0.00000000000E+00  0.26748508188E+03  0.26748508188E+03  0.00000000000E+00 0.  1.
          2   -1    0    0  501    0  0.00000000000E+00 -0.00000000000E+00 -0.13968474720E+04  0.13968474720E+04  0.00000000000E+00 0. -1.
         24    2    1    2    0    0  0.47831516034E+02  0.23896697179E+03 -0.45911686199E+03  0.52592630915E+03  0.80106941992E+02 0.  0.
        254    2    1    2    0    0 -0.47831516034E+02 -0.23896697179E+03 -0.67024552811E+03  0.11384062447E+04  0.88732555610E+03 0.  0.
         23    2    4    4    0    0  0.24355739447E+02 -0.38509738532E+03 -0.81216173903E+03  0.90377437863E+03  0.91149541465E+02 0.  0.
         23    2    4    4    0    0 -0.72187255481E+02  0.14613041352E+03  0.14191621091E+03  0.23463186608E+03  0.91360845278E+02 0.  0.
          4    1    3    3  502    0  0.66932150326E+02  0.15791085899E+03 -0.33675605966E+03  0.37791585816E+03  0.00000000000E+00 0. -1.
         -3    1    3    3    0  502 -0.19100634293E+02  0.81056112808E+02 -0.12236080233E+03  0.14801045099E+03  0.00000000000E+00 0.  1.
         13    1    5    5    0    0 -0.25506267332E+02 -0.19700583704E+03 -0.46792512099E+03  0.50834613046E+03  0.00000000000E+00 0.  1.
        -13    1    5    5    0    0  0.49862006779E+02 -0.18809154828E+03 -0.34423661804E+03  0.39542824817E+03  0.00000000000E+00 0. -1.
          4    1    6    6  503    0 -0.20452923910E+02  0.13145255409E+03  0.10316196226E+03  0.16834632913E+03  0.00000000000E+00 0.  1.
         -4    1    6    6    0  503 -0.51734331571E+02  0.14677859436E+02  0.38754248650E+02  0.66285536953E+02  0.00000000000E+00 0. -1.
<mgrwt>
<rscale>  0 0.12225152E+04</rscale>
<asrwt>0</asrwt>
<pdfrwt beam="1">  1        2 0.21489961E+00 0.12225152E+04</pdfrwt>
<pdfrwt beam="2">  1       -1 0.41151551E-01 0.12225152E+04</pdfrwt>
<totfact> 0.94282231E+01</totfact>
</mgrwt>
</event>
<event>
12    7  0.1605494E-007  0.1454129E+04  0.7818608E-02  0.8915543E-01
          2   -1    0    0  501    0  0.00000000000E+00  0.00000000000E+00  0.24375003233E+04  0.24375003233E+04  0.00000000000E+00 0. -1.
         -1   -1    0    0    0  501 -0.00000000000E+00 -0.00000000000E+00 -0.21687098876E+03  0.21687098876E+03  0.00000000000E+00 0.  1.
         24    2    1    2    0    0 -0.89707814105E+02  0.20849638266E+02 -0.10481656205E+03  0.16144844889E+03  0.81221245021E+02 0.  0.
        254    2    1    2    0    0  0.89707814105E+02 -0.20849638266E+02  0.23254458966E+04  0.24929228631E+04  0.89357908682E+03 0.  0.
         23    2    4    4    0    0 -0.32471888111E+03  0.38409291035E+02  0.42147829704E+03  0.54132086503E+03  0.92014665411E+02 0.  0.
         23    2    4    4    0    0  0.41442669522E+03 -0.59258929301E+02  0.19039675995E+04  0.19516019981E+04  0.91633141294E+02 0.  0.
          4    1    3    3  502    0 -0.89538303066E+02 -0.44163536828E+01 -0.53888649697E+02  0.10459731575E+03  0.00000000000E+00 0. -1.
         -3    1    3    3    0  502 -0.16951103920E+00  0.25265991948E+02 -0.50927912355E+02  0.56851133146E+02  0.00000000000E+00 0.  1.
         13    1    5    5    0    0 -0.31827941641E+03  0.22687873758E+02  0.37818540041E+03  0.49481382722E+03  0.00000000000E+00 0.  1.
        -13    1    5    5    0    0 -0.64394646993E+01  0.15721417277E+02  0.43292896629E+02  0.46507037804E+02  0.00000000000E+00 0. -1.
          1    1    6    6  503    0  0.22551621626E+03 -0.82602409939E+01  0.11953236152E+04  0.12164392054E+04  0.00000000000E+00 0. -1.
         -1    1    6    6    0  503  0.18891047895E+03 -0.50998688307E+02  0.70864398430E+03  0.73516279269E+03  0.00000000000E+00 0.  1.
<mgrwt>
<rscale>  0 0.14541294E+04</rscale>
<asrwt>0</asrwt>
<pdfrwt beam="1">  1        2 0.37500003E+00 0.14541294E+04</pdfrwt>
<pdfrwt beam="2">  1       -1 0.33364769E-01 0.14541294E+04</pdfrwt>
<totfact> 0.35406098E+01</totfact>
</mgrwt>
</event>
<event>
12    7  0.1605494E-007  0.1272731E+04  0.7818608E-02  0.9051473E-01
         -1   -1    0    0    0  501 -0.00000000000E+00  0.00000000000E+00  0.25949511081E+03  0.25949511081E+03  0.00000000000E+00 0.  1.
          2   -1    0    0  501    0  0.00000000000E+00 -0.00000000000E+00 -0.15605738463E+04  0.15605738463E+04  0.00000000000E+00 0. -1.
         24    2    1    2    0    0  0.17975334009E+03  0.19448769123E+03 -0.11104914040E+03  0.30514878025E+03  0.10318498531E+03 0.  0.
        254    2    1    2    0    0 -0.17975334009E+03 -0.19448769123E+03 -0.11900295951E+04  0.15149201769E+04  0.89926413239E+03 0.  0.
         23    2    4    4    0    0  0.32980734291E+03 -0.22607274992E+03 -0.62234494538E+03  0.74567377271E+03  0.93991343140E+02 0.  0.
         23    2    4    4    0    0 -0.50956068300E+03  0.31585058687E+02 -0.56768464975E+03  0.76924640420E+03  0.93938614070E+02 0.  0.
          4    1    3    3  502    0  0.46601501098E+00 -0.60491967595E+01 -0.20409575001E+02  0.21292268623E+02  0.00000000000E+00 0. -1.
         -3    1    3    3    0  502  0.17928732508E+03  0.20053688799E+03 -0.90639565404E+02  0.28385651163E+03  0.00000000000E+00 0.  1.
         13    1    5    5    0    0  0.14612018224E+02 -0.30744325822E+02 -0.23662349917E+02  0.41456380094E+02  0.00000000000E+00 0.  1.
        -13    1    5    5    0    0  0.31519532468E+03 -0.19532842409E+03 -0.59868259546E+03  0.70421739262E+03  0.00000000000E+00 0. -1.
          3    1    6    6  503    0 -0.51302599896E+03  0.29891353034E+02 -0.55682637676E+03  0.75772342082E+03  0.00000000000E+00 0. -1.
         -3    1    6    6    0  503  0.34653159649E+01  0.16937056531E+01 -0.10858272992E+02  0.11522983379E+02  0.00000000000E+00 0.  1.
<mgrwt>
<rscale>  0 0.12727314E+04</rscale>
<asrwt>0</asrwt>
<pdfrwt beam="1">  1        2 0.24008829E+00 0.12727314E+04</pdfrwt>
<pdfrwt beam="2">  1       -1 0.39922324E-01 0.12727314E+04</pdfrwt>
<totfact> 0.80230281E+01</totfact>
</mgrwt>
</event>
<event>
12    7  0.1605494E-007  0.1537706E+04  0.7818608E-02  0.8859759E-01
          2   -1    0    0  501    0  0.00000000000E+00  0.00000000000E+00  0.94110345472E+03  0.94110345472E+03  0.00000000000E+00 0. -1.
         -1   -1    0    0    0  501 -0.00000000000E+00 -0.00000000000E+00 -0.62812936168E+03  0.62812936168E+03  0.00000000000E+00 0.  1.
         24    2    1    2    0    0 -0.23311854287E+03  0.39207130304E+03  0.33048441973E+03  0.56894270159E+03  0.80072993691E+02 0.  0.
        254    2    1    2    0    0  0.23311854287E+03 -0.39207130304E+03 -0.17510326686E+02  0.10002901148E+04  0.89006153750E+03 0.  0.
         23    2    4    4    0    0 -0.16785636164E+03 -0.37213039634E+03 -0.28779144848E+03  0.50761752576E+03  0.90525381094E+02 0.  0.
         23    2    4    4    0    0  0.40097490451E+03 -0.19940906698E+02  0.27028112179E+03  0.49267258904E+03  0.92173105549E+02 0.  0.
          4    1    3    3  502    0 -0.10958758767E+03  0.17722683132E+03  0.10257051896E+03  0.23224879003E+03  0.00000000000E+00 0. -1.
         -3    1    3    3    0  502 -0.12353095520E+03  0.21484447172E+03  0.22791390077E+03  0.33669391156E+03  0.00000000000E+00 0.  1.
         13    1    5    5    0    0 -0.16634305022E+03 -0.33529575287E+03 -0.23076024629E+03  0.43970847561E+03  0.00000000000E+00 0.  1.
        -13    1    5    5    0    0 -0.15133114271E+01 -0.36834643465E+02 -0.57031202186E+02  0.67909050159E+02  0.00000000000E+00 0. -1.
          4    1    6    6  503    0  0.93113086454E+02 -0.17231212242E+02  0.11143767871E+03  0.14623719698E+03  0.00000000000E+00 0. -1.
         -4    1    6    6    0  503  0.30786181806E+03 -0.27096944566E+01  0.15884344308E+03  0.34643539206E+03  0.00000000000E+00 0.  1.
<mgrwt>
<rscale>  0 0.15377057E+04</rscale>
<asrwt>0</asrwt>
<pdfrwt beam="1">  1        2 0.14478515E+00 0.15377057E+04</pdfrwt>
<pdfrwt beam="2">  1       -1 0.96635286E-01 0.15377057E+04</pdfrwt>
<totfact> 0.31182799E+01</totfact>
</mgrwt>
</event>
<event>
12    7  0.1605494E-007  0.2540393E+04  0.7818608E-02  0.8388735E-01
          2   -1    0    0  501    0  0.00000000000E+00  0.00000000000E+00  0.40237724973E+04  0.40237724973E+04  0.00000000000E+00 0. -1.
         -1   -1    0    0    0  501 -0.00000000000E+00 -0.00000000000E+00 -0.40096693807E+03  0.40096693807E+03  0.00000000000E+00 0.  1.
         24    2    1    2    0    0  0.44714596524E+03  0.11619257534E+03 -0.17094320092E+03  0.49897260110E+03  0.79447151719E+02 0.  0.
        254    2    1    2    0    0 -0.44714596524E+03 -0.11619257534E+03  0.37937487601E+04  0.39257668342E+04  0.89759420291E+03 0.  0.
         23    2    4    4    0    0 -0.43878132127E+03 -0.40012326594E+03  0.15501076275E+04  0.16624101131E+04  0.90255478740E+02 0.  0.
         23    2    4    4    0    0 -0.83646439772E+01  0.28393069060E+03  0.22436411327E+04  0.22633567212E+04  0.90396409382E+02 0.  0.
          4    1    3    3  502    0  0.15079483233E+02  0.19761840448E+01  0.84561927943E+01  0.17401244625E+02  0.00000000000E+00 0. -1.
         -3    1    3    3    0  502  0.43206648201E+03  0.11421639129E+03 -0.17939939371E+03  0.48157135648E+03  0.00000000000E+00 0.  1.
         13    1    5    5    0    0 -0.38862682103E+03 -0.36465363162E+03  0.13027108804E+04  0.14075008757E+04  0.00000000000E+00 0. -1.
        -13    1    5    5    0    0 -0.50154500233E+02 -0.35469634317E+02  0.24739674705E+03  0.25490923738E+03  0.00000000000E+00 0.  1.
          1    1    6    6  503    0 -0.37352857997E+02  0.17551876701E+03  0.15969762752E+04  0.16070268502E+04  0.00000000000E+00 0. -1.
         -1    1    6    6    0  503  0.28988214020E+02  0.10841192358E+03  0.64666485746E+03  0.65632987103E+03  0.00000000000E+00 0.  1.
<mgrwt>
<rscale>  0 0.25403935E+04</rscale>
<asrwt>0</asrwt>
<pdfrwt beam="1">  1        2 0.61904190E+00 0.25403935E+04</pdfrwt>
<pdfrwt beam="2">  1       -1 0.61687224E-01 0.25403935E+04</pdfrwt>
<totfact> 0.88441424E-01</totfact>
</mgrwt>
</event>
<event>
12    7  0.1605494E-007  0.2497692E+04  0.7818608E-02  0.8403808E-01
          2   -1    0    0  501    0  0.00000000000E+00  0.00000000000E+00  0.29627511807E+04  0.29627511807E+04  0.00000000000E+00 0. -1.
         -1   -1    0    0    0  501 -0.00000000000E+00 -0.00000000000E+00 -0.52640805272E+03  0.52640805272E+03  0.00000000000E+00 0.  1.
         24    2    1    2    0    0  0.46927261768E+03 -0.82241239606E+03  0.17916105021E+04  0.20281820033E+04  0.84113664090E+02 0.  0.
        254    2    1    2    0    0 -0.46927261768E+03  0.82241239606E+03  0.64473262588E+03  0.14609772301E+04  0.90674989333E+03 0.  0.
         23    2    4    4    0    0 -0.24452546654E+03 -0.54309406565E+02  0.46147501806E+03  0.53303084031E+03  0.91763113485E+02 0.  0.
         23    2    4    4    0    0 -0.22474715114E+03  0.87672180263E+03  0.18325760782E+03  0.92794638978E+03  0.91371496291E+02 0.  0.
          4    1    3    3  502    0  0.17027841722E+03 -0.31232277825E+03  0.76037372455E+03  0.83946915260E+03  0.00000000000E+00 0. -1.
         -3    1    3    3    0  502  0.29899420045E+03 -0.51008961781E+03  0.10312367775E+04  0.11887128507E+04  0.00000000000E+00 0.  1.
         13    1    5    5    0    0 -0.70853194793E+02 -0.59789151931E+02  0.17266660247E+03  0.19598130908E+03  0.00000000000E+00 0.  1.
        -13    1    5    5    0    0 -0.17367227175E+03  0.54797453663E+01  0.28880841559E+03  0.33704953122E+03  0.00000000000E+00 0. -1.
          1    1    6    6  503    0 -0.14034143761E+03  0.67041616963E+03  0.11281594124E+03  0.69417648780E+03  0.00000000000E+00 0. -1.
         -1    1    6    6    0  503 -0.84405713526E+02  0.20630563299E+03  0.70441666579E+02  0.23376990198E+03  0.00000000000E+00 0.  1.
<mgrwt>
<rscale>  0 0.24976918E+04</rscale>
<asrwt>0</asrwt>
<pdfrwt beam="1">  1        2 0.45580786E+00 0.24976918E+04</pdfrwt>
<pdfrwt beam="2">  1       -1 0.80985856E-01 0.24976918E+04</pdfrwt>
<totfact> 0.28323586E+00</totfact>
</mgrwt>
</event>
<event>
12    7  0.1605494E-007  0.1422347E+04  0.7818608E-02  0.8937799E-01
         -3   -1    0    0    0  501 -0.00000000000E+00  0.00000000000E+00  0.44717451989E+03  0.44717451989E+03  0.00000000000E+00 0.  1.
          4   -1    0    0  501    0  0.00000000000E+00 -0.00000000000E+00 -0.11310304156E+04  0.11310304156E+04  0.00000000000E+00 0. -1.
         24    2    1    2    0    0 -0.11273806841E+03 -0.24290124485E+03  0.16076773830E+03  0.32190449620E+03  0.77880370948E+02 0.  0.
        254    2    1    2    0    0  0.11273806841E+03  0.24290124485E+03 -0.84462363397E+03  0.12563004392E+04  0.89061261150E+03 0.  0.
         23    2    4    4    0    0  0.73561835291E+02  0.30806162657E+03 -0.10042808743E+04  0.10572128288E+04  0.93838060223E+02 0.  0.
         23    2    4    4    0    0  0.39176233118E+02 -0.65160381722E+02  0.15965724035E+03  0.19908761042E+03  0.91459223911E+02 0.  0.
          4    1    3    3  502    0 -0.67541160475E+02 -0.62933804041E+02  0.66508994961E+02  0.11378013210E+03  0.00000000000E+00 0. -1.
         -3    1    3    3    0  502 -0.45196907934E+02 -0.17996744081E+03  0.94258743338E+02  0.20812436411E+03  0.00000000000E+00 0.  1.
         13    1    5    5    0    0  0.35077006434E+02  0.14769103132E+03 -0.63305467455E+03  0.65100019822E+03  0.00000000000E+00 0. -1.
        -13    1    5    5    0    0  0.38484828857E+02  0.16037059525E+03 -0.37122619977E+03  0.40621263061E+03  0.00000000000E+00 0.  1.
          2    1    6    6  503    0  0.43143180964E+02 -0.35611123625E+02  0.15976197607E+03  0.16927307874E+03  0.00000000000E+00 0. -1.
         -2    1    6    6    0  503 -0.39669478459E+01 -0.29549258097E+02 -0.10473572238E+00  0.29814531673E+02  0.00000000000E+00 0.  1.
<mgrwt>
<rscale>  0 0.14223473E+04</rscale>
<asrwt>0</asrwt>
<pdfrwt beam="1">  1        4 0.17400468E+00 0.14223473E+04</pdfrwt>
<pdfrwt beam="2">  1       -3 0.68796081E-01 0.14223473E+04</pdfrwt>
<totfact> 0.89133138E-01</totfact>
</mgrwt>
</event>
<event>
12    7  0.1605494E-007  0.2192409E+04  0.7818608E-02  0.8521594E-01
         -1   -1    0    0    0  501 -0.00000000000E+00  0.00000000000E+00  0.38387975781E+03  0.38387975781E+03  0.00000000000E+00 0.  1.
          2   -1    0    0  501    0  0.00000000000E+00 -0.00000000000E+00 -0.31303130373E+04  0.31303130373E+04  0.00000000000E+00 0. -1.
         24    2    1    2    0    0 -0.75761811899E+02  0.17091466952E+03 -0.25264906713E+04  0.25346747927E+04  0.80433305028E+02 0.  0.
        254    2    1    2    0    0  0.75761811899E+02 -0.17091466952E+03 -0.21994260819E+03  0.97951800234E+03  0.93601767591E+03 0.  0.
         23    2    4    4    0    0 -0.13542245256E+03 -0.22172910382E+03 -0.52588432076E+03  0.59361907684E+03  0.91248306418E+02 0.  0.
         23    2    4    4    0    0  0.21118426446E+03  0.50814434300E+02  0.30594171257E+03  0.38589892550E+03  0.90203929635E+02 0.  0.
          2    1    3    3  502    0 -0.75034972641E+01  0.97856601296E+02 -0.15419787006E+04  0.15450988738E+04  0.00000000000E+00 0. -1.
         -1    1    3    3    0  502 -0.68258314635E+02  0.73058068223E+02 -0.98451197066E+03  0.98957591888E+03  0.00000000000E+00 0.  1.
         13    1    5    5    0    0 -0.14076546669E+03 -0.22185400384E+03 -0.52631938345E+03  0.58825692433E+03  0.00000000000E+00 0.  1.
        -13    1    5    5    0    0  0.53430141239E+01  0.12490002056E+00  0.43506268754E+00  0.53621525048E+01  0.00000000000E+00 0. -1.
          1    1    6    6  503    0  0.76883009979E+01  0.12199629734E+02  0.72044833943E+02  0.73473798294E+02  0.00000000000E+00 0. -1.
         -1    1    6    6    0  503  0.20349596346E+03  0.38614804566E+02  0.23389687863E+03  0.31242512721E+03  0.00000000000E+00 0.  1.
<mgrwt>
<rscale>  0 0.21924085E+04</rscale>
<asrwt>0</asrwt>
<pdfrwt beam="1">  1        2 0.48158662E+00 0.21924085E+04</pdfrwt>
<pdfrwt beam="2">  1       -1 0.59058424E-01 0.21924085E+04</pdfrwt>
<totfact> 0.43595814E+00</totfact>
</mgrwt>
</event>
<event>
12    7  0.1605494E-007  0.2668834E+04  0.7818608E-02  0.8345189E-01
         -1   -1    0    0    0  501 -0.00000000000E+00  0.00000000000E+00  0.66244132725E+03  0.66244132725E+03  0.00000000000E+00 0.  1.
          2   -1    0    0  501    0  0.00000000000E+00 -0.00000000000E+00 -0.26880389782E+04  0.26880389782E+04  0.00000000000E+00 0. -1.
         24    2    1    2    0    0 -0.21244185850E+03 -0.23917825624E+03 -0.23252038866E+04  0.23483713307E+04  0.77052004475E+02 0.  0.
        254    2    1    2    0    0  0.21244185850E+03  0.23917825624E+03  0.29960623562E+03  0.10021089747E+04  0.90117740720E+03 0.  0.
         23    2    4    4    0    0  0.39445101090E+03  0.15217155392E+00  0.49057449418E+03  0.63566678798E+03  0.88415540728E+02 0.  0.
         23    2    4    4    0    0 -0.18200915240E+03  0.23902608468E+03 -0.19096825856E+03  0.36644218672E+03  0.86891885214E+02 0.  0.
          2    1    3    3  502    0 -0.15132825972E+03 -0.21500591066E+03 -0.19053533856E+04  0.19234082530E+04  0.00000000000E+00 0. -1.
         -1    1    3    3    0  502 -0.61113598784E+02 -0.24172345583E+02 -0.41985050100E+03  0.42496307773E+03  0.00000000000E+00 0.  1.
         13    1    5    5    0    0  0.33155925442E+03  0.26432148070E+02  0.43578715517E+03  0.54821587195E+03  0.00000000000E+00 0. -1.
        -13    1    5    5    0    0  0.62891756484E+02 -0.26279976517E+02  0.54787339010E+02  0.87450916034E+02  0.00000000000E+00 0.  1.
          4    1    6    6  503    0 -0.14563203669E+03  0.22349854373E+03 -0.13801271817E+03  0.30034613288E+03  0.00000000000E+00 0. -1.
         -4    1    6    6    0  503 -0.36377115708E+02  0.15527540956E+02 -0.52955540394E+02  0.66096053844E+02  0.00000000000E+00 0.  1.
<mgrwt>
<rscale>  0 0.26688335E+04</rscale>
<asrwt>0</asrwt>
<pdfrwt beam="1">  1        2 0.41354446E+00 0.26688335E+04</pdfrwt>
<pdfrwt beam="2">  1       -1 0.10191405E+00 0.26688335E+04</pdfrwt>
<totfact> 0.24622525E+00</totfact>
</mgrwt>
</event>
<event>
12    7  0.1605494E-007  0.1552010E+04  0.7818608E-02  0.8850585E-01
          2   -1    0    0  501    0  0.00000000000E+00  0.00000000000E+00  0.15866768770E+04  0.15866768770E+04  0.00000000000E+00 0. -1.
         -1   -1    0    0    0  501 -0.00000000000E+00 -0.00000000000E+00 -0.37952531150E+03  0.37952531150E+03  0.00000000000E+00 0.  1.
         24    2    1    2    0    0 -0.47424535344E+02 -0.17729801196E+02 -0.26989535525E+03  0.28559319391E+03  0.78463604419E+02 0.  0.
        254    2    1    2    0    0  0.47424535344E+02  0.17729801196E+02  0.14770469208E+04  0.16806089946E+04  0.80013471004E+03 0.  0.
         23    2    4    4    0    0 -0.43918761296E+02 -0.25684297677E+03  0.13843823719E+03  0.30808166087E+03  0.88611466178E+02 0.  0.
         23    2    4    4    0    0  0.91343296640E+02  0.27457277796E+03  0.13386086836E+04  0.13725273338E+04  0.90687738322E+02 0.  0.
          2    1    3    3  502    0  0.79382649499E+01  0.17554250213E+02 -0.22432425299E+02  0.29569941761E+02  0.00000000000E+00 0. -1.
         -1    1    3    3    0  502 -0.55362800294E+02 -0.35284051409E+02 -0.24746292995E+03  0.25602325215E+03  0.00000000000E+00 0.  1.
         13    1    5    5    0    0  0.23842131882E+02 -0.56600263805E+02  0.14768420902E+02  0.63167581649E+02  0.00000000000E+00 0.  1.
        -13    1    5    5    0    0 -0.67760893178E+02 -0.20024271296E+03  0.12366981629E+03  0.24491407922E+03  0.00000000000E+00 0. -1.
          1    1    6    6  503    0  0.10001288318E+03  0.16705956792E+03  0.81671261495E+03  0.83960167428E+03  0.00000000000E+00 0. -1.
         -1    1    6    6    0  503 -0.86695865400E+01  0.10751321004E+03  0.52189606865E+03  0.53292565948E+03  0.00000000000E+00 0.  1.
<mgrwt>
<rscale>  0 0.15520104E+04</rscale>
<asrwt>0</asrwt>
<pdfrwt beam="1">  1        2 0.24410413E+00 0.15520104E+04</pdfrwt>
<pdfrwt beam="2">  1       -1 0.58388510E-01 0.15520104E+04</pdfrwt>
<totfact> 0.36974752E+01</totfact>
</mgrwt>
</event>
<event>
12    7  0.1605494E-007  0.2138940E+04  0.7818608E-02  0.8544281E-01
          2   -1    0    0  501    0  0.00000000000E+00  0.00000000000E+00  0.11837773300E+04  0.11837773300E+04  0.00000000000E+00 0. -1.
         -1   -1    0    0    0  501 -0.00000000000E+00 -0.00000000000E+00 -0.96620024210E+03  0.96620024210E+03  0.00000000000E+00 0.  1.
         24    2    1    2    0    0 -0.75933730375E+03  0.31285852101E+03 -0.22210331348E+03  0.85482019469E+03  0.83150997319E+02 0.  0.
        254    2    1    2    0    0  0.75933730375E+03 -0.31285852101E+03  0.43968040142E+03  0.12951573774E+04  0.89980007886E+03 0.  0.
         23    2    4    4    0    0  0.11954784547E+03  0.21884714679E+03 -0.11661013809E+03  0.29028796000E+03  0.92105452615E+02 0.  0.
         23    2    4    4    0    0  0.63978945828E+03 -0.53170566779E+03  0.55629053951E+03  0.10048694174E+04  0.90895069577E+02 0.  0.
          4    1    3    3  502    0 -0.26062365782E+03  0.83136121993E+02 -0.40832055598E+02  0.27659277388E+03  0.00000000000E+00 0. -1.
         -3    1    3    3    0  502 -0.49871364593E+03  0.22972239902E+03 -0.18127125789E+03  0.57822742081E+03  0.00000000000E+00 0.  1.
         13    1    5    5    0    0  0.12507005004E+03  0.21417027745E+03 -0.91824811056E+02  0.26446780728E+03  0.00000000000E+00 0. -1.
        -13    1    5    5    0    0 -0.55222045767E+01  0.46768693343E+01 -0.24785327034E+02  0.25820152717E+02  0.00000000000E+00 0.  1.
          1    1    6    6  503    0  0.60385462118E+03 -0.47503277976E+03  0.49479412160E+03  0.91384778171E+03  0.00000000000E+00 0. -1.
         -1    1    6    6    0  503  0.35934837101E+02 -0.56672888039E+02  0.61496417914E+02  0.91021635738E+02  0.00000000000E+00 0.  1.
<mgrwt>
<rscale>  0 0.21389399E+04</rscale>
<asrwt>0</asrwt>
<pdfrwt beam="1">  1        2 0.18211959E+00 0.21389399E+04</pdfrwt>
<pdfrwt beam="2">  1       -1 0.14864619E+00 0.21389399E+04</pdfrwt>
<totfact> 0.72534831E+00</totfact>
</mgrwt>
</event>
<event>
12    7  0.1605494E-007  0.1203991E+04  0.7818608E-02  0.9109370E-01
          2   -1    0    0  501    0  0.00000000000E+00  0.00000000000E+00  0.14197891896E+04  0.14197891896E+04  0.00000000000E+00 0. -1.
         -1   -1    0    0    0  501 -0.00000000000E+00 -0.00000000000E+00 -0.25524826267E+03  0.25524826267E+03  0.00000000000E+00 0.  1.
         24    2    1    2    0    0  0.21325760359E+03  0.17738574605E+02  0.45443285466E+03  0.50824263776E+03  0.77510624649E+02 0.  0.
        254    2    1    2    0    0 -0.21325760359E+03 -0.17738574605E+02  0.71010807223E+03  0.11667948145E+04  0.90075701624E+03 0.  0.
         23    2    4    4    0    0 -0.49528437187E+03  0.63007650321E+01  0.13868725623E+03  0.52272433431E+03  0.93060550089E+02 0.  0.
         23    2    4    4    0    0  0.28202676828E+03 -0.24039339637E+02  0.57142081600E+03  0.64407048015E+03  0.90487825522E+02 0.  0.
          2    1    3    3  502    0  0.16019222436E+03 -0.64227052921E+01  0.26189428729E+03  0.30706907627E+03  0.00000000000E+00 0. -1.
         -1    1    3    3    0  502  0.53065379226E+02  0.24161279897E+02  0.19253856737E+03  0.20117356149E+03  0.00000000000E+00 0.  1.
         13    1    5    5    0    0 -0.99630923240E+01  0.14946665385E+02  0.99925324941E+01  0.20555211515E+02  0.00000000000E+00 0. -1.
        -13    1    5    5    0    0 -0.48532127955E+03 -0.86459003532E+01  0.12869472374E+03  0.50216912280E+03  0.00000000000E+00 0.  1.
          3    1    6    6  503    0  0.62228098411E+02 -0.36325834051E+02  0.19653297057E+03  0.20932537107E+03  0.00000000000E+00 0. -1.
         -3    1    6    6    0  503  0.21979866987E+03  0.12286494414E+02  0.37488784543E+03  0.43474510908E+03  0.00000000000E+00 0.  1.
<mgrwt>
<rscale>  0 0.12039912E+04</rscale>
<asrwt>0</asrwt>
<pdfrwt beam="1">  1        2 0.21842910E+00 0.12039912E+04</pdfrwt>
<pdfrwt beam="2">  1       -1 0.39268964E-01 0.12039912E+04</pdfrwt>
<totfact> 0.99793248E+01</totfact>
</mgrwt>
</event>
<event>
12    7  0.1605494E-007  0.1719657E+04  0.7818608E-02  0.8750232E-01
          2   -1    0    0  501    0  0.00000000000E+00  0.00000000000E+00  0.22172881560E+04  0.22172881560E+04  0.00000000000E+00 0. -1.
         -1   -1    0    0    0  501 -0.00000000000E+00 -0.00000000000E+00 -0.33342747338E+03  0.33342747338E+03  0.00000000000E+00 0.  1.
         24    2    1    2    0    0 -0.28626627847E+03 -0.10706671469E+03  0.15143984729E+04  0.15468696846E+04  0.77404282277E+02 0.  0.
        254    2    1    2    0    0  0.28626627847E+03  0.10706671469E+03  0.36946220979E+03  0.10038459448E+04  0.88192555972E+03 0.  0.
         23    2    4    4    0    0 -0.20399321256E+03  0.31891327520E+03  0.12183165952E+03  0.40805147257E+03  0.91346281470E+02 0.  0.
         23    2    4    4    0    0  0.49025949104E+03 -0.21184656051E+03  0.24763055027E+03  0.59579447225E+03  0.91743283022E+02 0.  0.
          2    1    3    3  502    0 -0.14084973769E+03 -0.84557948066E+02  0.91819883134E+03  0.93277960369E+03  0.00000000000E+00 0. -1.
         -1    1    3    3    0  502 -0.14541654078E+03 -0.22508766622E+02  0.59619964153E+03  0.61409008091E+03  0.00000000000E+00 0.  1.
         13    1    5    5    0    0 -0.17337858338E+03  0.22374863732E+03  0.12162162178E+03  0.30808343799E+03  0.00000000000E+00 0. -1.
        -13    1    5    5    0    0 -0.30614629182E+02  0.95164637885E+02  0.21003773397E+00  0.99968034589E+02  0.00000000000E+00 0.  1.
          3    1    6    6  503    0  0.26922883562E+03 -0.11319296208E+03  0.84958546141E+02  0.30416240261E+03  0.00000000000E+00 0. -1.
         -3    1    6    6    0  503  0.22103065541E+03 -0.98653598430E+02  0.16267200413E+03  0.29163206964E+03  0.00000000000E+00 0.  1.
<mgrwt>
<rscale>  0 0.17196567E+04</rscale>
<asrwt>0</asrwt>
<pdfrwt beam="1">  1        2 0.34112125E+00 0.17196567E+04</pdfrwt>
<pdfrwt beam="2">  1       -1 0.51296536E-01 0.17196567E+04</pdfrwt>
<totfact> 0.20891993E+01</totfact>
</mgrwt>
</event>
<event>
12    7  0.1605494E-007  0.2575172E+04  0.7818608E-02  0.8376684E-01
         -1   -1    0    0    0  501 -0.00000000000E+00  0.00000000000E+00  0.23758339794E+04  0.23758339794E+04  0.00000000000E+00 0.  1.
          2   -1    0    0  501    0  0.00000000000E+00 -0.00000000000E+00 -0.69780854479E+03  0.69780854479E+03  0.00000000000E+00 0. -1.
         24    2    1    2    0    0  0.45242666257E+03 -0.18564810052E+02 -0.49832987857E+03  0.67806388472E+03  0.80021414040E+02 0.  0.
        254    2    1    2    0    0 -0.45242666257E+03  0.18564810052E+02  0.21763553132E+04  0.23955786395E+04  0.89288298870E+03 0.  0.
         23    2    4    4    0    0  0.84761472741E+02 -0.28291766482E+03  0.35652678114E+03  0.47205853832E+03  0.92200898040E+02 0.  0.
         23    2    4    4    0    0 -0.53718813531E+03  0.30148247487E+03  0.18198285320E+04  0.19235201012E+04  0.93225093917E+02 0.  0.
          4    1    3    3  502    0  0.24077485027E+03 -0.27711784536E+02 -0.31817998955E+03  0.39997372073E+03  0.00000000000E+00 0. -1.
         -3    1    3    3    0  502  0.21165181230E+03  0.91469744842E+01 -0.18014988902E+03  0.27809016399E+03  0.00000000000E+00 0.  1.
         13    1    5    5    0    0  0.45992405071E+02 -0.22039289251E+03  0.31619588511E+03  0.38815997495E+03  0.00000000000E+00 0. -1.
        -13    1    5    5    0    0  0.38769067671E+02 -0.62524772308E+02  0.40330896031E+02  0.83898563367E+02  0.00000000000E+00 0.  1.
          3    1    6    6  503    0 -0.53595802230E+03  0.29947641285E+03  0.18203615483E+04  0.19211073083E+04  0.00000000000E+00 0. -1.
         -3    1    6    6    0  503 -0.12301130068E+01  0.20060620250E+01 -0.53301627676E+00  0.24127928235E+01  0.00000000000E+00 0.  1.
<mgrwt>
<rscale>  0 0.25751716E+04</rscale>
<asrwt>0</asrwt>
<pdfrwt beam="1">  1        2 0.10735516E+00 0.25751716E+04</pdfrwt>
<pdfrwt beam="2">  1       -1 0.36551292E+00 0.25751716E+04</pdfrwt>
<totfact> 0.50939448E-01</totfact>
</mgrwt>
</event>
<event>
12    7  0.1605494E-007  0.1742234E+04  0.7818608E-02  0.8737637E-01
         -1   -1    0    0    0  501 -0.00000000000E+00  0.00000000000E+00  0.93262351737E+03  0.93262351737E+03  0.00000000000E+00 0.  1.
          2   -1    0    0  501    0  0.00000000000E+00 -0.00000000000E+00 -0.81366678575E+03  0.81366678575E+03  0.00000000000E+00 0. -1.
         24    2    1    2    0    0  0.40573537705E+03  0.20316002894E+02 -0.44713157641E+03  0.60912388605E+03  0.77918712599E+02 0.  0.
        254    2    1    2    0    0 -0.40573537705E+03 -0.20316002894E+02  0.56608830803E+03  0.11371664171E+04  0.89869769748E+03 0.  0.
         23    2    4    4    0    0 -0.41258013171E+03 -0.53407007630E+02  0.78719652863E+03  0.89502668302E+03  0.91212472274E+02 0.  0.
         23    2    4    4    0    0  0.68447546558E+01  0.33091004736E+02 -0.22110822060E+03  0.24213973404E+03  0.92741254703E+02 0.  0.
          4    1    3    3  502    0  0.38453291866E+03  0.37272484982E+02 -0.41335707363E+03  0.56579048594E+03  0.00000000000E+00 0. -1.
         -3    1    3    3    0  502  0.21202458393E+02 -0.16956482088E+02 -0.33774502781E+02  0.43333400107E+02  0.00000000000E+00 0.  1.
         13    1    5    5    0    0 -0.16336986140E+03 -0.62499726164E+01  0.22364888969E+03  0.27703357130E+03  0.00000000000E+00 0. -1.
        -13    1    5    5    0    0 -0.24921027031E+03 -0.47157035014E+02  0.56354763894E+03  0.61799311172E+03  0.00000000000E+00 0.  1.
          4    1    6    6  503    0  0.45568818188E+02  0.36732688189E+02 -0.11321284534E+03  0.12744785570E+03  0.00000000000E+00 0. -1.
         -4    1    6    6    0  503 -0.38724063533E+02 -0.36416834523E+01 -0.10789537526E+03  0.11469187834E+03  0.00000000000E+00 0.  1.
<mgrwt>
<rscale>  0 0.17422339E+04</rscale>
<asrwt>0</asrwt>
<pdfrwt beam="1">  1        2 0.12517951E+00 0.17422339E+04</pdfrwt>
<pdfrwt beam="2">  1       -1 0.14348054E+00 0.17422339E+04</pdfrwt>
<totfact> 0.14325425E+01</totfact>
</mgrwt>
</event>
<event>
12    7  0.1605494E-007  0.2043495E+04  0.7818608E-02  0.8586551E-01
          2   -1    0    0  501    0  0.00000000000E+00  0.00000000000E+00  0.20341402533E+04  0.20341402533E+04  0.00000000000E+00 0. -1.
         -1   -1    0    0    0  501 -0.00000000000E+00 -0.00000000000E+00 -0.51322304600E+03  0.51322304600E+03  0.00000000000E+00 0.  1.
         24    2    1    2    0    0 -0.59134671687E+03  0.56554631681E+03  0.51701834374E+03  0.97115269282E+03  0.79347394482E+02 0.  0.
        254    2    1    2    0    0  0.59134671687E+03 -0.56554631681E+03  0.10038988636E+04  0.15762106065E+04  0.89838375527E+03 0.  0.
         23    2    4    4    0    0 -0.18751513529E+03 -0.89964373786E+02  0.45402925406E+03  0.50674544126E+03  0.85981766589E+02 0.  0.
         23    2    4    4    0    0  0.77886185216E+03 -0.47558194302E+03  0.54986960952E+03  0.10694651652E+04  0.92710209193E+02 0.  0.
          4    1    3    3  502    0 -0.71784609477E+01  0.23974425699E+02  0.10335262830E+02  0.27076208135E+02  0.00000000000E+00 0. -1.
         -3    1    3    3    0  502 -0.58416825592E+03  0.54157189111E+03  0.50668308091E+03  0.94407648469E+03  0.00000000000E+00 0.  1.
         13    1    5    5    0    0 -0.28453690939E+02 -0.38997960109E+02  0.17507972254E+03  0.18161322272E+03  0.00000000000E+00 0. -1.
        -13    1    5    5    0    0 -0.15906144435E+03 -0.50966413677E+02  0.27894953152E+03  0.32513221855E+03  0.00000000000E+00 0.  1.
          4    1    6    6  503    0  0.22559355325E+03 -0.10822914748E+03  0.18949688453E+03  0.31387110234E+03  0.00000000000E+00 0. -1.
         -4    1    6    6    0  503  0.55326829891E+03 -0.36735279554E+03  0.36037272498E+03  0.75559406289E+03  0.00000000000E+00 0.  1.
<mgrwt>
<rscale>  0 0.20434947E+04</rscale>
<asrwt>0</asrwt>
<pdfrwt beam="1">  1        2 0.31294465E+00 0.20434947E+04</pdfrwt>
<pdfrwt beam="2">  1       -1 0.78957393E-01 0.20434947E+04</pdfrwt>
<totfact> 0.10811280E+01</totfact>
</mgrwt>
</event>
<event>
12    7  0.1605494E-007  0.1406745E+04  0.7818608E-02  0.8948950E-01
          2   -1    0    0  501    0  0.00000000000E+00  0.00000000000E+00  0.10556817734E+04  0.10556817734E+04  0.00000000000E+00 0. -1.
         -1   -1    0    0    0  501 -0.00000000000E+00 -0.00000000000E+00 -0.46863849201E+03  0.46863849201E+03  0.00000000000E+00 0.  1.
         24    2    1    2    0    0 -0.37485414738E+03 -0.83133557613E+02  0.35394592915E+02  0.39363304848E+03  0.79166782448E+02 0.  0.
        254    2    1    2    0    0  0.37485414738E+03  0.83133557613E+02  0.55164868844E+03  0.11306872169E+04  0.90923621066E+03 0.  0.
         23    2    4    4    0    0  0.48330640170E+03 -0.28728412138E+03  0.20943838407E+03  0.60686989657E+03  0.91155857295E+02 0.  0.
         23    2    4    4    0    0 -0.10845225432E+03  0.37041767899E+03  0.34221030437E+03  0.52381732032E+03  0.91134758873E+02 0.  0.
          2    1    3    3  502    0 -0.12076114960E+03 -0.49332060680E+02  0.42516776868E+02  0.13720271053E+03  0.00000000000E+00 0. -1.
         -1    1    3    3    0  502 -0.25409299778E+03 -0.33801496933E+02 -0.71221839524E+01  0.25643033795E+03  0.00000000000E+00 0.  1.
         13    1    5    5    0    0  0.44412050713E+03 -0.22998228167E+03  0.18184847218E+03  0.53216890324E+03  0.00000000000E+00 0.  1.
        -13    1    5    5    0    0  0.39185894570E+02 -0.57301839705E+02  0.27589911893E+02  0.74700993334E+02  0.00000000000E+00 0. -1.
          2    1    6    6  503    0 -0.24194480041E+02  0.11318517799E+03  0.51750361350E+02  0.12678468867E+03  0.00000000000E+00 0. -1.
         -2    1    6    6    0  503 -0.84257774283E+02  0.25723250100E+03  0.29045994302E+03  0.39703263166E+03  0.00000000000E+00 0.  1.
<mgrwt>
<rscale>  0 0.14067453E+04</rscale>
<asrwt>0</asrwt>
<pdfrwt beam="1">  1        2 0.16241258E+00 0.14067453E+04</pdfrwt>
<pdfrwt beam="2">  1       -1 0.72098230E-01 0.14067453E+04</pdfrwt>
<totfact> 0.50018437E+01</totfact>
</mgrwt>
</event>
<event>
12    7  0.1605494E-007  0.3946470E+04  0.7818608E-02  0.8015433E-01
         -3   -1    0    0    0  501 -0.00000000000E+00  0.00000000000E+00  0.29952498078E+04  0.29952498078E+04  0.00000000000E+00 0.  1.
          4   -1    0    0  501    0  0.00000000000E+00 -0.00000000000E+00 -0.12999439778E+04  0.12999439778E+04  0.00000000000E+00 0. -1.
         24    2    1    2    0    0 -0.21402917701E+03 -0.14181650487E+03 -0.12098287753E+04  0.12395146326E+04  0.82404181780E+02 0.  0.
        254    2    1    2    0    0  0.21402917701E+03  0.14181650487E+03  0.29051346054E+04  0.30556791529E+04  0.91183748584E+03 0.  0.
         23    2    4    4    0    0 -0.78629802624E+02  0.13988368946E+03  0.26515538627E+04  0.26579453712E+04  0.90474399219E+02 0.  0.
         23    2    4    4    0    0  0.29265897964E+03  0.19328154108E+01  0.25358074266E+03  0.39773378173E+03  0.90752156700E+02 0.  0.
          2    1    3    3  502    0 -0.20006821148E+03 -0.10534132697E+03 -0.10986495369E+04  0.11216750373E+04  0.00000000000E+00 0. -1.
         -1    1    3    3    0  502 -0.13960965532E+02 -0.36475177899E+02 -0.11117923849E+03  0.11783959535E+03  0.00000000000E+00 0.  1.
         13    1    5    5    0    0 -0.39119213817E+02  0.44474995643E+02  0.43834880011E+03  0.44233246397E+03  0.00000000000E+00 0.  1.
        -13    1    5    5    0    0 -0.39510588807E+02  0.95408693820E+02  0.22132050626E+04  0.22156129072E+04  0.00000000000E+00 0. -1.
          1    1    6    6  503    0  0.22556119678E+03  0.95528390820E+01  0.14016217234E+03  0.26573397371E+03  0.00000000000E+00 0. -1.
         -1    1    6    6    0  503  0.67097782859E+02 -0.76200236713E+01  0.11341857032E+03  0.13199980803E+03  0.00000000000E+00 0.  1.
<mgrwt>
<rscale>  0 0.39464703E+04</rscale>
<asrwt>0</asrwt>
<pdfrwt beam="1">  1        4 0.19999138E+00 0.39464703E+04</pdfrwt>
<pdfrwt beam="2">  1       -3 0.46080766E+00 0.39464703E+04</pdfrwt>
<totfact> 0.11581078E-03</totfact>
</mgrwt>
</event>
<event>
12    7  0.1605494E-007  0.2783568E+04  0.7818608E-02  0.8308388E-01
          2   -1    0    0  501    0  0.00000000000E+00  0.00000000000E+00  0.18835294262E+04  0.18835294262E+04  0.00000000000E+00 0. -1.
         -1   -1    0    0    0  501 -0.00000000000E+00 -0.00000000000E+00 -0.10284219356E+04  0.10284219356E+04  0.00000000000E+00 0.  1.
         24    2    1    2    0    0  0.33655772362E+03 -0.68502660378E+03 -0.63313777772E+03  0.99464626691E+03  0.76975330387E+02 0.  0.
        254    2    1    2    0    0 -0.33655772362E+03  0.68502660378E+03  0.14882452682E+04  0.19173050949E+04  0.93736454976E+03 0.  0.
         23    2    4    4    0    0 -0.27058528013E+03 -0.17658835942E+03  0.48905957926E+03  0.59305610757E+03  0.90202173769E+02 0.  0.
         23    2    4    4    0    0 -0.65972443488E+02  0.86161496321E+03  0.99918568898E+03  0.13242489873E+04  0.92361416048E+02 0.  0.
          2    1    3    3  502    0  0.96031630190E+02 -0.16253942174E+03 -0.19652739769E+03  0.27251450541E+03  0.00000000000E+00 0. -1.
         -1    1    3    3    0  502  0.24052609343E+03 -0.52248718204E+03 -0.43661038003E+03  0.72213176150E+03  0.00000000000E+00 0.  1.
         13    1    5    5    0    0 -0.22253481406E+03 -0.18073577123E+03  0.43002112803E+03  0.51682234183E+03  0.00000000000E+00 0. -1.
        -13    1    5    5    0    0 -0.48050466068E+02  0.41474118033E+01  0.59038451233E+02  0.76233765735E+02  0.00000000000E+00 0.  1.
          3    1    6    6  503    0 -0.87932377460E+02  0.58710249987E+03  0.68656871599E+03  0.90763321344E+03  0.00000000000E+00 0. -1.
         -3    1    6    6    0  503  0.21959933971E+02  0.27451246334E+03  0.31261697299E+03  0.41661577386E+03  0.00000000000E+00 0.  1.
<mgrwt>
<rscale>  0 0.27835682E+04</rscale>
<asrwt>0</asrwt>
<pdfrwt beam="1">  1        2 0.28977376E+00 0.27835682E+04</pdfrwt>
<pdfrwt beam="2">  1       -1 0.15821876E+00 0.27835682E+04</pdfrwt>
<totfact> 0.23182557E+00</totfact>
</mgrwt>
</event>
<event>
12    7  0.1605494E-007  0.1640212E+04  0.7818608E-02  0.8796218E-01
         -1   -1    0    0    0  501 -0.00000000000E+00  0.00000000000E+00  0.71834318124E+03  0.71834318124E+03  0.00000000000E+00 0.  1.
          2   -1    0    0  501    0  0.00000000000E+00 -0.00000000000E+00 -0.93628522833E+03  0.93628522833E+03  0.00000000000E+00 0. -1.
         24    2    1    2    0    0 -0.42356492482E+02  0.25966526333E+03 -0.58953964452E+03  0.65004470739E+03  0.76032938288E+02 0.  0.
        254    2    1    2    0    0  0.42356492482E+02 -0.25966526333E+03  0.37159759743E+03  0.10045837022E+04  0.89547949102E+03 0.  0.
         23    2    4    4    0    0 -0.25654776599E+03  0.17598820593E+03 -0.42898492032E+02  0.32701315237E+03  0.91152160393E+02 0.  0.
         23    2    4    4    0    0  0.29890425847E+03 -0.43565346926E+03  0.41449608946E+03  0.67757054981E+03  0.90316890907E+02 0.  0.
          4    1    3    3  502    0 -0.23708737237E+02  0.65014168570E+02 -0.23710712770E+03  0.24699946628E+03  0.00000000000E+00 0. -1.
         -3    1    3    3    0  502 -0.18647755245E+02  0.19465109476E+03 -0.35243251682E+03  0.40304524111E+03  0.00000000000E+00 0.  1.
         13    1    5    5    0    0 -0.20984884382E+03  0.17447950751E+03 -0.55769250416E+02  0.27854953794E+03  0.00000000000E+00 0.  1.
        -13    1    5    5    0    0 -0.46698922168E+02  0.15086984236E+01  0.12870758385E+02  0.48463614433E+02  0.00000000000E+00 0. -1.
          2    1    6    6  503    0  0.14093263922E+03 -0.14980180767E+03  0.19966168987E+03  0.28664853180E+03  0.00000000000E+00 0. -1.
         -2    1    6    6    0  503  0.15797161924E+03 -0.28585166159E+03  0.21483439959E+03  0.39092201801E+03  0.00000000000E+00 0.  1.
<mgrwt>
<rscale>  0 0.16402123E+04</rscale>
<asrwt>0</asrwt>
<pdfrwt beam="1">  1        2 0.14404388E+00 0.16402123E+04</pdfrwt>
<pdfrwt beam="2">  1       -1 0.11051434E+00 0.16402123E+04</pdfrwt>
<totfact> 0.22832674E+01</totfact>
</mgrwt>
</event>
<event>
12    7  0.1605494E-007  0.1389425E+04  0.7818608E-02  0.8961509E-01
          2   -1    0    0  501    0  0.00000000000E+00  0.00000000000E+00  0.22473979470E+04  0.22473979470E+04  0.00000000000E+00 0. -1.
         -1   -1    0    0    0  501 -0.00000000000E+00 -0.00000000000E+00 -0.21474846188E+03  0.21474846188E+03  0.00000000000E+00 0.  1.
         24    2    1    2    0    0  0.28132440264E+03  0.24473557049E+03  0.36283032257E+03  0.52676673176E+03  0.82452578689E+02 0.  0.
        254    2    1    2    0    0 -0.28132440264E+03 -0.24473557049E+03  0.16698191626E+04  0.19353796771E+04  0.90463226784E+03 0.  0.
         23    2    4    4    0    0 -0.15422481068E+03 -0.57316398352E+03  0.87969142029E+03  0.10651618847E+04  0.91709331766E+02 0.  0.
         23    2    4    4    0    0 -0.12709959196E+03  0.32842841303E+03  0.79012774227E+03  0.87021779239E+03  0.94644748003E+02 0.  0.
          2    1    3    3  502    0 -0.47734264536E+01  0.32481021848E+00  0.13186324652E+01  0.49628513341E+01  0.00000000000E+00 0. -1.
         -1    1    3    3    0  502  0.28609782909E+03  0.24441076027E+03  0.36151169011E+03  0.52180388043E+03  0.00000000000E+00 0.  1.
         13    1    5    5    0    0 -0.12177388021E+03 -0.46085012145E+03  0.76524318478E+03  0.90155911853E+03  0.00000000000E+00 0.  1.
        -13    1    5    5    0    0 -0.32450930470E+02 -0.11231386207E+03  0.11444823551E+03  0.16360276621E+03  0.00000000000E+00 0. -1.
          3    1    6    6  503    0 -0.16040003703E+02  0.59718605845E+02  0.68850869432E+02  0.92542075968E+02  0.00000000000E+00 0. -1.
         -3    1    6    6    0  503 -0.11105958826E+03  0.26870980719E+03  0.72127687284E+03  0.77767571643E+03  0.00000000000E+00 0.  1.
<mgrwt>
<rscale>  0 0.13894247E+04</rscale>
<asrwt>0</asrwt>
<pdfrwt beam="1">  1        2 0.34575351E+00 0.13894247E+04</pdfrwt>
<pdfrwt beam="2">  1       -1 0.33038226E-01 0.13894247E+04</pdfrwt>
<totfact> 0.46430184E+01</totfact>
</mgrwt>
</event>
<event>
12    7  0.1605494E-007  0.1675712E+04  0.7818608E-02  0.8775339E-01
          2   -1    0    0  501    0  0.00000000000E+00  0.00000000000E+00  0.17418838303E+04  0.17418838303E+04  0.00000000000E+00 0. -1.
         -1   -1    0    0    0  501 -0.00000000000E+00 -0.00000000000E+00 -0.40301371964E+03  0.40301371964E+03  0.00000000000E+00 0.  1.
         24    2    1    2    0    0  0.36648815307E+03 -0.86617237943E+02  0.10878008814E+04  0.11540581424E+04  0.81995891717E+02 0.  0.
        254    2    1    2    0    0 -0.36648815307E+03  0.86617237943E+02  0.25106922931E+03  0.99083940758E+03  0.88142547130E+03 0.  0.
         23    2    4    4    0    0  0.14755484716E+03 -0.16073431242E+03  0.33308289140E+03  0.40754208960E+03  0.86823903033E+02 0.  0.
         23    2    4    4    0    0 -0.51404300023E+03  0.24735155036E+03 -0.82013662095E+02  0.58329731798E+03  0.89925106824E+02 0.  0.
          2    1    3    3  502    0  0.15867652954E+03 -0.33232017353E+02  0.59255443223E+03  0.61433163939E+03  0.00000000000E+00 0. -1.
         -1    1    3    3    0  502  0.20781162353E+03 -0.53385220590E+02  0.49524644915E+03  0.53972650301E+03  0.00000000000E+00 0.  1.
         13    1    5    5    0    0  0.10816730157E+03 -0.60238002958E+02  0.14480886341E+03  0.19052136114E+03  0.00000000000E+00 0.  1.
        -13    1    5    5    0    0  0.39387545594E+02 -0.10049630946E+03  0.18827402799E+03  0.21702072845E+03  0.00000000000E+00 0. -1.
          1    1    6    6  503    0 -0.98604343049E+02  0.27512442007E+02 -0.44993320187E+02  0.11182195578E+03  0.00000000000E+00 0. -1.
         -1    1    6    6    0  503 -0.41543865718E+03  0.21983910836E+03 -0.37020341908E+02  0.47147536220E+03  0.00000000000E+00 0.  1.
<mgrwt>
<rscale>  0 0.16757125E+04</rscale>
<asrwt>0</asrwt>
<pdfrwt beam="1">  1        2 0.26798212E+00 0.16757125E+04</pdfrwt>
<pdfrwt beam="2">  1       -1 0.62002112E-01 0.16757125E+04</pdfrwt>
<totfact> 0.26631376E+01</totfact>
</mgrwt>
</event>
<event>
12    7  0.1605494E-007  0.1513789E+04  0.7818608E-02  0.8875335E-01
         -1   -1    0    0    0  501 -0.00000000000E+00  0.00000000000E+00  0.17795084448E+03  0.17795084448E+03  0.00000000000E+00 0.  1.
          2   -1    0    0  501    0  0.00000000000E+00 -0.00000000000E+00 -0.32193690205E+04  0.32193690205E+04  0.00000000000E+00 0. -1.
         24    2    1    2    0    0  0.43199247923E+02 -0.47283247758E+03 -0.72882070221E+03  0.87340550797E+03  0.78872292398E+02 0.  0.
        254    2    1    2    0    0 -0.43199247923E+02  0.47283247758E+03 -0.23125974738E+04  0.25239143570E+04  0.89252444155E+03 0.  0.
         23    2    4    4    0    0  0.31836728020E+03  0.55237136100E+02 -0.14986697658E+04  0.15356944218E+04  0.89092221558E+02 0.  0.
         23    2    4    4    0    0 -0.36156652812E+03  0.41759534148E+03 -0.81392770800E+03  0.98821993519E+03  0.94784508049E+02 0.  0.
          4    1    3    3  502    0  0.45085591864E+02 -0.47478965883E+03 -0.71599268942E+03  0.86029266068E+03  0.00000000000E+00 0. -1.
         -3    1    3    3    0  502 -0.18863439410E+01  0.19571812439E+01 -0.12828012790E+02  0.13112847289E+02  0.00000000000E+00 0.  1.
         13    1    5    5    0    0  0.31389107657E+03  0.63035436967E+02 -0.14863644310E+04  0.15204539769E+04  0.00000000000E+00 0.  1.
        -13    1    5    5    0    0  0.44762036318E+01 -0.77983008671E+01 -0.12305334850E+02  0.15240444913E+02  0.00000000000E+00 0. -1.
          2    1    6    6  503    0 -0.61881970001E+02  0.13420771997E+03 -0.20309900406E+03  0.25117781701E+03  0.00000000000E+00 0. -1.
         -2    1    6    6    0  503 -0.29968455812E+03  0.28338762152E+03 -0.61082870394E+03  0.73704211818E+03  0.00000000000E+00 0.  1.
<mgrwt>
<rscale>  0 0.15137892E+04</rscale>
<asrwt>0</asrwt>
<pdfrwt beam="1">  1        2 0.49528748E+00 0.15137892E+04</pdfrwt>
<pdfrwt beam="2">  1       -1 0.27377056E-01 0.15137892E+04</pdfrwt>
<totfact> 0.16736796E+01</totfact>
</mgrwt>
</event>
<event>
12    7  0.1605494E-007  0.1133355E+04  0.7818608E-02  0.9173278E-01
          2   -1    0    0  501    0  0.00000000000E+00  0.00000000000E+00  0.61495465892E+03  0.61495465892E+03  0.00000000000E+00 0. -1.
         -1   -1    0    0    0  501 -0.00000000000E+00 -0.00000000000E+00 -0.52219011791E+03  0.52219011791E+03  0.00000000000E+00 0.  1.
         24    2    1    2    0    0  0.96414882896E+02  0.15758787860E+03 -0.53015506822E+02  0.20963082009E+03  0.83693892495E+02 0.  0.
        254    2    1    2    0    0 -0.96414882896E+02 -0.15758787860E+03  0.14578004783E+03  0.92751395674E+03  0.89716249836E+03 0.  0.
         23    2    4    4    0    0  0.11057595444E+03  0.32359011231E+03  0.17456927177E+03  0.39506159418E+03  0.93067878795E+02 0.  0.
         23    2    4    4    0    0 -0.20699083733E+03 -0.48117799091E+03 -0.28789223936E+02  0.53245236256E+03  0.91100127941E+02 0.  0.
          2    1    3    3  502    0 -0.83688450405E+00 -0.93001598274E+01 -0.27022326494E-01  0.93377769675E+01  0.00000000000E+00 0. -1.
         -1    1    3    3    0  502  0.97251767400E+02  0.16688803843E+03 -0.52988484495E+02  0.20029304312E+03  0.00000000000E+00 0.  1.
         13    1    5    5    0    0  0.11017497425E+03  0.29761510930E+03  0.18468795171E+03  0.36718240391E+03  0.00000000000E+00 0.  1.
        -13    1    5    5    0    0  0.40098018518E+00  0.25975003004E+02 -0.10118679935E+02  0.27879190264E+02  0.00000000000E+00 0. -1.
          4    1    6    6  503    0 -0.68564572141E+01 -0.61703111467E+02 -0.26941776550E+02  0.67676763323E+02  0.00000000000E+00 0. -1.
         -4    1    6    6    0  503 -0.20013438012E+03 -0.41947487944E+03 -0.18474473861E+01  0.46477559924E+03  0.00000000000E+00 0.  1.
<mgrwt>
<rscale>  0 0.11333547E+04</rscale>
<asrwt>0</asrwt>
<pdfrwt beam="1">  1        2 0.94608409E-01 0.11333547E+04</pdfrwt>
<pdfrwt beam="2">  1       -1 0.80336941E-01 0.11333547E+04</pdfrwt>
<totfact> 0.84302137E+01</totfact>
</mgrwt>
</event>
<event>
12    7  0.1605494E-007  0.1943039E+04  0.7818608E-02  0.8633725E-01
         -1   -1    0    0    0  501 -0.00000000000E+00  0.00000000000E+00  0.10193960581E+04  0.10193960581E+04  0.00000000000E+00 0.  1.
          2   -1    0    0  501    0  0.00000000000E+00 -0.00000000000E+00 -0.92589194237E+03  0.92589194237E+03  0.00000000000E+00 0. -1.
         24    2    1    2    0    0  0.70411879515E+03 -0.24355302147E+03  0.19199908079E+03  0.77366592197E+03  0.81203200902E+02 0.  0.
        254    2    1    2    0    0 -0.70411879515E+03  0.24355302147E+03 -0.98494965093E+02  0.11716220785E+04  0.89883017565E+03 0.  0.
         23    2    4    4    0    0 -0.70878740356E+03 -0.88639946451E+02 -0.29185467589E+03  0.77703246608E+03  0.91453146192E+02 0.  0.
         23    2    4    4    0    0  0.46686084024E+01  0.33219296792E+03  0.19335971080E+03  0.39458961240E+03  0.89101181874E+02 0.  0.
          4    1    3    3  502    0  0.20689453000E+03 -0.95425308523E+02  0.28063616128E+02  0.22956241548E+03  0.00000000000E+00 0. -1.
         -3    1    3    3    0  502  0.49722426516E+03 -0.14812771294E+03  0.16393546466E+03  0.54410350649E+03  0.00000000000E+00 0.  1.
         13    1    5    5    0    0 -0.60846341063E+03 -0.60545482431E+02 -0.27881818923E+03  0.67203650211E+03  0.00000000000E+00 0.  1.
        -13    1    5    5    0    0 -0.10032399292E+03 -0.28094464020E+02 -0.13036486662E+02  0.10499596396E+03  0.00000000000E+00 0. -1.
          4    1    6    6  503    0 -0.10376174526E+02 -0.40946631233E-01  0.11690772525E+02  0.15631405460E+02  0.00000000000E+00 0. -1.
         -4    1    6    6    0  503  0.15044782928E+02  0.33223391455E+03  0.18166893828E+03  0.37895820694E+03  0.00000000000E+00 0.  1.
<mgrwt>
<rscale>  0 0.19430395E+04</rscale>
<asrwt>0</asrwt>
<pdfrwt beam="1">  1        2 0.14244491E+00 0.19430395E+04</pdfrwt>
<pdfrwt beam="2">  1       -1 0.15683016E+00 0.19430395E+04</pdfrwt>
<totfact> 0.92681937E+00</totfact>
</mgrwt>
</event>
<event>
12    7  0.1605494E-007  0.1438512E+04  0.7818608E-02  0.8926404E-01
         -3   -1    0    0    0  501 -0.00000000000E+00  0.00000000000E+00  0.17983002586E+03  0.17983002586E+03  0.00000000000E+00 0.  1.
          2   -1    0    0  501    0  0.00000000000E+00 -0.00000000000E+00 -0.28767660169E+04  0.28767660169E+04  0.00000000000E+00 0. -1.
         24    2    1    2    0    0 -0.11442590419E+03  0.33514124018E+03 -0.13689191760E+04  0.14162636825E+04  0.80312947267E+02 0.  0.
        254    2    1    2    0    0  0.11442590419E+03 -0.33514124018E+03 -0.13280168150E+04  0.16403323602E+04  0.89534834152E+03 0.  0.
         23    2    4    4    0    0 -0.25179451908E+03 -0.47093036279E+02 -0.49692629180E+02  0.27647089776E+03  0.91370487629E+02 0.  0.
         23    2    4    4    0    0  0.36622042326E+03 -0.28804820390E+03 -0.12783241858E+04  0.13638614625E+04  0.94425624530E+02 0.  0.
          4    1    3    3  502    0 -0.10393041075E+03  0.33148606605E+03 -0.12677684490E+04  0.13145042345E+04  0.00000000000E+00 0. -1.
         -3    1    3    3    0  502 -0.10495493439E+02  0.36551741342E+01 -0.10115072704E+03  0.10175944802E+03  0.00000000000E+00 0.  1.
         13    1    5    5    0    0 -0.73764175515E+02 -0.10069134458E+02  0.26899903242E+02  0.79158990977E+02  0.00000000000E+00 0.  1.
        -13    1    5    5    0    0 -0.17803034356E+03 -0.37023901821E+02 -0.76592532422E+02  0.19731190678E+03  0.00000000000E+00 0. -1.
          1    1    6    6  503    0  0.35222525399E+03 -0.25104367806E+03 -0.11186638585E+04  0.11993724968E+04  0.00000000000E+00 0. -1.
         -1    1    6    6    0  503  0.13995169272E+02 -0.37004525844E+02 -0.15966032735E+03  0.16448896567E+03  0.00000000000E+00 0.  1.
<mgrwt>
<rscale>  0 0.14385116E+04</rscale>
<asrwt>0</asrwt>
<pdfrwt beam="1">  1        2 0.44257936E+00 0.14385116E+04</pdfrwt>
<pdfrwt beam="2">  1       -3 0.27666159E-01 0.14385116E+04</pdfrwt>
<totfact> 0.16673687E+01</totfact>
</mgrwt>
</event>
<event>
12    7  0.1605494E-007  0.1656887E+04  0.7818608E-02  0.8786343E-01
         -1   -1    0    0    0  501 -0.00000000000E+00  0.00000000000E+00  0.42558636256E+03  0.42558636256E+03  0.00000000000E+00 0.  1.
          2   -1    0    0  501    0  0.00000000000E+00 -0.00000000000E+00 -0.16126416316E+04  0.16126416316E+04  0.00000000000E+00 0. -1.
         24    2    1    2    0    0  0.20894281924E+03 -0.26003912898E+03  0.16585359631E+03  0.38068329972E+03  0.78325659654E+02 0.  0.
        254    2    1    2    0    0 -0.20894281924E+03  0.26003912898E+03 -0.13529088654E+04  0.16575446945E+04  0.89767174726E+03 0.  0.
         23    2    4    4    0    0 -0.36057040244E+03 -0.22077919290E+03 -0.75443398266E+03  0.86969552973E+03  0.91897840652E+02 0.  0.
         23    2    4    4    0    0  0.15162758319E+03  0.48081832187E+03 -0.59847488270E+03  0.78784916472E+03  0.91416292257E+02 0.  0.
          4    1    3    3  502    0  0.90963800229E+02 -0.60916099192E+02  0.35714692462E+02  0.11515521417E+03  0.00000000000E+00 0. -1.
         -3    1    3    3    0  502  0.11797901902E+03 -0.19912302978E+03  0.13013890385E+03  0.26552808555E+03  0.00000000000E+00 0.  1.
         13    1    5    5    0    0 -0.33185879938E+03 -0.22258087427E+03 -0.72883157671E+03  0.83118468196E+03  0.00000000000E+00 0. -1.
        -13    1    5    5    0    0 -0.28711603056E+02  0.18016813697E+01 -0.25602405952E+02  0.38510847775E+02  0.00000000000E+00 0.  1.
          1    1    6    6  503    0  0.15345856579E+03  0.46973111329E+03 -0.59908536772E+03  0.77659521504E+03  0.00000000000E+00 0. -1.
         -1    1    6    6    0  503 -0.18309826001E+01  0.11087208585E+02  0.61048501533E+00  0.11253949682E+02  0.00000000000E+00 0.  1.
<mgrwt>
<rscale>  0 0.16568866E+04</rscale>
<asrwt>0</asrwt>
<pdfrwt beam="1">  1        2 0.24809871E+00 0.16568866E+04</pdfrwt>
<pdfrwt beam="2">  1       -1 0.65474826E-01 0.16568866E+04</pdfrwt>
<totfact> 0.28219568E+01</totfact>
</mgrwt>
</event>
<event>
12    7  0.1605494E-007  0.1682145E+04  0.7818608E-02  0.8771614E-01
         -1   -1    0    0    0  501 -0.00000000000E+00  0.00000000000E+00  0.58670641541E+03  0.58670641541E+03  0.00000000000E+00 0.  1.
          2   -1    0    0  501    0  0.00000000000E+00 -0.00000000000E+00 -0.12057185118E+04  0.12057185118E+04  0.00000000000E+00 0. -1.
         24    2    1    2    0    0 -0.42002619125E+03  0.37559383842E+03 -0.41668466952E+03  0.70539273495E+03  0.80374522818E+02 0.  0.
        254    2    1    2    0    0  0.42002619125E+03 -0.37559383842E+03 -0.20232742691E+03  0.10870321923E+04  0.90730913508E+03 0.  0.
         23    2    4    4    0    0  0.23633396908E+03 -0.53248275985E+03  0.18567457815E+03  0.61868124896E+03  0.94338774445E+02 0.  0.
         23    2    4    4    0    0  0.18369222216E+03  0.15688892143E+03 -0.38800200506E+03  0.46835094333E+03  0.10222565254E+03 0.  0.
          4    1    3    3  502    0 -0.34424173058E+03  0.29273974864E+03 -0.29412877888E+03  0.53917591570E+03  0.00000000000E+00 0. -1.
         -3    1    3    3    0  502 -0.75784460667E+02  0.82854089785E+02 -0.12255589064E+03  0.16621681925E+03  0.00000000000E+00 0.  1.
         13    1    5    5    0    0  0.10423617923E+03 -0.14389175751E+03  0.80039579663E+02  0.19487522482E+03  0.00000000000E+00 0.  1.
        -13    1    5    5    0    0  0.13209778986E+03 -0.38859100235E+03  0.10563499848E+03  0.42380602414E+03  0.00000000000E+00 0. -1.
          2    1    6    6  503    0  0.16652735980E+03  0.83919542889E+02 -0.25892966018E+03  0.31908998756E+03  0.00000000000E+00 0. -1.
         -2    1    6    6    0  503  0.17164862363E+02  0.72969378540E+02 -0.12907234488E+03  0.14926095577E+03  0.00000000000E+00 0.  1.
<mgrwt>
<rscale>  0 0.16821448E+04</rscale>
<asrwt>0</asrwt>
<pdfrwt beam="1">  1        2 0.18549515E+00 0.16821448E+04</pdfrwt>
<pdfrwt beam="2">  1       -1 0.90262526E-01 0.16821448E+04</pdfrwt>
<totfact> 0.24508670E+01</totfact>
</mgrwt>
</event>
<event>
12    7  0.1605494E-007  0.1220883E+04  0.7818608E-02  0.9094772E-01
          2   -1    0    0  501    0  0.00000000000E+00  0.00000000000E+00  0.12246968056E+04  0.12246968056E+04  0.00000000000E+00 0. -1.
         -1   -1    0    0    0  501 -0.00000000000E+00 -0.00000000000E+00 -0.30427004652E+03  0.30427004652E+03  0.00000000000E+00 0.  1.
         24    2    1    2    0    0 -0.39068824987E+02  0.59642537801E+02 -0.11180435150E+03  0.15426932569E+03  0.78836580557E+02 0.  0.
        254    2    1    2    0    0  0.39068824987E+02 -0.59642537801E+02  0.10322311106E+04  0.13746975265E+04  0.90510144081E+03 0.  0.
         23    2    4    4    0    0  0.35239269814E+03 -0.20929312196E+03  0.19291759812E+03  0.46209748200E+03  0.91283397213E+02 0.  0.
         23    2    4    4    0    0 -0.31332387316E+03  0.14965058416E+03  0.83931351248E+03  0.91260004445E+03  0.88456328644E+02 0.  0.
          2    1    3    3  502    0  0.16130936397E+02 -0.42635795304E+01 -0.36964680906E+01  0.17089443988E+02  0.00000000000E+00 0. -1.
         -1    1    3    3    0  502 -0.55199761384E+02  0.63906117331E+02 -0.10810788341E+03  0.13717988170E+03  0.00000000000E+00 0.  1.
         13    1    5    5    0    0  0.17452135950E+03 -0.13078604368E+03  0.58722216236E+02  0.22585613302E+03  0.00000000000E+00 0.  1.
        -13    1    5    5    0    0  0.17787133865E+03 -0.78507078274E+02  0.13419538188E+03  0.23624134898E+03  0.00000000000E+00 0. -1.
          3    1    6    6  503    0 -0.29937068800E+03  0.14350429829E+03  0.72649699645E+03  0.79875789718E+03  0.00000000000E+00 0. -1.
         -3    1    6    6    0  503 -0.13953185157E+02  0.61462858642E+01  0.11281651603E+03  0.11384214727E+03  0.00000000000E+00 0.  1.
<mgrwt>
<rscale>  0 0.12208826E+04</rscale>
<asrwt>0</asrwt>
<pdfrwt beam="1">  1        2 0.18841489E+00 0.12208826E+04</pdfrwt>
<pdfrwt beam="2">  1       -1 0.46810777E-01 0.12208826E+04</pdfrwt>
<totfact> 0.93500184E+01</totfact>
</mgrwt>
</event>
<event>
12    7  0.1605494E-007  0.1571905E+04  0.7818608E-02  0.8837996E-01
          2   -1    0    0  501    0  0.00000000000E+00  0.00000000000E+00  0.33349447879E+04  0.33349447879E+04  0.00000000000E+00 0. -1.
         -1   -1    0    0    0  501 -0.00000000000E+00 -0.00000000000E+00 -0.18522688373E+03  0.18522688373E+03  0.00000000000E+00 0.  1.
         24    2    1    2    0    0 -0.42420411488E+03  0.32797400109E+03  0.11587428282E+04  0.12786245504E+04  0.68408498338E+02 0.  0.
        254    2    1    2    0    0  0.42420411488E+03 -0.32797400109E+03  0.19909750760E+04  0.22415471212E+04  0.87922446898E+03 0.  0.
         23    2    4    4    0    0 -0.54809820027E+02  0.13002591612E+03  0.32218816442E+02  0.17171428470E+03  0.92395282372E+02 0.  0.
         23    2    4    4    0    0  0.47901393491E+03 -0.45799991721E+03  0.19587562596E+04  0.20698328365E+04  0.90904415226E+02 0.  0.
          4    1    3    3  502    0 -0.80239734607E+02  0.73730418744E+02  0.30169353401E+03  0.32077028872E+03  0.00000000000E+00 0. -1.
         -3    1    3    3    0  502 -0.34396438027E+03  0.25424358235E+03  0.85704929418E+03  0.95785426173E+03  0.00000000000E+00 0.  1.
         13    1    5    5    0    0 -0.55989463400E+02  0.22736852607E+02  0.29671441834E+01  0.60502796819E+02  0.00000000000E+00 0. -1.
        -13    1    5    5    0    0  0.11796433739E+01  0.10728906351E+03  0.29251672259E+02  0.11121148788E+03  0.00000000000E+00 0.  1.
          4    1    6    6  503    0  0.22990590089E+03 -0.17070341517E+03  0.75682558364E+03  0.80918560495E+03  0.00000000000E+00 0. -1.
         -4    1    6    6    0  503  0.24910803402E+03 -0.28729650204E+03  0.12019306759E+04  0.12606472315E+04  0.00000000000E+00 0.  1.
<mgrwt>
<rscale>  0 0.15719051E+04</rscale>
<asrwt>0</asrwt>
<pdfrwt beam="1">  1        2 0.51306838E+00 0.15719051E+04</pdfrwt>
<pdfrwt beam="2">  1       -1 0.28496446E-01 0.15719051E+04</pdfrwt>
<totfact> 0.13026640E+01</totfact>
</mgrwt>
</event>
<event>
12    7  0.2013046E-007  0.1831713E+04  0.7818608E-02  0.8689614E-01
          2   -1    0    0  501    0  0.00000000000E+00  0.00000000000E+00  0.24194340422E+04  0.24194340422E+04  0.00000000000E+00 0. -1.
         -1   -1    0    0    0  501 -0.00000000000E+00 -0.00000000000E+00 -0.34668971310E+03  0.34668971310E+03  0.00000000000E+00 0.  1.
         24    2    1    2    0    0  0.35787842310E+03 -0.10441420811E+03  0.16801451211E+04  0.17235194880E+04  0.93018842894E+02 0.  0.
        254    2    1    2    0    0 -0.35787842310E+03  0.10441420811E+03  0.39259920798E+03  0.10426042672E+04  0.89101640130E+03 0.  0.
         23    2    4    4    0    0 -0.38033100113E+02 -0.31612783581E+03  0.38239082095E+03  0.50616510865E+03  0.92720288956E+02 0.  0.
         23    2    4    4    0    0 -0.31984532298E+03  0.42054204392E+03  0.10208387030E+02  0.53643915859E+03  0.92228620114E+02 0.  0.
          2    1    3    3  502    0  0.32542558106E+03 -0.91416389822E+02  0.16105234367E+04  0.16456137169E+04  0.00000000000E+00 0. -1.
         -1    1    3    3    0  502  0.32452842036E+02 -0.12997818286E+02  0.69621684403E+02  0.77905771131E+02  0.00000000000E+00 0.  1.
         13    1    5    5    0    0  0.43158006484E+01 -0.21872432877E+01 -0.41674395306E+01  0.63857435493E+01  0.00000000000E+00 0. -1.
        -13    1    5    5    0    0 -0.42348900761E+02 -0.31394059252E+03  0.38655826048E+03  0.49977936510E+03  0.00000000000E+00 0.  1.
          2    1    6    6  503    0 -0.31143547490E+03  0.36419822633E+03  0.13337181585E+02  0.47938531840E+03  0.00000000000E+00 0. -1.
         -2    1    6    6    0  503 -0.84098480874E+01  0.56343817586E+02 -0.31287945557E+01  0.57053840190E+02  0.00000000000E+00 0.  1.
<mgrwt>
<rscale>  0 0.18317127E+04</rscale>
<asrwt>0</asrwt>
<pdfrwt beam="1">  1        2 0.37222061E+00 0.18317127E+04</pdfrwt>
<pdfrwt beam="2">  1       -1 0.53336880E-01 0.18317127E+04</pdfrwt>
<totfact> 0.14742292E+01</totfact>
</mgrwt>
</event>
<event>
12    7  0.1605494E-007  0.2005149E+04  0.7818608E-02  0.8604217E-01
          2   -1    0    0  501    0  0.00000000000E+00  0.00000000000E+00  0.10021949917E+04  0.10021949917E+04  0.00000000000E+00 0. -1.
         -1   -1    0    0    0  501 -0.00000000000E+00 -0.00000000000E+00 -0.10029543258E+04  0.10029543258E+04  0.00000000000E+00 0.  1.
         24    2    1    2    0    0 -0.66160879811E+02 -0.78376014116E+03  0.13324521669E+03  0.80171409351E+03  0.79586299594E+02 0.  0.
        254    2    1    2    0    0  0.66160879811E+02  0.78376014116E+03 -0.13400455083E+03  0.12034352240E+04  0.90091170368E+03 0.  0.
         23    2    4    4    0    0 -0.30737500262E+03  0.59714955590E+03  0.14501336955E+03  0.69310310224E+03  0.91082647341E+02 0.  0.
         23    2    4    4    0    0  0.37353588243E+03  0.18661058526E+03 -0.27901792038E+03  0.51033212175E+03  0.90748601135E+02 0.  0.
          4    1    3    3  502    0 -0.36688909859E+02 -0.60072318513E+03  0.13279584571E+03  0.61631903905E+03  0.00000000000E+00 0. -1.
         -3    1    3    3    0  502 -0.29471969952E+02 -0.18303695603E+03  0.44937097961E+00  0.18539505446E+03  0.00000000000E+00 0.  1.
         13    1    5    5    0    0  0.56378625939E+01  0.20959696587E+02  0.85603752546E+00  0.21721583181E+02  0.00000000000E+00 0.  1.
        -13    1    5    5    0    0 -0.31301286521E+03  0.57618985931E+03  0.14415733203E+03  0.67138151906E+03  0.00000000000E+00 0. -1.
          2    1    6    6  503    0  0.37132099633E+03  0.19211397086E+03 -0.28138064983E+03  0.50394655492E+03  0.00000000000E+00 0. -1.
         -2    1    6    6    0  503  0.22148860961E+01 -0.55033855956E+01  0.23627294438E+01  0.63855668391E+01  0.00000000000E+00 0.  1.
<mgrwt>
<rscale>  0 0.20051492E+04</rscale>
<asrwt>0</asrwt>
<pdfrwt beam="1">  1        2 0.15418385E+00 0.20051492E+04</pdfrwt>
<pdfrwt beam="2">  1       -1 0.15430066E+00 0.20051492E+04</pdfrwt>
<totfact> 0.85937239E+00</totfact>
</mgrwt>
</event>
<event>
12    7  0.1639303E-007  0.2532758E+04  0.7818608E-02  0.8391407E-01
          2   -1    0    0  501    0  0.00000000000E+00  0.00000000000E+00  0.97896101305E+03  0.97896101305E+03  0.00000000000E+00 0. -1.
         -1   -1    0    0    0  501 -0.00000000000E+00 -0.00000000000E+00 -0.16381812814E+04  0.16381812814E+04  0.00000000000E+00 0.  1.
         24    2    1    2    0    0  0.29631752033E+02  0.40610502830E+02  0.85603788404E+03  0.86133275959E+03  0.81030921048E+02 0.  0.
        254    2    1    2    0    0 -0.29631752033E+02 -0.40610502830E+02 -0.15152581523E+04  0.17558095348E+04  0.88562554201E+03 0.  0.
         23    2    4    4    0    0  0.72335182690E+02  0.13964490864E+03 -0.15189742539E+04  0.15298672492E+04  0.92075713209E+02 0.  0.
         23    2    4    4    0    0 -0.10196693472E+03 -0.18025541147E+03  0.37161015320E+01  0.22594228566E+03  0.90259835457E+02 0.  0.
          2    1    3    3  502    0  0.40911865065E+02  0.48542227088E+02  0.82414479476E+03  0.82658621526E+03  0.00000000000E+00 0. -1.
         -1    1    3    3    0  502 -0.11280113032E+02 -0.79317242588E+01  0.31893089272E+02  0.34746544332E+02  0.00000000000E+00 0.  1.
         13    1    5    5    0    0  0.93344083769E+02  0.12100658040E+03 -0.12083543683E+04  0.12179802912E+04  0.00000000000E+00 0.  1.
        -13    1    5    5    0    0 -0.21008901079E+02  0.18638328247E+02 -0.31061988558E+03  0.31188695793E+03  0.00000000000E+00 0. -1.
          1    1    6    6  503    0 -0.79455575828E+02 -0.12162374326E+03 -0.38469859876E+02  0.15028457530E+03  0.00000000000E+00 0. -1.
         -1    1    6    6    0  503 -0.22511358895E+02 -0.58631668209E+02  0.42185961408E+02  0.75657710355E+02  0.00000000000E+00 0.  1.
<mgrwt>
<rscale>  0 0.25327579E+04</rscale>
<asrwt>0</asrwt>
<pdfrwt beam="1">  1        2 0.15060939E+00 0.25327579E+04</pdfrwt>
<pdfrwt beam="2">  1       -1 0.25202789E+00 0.25327579E+04</pdfrwt>
<totfact> 0.17822810E+00</totfact>
</mgrwt>
</event>
<event>
12    7  0.1605494E-007  0.2560483E+04  0.7818608E-02  0.8381750E-01
         -1   -1    0    0    0  501 -0.00000000000E+00  0.00000000000E+00  0.10493277809E+04  0.10493277809E+04  0.00000000000E+00 0.  1.
          2   -1    0    0  501    0  0.00000000000E+00 -0.00000000000E+00 -0.15619696063E+04  0.15619696063E+04  0.00000000000E+00 0. -1.
         24    2    1    2    0    0  0.10536263035E+04 -0.13883624699E+03 -0.58458897281E+03  0.12154660696E+04  0.78801068253E+02 0.  0.
        254    2    1    2    0    0 -0.10536263035E+04  0.13883624699E+03  0.71947147491E+02  0.13958313176E+04  0.90208912213E+03 0.  0.
         23    2    4    4    0    0 -0.56601589783E+03  0.44846005731E+03  0.27312281819E+03  0.77740632196E+03  0.90962058060E+02 0.  0.
         23    2    4    4    0    0 -0.48761040565E+03 -0.30962381031E+03 -0.20117567070E+03  0.61842499563E+03  0.91361989534E+02 0.  0.
          4    1    3    3  502    0  0.85000661936E+03 -0.14044538601E+03 -0.45810509131E+03  0.97575428981E+03  0.00000000000E+00 0. -1.
         -3    1    3    3    0  502  0.20361968412E+03  0.16091390175E+01 -0.12648388149E+03  0.23971177979E+03  0.00000000000E+00 0.  1.
         13    1    5    5    0    0 -0.14404593800E+03  0.76706991694E+02  0.36176653779E+02  0.16715844312E+03  0.00000000000E+00 0. -1.
        -13    1    5    5    0    0 -0.42196995984E+03  0.37175306561E+03  0.23694616441E+03  0.61024787884E+03  0.00000000000E+00 0.  1.
          2    1    6    6  503    0 -0.48780701523E+03 -0.30600333505E+03 -0.18953389133E+03  0.60623165632E+03  0.00000000000E+00 0.  1.
         -2    1    6    6    0  503  0.19660958285E+00 -0.36204752635E+01 -0.11641779373E+02  0.12193339306E+02  0.00000000000E+00 0. -1.
<mgrwt>
<rscale>  0 0.25604828E+04</rscale>
<asrwt>0</asrwt>
<pdfrwt beam="1">  1        2 0.24030302E+00 0.25604828E+04</pdfrwt>
<pdfrwt beam="2">  1       -1 0.16143504E+00 0.25604828E+04</pdfrwt>
<totfact> 0.33741671E+00</totfact>
</mgrwt>
</event>
<event>
12    7  0.1605494E-007  0.2064294E+04  0.7818608E-02  0.8577137E-01
         -1   -1    0    0    0  501 -0.00000000000E+00  0.00000000000E+00  0.58208348954E+03  0.58208348954E+03  0.00000000000E+00 0.  1.
          2   -1    0    0  501    0  0.00000000000E+00 -0.00000000000E+00 -0.18301968212E+04  0.18301968212E+04  0.00000000000E+00 0. -1.
         24    2    1    2    0    0 -0.19692657036E+03  0.81254651695E+03 -0.57085557485E+03  0.10154580583E+04  0.79164793456E+02 0.  0.
        254    2    1    2    0    0  0.19692657036E+03 -0.81254651695E+03 -0.67725775683E+03  0.13968222525E+04  0.89074262246E+03 0.  0.
         23    2    4    4    0    0  0.54354399199E+02 -0.97767072508E+03 -0.52088886516E+03  0.11131644950E+04  0.94950174416E+02 0.  0.
         23    2    4    4    0    0  0.14257217116E+03  0.16512420813E+03 -0.15636889168E+03  0.28365775749E+03  0.91747833756E+02 0.  0.
          2    1    3    3  502    0 -0.14720283013E+03  0.52903695192E+03 -0.41356671206E+03  0.68744904903E+03  0.00000000000E+00 0. -1.
         -3    1    3    3    0  502 -0.49723740234E+02  0.28350956503E+03 -0.15728886278E+03  0.32800900927E+03  0.00000000000E+00 0.  1.
         13    1    5    5    0    0  0.43498932388E+02 -0.64277535376E+03 -0.29168777426E+03  0.70720157676E+03  0.00000000000E+00 0.  1.
        -13    1    5    5    0    0  0.10855466811E+02 -0.33489537132E+03 -0.22920109089E+03  0.40596291821E+03  0.00000000000E+00 0. -1.
          4    1    6    6  503    0  0.48370464539E+02  0.12381093380E+03 -0.75969418422E+02  0.15310193239E+03  0.00000000000E+00 0. -1.
         -4    1    6    6    0  503  0.94201706622E+02  0.41313274336E+02 -0.80399473256E+02  0.13055582510E+03  0.00000000000E+00 0.  1.
<mgrwt>
<rscale>  0 0.20642939E+04</rscale>
<asrwt>0</asrwt>
<pdfrwt beam="1">  1        2 0.28156874E+00 0.20642939E+04</pdfrwt>
<pdfrwt beam="2">  1       -1 0.89551308E-01 0.20642939E+04</pdfrwt>
<totfact> 0.10670464E+01</totfact>
</mgrwt>
</event>
<event>
12    7  0.1605494E-007  0.1241481E+04  0.7818608E-02  0.9077303E-01
          2   -1    0    0  501    0  0.00000000000E+00  0.00000000000E+00  0.23479555092E+04  0.23479555092E+04  0.00000000000E+00 0. -1.
         -1   -1    0    0    0  501 -0.00000000000E+00 -0.00000000000E+00 -0.16410827723E+03  0.16410827723E+03  0.00000000000E+00 0.  1.
         24    2    1    2    0    0 -0.73825121774E+02  0.27022360133E+03  0.65623185103E+03  0.71800516266E+03  0.80126325189E+02 0.  0.
        254    2    1    2    0    0  0.73825121774E+02 -0.27022360133E+03  0.15276153810E+04  0.17940586238E+04  0.89809055785E+03 0.  0.
         23    2    4    4    0    0  0.32902699786E+03  0.19855328395E+03  0.55542207948E+03  0.68124823284E+03  0.89012900708E+02 0.  0.
         23    2    4    4    0    0 -0.25520187609E+03 -0.46877688528E+03  0.97219330152E+03  0.11128103910E+04  0.91144857268E+02 0.  0.
          4    1    3    3  502    0 -0.68316106012E+02  0.27523593816E+03  0.63333302489E+03  0.69392552368E+03  0.00000000000E+00 0. -1.
         -3    1    3    3    0  502 -0.55090157627E+01 -0.50123368317E+01  0.22898826136E+02  0.24079638984E+02  0.00000000000E+00 0.  1.
         13    1    5    5    0    0  0.33469857841E+02 -0.72579192850E+01  0.44823468171E+02  0.56409680686E+02  0.00000000000E+00 0.  1.
        -13    1    5    5    0    0  0.29555714002E+03  0.20581120323E+03  0.51059861131E+03  0.62483855216E+03  0.00000000000E+00 0. -1.
          3    1    6    6  503    0 -0.13208316876E+03 -0.32635038269E+03  0.66718910233E+03  0.75438175616E+03  0.00000000000E+00 0. -1.
         -3    1    6    6    0  503 -0.12311870733E+03 -0.14242650258E+03  0.30500419918E+03  0.35842863481E+03  0.00000000000E+00 0.  1.
<mgrwt>
<rscale>  0 0.12414813E+04</rscale>
<asrwt>0</asrwt>
<pdfrwt beam="1">  1        2 0.36122390E+00 0.12414813E+04</pdfrwt>
<pdfrwt beam="2">  1       -1 0.25247429E-01 0.12414813E+04</pdfrwt>
<totfact> 0.65981631E+01</totfact>
</mgrwt>
</event>
<event>
12    7  0.1605494E-007  0.1695188E+04  0.7818608E-02  0.8764114E-01
          2   -1    0    0  501    0  0.00000000000E+00  0.00000000000E+00  0.12553291236E+04  0.12553291236E+04  0.00000000000E+00 0. -1.
         -1   -1    0    0    0  501 -0.00000000000E+00 -0.00000000000E+00 -0.57229228135E+03  0.57229228135E+03  0.00000000000E+00 0.  1.
         24    2    1    2    0    0 -0.77009090724E+02  0.55542118993E+03  0.43082196735E+03  0.71237078677E+03  0.86263967046E+02 0.  0.
        254    2    1    2    0    0  0.77009090724E+02 -0.55542118993E+03  0.25221487489E+03  0.11152506182E+04  0.93045607095E+03 0.  0.
         23    2    4    4    0    0  0.27111449957E+03 -0.58865320431E+03  0.47142485383E+03  0.80678616254E+03  0.92988453191E+02 0.  0.
         23    2    4    4    0    0 -0.19410540885E+03  0.33232014385E+02 -0.21920997894E+03  0.30846445564E+03  0.91192263927E+02 0.  0.
          2    1    3    3  502    0 -0.69017463602E+02  0.52306612050E+03  0.37476720786E+03  0.64715688730E+03  0.00000000000E+00 0. -1.
         -1    1    3    3    0  502 -0.79916271220E+01  0.32355069431E+02  0.56054759489E+02  0.65213899464E+02  0.00000000000E+00 0.  1.
         13    1    5    5    0    0  0.32575682503E+02 -0.14914158859E+03  0.84351462592E+02  0.17441203450E+03  0.00000000000E+00 0.  1.
        -13    1    5    5    0    0  0.23853881707E+03 -0.43951161573E+03  0.38707339124E+03  0.63237412804E+03  0.00000000000E+00 0. -1.
          4    1    6    6  503    0 -0.32537636282E+01  0.54695476702E+01  0.81394462224E+01  0.10332159226E+02  0.00000000000E+00 0.  1.
         -4    1    6    6    0  503 -0.19085164522E+03  0.27762466715E+02 -0.22734942517E+03  0.29813229641E+03  0.00000000000E+00 0. -1.
<mgrwt>
<rscale>  0 0.16951875E+04</rscale>
<asrwt>0</asrwt>
<pdfrwt beam="1">  1        2 0.19312756E+00 0.16951875E+04</pdfrwt>
<pdfrwt beam="2">  1       -1 0.88044967E-01 0.16951875E+04</pdfrwt>
<totfact> 0.24163862E+01</totfact>
</mgrwt>
</event>
<event>
12    7  0.1605494E-007  0.1447787E+04  0.7818608E-02  0.8919936E-01
         -1   -1    0    0    0  501 -0.00000000000E+00  0.00000000000E+00  0.16489872175E+03  0.16489872175E+03  0.00000000000E+00 0.  1.
          2   -1    0    0  501    0  0.00000000000E+00 -0.00000000000E+00 -0.31778388880E+04  0.31778388880E+04  0.00000000000E+00 0. -1.
         24    2    1    2    0    0  0.17958826513E+02  0.40155260340E+03 -0.51389119230E+03  0.65682233862E+03  0.75923739571E+02 0.  0.
        254    2    1    2    0    0 -0.17958826513E+02 -0.40155260340E+03 -0.24990489740E+04  0.26859152712E+04  0.89851436095E+03 0.  0.
         23    2    4    4    0    0  0.31697961336E+03 -0.13009394007E+02 -0.37910198869E+03  0.50291068454E+03  0.92496049527E+02 0.  0.
         23    2    4    4    0    0 -0.33493843987E+03 -0.38854320939E+03 -0.21199469853E+04  0.21830045866E+04  0.90466683090E+02 0.  0.
          2    1    3    3  502    0 -0.24943510584E+02  0.62339301043E+02 -0.85048316586E+02  0.10835858678E+03  0.00000000000E+00 0. -1.
         -1    1    3    3    0  502  0.42902337097E+02  0.33921330236E+03 -0.42884287572E+03  0.54846375184E+03  0.00000000000E+00 0.  1.
         13    1    5    5    0    0  0.17717788262E+03  0.36466842234E+02 -0.23005167525E+03  0.29265270536E+03  0.00000000000E+00 0. -1.
        -13    1    5    5    0    0  0.13980173074E+03 -0.49476236240E+02 -0.14905031344E+03  0.21025797918E+03  0.00000000000E+00 0.  1.
          3    1    6    6  503    0 -0.23954291685E+03 -0.33379072375E+03 -0.16590131254E+04  0.17091289028E+04  0.00000000000E+00 0. -1.
         -3    1    6    6    0  503 -0.95395523020E+02 -0.54752485645E+02 -0.46093385992E+03  0.47387568383E+03  0.00000000000E+00 0.  1.
<mgrwt>
<rscale>  0 0.14477867E+04</rscale>
<asrwt>0</asrwt>
<pdfrwt beam="1">  1        2 0.48889824E+00 0.14477867E+04</pdfrwt>
<pdfrwt beam="2">  1       -1 0.25369037E-01 0.14477867E+04</pdfrwt>
<totfact> 0.20440823E+01</totfact>
</mgrwt>
</event>
<event>
12    7  0.1605494E-007  0.2140114E+04  0.7818608E-02  0.8543776E-01
          2   -1    0    0  501    0  0.00000000000E+00  0.00000000000E+00  0.14075233035E+04  0.14075233035E+04  0.00000000000E+00 0. -1.
         -1   -1    0    0    0  501 -0.00000000000E+00 -0.00000000000E+00 -0.81350146119E+03  0.81350146119E+03  0.00000000000E+00 0.  1.
         24    2    1    2    0    0  0.30576879208E+03 -0.45553525510E+03  0.96069940885E+03  0.11093002034E+04  0.81219851445E+02 0.  0.
        254    2    1    2    0    0 -0.30576879208E+03  0.45553525510E+03 -0.36667756653E+03  0.11117245613E+04  0.89469108609E+03 0.  0.
         23    2    4    4    0    0  0.25994214125E+03 -0.10576705063E+02 -0.23146246085E+03  0.36042467342E+03  0.93001564178E+02 0.  0.
         23    2    4    4    0    0 -0.56571093333E+03  0.46611196016E+03 -0.13521510568E+03  0.75129988787E+03  0.94229386119E+02 0.  0.
          2    1    3    3  502    0  0.94844515099E+02 -0.92258952393E+02  0.18960325457E+03  0.23120681324E+03  0.00000000000E+00 0. -1.
         -1    1    3    3    0  502  0.21092427698E+03 -0.36327630271E+03  0.77109615428E+03  0.87809339018E+03  0.00000000000E+00 0.  1.
         13    1    5    5    0    0  0.25988228732E+03 -0.50318300945E+01 -0.19865329849E+03  0.32715020339E+03  0.00000000000E+00 0.  1.
        -13    1    5    5    0    0  0.59853928494E-01 -0.55448749686E+01 -0.32809162362E+02  0.33274470031E+02  0.00000000000E+00 0. -1.
          3    1    6    6  503    0 -0.72531153917E+02  0.26226477440E+02 -0.26576717168E+02  0.81577682627E+02  0.00000000000E+00 0. -1.
         -3    1    6    6    0  503 -0.49317977942E+03  0.43988548272E+03 -0.10863838852E+03  0.66972220524E+03  0.00000000000E+00 0.  1.
<mgrwt>
<rscale>  0 0.21401143E+04</rscale>
<asrwt>0</asrwt>
<pdfrwt beam="1">  1        2 0.21654205E+00 0.21401143E+04</pdfrwt>
<pdfrwt beam="2">  1       -1 0.12515407E+00 0.21401143E+04</pdfrwt>
<totfact> 0.83671933E+00</totfact>
</mgrwt>
</event>
<event>
12    7  0.1605494E-007  0.2152013E+04  0.7818608E-02  0.8538671E-01
          2   -1    0    0  501    0  0.00000000000E+00  0.00000000000E+00  0.91824904218E+03  0.91824904218E+03  0.00000000000E+00 0. -1.
         -1   -1    0    0    0  501 -0.00000000000E+00 -0.00000000000E+00 -0.12608670077E+04  0.12608670077E+04  0.00000000000E+00 0.  1.
         24    2    1    2    0    0  0.14161475621E+03 -0.80100489942E+03 -0.49857833660E+03  0.95733714203E+03  0.79059836326E+02 0.  0.
        254    2    1    2    0    0 -0.14161475621E+03  0.80100489942E+03  0.15596037112E+03  0.12217789078E+04  0.89819623366E+03 0.  0.
         23    2    4    4    0    0  0.18565838402E+03  0.52183407141E+03 -0.25714944155E+03  0.61750724610E+03  0.91703489851E+02 0.  0.
         23    2    4    4    0    0 -0.32727314023E+03  0.27917082801E+03  0.41310981267E+03  0.60427166172E+03  0.97162051768E+02 0.  0.
          2    1    3    3  502    0  0.42206278316E+02 -0.28607526374E+03 -0.22112685667E+03  0.36402954990E+03  0.00000000000E+00 0. -1.
         -1    1    3    3    0  502  0.99408477898E+02 -0.51492963568E+03 -0.27745147993E+03  0.59330759214E+03  0.00000000000E+00 0.  1.
         13    1    5    5    0    0  0.16438683350E+03  0.33327343083E+03 -0.16630801296E+03  0.40712721096E+03  0.00000000000E+00 0. -1.
        -13    1    5    5    0    0  0.21271550518E+02  0.18856064058E+03 -0.90841428591E+02  0.21038003514E+03  0.00000000000E+00 0.  1.
          1    1    6    6  503    0 -0.32601360217E+03  0.27825640416E+03  0.41826907946E+03  0.59888272482E+03  0.00000000000E+00 0. -1.
         -1    1    6    6    0  503 -0.12595380654E+01  0.91442384562E+00 -0.51592667890E+01  0.53889368996E+01  0.00000000000E+00 0.  1.
<mgrwt>
<rscale>  0 0.21520129E+04</rscale>
<asrwt>0</asrwt>
<pdfrwt beam="1">  1        2 0.14126909E+00 0.21520129E+04</pdfrwt>
<pdfrwt beam="2">  1       -1 0.19397954E+00 0.21520129E+04</pdfrwt>
<totfact> 0.49439311E+00</totfact>
</mgrwt>
</event>
<event>
12    7  0.1605494E-007  0.1855660E+04  0.7818608E-02  0.8677247E-01
         -1   -1    0    0    0  501 -0.00000000000E+00  0.00000000000E+00  0.80534640901E+03  0.80534640901E+03  0.00000000000E+00 0.  1.
          2   -1    0    0  501    0  0.00000000000E+00 -0.00000000000E+00 -0.10689422191E+04  0.10689422191E+04  0.00000000000E+00 0. -1.
         24    2    1    2    0    0 -0.53879823939E+03  0.42894351438E+02 -0.55326041670E+03  0.77754962056E+03  0.79642046587E+02 0.  0.
        254    2    1    2    0    0  0.53879823939E+03 -0.42894351438E+02  0.28966460664E+03  0.10967390075E+04  0.90927850417E+03 0.  0.
         23    2    4    4    0    0  0.56352472201E+03 -0.39106191906E+03  0.24256273924E+03  0.73288809007E+03  0.88310436744E+02 0.  0.
         23    2    4    4    0    0 -0.24726482622E+02  0.34816756763E+03  0.47101867402E+02  0.36385091746E+03  0.91306353209E+02 0.  0.
          4    1    3    3  502    0 -0.37626094419E+03 -0.66763134962E+01 -0.37456236530E+03  0.53095558833E+03  0.00000000000E+00 0. -1.
         -3    1    3    3    0  502 -0.16253729520E+03  0.49570664934E+02 -0.17869805141E+03  0.24659403223E+03  0.00000000000E+00 0.  1.
         13    1    5    5    0    0  0.28349485350E+03 -0.24664561421E+03  0.11505902206E+03  0.39299105528E+03  0.00000000000E+00 0.  1.
        -13    1    5    5    0    0  0.28002986851E+03 -0.14441630485E+03  0.12750371718E+03  0.33989703479E+03  0.00000000000E+00 0. -1.
          1    1    6    6  503    0 -0.19368747873E+01  0.23963053449E+03 -0.85010198734E+01  0.23978909876E+03  0.00000000000E+00 0. -1.
         -1    1    6    6    0  503 -0.22789607834E+02  0.10853703314E+03  0.55602887275E+02  0.12406181871E+03  0.00000000000E+00 0.  1.
<mgrwt>
<rscale>  0 0.18556603E+04</rscale>
<asrwt>0</asrwt>
<pdfrwt beam="1">  1        2 0.16445265E+00 0.18556603E+04</pdfrwt>
<pdfrwt beam="2">  1       -1 0.12389945E+00 0.18556603E+04</pdfrwt>
<totfact> 0.13970284E+01</totfact>
</mgrwt>
</event>
<event>
12    7  0.1605494E-007  0.2071080E+04  0.7818608E-02  0.8574091E-01
          2   -1    0    0  501    0  0.00000000000E+00  0.00000000000E+00  0.22459119131E+04  0.22459119131E+04  0.00000000000E+00 0. -1.
         -1   -1    0    0    0  501 -0.00000000000E+00 -0.00000000000E+00 -0.47746441177E+03  0.47746441177E+03  0.00000000000E+00 0.  1.
         24    2    1    2    0    0 -0.48499388049E+03  0.33120074545E+03  0.15127260910E+04  0.16247767714E+04  0.81525042055E+02 0.  0.
        254    2    1    2    0    0  0.48499388049E+03 -0.33120074545E+03  0.25572141034E+03  0.10985995535E+04  0.89253265563E+03 0.  0.
         23    2    4    4    0    0  0.72989682952E+03 -0.20094913686E+03  0.26286601726E+03  0.80648466410E+03  0.90493276329E+02 0.  0.
         23    2    4    4    0    0 -0.24490294902E+03 -0.13025160860E+03 -0.71446069213E+01  0.29211488941E+03  0.91307870536E+02 0.  0.
          2    1    3    3  502    0 -0.37951743266E+03  0.26882270075E+03  0.12779071659E+04  0.13599065596E+04  0.00000000000E+00 0. -1.
         -1    1    3    3    0  502 -0.10547644783E+03  0.62378044708E+02  0.23481892514E+03  0.26487021183E+03  0.00000000000E+00 0.  1.
         13    1    5    5    0    0  0.36682515016E+03 -0.11671646282E+03  0.17861523463E+03  0.42436638123E+03  0.00000000000E+00 0.  1.
        -13    1    5    5    0    0  0.36307167936E+03 -0.84232674041E+02  0.84250782636E+02  0.38211828287E+03  0.00000000000E+00 0. -1.
          3    1    6    6  503    0 -0.12874982203E+03 -0.88674910337E+02  0.37758093797E+02  0.16082732990E+03  0.00000000000E+00 0. -1.
         -3    1    6    6    0  503 -0.11615312700E+03 -0.41576698258E+02 -0.44902700718E+02  0.13128755951E+03  0.00000000000E+00 0.  1.
<mgrwt>
<rscale>  0 0.20710799E+04</rscale>
<asrwt>0</asrwt>
<pdfrwt beam="1">  1        2 0.34552490E+00 0.20710799E+04</pdfrwt>
<pdfrwt beam="2">  1       -1 0.73456065E-01 0.20710799E+04</pdfrwt>
<totfact> 0.95521453E+00</totfact>
</mgrwt>
</event>
<event>
12    7  0.1605494E-007  0.1748790E+04  0.7818608E-02  0.8734017E-01
         -1   -1    0    0    0  501 -0.00000000000E+00  0.00000000000E+00  0.26532078767E+03  0.26532078767E+03  0.00000000000E+00 0.  1.
          2   -1    0    0  501    0  0.00000000000E+00 -0.00000000000E+00 -0.28816684257E+04  0.28816684257E+04  0.00000000000E+00 0. -1.
         24    2    1    2    0    0  0.13093099602E+03  0.54134403843E+03 -0.40333487295E+03  0.69438505134E+03  0.96412064235E+02 0.  0.
        254    2    1    2    0    0 -0.13093099602E+03 -0.54134403843E+03 -0.22130127651E+04  0.24526041620E+04  0.89869092768E+03 0.  0.
         23    2    4    4    0    0 -0.96572480603E+01 -0.20777355986E+03 -0.18619268777E+02  0.22779706634E+03  0.91003910044E+02 0.  0.
         23    2    4    4    0    0 -0.12127374796E+03 -0.33357047856E+03 -0.21943934963E+04  0.22248070957E+04  0.91799838145E+02 0.  0.
          2    1    3    3  502    0  0.98608650004E+02  0.25450144441E+03 -0.23542267218E+03  0.36044206974E+03  0.00000000000E+00 0. -1.
         -1    1    3    3    0  502  0.32322346019E+02  0.28684259401E+03 -0.16791220077E+03  0.33394298160E+03  0.00000000000E+00 0.  1.
         13    1    5    5    0    0 -0.14802031228E+02 -0.15127627876E+02 -0.27709979466E+02  0.34868154750E+02  0.00000000000E+00 0. -1.
        -13    1    5    5    0    0  0.51447831678E+01 -0.19264593199E+03  0.90907106894E+01  0.19292891159E+03  0.00000000000E+00 0.  1.
          2    1    6    6  503    0 -0.40710745197E+02 -0.19078694522E+03 -0.96415699606E+03  0.98369494067E+03  0.00000000000E+00 0. -1.
         -2    1    6    6    0  503 -0.80563002766E+02 -0.14278353335E+03 -0.12302365002E+04  0.12411121550E+04  0.00000000000E+00 0.  1.
<mgrwt>
<rscale>  0 0.17487899E+04</rscale>
<asrwt>0</asrwt>
<pdfrwt beam="1">  1        2 0.44333360E+00 0.17487899E+04</pdfrwt>
<pdfrwt beam="2">  1       -1 0.40818583E-01 0.17487899E+04</pdfrwt>
<totfact> 0.13105058E+01</totfact>
</mgrwt>
</event>
<event>
12    7  0.1605494E-007  0.2683335E+04  0.7818608E-02  0.8340432E-01
          2   -1    0    0  501    0  0.00000000000E+00  0.00000000000E+00  0.25498982950E+04  0.25498982950E+04  0.00000000000E+00 0. -1.
         -1   -1    0    0    0  501 -0.00000000000E+00 -0.00000000000E+00 -0.70593866363E+03  0.70593866363E+03  0.00000000000E+00 0.  1.
         24    2    1    2    0    0 -0.95151258102E+03 -0.58213903117E+02 -0.53632448051E+02  0.95810253513E+03  0.79491999570E+02 0.  0.
        254    2    1    2    0    0  0.95151258102E+03  0.58213903117E+02  0.18975920794E+04  0.22977344235E+04  0.87747520230E+03 0.  0.
         23    2    4    4    0    0  0.76848000998E+03  0.24952982682E+03  0.71744083784E+03  0.10846719101E+04  0.94684405077E+02 0.  0.
         23    2    4    4    0    0  0.18303257103E+03 -0.19131592370E+03  0.11801512416E+04  0.12130625134E+04  0.93064513382E+02 0.  0.
          4    1    3    3  502    0 -0.44219058885E+03  0.92390792564E+01 -0.40921082736E+02  0.44417610524E+03  0.00000000000E+00 0. -1.
         -3    1    3    3    0  502 -0.50932199216E+03 -0.67452982373E+02 -0.12711365316E+02  0.51392642989E+03  0.00000000000E+00 0.  1.
         13    1    5    5    0    0  0.51216199133E+03  0.21157713469E+03  0.47624734916E+03  0.73067525404E+03  0.00000000000E+00 0. -1.
        -13    1    5    5    0    0  0.25631801865E+03  0.37952692130E+02  0.24119348867E+03  0.35399665607E+03  0.00000000000E+00 0.  1.
          4    1    6    6  503    0  0.19215733116E+03 -0.18337519073E+03  0.10799772119E+04  0.11121608151E+04  0.00000000000E+00 0. -1.
         -4    1    6    6    0  503 -0.91247601251E+01 -0.79407329737E+01  0.10017402968E+03  0.10090169825E+03  0.00000000000E+00 0.  1.
<mgrwt>
<rscale>  0 0.26833351E+04</rscale>
<asrwt>0</asrwt>
<pdfrwt beam="1">  1        2 0.39229204E+00 0.26833351E+04</pdfrwt>
<pdfrwt beam="2">  1       -1 0.10860595E+00 0.26833351E+04</pdfrwt>
<totfact> 0.25572605E+00</totfact>
</mgrwt>
</event>
<event>
12    7  0.1605494E-007  0.1895517E+04  0.7818608E-02  0.8657091E-01
         -1   -1    0    0    0  501 -0.00000000000E+00  0.00000000000E+00  0.10187927109E+04  0.10187927109E+04  0.00000000000E+00 0.  1.
          2   -1    0    0  501    0  0.00000000000E+00 -0.00000000000E+00 -0.88167729582E+03  0.88167729582E+03  0.00000000000E+00 0. -1.
         24    2    1    2    0    0 -0.40223160649E+03 -0.49193922122E+02  0.66769213756E+03  0.78503569405E+03  0.79107162391E+02 0.  0.
        254    2    1    2    0    0  0.40223160649E+03  0.49193922122E+02 -0.53057672249E+03  0.11154343127E+04  0.89357245940E+03 0.  0.
         23    2    4    4    0    0  0.42868790135E+03 -0.31726008039E+03 -0.49742641965E+03  0.73525008024E+03  0.93447108878E+02 0.  0.
         23    2    4    4    0    0 -0.26456294867E+02  0.36645400251E+03 -0.33150302842E+02  0.38018423243E+03  0.91938221160E+02 0.  0.
          2    1    3    3  502    0 -0.15609801529E+02 -0.12830784063E+02  0.65034878091E+02  0.68101617395E+02  0.00000000000E+00 0. -1.
         -1    1    3    3    0  502 -0.38662180496E+03 -0.36363138059E+02  0.60265725947E+03  0.71693407666E+03  0.00000000000E+00 0.  1.
         13    1    5    5    0    0  0.32053665686E+03 -0.23176491010E+03 -0.30984619835E+03  0.50245735001E+03  0.00000000000E+00 0. -1.
        -13    1    5    5    0    0  0.10815124449E+03 -0.85495170288E+02 -0.18758022129E+03  0.23279273023E+03  0.00000000000E+00 0.  1.
          4    1    6    6  503    0  0.17463671589E+02  0.14233161456E+03 -0.48254121107E+02  0.15130012734E+03  0.00000000000E+00 0. -1.
         -4    1    6    6    0  503 -0.43919966456E+02  0.22412238795E+03  0.15103818266E+02  0.22888410509E+03  0.00000000000E+00 0.  1.
<mgrwt>
<rscale>  0 0.18955172E+04</rscale>
<asrwt>0</asrwt>
<pdfrwt beam="1">  1        2 0.13564266E+00 0.18955172E+04</pdfrwt>
<pdfrwt beam="2">  1       -1 0.15673734E+00 0.18955172E+04</pdfrwt>
<totfact> 0.99846143E+00</totfact>
</mgrwt>
</event>
<event>
12    7  0.1605494E-007  0.2559642E+04  0.7818608E-02  0.8382041E-01
         -1   -1    0    0    0  501 -0.00000000000E+00  0.00000000000E+00  0.68721888784E+03  0.68721888784E+03  0.00000000000E+00 0.  1.
          2   -1    0    0  501    0  0.00000000000E+00 -0.00000000000E+00 -0.23834347346E+04  0.23834347346E+04  0.00000000000E+00 0. -1.
         24    2    1    2    0    0 -0.23073332789E+03 -0.11815108646E+03  0.55522006745E+03  0.61779089724E+03  0.78731960394E+02 0.  0.
        254    2    1    2    0    0  0.23073332789E+03  0.11815108646E+03 -0.22514359142E+04  0.24528627252E+04  0.93828264668E+03 0.  0.
         23    2    4    4    0    0  0.16643950375E+03 -0.17650926128E+03 -0.99871692167E+02  0.27855832626E+03  0.93609606924E+02 0.  0.
         23    2    4    4    0    0  0.64293824143E+02  0.29466034774E+03 -0.21515642221E+04  0.21743043990E+04  0.86096465094E+02 0.  0.
          2    1    3    3  502    0 -0.63084361331E+02 -0.11426264060E+02  0.78829920899E+02  0.10160882139E+03  0.00000000000E+00 0. -1.
         -1    1    3    3    0  502 -0.16764896656E+03 -0.10672482240E+03  0.47639014655E+03  0.51618207585E+03  0.00000000000E+00 0.  1.
         13    1    5    5    0    0  0.84118039747E+02 -0.82027248127E+02  0.13035745282E+01  0.11749899299E+03  0.00000000000E+00 0. -1.
        -13    1    5    5    0    0  0.82321464003E+02 -0.94482013153E+02 -0.10117526670E+03  0.16105933328E+03  0.00000000000E+00 0.  1.
          3    1    6    6  503    0  0.73852990117E+02  0.15455707093E+03 -0.13004393337E+04  0.13116724488E+04  0.00000000000E+00 0. -1.
         -3    1    6    6    0  503 -0.95591659741E+01  0.14010327680E+03 -0.85112488835E+03  0.86263195013E+03  0.00000000000E+00 0.  1.
<mgrwt>
<rscale>  0 0.25596417E+04</rscale>
<asrwt>0</asrwt>
<pdfrwt beam="1">  1        2 0.36668227E+00 0.25596417E+04</pdfrwt>
<pdfrwt beam="2">  1       -1 0.10572598E+00 0.25596417E+04</pdfrwt>
<totfact> 0.34354596E+00</totfact>
</mgrwt>
</event>
<event>
12    7  0.1605494E-007  0.2540220E+04  0.7818608E-02  0.8388795E-01
          2   -1    0    0  501    0  0.00000000000E+00  0.00000000000E+00  0.24619675083E+04  0.24619675083E+04  0.00000000000E+00 0. -1.
         -1   -1    0    0    0  501 -0.00000000000E+00 -0.00000000000E+00 -0.65524007155E+03  0.65524007155E+03  0.00000000000E+00 0.  1.
         24    2    1    2    0    0 -0.38420708905E+03 -0.10376064403E+04  0.85508984418E+03  0.14005817682E+04  0.78793625782E+02 0.  0.
        254    2    1    2    0    0  0.38420708905E+03  0.10376064403E+04  0.95163759253E+03  0.17166258117E+04  0.90385167894E+03 0.  0.
         23    2    4    4    0    0  0.13605444387E+02 -0.12352555134E+02 -0.13100018687E+03  0.16093782936E+03  0.91663745422E+02 0.  0.
         23    2    4    4    0    0  0.37060164466E+03  0.10499589954E+04  0.10826377794E+04  0.15556879823E+04  0.91110184720E+02 0.  0.
          4    1    3    3  502    0 -0.36297613823E+03 -0.91514380793E+03  0.77179607686E+03  0.12509632490E+04  0.00000000000E+00 0. -1.
         -3    1    3    3    0  502 -0.21230950821E+02 -0.12246263236E+03  0.83293767328E+02  0.14961851915E+03  0.00000000000E+00 0.  1.
         13    1    5    5    0    0 -0.39129124699E+02 -0.47279941173E+01 -0.45535274756E+02  0.60223779151E+02  0.00000000000E+00 0.  1.
        -13    1    5    5    0    0  0.52734569087E+02 -0.76245610164E+01 -0.85464912116E+02  0.10071405021E+03  0.00000000000E+00 0. -1.
          2    1    6    6  503    0  0.15241735155E+03  0.55979099588E+03  0.54009818668E+03  0.79265570040E+03  0.00000000000E+00 0. -1.
         -2    1    6    6    0  503  0.21818429311E+03  0.49016799954E+03  0.54253959272E+03  0.76303228189E+03  0.00000000000E+00 0.  1.
<mgrwt>
<rscale>  0 0.25402203E+04</rscale>
<asrwt>0</asrwt>
<pdfrwt beam="1">  1        2 0.37876423E+00 0.25402203E+04</pdfrwt>
<pdfrwt beam="2">  1       -1 0.10080617E+00 0.25402203E+04</pdfrwt>
<totfact> 0.34636375E+00</totfact>
</mgrwt>
</event>
<event>
12    7  0.1605494E-007  0.3621831E+04  0.7818608E-02  0.8085509E-01
          2   -1    0    0  501    0  0.00000000000E+00  0.00000000000E+00  0.42553927465E+04  0.42553927465E+04  0.00000000000E+00 0. -1.
         -1   -1    0    0    0  501 -0.00000000000E+00 -0.00000000000E+00 -0.77064931320E+03  0.77064931320E+03  0.00000000000E+00 0.  1.
         24    2    1    2    0    0 -0.57398248608E+03 -0.25114073240E+03 -0.57397097550E+03  0.85332851199E+03  0.78735677235E+02 0.  0.
        254    2    1    2    0    0  0.57398248608E+03  0.25114073240E+03  0.40587144088E+04  0.41727135477E+04  0.73881536073E+03 0.  0.
         23    2    4    4    0    0  0.71043376709E+02 -0.74988581493E+02  0.11313700500E+03  0.18082348530E+03  0.96055724499E+02 0.  0.
         23    2    4    4    0    0  0.50293910937E+03  0.32612931389E+03  0.39455774038E+04  0.39918900624E+04  0.91088659195E+02 0.  0.
          4    1    3    3  502    0 -0.90940174502E+02 -0.22459014310E+02 -0.56354057322E+02  0.10931743886E+03  0.00000000000E+00 0. -1.
         -3    1    3    3    0  502 -0.48304231158E+03 -0.22868171809E+03 -0.51761691818E+03  0.74401107313E+03  0.00000000000E+00 0.  1.
         13    1    5    5    0    0  0.25831989750E+02 -0.63680828780E+02  0.12402700617E+02  0.69830986182E+02  0.00000000000E+00 0.  1.
        -13    1    5    5    0    0  0.45211386959E+02 -0.11307752713E+02  0.10073430438E+03  0.11099249912E+03  0.00000000000E+00 0. -1.
          3    1    6    6  503    0  0.37551353670E+02  0.46414464498E+02  0.27813955698E+03  0.28447498982E+03  0.00000000000E+00 0. -1.
         -3    1    6    6    0  503  0.46538775570E+03  0.27971484939E+03  0.36674378468E+04  0.37074150725E+04  0.00000000000E+00 0.  1.
<mgrwt>
<rscale>  0 0.36218313E+04</rscale>
<asrwt>0</asrwt>
<pdfrwt beam="1">  1        2 0.65467580E+00 0.36218313E+04</pdfrwt>
<pdfrwt beam="2">  1       -1 0.11856143E+00 0.36218313E+04</pdfrwt>
<totfact> 0.12188975E-01</totfact>
</mgrwt>
</event>
<event>
12    7  0.1605494E-007  0.1175362E+04  0.7818608E-02  0.9134700E-01
          2   -1    0    0  501    0  0.00000000000E+00  0.00000000000E+00  0.12856055482E+04  0.12856055482E+04  0.00000000000E+00 0. -1.
         -1   -1    0    0    0  501 -0.00000000000E+00 -0.00000000000E+00 -0.26864296844E+03  0.26864296844E+03  0.00000000000E+00 0.  1.
         24    2    1    2    0    0  0.23287775004E+03 -0.33576123456E+02  0.30670990450E+03  0.39160399468E+03  0.62636415922E+02 0.  0.
        254    2    1    2    0    0 -0.23287775004E+03  0.33576123456E+02  0.71025267523E+03  0.11626445219E+04  0.88990112889E+03 0.  0.
         23    2    4    4    0    0 -0.10383062942E+03  0.23090302122E+03  0.83735581705E+03  0.87962760977E+03  0.92103000531E+02 0.  0.
         23    2    4    4    0    0 -0.12904712062E+03 -0.19732689777E+03 -0.12710314182E+03  0.28301691217E+03  0.91390918545E+02 0.  0.
          4    1    3    3  502    0  0.19884243568E+03 -0.16903634593E+02  0.28501798908E+03  0.34793577164E+03  0.00000000000E+00 0. -1.
         -3    1    3    3    0  502  0.34035314359E+02 -0.16672488862E+02  0.21691915418E+02  0.43668223033E+02  0.00000000000E+00 0.  1.
         13    1    5    5    0    0 -0.74527503513E+02  0.17673283339E+03  0.73978355476E+03  0.76424377725E+03  0.00000000000E+00 0.  1.
        -13    1    5    5    0    0 -0.29303125906E+02  0.54170187834E+02  0.97572262292E+02  0.11538383252E+03  0.00000000000E+00 0. -1.
          1    1    6    6  503    0 -0.70234033111E+02 -0.10441607619E+03 -0.11828235791E+03  0.17270278680E+03  0.00000000000E+00 0. -1.
         -1    1    6    6    0  503 -0.58813087511E+02 -0.92910821578E+02 -0.88207839053E+01  0.11031412538E+03  0.00000000000E+00 0.  1.
<mgrwt>
<rscale>  0 0.11753619E+04</rscale>
<asrwt>0</asrwt>
<pdfrwt beam="1">  1        2 0.19778547E+00 0.11753619E+04</pdfrwt>
<pdfrwt beam="2">  1       -1 0.41329688E-01 0.11753619E+04</pdfrwt>
<totfact> 0.10882913E+02</totfact>
</mgrwt>
</event>
<event>
12    7  0.1605494E-007  0.2146702E+04  0.7818608E-02  0.8540945E-01
         -1   -1    0    0    0  501 -0.00000000000E+00  0.00000000000E+00  0.10176649039E+04  0.10176649039E+04  0.00000000000E+00 0.  1.
          2   -1    0    0  501    0  0.00000000000E+00 -0.00000000000E+00 -0.11320846452E+04  0.11320846452E+04  0.00000000000E+00 0. -1.
         24    2    1    2    0    0 -0.64748426960E+02 -0.43832844981E+03  0.75135143199E+03  0.87477530992E+03  0.66171593439E+02 0.  0.
        254    2    1    2    0    0  0.64748426960E+02  0.43832844981E+03 -0.86577117322E+03  0.12749742392E+04  0.82442428244E+03 0.  0.
         23    2    4    4    0    0 -0.16224335813E+03 -0.13274897335E+03 -0.51078548393E+03  0.55947100075E+03  0.90337106986E+02 0.  0.
         23    2    4    4    0    0  0.22699178509E+03  0.57107742316E+03 -0.35498568929E+03  0.71550323843E+03  0.90968955493E+02 0.  0.
          4    1    3    3  502    0  0.12557799595E+02 -0.10169224894E+03  0.16298496495E+03  0.19251781898E+03  0.00000000000E+00 0. -1.
         -3    1    3    3    0  502 -0.77306226555E+02 -0.33663620086E+03  0.58836646705E+03  0.68225749094E+03  0.00000000000E+00 0.  1.
         13    1    5    5    0    0 -0.14776317687E+03 -0.13680469147E+03 -0.50444382334E+03  0.54315103880E+03  0.00000000000E+00 0. -1.
        -13    1    5    5    0    0 -0.14480181260E+02  0.40557181221E+01 -0.63416605937E+01  0.16319961945E+02  0.00000000000E+00 0.  1.
          3    1    6    6  503    0  0.12291736506E+03  0.31361713352E+03 -0.14209377550E+03  0.36558860227E+03  0.00000000000E+00 0. -1.
         -3    1    6    6    0  503  0.10407442004E+03  0.25746028963E+03 -0.21289191379E+03  0.34991463616E+03  0.00000000000E+00 0.  1.
<mgrwt>
<rscale>  0 0.21467024E+04</rscale>
<asrwt>0</asrwt>
<pdfrwt beam="1">  1        2 0.17416687E+00 0.21467024E+04</pdfrwt>
<pdfrwt beam="2">  1       -1 0.15656383E+00 0.21467024E+04</pdfrwt>
<totfact> 0.67651459E+00</totfact>
</mgrwt>
</event>
<event>
12    7  0.1605494E-007  0.1100965E+04  0.7818608E-02  0.9204252E-01
         -1   -1    0    0    0  501 -0.00000000000E+00  0.00000000000E+00  0.11412169765E+03  0.11412169765E+03  0.00000000000E+00 0.  1.
          2   -1    0    0  501    0  0.00000000000E+00 -0.00000000000E+00 -0.26553324064E+04  0.26553324064E+04  0.00000000000E+00 0. -1.
         24    2    1    2    0    0  0.14440176612E+03 -0.78556730182E+02 -0.46391049877E+03  0.49863763614E+03  0.80021943178E+02 0.  0.
        254    2    1    2    0    0 -0.14440176612E+03  0.78556730182E+02 -0.20773002100E+04  0.22708164679E+04  0.90244569845E+03 0.  0.
         23    2    4    4    0    0 -0.56650481399E+02 -0.36646369223E+03 -0.13980549461E+04  0.14492655132E+04  0.91148125170E+02 0.  0.
         23    2    4    4    0    0 -0.87751284724E+02  0.44502042242E+03 -0.67924526393E+03  0.82155095475E+03  0.88478123462E+02 0.  0.
          4    1    3    3  502    0  0.14682511438E+03 -0.69281109831E+02 -0.36764479533E+03  0.40189573514E+03  0.00000000000E+00 0. -1.
         -3    1    3    3    0  502 -0.24233482604E+01 -0.92756203516E+01 -0.96265703438E+02  0.96741900995E+02  0.00000000000E+00 0.  1.
         13    1    5    5    0    0  0.18708785990E+02 -0.79806384879E+02 -0.22923132468E+03  0.24344625271E+03  0.00000000000E+00 0.  1.
        -13    1    5    5    0    0 -0.75359267389E+02 -0.28665730736E+03 -0.11688236214E+04  0.12058192605E+04  0.00000000000E+00 0. -1.
          3    1    6    6  503    0 -0.46867944191E+02  0.33512272220E+03 -0.43956796450E+03  0.55472861702E+03  0.00000000000E+00 0. -1.
         -3    1    6    6    0  503 -0.40883340533E+02  0.10989770022E+03 -0.23967729944E+03  0.26682233773E+03  0.00000000000E+00 0.  1.
<mgrwt>
<rscale>  0 0.11009651E+04</rscale>
<asrwt>0</asrwt>
<pdfrwt beam="1">  1        2 0.40851267E+00 0.11009651E+04</pdfrwt>
<pdfrwt beam="2">  1       -1 0.17557184E-01 0.11009651E+04</pdfrwt>
<totfact> 0.82054308E+01</totfact>
</mgrwt>
</event>
<event>
12    7  0.1605494E-007  0.1696135E+04  0.7818608E-02  0.8763572E-01
         -1   -1    0    0    0  501 -0.00000000000E+00  0.00000000000E+00  0.28110377841E+03  0.28110377841E+03  0.00000000000E+00 0.  1.
          2   -1    0    0  501    0  0.00000000000E+00 -0.00000000000E+00 -0.25585528162E+04  0.25585528162E+04  0.00000000000E+00 0. -1.
         24    2    1    2    0    0 -0.52540802671E+03 -0.24499982899E+03 -0.11058720843E+04  0.12519783920E+04  0.91751383766E+02 0.  0.
        254    2    1    2    0    0  0.52540802671E+03  0.24499982899E+03 -0.11715769535E+04  0.15876782027E+04  0.90113872762E+03 0.  0.
         23    2    4    4    0    0 -0.72477582585E+02 -0.17155039446E+03 -0.66213128425E+03  0.69388475582E+03  0.91518735577E+02 0.  0.
         23    2    4    4    0    0  0.59788560930E+03  0.41655022345E+03 -0.50944566927E+03  0.89379344683E+03  0.91381317524E+02 0.  0.
          4    1    3    3  502    0 -0.51182255717E+03 -0.21729051880E+03 -0.10509455558E+04  0.11889760556E+04  0.00000000000E+00 0. -1.
         -3    1    3    3    0  502 -0.13585469541E+02 -0.27709310191E+02 -0.54926528496E+02  0.63002336358E+02  0.00000000000E+00 0.  1.
         13    1    5    5    0    0 -0.27608202403E+02 -0.11956555561E+03 -0.54004096291E+03  0.55380716549E+03  0.00000000000E+00 0. -1.
        -13    1    5    5    0    0 -0.44869380182E+02 -0.51984838845E+02 -0.12209032135E+03  0.14007759034E+03  0.00000000000E+00 0.  1.
          3    1    6    6  503    0  0.15693964064E+03  0.85740420589E+02 -0.84615551620E+02  0.19784150754E+03  0.00000000000E+00 0. -1.
         -3    1    6    6    0  503  0.44094596865E+03  0.33080980286E+03 -0.42483011765E+03  0.69595193929E+03  0.00000000000E+00 0.  1.
<mgrwt>
<rscale>  0 0.16961354E+04</rscale>
<asrwt>0</asrwt>
<pdfrwt beam="1">  1        2 0.39362351E+00 0.16961354E+04</pdfrwt>
<pdfrwt beam="2">  1       -1 0.43246735E-01 0.16961354E+04</pdfrwt>
<totfact> 0.18432138E+01</totfact>
</mgrwt>
</event>
<event>
12    7  0.1605494E-007  0.2694969E+04  0.7818608E-02  0.8336639E-01
         -1   -1    0    0    0  501 -0.00000000000E+00  0.00000000000E+00  0.13830854768E+04  0.13830854768E+04  0.00000000000E+00 0.  1.
          2   -1    0    0  501    0  0.00000000000E+00 -0.00000000000E+00 -0.13127994976E+04  0.13127994976E+04  0.00000000000E+00 0. -1.
         24    2    1    2    0    0  0.45494106224E+03  0.11734302570E+03 -0.10593435302E+04  0.11616233958E+04  0.80121426217E+02 0.  0.
        254    2    1    2    0    0 -0.45494106224E+03 -0.11734302570E+03  0.11296295093E+04  0.15342615786E+04  0.92582666167E+03 0.  0.
         23    2    4    4    0    0 -0.26600813808E+03 -0.54249445668E+02 -0.86219380205E+02  0.29875454455E+03  0.90095307787E+02 0.  0.
         23    2    4    4    0    0 -0.18893292416E+03 -0.63093580033E+02  0.12158488895E+04  0.12355070341E+04  0.92264074082E+02 0.  0.
          2    1    3    3  502    0  0.42189289850E+03  0.12914680646E+03 -0.99156289887E+03  0.10852969630E+04  0.00000000000E+00 0. -1.
         -1    1    3    3    0  502  0.33048163744E+02 -0.11803780763E+02 -0.67780631308E+02  0.76326432824E+02  0.00000000000E+00 0.  1.
         13    1    5    5    0    0 -0.92006682606E+02 -0.44242436887E+02 -0.69847292529E+02  0.12369829077E+03  0.00000000000E+00 0. -1.
        -13    1    5    5    0    0 -0.17400145548E+03 -0.10007008781E+02 -0.16372087676E+02  0.17505625378E+03  0.00000000000E+00 0.  1.
          4    1    6    6  503    0 -0.50235913824E+02  0.98669984589E+01  0.15733599311E+03  0.16545579296E+03  0.00000000000E+00 0. -1.
         -4    1    6    6    0  503 -0.13869701034E+03 -0.72960578492E+02  0.10585128964E+04  0.10700512411E+04  0.00000000000E+00 0.  1.
<mgrwt>
<rscale>  0 0.26949686E+04</rscale>
<asrwt>0</asrwt>
<pdfrwt beam="1">  1        2 0.20196915E+00 0.26949686E+04</pdfrwt>
<pdfrwt beam="2">  1       -1 0.21278238E+00 0.26949686E+04</pdfrwt>
<totfact> 0.19999797E+00</totfact>
</mgrwt>
</event>
<event>
12    7  0.1605494E-007  0.2445664E+04  0.7818608E-02  0.8422603E-01
          2   -1    0    0  501    0  0.00000000000E+00  0.00000000000E+00  0.19302551608E+04  0.19302551608E+04  0.00000000000E+00 0. -1.
         -1   -1    0    0    0  501 -0.00000000000E+00 -0.00000000000E+00 -0.77467388350E+03  0.77467388350E+03  0.00000000000E+00 0.  1.
         24    2    1    2    0    0 -0.64720774450E+03 -0.23727999945E+03  0.13813383819E+04  0.15458323542E+04  0.79512762644E+02 0.  0.
        254    2    1    2    0    0  0.64720774450E+03  0.23727999945E+03 -0.22575710451E+03  0.11590966901E+04  0.90407920239E+03 0.  0.
         23    2    4    4    0    0  0.60727405717E+03  0.68574345191E+02  0.23331264963E+03  0.66019341525E+03  0.89086091678E+02 0.  0.
         23    2    4    4    0    0  0.39933687331E+02  0.16870565426E+03 -0.45906975414E+03  0.49890327490E+03  0.90017450368E+02 0.  0.
          2    1    3    3  502    0 -0.61136681496E+03 -0.23933051486E+03  0.12846995897E+04  0.14427409724E+04  0.00000000000E+00 0. -1.
         -1    1    3    3    0  502 -0.35840929543E+02  0.20505154111E+01  0.96638792198E+02  0.10309138180E+03  0.00000000000E+00 0.  1.
         13    1    5    5    0    0  0.10423546371E+03  0.17475179863E+02  0.61146716183E+01  0.10586691181E+03  0.00000000000E+00 0.  1.
        -13    1    5    5    0    0  0.50303859346E+03  0.51099165328E+02  0.22719797801E+03  0.55432650344E+03  0.00000000000E+00 0. -1.
          4    1    6    6  503    0 -0.17964081972E+02  0.58215016706E+02 -0.23155862483E+03  0.23943912200E+03  0.00000000000E+00 0. -1.
         -4    1    6    6    0  503  0.57897769303E+02  0.11049063755E+03 -0.22751112932E+03  0.25946415290E+03  0.00000000000E+00 0.  1.
<mgrwt>
<rscale>  0 0.24456641E+04</rscale>
<asrwt>0</asrwt>
<pdfrwt beam="1">  1        2 0.29696233E+00 0.24456641E+04</pdfrwt>
<pdfrwt beam="2">  1       -1 0.11918060E+00 0.24456641E+04</pdfrwt>
<totfact> 0.46889435E+00</totfact>
</mgrwt>
</event>
<event>
12    7  0.1605494E-007  0.2235084E+04  0.7818608E-02  0.8503966E-01
          2   -1    0    0  501    0  0.00000000000E+00  0.00000000000E+00  0.25988443030E+04  0.25988443030E+04  0.00000000000E+00 0. -1.
         -1   -1    0    0    0  501 -0.00000000000E+00 -0.00000000000E+00 -0.48055989518E+03  0.48055989518E+03  0.00000000000E+00 0.  1.
         24    2    1    2    0    0  0.10915884869E+03 -0.57842001552E+02 -0.38806539239E+03  0.41500340860E+03  0.79823110589E+02 0.  0.
        254    2    1    2    0    0 -0.10915884869E+03  0.57842001552E+02  0.25063498003E+04  0.26644007896E+04  0.89553386037E+03 0.  0.
         23    2    4    4    0    0  0.25012455959E+03 -0.41747201901E+02  0.20484875042E+04  0.20662236064E+04  0.93133305465E+02 0.  0.
         23    2    4    4    0    0 -0.35928340829E+03  0.99589203454E+02  0.45786229608E+03  0.59817718324E+03  0.95788743933E+02 0.  0.
          2    1    3    3  502    0  0.54262784314E+02 -0.70556161188E+02 -0.20573018866E+03  0.22415961315E+03  0.00000000000E+00 0. -1.
         -1    1    3    3    0  502  0.54896064381E+02  0.12714159636E+02 -0.18233520373E+03  0.19084379545E+03  0.00000000000E+00 0.  1.
         13    1    5    5    0    0  0.10545210236E+03 -0.44630311143E+02  0.12035673519E+04  0.12090022255E+04  0.00000000000E+00 0. -1.
        -13    1    5    5    0    0  0.14467245724E+03  0.28831092420E+01  0.84492015227E+03  0.85722138092E+03  0.00000000000E+00 0.  1.
          2    1    6    6  503    0 -0.26455626456E+03  0.53704113498E+02  0.38480466679E+03  0.47005189129E+03  0.00000000000E+00 0.  1.
         -2    1    6    6    0  503 -0.94727143729E+02  0.45885089956E+02  0.73057629282E+02  0.12812529194E+03  0.00000000000E+00 0. -1.
<mgrwt>
<rscale>  0 0.22350842E+04</rscale>
<asrwt>0</asrwt>
<pdfrwt beam="1">  1        2 0.39982219E+00 0.22350842E+04</pdfrwt>
<pdfrwt beam="2">  1       -1 0.73932293E-01 0.22350842E+04</pdfrwt>
<totfact> 0.58245715E+00</totfact>
</mgrwt>
</event>
<event>
12    7  0.1605494E-007  0.2261205E+04  0.7818608E-02  0.8493376E-01
         -1   -1    0    0    0  501 -0.00000000000E+00  0.00000000000E+00  0.62867852541E+03  0.62867852541E+03  0.00000000000E+00 0.  1.
          2   -1    0    0  501    0  0.00000000000E+00 -0.00000000000E+00 -0.20332523136E+04  0.20332523136E+04  0.00000000000E+00 0. -1.
         24    2    1    2    0    0  0.74123991385E+03  0.57817470051E+03 -0.73721601523E+03  0.11973096248E+04  0.79625939412E+02 0.  0.
        254    2    1    2    0    0 -0.74123991385E+03 -0.57817470051E+03 -0.66735777298E+03  0.14646212143E+04  0.90334174594E+03 0.  0.
         23    2    4    4    0    0  0.71064284125E+02  0.15424798904E+03 -0.41878699232E+02  0.20129284735E+03  0.99611296257E+02 0.  0.
         23    2    4    4    0    0 -0.81230419798E+03 -0.73242268955E+03 -0.62547907375E+03  0.12633283669E+04  0.92159561489E+02 0.  0.
          4    1    3    3  502    0  0.59489359167E+03  0.47693204270E+03 -0.63374512233E+03  0.99146126442E+03  0.00000000000E+00 0. -1.
         -3    1    3    3    0  502  0.14634632218E+03  0.10124265781E+03 -0.10347089290E+03  0.20584836034E+03  0.00000000000E+00 0.  1.
         13    1    5    5    0    0  0.87762334010E+01  0.28616393844E+01 -0.36345636690E+02  0.37499554118E+02  0.00000000000E+00 0.  1.
        -13    1    5    5    0    0  0.62288050724E+02  0.15138634966E+03 -0.55330625421E+01  0.16379329323E+03  0.00000000000E+00 0. -1.
          4    1    6    6  503    0 -0.53417662748E+03 -0.48133253882E+03 -0.36014684031E+03  0.80419613830E+03  0.00000000000E+00 0. -1.
         -4    1    6    6    0  503 -0.27812757050E+03 -0.25109015073E+03 -0.26533223344E+03  0.45913222863E+03  0.00000000000E+00 0.  1.
<mgrwt>
<rscale>  0 0.22612050E+04</rscale>
<asrwt>0</asrwt>
<pdfrwt beam="1">  1        2 0.31280805E+00 0.22612050E+04</pdfrwt>
<pdfrwt beam="2">  1       -1 0.96719773E-01 0.22612050E+04</pdfrwt>
<totfact> 0.68139360E+00</totfact>
</mgrwt>
</event>
<event>
12    7  0.1605494E-007  0.1913968E+04  0.7818608E-02  0.8647935E-01
          2   -1    0    0  501    0  0.00000000000E+00  0.00000000000E+00  0.18035076693E+04  0.18035076693E+04  0.00000000000E+00 0. -1.
         -1   -1    0    0    0  501 -0.00000000000E+00 -0.00000000000E+00 -0.50779820107E+03  0.50779820107E+03  0.00000000000E+00 0.  1.
         24    2    1    2    0    0 -0.54877825361E+03 -0.22297051976E+02  0.11166240669E+04  0.12472565025E+04  0.84526600460E+02 0.  0.
        254    2    1    2    0    0  0.54877825361E+03  0.22297051976E+02  0.17908540137E+03  0.10640493679E+04  0.89357414136E+03 0.  0.
         23    2    4    4    0    0  0.17147355872E+03  0.16488171021E+03 -0.32446368677E+03  0.41253197176E+03  0.91196403373E+02 0.  0.
         23    2    4    4    0    0  0.37730469488E+03 -0.14258465824E+03  0.50354908813E+03  0.65151739611E+03  0.90686359114E+02 0.  0.
          2    1    3    3  502    0 -0.36866549552E+03 -0.11422190887E+02  0.83429829370E+03  0.91219425394E+03  0.00000000000E+00 0. -1.
         -1    1    3    3    0  502 -0.18011275809E+03 -0.10874861088E+02  0.28232577319E+03  0.33506224860E+03  0.00000000000E+00 0.  1.
         13    1    5    5    0    0  0.10943301777E+03  0.10706812934E+03 -0.13174312540E+03  0.20197876321E+03  0.00000000000E+00 0.  1.
        -13    1    5    5    0    0  0.62040540956E+02  0.57813580870E+02 -0.19272056137E+03  0.21055320854E+03  0.00000000000E+00 0. -1.
          2    1    6    6  503    0  0.19988030620E+03 -0.53640759094E+02  0.32057659105E+03  0.38157413247E+03  0.00000000000E+00 0. -1.
         -2    1    6    6    0  503  0.17742438869E+03 -0.88943899142E+02  0.18297249708E+03  0.26994326364E+03  0.00000000000E+00 0.  1.
<mgrwt>
<rscale>  0 0.19139676E+04</rscale>
<asrwt>0</asrwt>
<pdfrwt beam="1">  1        2 0.27746272E+00 0.19139676E+04</pdfrwt>
<pdfrwt beam="2">  1       -1 0.78122801E-01 0.19139676E+04</pdfrwt>
<totfact> 0.15014908E+01</totfact>
</mgrwt>
</event>
<event>
12    7  0.1605494E-007  0.1535756E+04  0.7818608E-02  0.8861018E-01
          2   -1    0    0  501    0  0.00000000000E+00  0.00000000000E+00  0.17217340352E+04  0.17217340352E+04  0.00000000000E+00 0. -1.
         -1   -1    0    0    0  501 -0.00000000000E+00 -0.00000000000E+00 -0.34246666954E+03  0.34246666954E+03  0.00000000000E+00 0.  1.
         24    2    1    2    0    0  0.56500211826E+02  0.22106378656E+03  0.10610497439E+04  0.10883481384E+04  0.81324287760E+02 0.  0.
        254    2    1    2    0    0 -0.56500211826E+02 -0.22106378656E+03  0.31821762180E+03  0.97585256633E+03  0.89384803223E+03 0.  0.
         23    2    4    4    0    0  0.69643040289E+01  0.16829407117E+03  0.49608284543E+03  0.53268278163E+03  0.96339817251E+02 0.  0.
         23    2    4    4    0    0 -0.63464515854E+02 -0.38935785774E+03 -0.17786522363E+03  0.44316978471E+03  0.95583126886E+02 0.  0.
          4    1    3    3  502    0  0.29720657202E+02  0.19589548084E+03  0.97242969511E+03  0.99241013135E+03  0.00000000000E+00 0. -1.
         -3    1    3    3    0  502  0.26779554623E+02  0.25168305729E+02  0.88620048761E+02  0.95938007074E+02  0.00000000000E+00 0.  1.
         13    1    5    5    0    0  0.49620344087E+02  0.80549092596E+02  0.28121002386E+03  0.29669750991E+03  0.00000000000E+00 0. -1.
        -13    1    5    5    0    0 -0.42656040058E+02  0.87744978576E+02  0.21487282157E+03  0.23598527172E+03  0.00000000000E+00 0.  1.
          3    1    6    6  503    0  0.14465359335E+02 -0.16798603111E+03 -0.49772711556E+02  0.17580067145E+03  0.00000000000E+00 0. -1.
         -3    1    6    6    0  503 -0.77929875189E+02 -0.22137182663E+03 -0.12809251207E+03  0.26736911325E+03  0.00000000000E+00 0.  1.
<mgrwt>
<rscale>  0 0.15357559E+04</rscale>
<asrwt>0</asrwt>
<pdfrwt beam="1">  1        2 0.26488215E+00 0.15357559E+04</pdfrwt>
<pdfrwt beam="2">  1       -1 0.52687181E-01 0.15357559E+04</pdfrwt>
<totfact> 0.38011661E+01</totfact>
</mgrwt>
</event>
<event>
12    7  0.1605494E-007  0.1419748E+04  0.7818608E-02  0.8939647E-01
          2   -1    0    0  501    0  0.00000000000E+00  0.00000000000E+00  0.13250516119E+04  0.13250516119E+04  0.00000000000E+00 0. -1.
         -1   -1    0    0    0  501 -0.00000000000E+00 -0.00000000000E+00 -0.38030294713E+03  0.38030294713E+03  0.00000000000E+00 0.  1.
         24    2    1    2    0    0 -0.24247383978E+03 -0.13650787228E+03 -0.27443652945E+02  0.29092523773E+03  0.80351587990E+02 0.  0.
        254    2    1    2    0    0  0.24247383978E+03  0.13650787228E+03  0.97219231775E+03  0.14144293213E+04  0.98895118191E+03 0.  0.
         23    2    4    4    0    0 -0.11839615417E+03  0.15367388084E+02  0.10100490817E+04  0.10211870966E+04  0.91488430813E+02 0.  0.
         23    2    4    4    0    0  0.36086999395E+03  0.12114048420E+03 -0.37856763913E+02  0.39324222473E+03  0.91127072216E+02 0.  0.
          2    1    3    3  502    0 -0.13607533846E+02  0.10534799652E+02  0.19084493059E+01  0.17314420574E+02  0.00000000000E+00 0. -1.
         -1    1    3    3    0  502 -0.22886630593E+03 -0.14704267194E+03 -0.29352102250E+02  0.27361081716E+03  0.00000000000E+00 0.  1.
         13    1    5    5    0    0 -0.10886504917E+03 -0.13517638303E+02  0.59524553659E+03  0.60526983595E+03  0.00000000000E+00 0.  1.
        -13    1    5    5    0    0 -0.95311050030E+01  0.28885026386E+02  0.41480354507E+03  0.41591726066E+03  0.00000000000E+00 0. -1.
          1    1    6    6  503    0  0.13906546698E+03  0.17516709764E+02 -0.48164381293E+02  0.14820879478E+03  0.00000000000E+00 0. -1.
         -1    1    6    6    0  503  0.22180452698E+03  0.10362377444E+03  0.10307617380E+02  0.24503342995E+03  0.00000000000E+00 0.  1.
<mgrwt>
<rscale>  0 0.14197479E+04</rscale>
<asrwt>0</asrwt>
<pdfrwt beam="1">  1        2 0.20385409E+00 0.14197479E+04</pdfrwt>
<pdfrwt beam="2">  1       -1 0.58508146E-01 0.14197479E+04</pdfrwt>
<totfact> 0.52421669E+01</totfact>
</mgrwt>
</event>
<event>
12    7  0.1605494E-007  0.2269294E+04  0.7818608E-02  0.8490127E-01
         -1   -1    0    0    0  501 -0.00000000000E+00  0.00000000000E+00  0.36610311388E+03  0.36610311388E+03  0.00000000000E+00 0.  1.
          2   -1    0    0  501    0  0.00000000000E+00 -0.00000000000E+00 -0.35165615566E+04  0.35165615566E+04  0.00000000000E+00 0. -1.
         24    2    1    2    0    0  0.21667895950E+03  0.91216050958E+03 -0.10125613524E+04  0.13822446359E+04  0.79581243534E+02 0.  0.
        254    2    1    2    0    0 -0.21667895950E+03 -0.91216050958E+03 -0.21378970904E+04  0.25004200346E+04  0.89582912094E+03 0.  0.
         23    2    4    4    0    0 -0.19066652217E+03 -0.93848047544E+03 -0.21904913792E+04  0.23925394551E+04  0.94303957639E+02 0.  0.
         23    2    4    4    0    0 -0.26012437332E+02  0.26319965858E+02  0.52594288834E+02  0.10788057954E+03  0.86617969991E+02 0.  0.
          4    1    3    3  502    0  0.46460412682E+02  0.10975388969E+03 -0.10388915838E+03  0.15810579837E+03  0.00000000000E+00 0. -1.
         -3    1    3    3    0  502  0.17021854682E+03  0.80240661989E+03 -0.90867219401E+03  0.12241388375E+04  0.00000000000E+00 0.  1.
         13    1    5    5    0    0 -0.40559555612E+02 -0.41902858669E+03 -0.10007220388E+04  0.10856678281E+04  0.00000000000E+00 0.  1.
        -13    1    5    5    0    0 -0.15010696656E+03 -0.51945188875E+03 -0.11897693404E+04  0.13068716270E+04  0.00000000000E+00 0. -1.
          3    1    6    6  503    0  0.17507414382E+02  0.11106544521E+02  0.57875118043E+02  0.61476777551E+02  0.00000000000E+00 0. -1.
         -3    1    6    6    0  503 -0.43519851713E+02  0.15213421337E+02 -0.52808292096E+01  0.46403801989E+02  0.00000000000E+00 0.  1.
<mgrwt>
<rscale>  0 0.22692943E+04</rscale>
<asrwt>0</asrwt>
<pdfrwt beam="1">  1        2 0.54100948E+00 0.22692943E+04</pdfrwt>
<pdfrwt beam="2">  1       -1 0.56323555E-01 0.22692943E+04</pdfrwt>
<totfact> 0.26185933E+00</totfact>
</mgrwt>
</event>
<event>
12    7  0.1605494E-007  0.3156105E+04  0.7818608E-02  0.8200507E-01
         -1   -1    0    0    0  501 -0.00000000000E+00  0.00000000000E+00  0.78857273975E+03  0.78857273975E+03  0.00000000000E+00 0.  1.
          2   -1    0    0  501    0  0.00000000000E+00 -0.00000000000E+00 -0.31579210345E+04  0.31579210345E+04  0.00000000000E+00 0. -1.
         24    2    1    2    0    0 -0.13173965859E+04 -0.56089043798E+03 -0.13682366812E+04  0.19819595468E+04  0.77202210251E+02 0.  0.
        254    2    1    2    0    0  0.13173965859E+04  0.56089043798E+03 -0.10011116135E+04  0.19645342274E+04  0.89835317126E+03 0.  0.
         23    2    4    4    0    0  0.61233525532E+03 -0.11033830766E+03 -0.10351854617E+03  0.63731009901E+03  0.91208913228E+02 0.  0.
         23    2    4    4    0    0  0.70506133054E+03  0.67122874563E+03 -0.89759306730E+03  0.13272241284E+04  0.90504496272E+02 0.  0.
          2    1    3    3  502    0 -0.11500016745E+04 -0.51603312218E+03 -0.11939529285E+04  0.17361790316E+04  0.00000000000E+00 0. -1.
         -1    1    3    3    0  502 -0.16739491138E+03 -0.44857315793E+02 -0.17428375274E+03  0.24578051511E+03  0.00000000000E+00 0.  1.
         13    1    5    5    0    0  0.48553749076E+03 -0.63898926845E+02 -0.11071819136E+03  0.50208390303E+03  0.00000000000E+00 0.  1.
        -13    1    5    5    0    0  0.12679776455E+03 -0.46439380813E+02  0.71996451858E+01  0.13522619597E+03  0.00000000000E+00 0. -1.
          1    1    6    6  503    0  0.64174725717E+03  0.59020164144E+03 -0.83263777363E+03  0.12055966082E+04  0.00000000000E+00 0. -1.
         -1    1    6    6    0  503  0.63314073367E+02  0.81027104194E+02 -0.64955293663E+02  0.12162752022E+03  0.00000000000E+00 0.  1.
<mgrwt>
<rscale>  0 0.31561055E+04</rscale>
<asrwt>0</asrwt>
<pdfrwt beam="1">  1        2 0.48583401E+00 0.31561055E+04</pdfrwt>
<pdfrwt beam="2">  1       -1 0.12131888E+00 0.31561055E+04</pdfrwt>
<totfact> 0.79827020E-01</totfact>
</mgrwt>
</event>
<event>
12    7  0.1605494E-007  0.2292093E+04  0.7818608E-02  0.8481045E-01
          2   -1    0    0  501    0  0.00000000000E+00  0.00000000000E+00  0.21630386739E+04  0.21630386739E+04  0.00000000000E+00 0. -1.
         -1   -1    0    0    0  501 -0.00000000000E+00 -0.00000000000E+00 -0.60721177697E+03  0.60721177697E+03  0.00000000000E+00 0.  1.
         24    2    1    2    0    0  0.91779149437E+03  0.29327619077E+03  0.56821842098E+03  0.11214110600E+04  0.79614321779E+02 0.  0.
        254    2    1    2    0    0 -0.91779149437E+03 -0.29327619077E+03  0.98760847592E+03  0.16488393909E+04  0.90274508252E+03 0.  0.
         23    2    4    4    0    0 -0.78034603315E+03 -0.51821066611E+03  0.45014201326E+03  0.10431541538E+04  0.89780457455E+02 0.  0.
         23    2    4    4    0    0 -0.13744546122E+03  0.22493447534E+03  0.53746646266E+03  0.60568523710E+03  0.92182617405E+02 0.  0.
          2    1    3    3  502    0  0.25962680377E+03  0.61035110385E+02  0.19113018147E+03  0.32811904578E+03  0.00000000000E+00 0. -1.
         -1    1    3    3    0  502  0.65816469060E+03  0.23224108039E+03  0.37708823951E+03  0.79329201417E+03  0.00000000000E+00 0.  1.
         13    1    5    5    0    0 -0.24103542975E+03 -0.11994464540E+03  0.10374818388E+03  0.28852813036E+03  0.00000000000E+00 0. -1.
        -13    1    5    5    0    0 -0.53931060340E+03 -0.39826602071E+03  0.34639382938E+03  0.75462602342E+03  0.00000000000E+00 0.  1.
          3    1    6    6  503    0 -0.55878790629E+02  0.14537700163E+03  0.38529978034E+03  0.41558733448E+03  0.00000000000E+00 0. -1.
         -3    1    6    6    0  503 -0.81566670596E+02  0.79557473708E+02  0.15216668232E+03  0.19009790262E+03  0.00000000000E+00 0.  1.
<mgrwt>
<rscale>  0 0.22920930E+04</rscale>
<asrwt>0</asrwt>
<pdfrwt beam="1">  1        2 0.33277518E+00 0.22920930E+04</pdfrwt>
<pdfrwt beam="2">  1       -1 0.93417198E-01 0.22920930E+04</pdfrwt>
<totfact> 0.62171113E+00</totfact>
</mgrwt>
</event>
<event>
12    7  0.1605494E-007  0.2822408E+04  0.7818608E-02  0.8296345E-01
          2   -1    0    0  501    0  0.00000000000E+00  0.00000000000E+00  0.10276946760E+04  0.10276946760E+04  0.00000000000E+00 0. -1.
         -1   -1    0    0    0  501 -0.00000000000E+00 -0.00000000000E+00 -0.19378290501E+04  0.19378290501E+04  0.00000000000E+00 0.  1.
         24    2    1    2    0    0  0.60871116667E+02  0.99792932084E+03  0.40510971210E+03  0.10815054718E+04  0.77278615350E+02 0.  0.
        254    2    1    2    0    0 -0.60871116667E+02 -0.99792932084E+03 -0.13152440863E+04  0.18840182543E+04  0.90558796040E+03 0.  0.
         23    2    4    4    0    0 -0.11610980405E+03 -0.10087388930E+04 -0.64749893082E+03  0.12077642880E+04  0.91673709784E+02 0.  0.
         23    2    4    4    0    0  0.55238687386E+02  0.10809572146E+02 -0.66774515545E+03  0.67625396638E+03  0.90926756149E+02 0.  0.
          4    1    3    3  502    0  0.63447205844E+02  0.97513784438E+03  0.38278176219E+03  0.10494957079E+04  0.00000000000E+00 0. -1.
         -3    1    3    3    0  502 -0.25760891773E+01  0.22791476458E+02  0.22327949906E+02  0.32009763848E+02  0.00000000000E+00 0.  1.
         13    1    5    5    0    0 -0.13089326887E+03 -0.91529805840E+03 -0.59596708547E+03  0.11000365224E+04  0.00000000000E+00 0.  1.
        -13    1    5    5    0    0  0.14783464814E+02 -0.93440834587E+02 -0.51531845348E+02  0.10772776562E+03  0.00000000000E+00 0. -1.
          4    1    6    6  503    0  0.16421294469E+02 -0.27905721216E+02 -0.46808792463E+03  0.46920645069E+03  0.00000000000E+00 0. -1.
         -4    1    6    6    0  503  0.38817392917E+02  0.38715293362E+02 -0.19965723082E+03  0.20704751568E+03  0.00000000000E+00 0.  1.
<mgrwt>
<rscale>  0 0.28224079E+04</rscale>
<asrwt>0</asrwt>
<pdfrwt beam="1">  1        2 0.15810687E+00 0.28224079E+04</pdfrwt>
<pdfrwt beam="2">  1       -1 0.29812754E+00 0.28224079E+04</pdfrwt>
<totfact> 0.81291470E-01</totfact>
</mgrwt>
</event>
<event>
12    7  0.1605494E-007  0.1265406E+04  0.7818608E-02  0.9057457E-01
          2   -1    0    0  501    0  0.00000000000E+00  0.00000000000E+00  0.56909307209E+03  0.56909307209E+03  0.00000000000E+00 0. -1.
         -1   -1    0    0    0  501 -0.00000000000E+00 -0.00000000000E+00 -0.70342287463E+03  0.70342287463E+03  0.00000000000E+00 0.  1.
         24    2    1    2    0    0  0.20191519134E+02 -0.98241563727E+02 -0.32308134074E+03  0.34731398093E+03  0.78653330047E+02 0.  0.
        254    2    1    2    0    0 -0.20191519134E+02  0.98241563727E+02  0.18875153820E+03  0.92520196579E+03  0.90017355663E+03 0.  0.
         23    2    4    4    0    0  0.35283789877E+03  0.29183202585E+03  0.16444902584E+03  0.49425920657E+03  0.87110085831E+02 0.  0.
         23    2    4    4    0    0 -0.37302941791E+03 -0.19359046212E+03  0.24302512361E+02  0.43094275923E+03  0.92156584009E+02 0.  0.
          4    1    3    3  502    0  0.32320863898E+01  0.10094226195E+02 -0.68738577191E+01  0.12632881890E+02  0.00000000000E+00 0. -1.
         -3    1    3    3    0  502  0.16959432744E+02 -0.10833578992E+03 -0.31620748302E+03  0.33468109904E+03  0.00000000000E+00 0.  1.
         13    1    5    5    0    0  0.26591577559E+03  0.22810389832E+03  0.16314651043E+03  0.38647040249E+03  0.00000000000E+00 0.  1.
        -13    1    5    5    0    0  0.86922123186E+02  0.63728127526E+02  0.13025154068E+01  0.10778880407E+03  0.00000000000E+00 0. -1.
          1    1    6    6  503    0 -0.22256471230E+03 -0.93306285348E+02  0.55035364861E+02  0.24752778719E+03  0.00000000000E+00 0. -1.
         -1    1    6    6    0  503 -0.15046470561E+03 -0.10028417677E+03 -0.30732852500E+02  0.18341497204E+03  0.00000000000E+00 0.  1.
<mgrwt>
<rscale>  0 0.12654060E+04</rscale>
<asrwt>0</asrwt>
<pdfrwt beam="1">  1        2 0.87552780E-01 0.12654060E+04</pdfrwt>
<pdfrwt beam="2">  1       -1 0.10821890E+00 0.12654060E+04</pdfrwt>
<totfact> 0.47106628E+01</totfact>
</mgrwt>
</event>
<event>
12    7  0.1605494E-007  0.1226330E+04  0.7818608E-02  0.9090117E-01
          2   -1    0    0  501    0  0.00000000000E+00  0.00000000000E+00  0.35217807860E+03  0.35217807860E+03  0.00000000000E+00 0. -1.
         -1   -1    0    0    0  501 -0.00000000000E+00 -0.00000000000E+00 -0.10675600521E+04  0.10675600521E+04  0.00000000000E+00 0.  1.
         24    2    1    2    0    0  0.10567786397E+03 -0.18227899729E+03 -0.36944531802E+03  0.43258908390E+03  0.79057123109E+02 0.  0.
        254    2    1    2    0    0 -0.10567786397E+03  0.18227899729E+03 -0.34593665549E+03  0.98714904681E+03  0.90022087691E+03 0.  0.
         23    2    4    4    0    0 -0.29116573889E+03  0.19504731776E+03  0.19230114604E+03  0.41000342547E+03  0.91116049409E+02 0.  0.
         23    2    4    4    0    0  0.18548787492E+03 -0.12768320468E+02 -0.53823780154E+03  0.57714562134E+03  0.93959328871E+02 0.  0.
          2    1    3    3  502    0  0.51951971681E+02 -0.41620103270E+02 -0.65480330164E+02  0.93375125147E+02  0.00000000000E+00 0. -1.
         -1    1    3    3    0  502  0.53725892288E+02 -0.14065889402E+03 -0.30396498786E+03  0.33921395875E+03  0.00000000000E+00 0.  1.
         13    1    5    5    0    0 -0.11821100204E+02  0.41598698986E+02  0.26832173481E+02  0.50893572296E+02  0.00000000000E+00 0.  1.
        -13    1    5    5    0    0 -0.27934463869E+03  0.15344861877E+03  0.16546897256E+03  0.35910985318E+03  0.00000000000E+00 0. -1.
          2    1    6    6  503    0  0.16697054639E+00  0.58982648323E+01  0.15711609345E+01  0.61062225539E+01  0.00000000000E+00 0.  1.
         -2    1    6    6    0  503  0.18532090438E+03 -0.18666585300E+02 -0.53980896247E+03  0.57103939879E+03  0.00000000000E+00 0. -1.
<mgrwt>
<rscale>  0 0.12263299E+04</rscale>
<asrwt>0</asrwt>
<pdfrwt beam="1">  1        2 0.54181244E-01 0.12263299E+04</pdfrwt>
<pdfrwt beam="2">  1       -1 0.16424001E+00 0.12263299E+04</pdfrwt>
<totfact> 0.28104112E+01</totfact>
</mgrwt>
</event>
